Membrane in water
40344
    1TMC1    C1    1   0.022   0.870  11.625  0.5117  0.0748  0.1432
    1TMC1    C2    2   0.128   0.805  11.574  0.1772  0.2718  0.5460
    1TMC1    C3    3   0.158   0.846  11.451  0.0201  0.2449 -0.2803
    1TMC1    C4    4   4.676   0.956  11.557 -0.5296 -0.6857  0.3877
    1TMC1    C5    5   4.718   0.985  11.429 -0.1338 -0.6251 -0.3695
    1TMC1    C6    6   0.092   0.933  11.373  0.1823 -0.1283  0.1295
    1TMC1     C    7   4.710   0.845  11.761  0.5380 -0.1624  0.3620
    1TMC1     O    8   4.640   0.927  11.813  0.2826 -0.5379  0.1292
    1TMC1     H    9   0.190   0.734  11.627 -1.1378 -1.5710 -0.3833
    1TMC1    H1   10   4.589   1.003  11.602  0.4598  2.4183 -0.9047
    1TMC1    H2   11   0.103   0.927  11.266 -0.2812  0.2867  0.0551
    1TMC1    C7   12   4.631   1.048  11.337  0.4804  0.4985  0.0154
    1TMC1    C8   13   0.281   0.787  11.398  0.0540 -0.4260  0.2731
    1TMC1    O1   14   4.617   1.016  11.218 -0.1769 -0.4762 -0.6889
    1TMC1    O2   15   0.325   0.674  11.416 -0.1488 -0.3308  0.3469
    1TMC1    O3   16   4.562   1.139  11.401 -0.1447 -0.4417  0.0219
    1TMC1    H3   17   4.600   1.172  11.485 -0.3762  1.1176 -0.4820
    1TMC1    O5   18   0.332   0.884  11.323 -0.1359 -0.3430 -0.8312
    1TMC1    H5   19   0.297   0.970  11.354  1.1175 -0.4016  0.7656
    2MPD2     C   20   4.678   0.499  12.140 -0.0005 -0.0942 -0.0515
    2MPD2    C1   21   4.624   0.630  12.134  0.1161  0.4276  0.3533
    2MPD2    C2   22   4.648   0.705  12.022 -0.1262  0.4600 -0.7028
    2MPD2    C3   23   4.733   0.656  11.928 -0.3197 -0.3301 -0.1159
    2MPD2    C4   24   0.055   0.530  11.939  0.0871  0.3095 -0.0394
    2MPD2    C5   25   0.018   0.446  12.042  0.0865  0.6996  0.3100
    2MPD2     H   26   4.601   0.803  12.020  1.6507  1.2932 -1.1150
    2MPD2    H1   27   0.111   0.481  11.860  0.8159  0.5865  0.3117
    2MPD2    H2   28   4.643   0.433  12.219  0.6738 -0.9114 -0.4365
    2MPD2    H3   29   0.051   0.344  12.057  2.0452  1.4198  0.9188
    2MPD2     N   30   0.030   0.725  11.808  0.5217 -0.4084 -0.3010
    2MPD2    H5   31   0.102   0.686  11.749  1.0039  0.6268 -0.4058
    2MPD2    N1   32   4.523   0.682  12.223  0.2818 -0.6462 -0.3750
    2MPD2    H7   33   4.481   0.772  12.203  1.4742  0.1415  0.6488
    3TMC1    C1   34   3.676   1.439  11.000 -0.3096 -0.4280 -0.2059
    3TMC1    C2   35   3.778   1.522  10.968  0.7095  0.5781  0.1342
    3TMC1    C3   36   3.892   1.465  10.928  0.0440  0.5898 -0.1610
    3TMC1    C4   37   3.690   1.303  10.985 -0.0822  0.0651 -0.3587
    3TMC1    C5   38   3.804   1.255  10.936  0.5704 -0.4444 -0.0757
    3TMC1    C6   39   3.910   1.331  10.916  0.1401 -1.3641  0.0059
    3TMC1     C   40   3.544   1.480  10.985  0.3254 -0.5967 -0.7962
    3TMC1     O   41   3.466   1.391  10.959 -0.6284  0.7386  0.4123
    3TMC1     H   42   3.769   1.628  10.988 -0.4008  0.3687  0.7914
    3TMC1    H1   43   3.612   1.232  11.008 -0.6701  0.5861 -0.7538
    3TMC1    H2   44   4.006   1.291  10.885  0.9165  0.5453 -0.0390
    3TMC1    C7   45   3.835   1.115  10.956  0.2202 -0.3198 -0.2189
    3TMC1    C8   46   4.008   1.532  10.977 -0.0911  0.3799 -0.0895
    3TMC1    O1   47   3.771   1.047  11.038 -0.5591 -0.3400 -0.2697
    3TMC1    O2   48   4.091   1.582  10.900 -0.4338 -0.4008 -0.4288
    3TMC1    O3   49   3.840   1.065  10.831 -0.0572 -0.0540 -0.1774
    3TMC1    H3   50   3.886   1.131  10.776 -0.6107 -0.1149 -0.7190
    3TMC1    O5   51   4.043   1.444  11.072  0.2040 -0.8936  0.6158
    3TMC1    H5   52   3.973   1.399  11.123 -0.8385 -1.3704 -1.2042
    4MPD2     C   53   3.152   1.823  11.045 -0.0934  0.9827 -0.2811
    4MPD2    C1   54   3.271   1.894  11.058  0.9512 -0.1070 -0.5341
    4MPD2    C2   55   3.393   1.827  11.037  0.5136  0.0620  0.3872
    4MPD2    C3   56   3.401   1.689  11.005 -0.2283 -0.2803 -0.1621
    4MPD2    C4   57   3.276   1.629  10.975 -0.6574 -0.2688  0.1100
    4MPD2    C5   58   3.159   1.689  11.002 -0.5007 -0.3622 -0.4960
    4MPD2     H   59   3.483   1.887  11.038 -0.8181  2.0856  0.0485
    4MPD2    H1   60   3.270   1.536  10.921 -1.6240 -1.4796  2.2943
    4MPD2    H2   61   3.055   1.866  11.063 -1.1752 -0.4689 -2.7047
    4MPD2    H3   62   3.065   1.636  10.986 -1.5648  0.8914  1.6156
    4MPD2     N   63   3.526   1.621  10.996  0.0449 -0.2932  0.1230
    4MPD2    H5   64   3.592   1.682  11.042 -0.2292  0.6436 -0.7257
    4MPD2    N1   65   3.269   2.034  11.082 -0.6466  0.0581  0.1351
    4MPD2    H7   66   3.360   2.077  11.098  0.1060 -0.2418 -3.3059
    5TCq1    O1   67   3.345   3.521  11.715  0.2130 -0.7212 -0.0109
    5TCq1    C1   68   3.243   3.469  11.652 -0.6034  0.2543 -0.7796
    5TCq1    O2   69   3.169   3.383  11.705  0.1066  0.3431 -0.1823
    5TCq1    C2   70   3.198   3.570  11.552 -0.2747  0.2132 -0.6732
    5TCq1    C3   71   3.062   3.602  11.547  0.3734 -1.1008  0.2348
    5TCq1    C4   72   3.029   3.699  11.452 -0.4436 -0.4279  0.1973
    5TCq1    C5   73   3.125   3.756  11.378  0.5481 -0.2358 -0.2788
    5TCq1    C6   74   3.259   3.723  11.391  0.1711 -0.0036 -0.4995
    5TCq1    C7   75   3.301   3.624  11.483  0.5319  0.0826  0.4240
    5TCq1    C8   76   3.354   3.762  11.291  0.5686  0.5077 -0.0824
    5TCq1    O4   77   3.323   3.858  11.220  0.2977  0.6990  0.2163
    5TCq1    C9   78   2.892   3.748  11.450 -0.6094  0.3576 -0.6193
    5TCq1    O5   79   2.809   3.690  11.529 -0.1445  0.1448 -0.1533
    5TCq1    O6   80   2.867   3.852  11.386 -0.2450 -0.8691  1.1324
    5TCq1    H1   81   3.390   3.602  11.682 -0.9182 -0.3191 -0.5723
    5TCq1    H2   82   2.986   3.565  11.615 -2.3541  1.4646 -1.4129
    5TCq1    H3   83   3.104   3.844  11.318  2.4502  0.5143  0.1323
    5TCq1    H4   84   3.402   3.585  11.483  0.2984 -0.5148 -0.8290
    6MPD2     C   85   3.600   3.803  11.112  0.1579 -0.1717  0.0967
    6MPD2    C1   86   3.545   3.681  11.150  0.0966  0.1743 -0.3335
    6MPD2    C2   87   3.611   3.564  11.113  0.1102 -0.2895 -0.7907
    6MPD2    C3   88   3.731   3.567  11.052  0.0864  0.1219 -0.0486
    6MPD2    C4   89   3.783   3.690  11.015  0.3472  0.1398 -0.4855
    6MPD2    C5   90   3.714   3.806  11.041 -0.6134 -1.4822  0.1567
    6MPD2     H   91   3.565   3.474  11.152 -0.7936  0.3839 -0.2839
    6MPD2    H1   92   3.878   3.692  10.963  1.5360  0.1000  1.6655
    6MPD2    H2   93   3.551   3.898  11.131  0.8051  0.5137 -1.6398
    6MPD2    H3   94   3.751   3.901  11.006 -0.6412 -1.3361  0.5243
    6MPD2     N   95   3.799   3.444  11.035 -0.6741  0.1323  0.4662
    6MPD2    H5   96   3.748   3.360  11.059 -0.3666 -0.9860 -2.7599
    6MPD2    N1   97   3.444   3.664  11.249  0.4124 -0.6111  0.1218
    6MPD2    H7   98   3.430   3.568  11.280  2.2320 -0.6637  0.7519
    7TCq1    O1   99   1.726   3.633  12.656  0.1327 -0.0912 -0.2475
    7TCq1    C1  100   1.768   3.602  12.532 -0.0029  0.5545 -0.3841
    7TCq1    O2  101   1.769   3.677  12.436  0.1327 -0.0733 -0.0418
    7TCq1    C2  102   1.767   3.455  12.510 -0.2783 -0.4032  0.2411
    7TCq1    C3  103   1.733   3.414  12.382  0.2343 -0.0487  0.6041
    7TCq1    C4  104   1.711   3.283  12.363  0.5512 -0.2701 -0.1624
    7TCq1    C5  105   1.733   3.191  12.469 -0.3036 -0.9987  0.5430
    7TCq1    C6  106   1.786   3.234  12.589  0.5341  0.3229 -0.7328
    7TCq1    C7  107   1.796   3.371  12.612  0.3605  1.0767  0.3666
    7TCq1    C8  108   1.779   3.137  12.694  0.3116 -0.4007  0.6118
    7TCq1    O4  109   1.801   3.018  12.674  0.1956 -0.6476  0.1689
    7TCq1    C9  110   1.641   3.256  12.240  0.0987  0.8438 -0.1677
    7TCq1    O5  111   1.604   3.138  12.223  0.1980  0.1116  0.2755
    7TCq1    O6  112   1.600   3.358  12.172 -0.2449  0.0556 -0.5004
    7TCq1    H1  113   1.723   3.549  12.706  0.7443  0.6022  0.9397
    7TCq1    H2  114   1.723   3.480  12.296  0.9580 -0.0077  0.5534
    7TCq1    H3  115   1.729   3.084  12.450 -2.1344 -0.9013  0.4165
    7TCq1    H4  116   1.834   3.406  12.708 -1.1469  0.9108  1.0107
    8MPD2     C  117   1.717   2.993  13.177 -0.1263 -0.0948  0.8005
    8MPD2    C1  118   1.771   2.927  13.074  0.5649  0.1374 -1.0602
    8MPD2    C2  119   1.796   2.998  12.955 -0.3144 -0.3484 -1.0184
    8MPD2    C3  120   1.743   3.122  12.939 -0.0332 -0.1717  0.5430
    8MPD2    C4  121   1.692   3.190  13.043 -0.4122  0.1407 -0.4922
    8MPD2    C5  122   1.689   3.124  13.164 -0.1686  0.3646  0.5935
    8MPD2     H  123   1.852   2.945  12.879 -0.9600 -2.7326  0.1689
    8MPD2    H1  124   1.660   3.293  13.040  0.6552  0.4359 -1.5022
    8MPD2    H2  125   1.706   2.948  13.275 -1.3194  0.8493  1.0986
    8MPD2    H3  126   1.660   3.168  13.259 -1.6338 -2.1648  1.3141
    8MPD2     N  127   1.737   3.194  12.814 -0.4222 -0.1379 -0.8167
    8MPD2    H5  128   1.709   3.291  12.821 -0.3637 -0.0817 -1.3157
    8MPD2    N1  129   1.820   2.795  13.106  0.1961  0.4326 -0.1656
    8MPD2    H7  130   1.807   2.771  13.204 -0.8695 -1.6356 -0.8050
    9TMC1    C1  131   4.229   1.840  11.144  0.1777 -0.6301 -0.4055
    9TMC1    C2  132   4.292   1.942  11.077  0.0440 -0.5472 -0.3827
    9TMC1    C3  133   4.402   1.911  10.999  0.5887  0.3090  0.1313
    9TMC1    C4  134   4.274   1.706  11.137  0.2505  0.1779  0.4493
    9TMC1    C5  135   4.369   1.683  11.041  0.6537  0.7212 -0.7191
    9TMC1    C6  136   4.438   1.785  10.977  0.4908  0.0303  0.8123
    9TMC1     C  137   4.140   1.860  11.253  0.2776 -0.6605 -0.5266
    9TMC1     O  138   4.143   1.776  11.339  0.3470 -0.0651 -0.4067
    9TMC1     H  139   4.277   2.042  11.116  0.7582 -0.2551 -0.8541
    9TMC1    H1  140   4.213   1.623  11.172  2.5024 -1.5238  0.3478
    9TMC1    H2  141   4.500   1.765  10.890 -0.5216 -0.9960  0.3111
    9TMC1    C7  142   4.420   1.551  11.037  0.3306 -0.1493  0.0261
    9TMC1    C8  143   4.516   1.998  11.032  0.5940 -0.7154 -0.6115
    9TMC1    O1  144   4.537   1.524  11.011  1.2087  0.2812 -0.3885
    9TMC1    O2  145   4.489   2.103  11.088  0.8760 -0.1705  0.0533
    9TMC1    O3  146   4.315   1.471  11.005 -0.9976 -0.1608 -0.2531
    9TMC1    H3  147   4.227   1.512  11.012  0.1221  1.9518  1.6589
    9TMC1    O5  148   4.617   1.914  11.073  0.0240 -0.6277  0.0541
    9TMC1    H5  149   4.638   1.839  11.013 -0.7584 -1.6060  0.9938
   10MPD2     C  150   3.947   2.157  11.381 -0.6446 -0.2650  0.4082
   10MPD2    C1  151   3.999   2.028  11.378 -0.4318 -0.5080 -0.3938
   10MPD2    C2  152   3.959   1.937  11.475  0.3524 -0.2918 -0.6390
   10MPD2    C3  153   3.889   1.988  11.582 -0.4899 -0.1426 -0.1458
   10MPD2    C4  154   3.858   2.120  11.600 -0.1305 -0.2475  0.3242
   10MPD2    C5  155   3.875   2.206  11.490 -0.2309  0.1576  0.8067
   10MPD2     H  156   3.977   1.830  11.477 -0.9442 -0.5146 -1.3061
   10MPD2    H1  157   3.812   2.146  11.695  3.2037  0.8332  1.6230
   10MPD2    H2  158   3.969   2.220  11.296 -0.9295 -0.5588  0.1211
   10MPD2    H3  159   3.836   2.307  11.497 -0.5720  0.0831 -0.0488
   10MPD2     N  160   3.849   1.905  11.684  0.1540 -0.6284 -0.3672
   10MPD2    H5  161   3.846   1.958  11.771  1.7791 -0.3630 -0.4608
   10MPD2    N1  162   4.079   1.985  11.263 -0.1580  0.0746  0.9322
   10MPD2    H7  163   4.098   2.055  11.192 -0.5784 -2.2120 -1.4825
   11TCq1    O1  164   0.387   2.488  14.022 -0.0558  0.8676 -0.4760
   11TCq1    C1  165   0.289   2.405  13.990  0.1508 -0.3620  0.1008
   11TCq1    O2  166   0.210   2.361  14.069  0.1333  0.7243 -0.0627
   11TCq1    C2  167   0.321   2.355  13.862  0.3526 -0.1116 -0.0490
   11TCq1    C3  168   0.440   2.285  13.838  0.1056  0.1105 -0.6375
   11TCq1    C4  169   0.452   2.173  13.759 -0.1471 -0.1983 -0.3422
   11TCq1    C5  170   0.342   2.130  13.692 -0.7839  0.2727 -0.5684
   11TCq1    C6  171   0.221   2.193  13.720 -0.7339 -0.6935  0.2929
   11TCq1    C7  172   0.207   2.302  13.806 -0.3435  0.5602 -0.6072
   11TCq1    C8  173   0.098   2.113  13.705  0.6444 -0.5102  0.0394
   11TCq1    O4  174   4.733   2.154  13.762 -0.0870 -0.1460  0.4834
   11TCq1    C9  175   0.579   2.104  13.736  0.6002  0.1162 -0.2005
   11TCq1    O5  176   0.674   2.115  13.819  0.5296  0.0298  0.0548
   11TCq1    O6  177   0.577   2.008  13.652  0.2873 -0.6939  0.1679
   11TCq1    H1  178   0.424   2.532  13.943 -0.8705 -0.1386 -1.4196
   11TCq1    H2  179   0.533   2.310  13.889  2.6247 -2.5276 -3.8883
   11TCq1    H3  180   0.348   2.059  13.610 -1.6496  0.1329 -0.5185
   11TCq1    H4  181   0.112   2.333  13.851  0.5084 -1.0113  2.2703
   12MPD2     C  182   4.620   1.930  13.603 -0.2348 -0.1137  0.0282
   12MPD2    C1  183   0.021   1.897  13.599  0.3560  0.3137  0.4547
   12MPD2    C2  184   0.065   1.784  13.529  0.1956  1.0163  0.7048
   12MPD2    C3  185   4.707   1.696  13.482  0.3276 -0.0781 -0.2707
   12MPD2    C4  186   4.572   1.727  13.489  0.5286 -0.8813 -0.6700
   12MPD2    C5  187   4.532   1.843  13.547  0.0894 -0.5215  0.0931
   12MPD2     H  188   0.170   1.757  13.529  0.0161  0.2886  2.2876
   12MPD2    H1  189   4.491   1.669  13.447  0.7330 -2.7990  1.5655
   12MPD2    H2  190   4.585   2.023  13.646 -0.1439  0.5389 -1.3183
   12MPD2    H3  191   4.428   1.870  13.532  0.3360 -0.2364 -1.1665
   12MPD2     N  192   0.014   1.573  13.422  0.1380 -0.4281 -0.7884
   12MPD2    H5  193   4.672   1.515  13.392  0.2644 -1.9884  1.8569
   12MPD2    N1  194   0.125   1.990  13.637 -0.2705 -0.8629  0.2916
   12MPD2    H7  195   0.224   1.969  13.624 -0.8316 -2.2825 -1.7030
   13TCq1    O1  196   4.331   2.189  11.884 -0.3370  0.4225 -0.1396
   13TCq1    C1  197   4.258   2.080  11.841  0.5019 -0.9747 -0.1476
   13TCq1    O2  198   4.137   2.073  11.838 -0.3676  0.9509  0.7343
   13TCq1    C2  199   4.346   1.971  11.814 -0.4897 -0.5821 -0.5346
   13TCq1    C3  200   4.475   1.996  11.782  0.1029  0.2205 -0.9093
   13TCq1    C4  201   4.552   1.889  11.740  0.3996  0.3080 -0.1379
   13TCq1    C5  202   4.507   1.758  11.744  0.8611 -0.2195  0.2289
   13TCq1    C6  203   4.372   1.739  11.780 -0.4570 -0.0832 -0.1119
   13TCq1    C7  204   4.291   1.845  11.815  0.0821  0.5127  0.2088
   13TCq1    C8  205   4.308   1.620  11.733  0.0328 -0.5816  0.3018
   13TCq1    O4  206   4.210   1.567  11.784 -0.0249  0.0491  0.1054
   13TCq1    C9  207   4.694   1.909  11.720 -0.2946  0.2354  0.2308
   13TCq1    O5  208   4.732   2.026  11.690 -0.1220 -0.4470  0.0935
   13TCq1    O6  209   0.033   1.813  11.705 -0.5481 -0.1012  0.0102
   13TCq1    H1  210   4.427   2.167  11.889 -0.2844  0.8585  1.0024
   13TCq1    H2  211   4.520   2.094  11.789  1.2021 -0.4645  1.2691
   13TCq1    H3  212   4.576   1.674  11.733  0.8747  0.0485 -1.6961
   13TCq1    H4  213   4.184   1.836  11.829  0.3953 -1.2521  1.5944
   14MPD2     C  214   4.368   1.464  11.398 -0.1019 -0.6700  0.3337
   14MPD2    C1  215   4.299   1.499  11.512  0.0686  0.1967  0.1038
   14MPD2    C2  216   4.172   1.439  11.532  0.4205 -0.6209 -0.6298
   14MPD2    C3  217   4.117   1.364  11.432  0.9499  0.6757 -0.1852
   14MPD2    C4  218   4.183   1.324  11.318  0.0430 -0.5022  0.9723
   14MPD2    C5  219   4.312   1.374  11.310  0.0305 -0.4351  0.5575
   14MPD2     H  220   4.111   1.460  11.619  1.3832 -0.7273  0.0672
   14MPD2    H1  221   4.144   1.256  11.243 -0.2890  0.9282 -0.1462
   14MPD2    H2  222   4.471   1.487  11.372 -0.1133 -0.4155  0.5147
   14MPD2    H3  223   4.369   1.326  11.231  0.5179 -0.7906  1.1261
   14MPD2     N  224   3.984   1.323  11.462 -0.5890  0.4760  0.0379
   14MPD2    H5  225   3.947   1.333  11.556 -0.3141  0.6572  0.1239
   14MPD2    N1  226   4.361   1.583  11.609 -0.8077 -0.5727  0.0919
   14MPD2    H7  227   4.448   1.627  11.582 -0.2909 -1.8208 -0.2492
   15TCq1    O1  228   1.707   0.604   1.897  0.2963  0.4585 -0.3211
   15TCq1    C1  229   1.748   0.726   1.869  0.0529 -0.6762  0.0384
   15TCq1    O2  230   1.800   0.795   1.957 -0.1667  0.2417 -0.0146
   15TCq1    C2  231   1.659   0.776   1.770  0.2944  0.1069  0.4053
   15TCq1    C3  232   1.571   0.871   1.810  0.8347  0.8462  0.2443
   15TCq1    C4  233   1.458   0.888   1.728  0.3946 -0.2186  0.9220
   15TCq1    C5  234   1.445   0.821   1.612 -0.6100  0.0356 -0.9251
   15TCq1    C6  235   1.535   0.723   1.575  0.4959  0.2028 -0.6863
   15TCq1    C7  236   1.646   0.708   1.652  0.9309  0.0308 -0.8093
   15TCq1    C8  237   1.505   0.628   1.473 -0.1877  0.0961 -0.3951
   15TCq1    O4  238   1.599   0.565   1.426  0.0508  0.1182 -0.1313
   15TCq1    C9  239   1.354   0.982   1.763 -1.1491 -0.1330  0.4139
   15TCq1    O5  240   1.369   1.071   1.856 -0.0486 -0.0449  0.2906
   15TCq1    O6  241   1.252   0.974   1.697  0.1945  0.4515  0.1742
   15TCq1    H1  242   1.651   0.563   1.828  2.2461 -1.9550 -0.4745
   15TCq1    H2  243   1.593   0.926   1.901  1.0105  1.9904 -0.4804
   15TCq1    H3  244   1.362   0.835   1.543 -1.0563 -0.4627 -0.4985
   15TCq1    H4  245   1.711   0.622   1.638  0.7044 -0.1818 -0.5558
   16MPD2     C  246   1.173   0.537   1.358  0.3089 -0.6775 -0.9142
   16MPD2    C1  247   1.306   0.533   1.350  0.8526 -0.1455 -0.2241
   16MPD2    C2  248   1.377   0.461   1.255 -0.4022  0.5458  0.1484
   16MPD2    C3  249   1.305   0.381   1.178 -0.8475 -0.1666  0.0916
   16MPD2    C4  250   1.165   0.378   1.195 -0.1262 -0.6842  0.2735
   16MPD2    C5  251   1.100   0.465   1.274  0.2271  0.1693 -0.1833
   16MPD2     H  252   1.485   0.466   1.255 -0.3613 -0.5533  1.9091
   16MPD2    H1  253   1.100   0.321   1.131 -0.1849  1.3437 -1.4782
   16MPD2    H2  254   1.122   0.603   1.428  2.8602 -0.2639  0.5641
   16MPD2    H3  255   0.992   0.465   1.274  0.2367  0.0385  3.0324
   16MPD2     N  256   1.372   0.307   1.075  0.3345 -0.1331 -0.1930
   16MPD2    H5  257   1.473   0.298   1.080  0.4626  1.9491  1.2248
   16MPD2    N1  258   1.373   0.622   1.445  0.2049 -0.0380 -0.0589
   16MPD2    H7  259   1.301   0.658   1.507 -0.5162 -0.8807 -0.3930
   17TMC1    C1  260   4.126   0.791  10.794  0.1156 -0.2071 -0.4155
   17TMC1    C2  261   4.200   0.734  10.897 -0.6257 -0.1398  0.1373
   17TMC1    C3  262   4.136   0.672  11.005 -0.1669  0.2026  0.0380
   17TMC1    C4  263   3.991   0.795  10.799 -0.6356  0.4807 -0.2076
   17TMC1    C5  264   3.931   0.726  10.901 -0.2353  0.0459  0.5995
   17TMC1    C6  265   3.997   0.670  11.012  0.1328  0.4714  0.7350
   17TMC1     C  266   4.183   0.862  10.677 -0.3960  0.4240 -0.3404
   17TMC1     O  267   4.107   0.945  10.620  0.3990  0.1380 -0.5109
   17TMC1     H  268   4.305   0.752  10.919 -0.9707  2.3161 -0.1968
   17TMC1    H1  269   3.941   0.833  10.710 -0.9075 -2.8642 -1.4612
   17TMC1    H2  270   3.939   0.617  11.086  2.8082 -0.0597  2.4796
   17TMC1    C7  271   3.789   0.703  10.905 -0.4550 -0.0871 -0.1119
   17TMC1    C8  272   4.210   0.596  11.102 -0.6785 -0.2843 -0.3135
   17TMC1    O1  273   3.737   0.600  10.945 -0.5859 -0.0204  0.1982
   17TMC1    O2  274   4.164   0.570  11.209  0.4779  0.8182 -0.1941
   17TMC1    O3  275   3.725   0.818  10.873  0.0080 -0.7327 -0.1538
   17TMC1    H3  276   3.780   0.900  10.874 -0.1107 -0.6362 -1.9889
   17TMC1    O5  277   4.313   0.537  11.038 -0.5533 -0.2427  0.0689
   17TMC1    H5  278   4.322   0.556  10.942  0.0487  0.8304  0.3482
   18MPD2     C  279   4.356   1.032  10.505  0.2793 -0.6647  0.1656
   18MPD2    C1  280   4.403   0.914  10.570  0.3214 -0.3878 -0.4508
   18MPD2    C2  281   4.536   0.871  10.546  0.4697  0.4988  0.3995
   18MPD2    C3  282   4.609   0.936  10.454 -0.2040 -0.1724  0.0833
   18MPD2    C4  283   4.561   1.048  10.385  0.0432 -0.1728  0.4655
   18MPD2    C5  284   4.434   1.094  10.408  0.5179 -0.4709 -1.0670
   18MPD2     H  285   4.573   0.779  10.589  2.3325  2.1984  2.4290
   18MPD2    H1  286   4.622   1.099  10.310  0.9503  0.9550  1.9649
   18MPD2    H2  287   4.257   1.073  10.520  0.5297  0.2915 -0.7608
   18MPD2    H3  288   4.402   1.185  10.361  0.0321  1.1293  2.3312
   18MPD2     N  289   0.014   0.915  10.431 -0.0768 -0.7060 -0.2419
   18MPD2    H5  290   0.064   0.987  10.380  0.3153  0.1921  1.4040
   18MPD2    N1  291   4.319   0.844  10.661 -0.0117  0.5612 -0.5698
   18MPD2    H7  292   4.366   0.766  10.704 -3.3302 -0.9508  0.2935
   19TMC2    C1  293   1.082   2.144  14.154 -0.3119  0.7776 -0.3800
   19TMC2    C2  294   1.033   2.261  14.110 -0.1376  0.2758 -0.1205
   19TMC2    C3  295   0.905   2.258  14.055 -0.3459  0.5494 -0.0434
   19TMC2    C4  296   1.006   2.031  14.169  0.8950 -0.4419  0.4391
   19TMC2    C5  297   0.871   2.040  14.142 -0.0829 -0.3092  0.1109
   19TMC2    C6  298   0.821   2.150  14.077  0.2146  0.9107  0.1622
   19TMC2     C  299   1.221   2.143  14.173  0.0279 -0.2416  0.1343
   19TMC2     O  300   1.276   2.249  14.195  0.1496  0.1770  0.2462
   19TMC2     H  301   1.096   2.348  14.101 -1.0375  0.7173 -1.9419
   19TMC2    H1  302   1.045   1.936  14.204  2.8693  0.6307  1.1251
   19TMC2    H2  303   0.715   2.171  14.079  0.4461  1.9813  1.4863
   19TMC2    C7  304   0.790   1.918  14.153 -0.7062  0.0227 -0.7434
   19TMC2    C8  305   0.835   2.383  14.031  0.6404 -0.2596  0.0288
   19TMC2    O1  306   0.821   1.833  14.234 -0.3077 -0.4587 -0.0478
   19TMC2    O2  307   0.876   2.486  14.078  0.2293  0.1030 -0.3985
   19TMC2    O5  308   0.762   2.360  13.917 -0.4189 -0.0583 -0.6757
   19TMC2    H5  309   0.745   2.266  13.895 -1.0806 -0.1413  0.1806
   20MPD2     C  310   1.500   2.065  14.246  0.1791  0.1687  0.3977
   20MPD2    C1  311   1.406   1.978  14.195  0.4185  0.2074  0.5254
   20MPD2    C2  312   1.447   1.844  14.171 -0.2803 -0.9413 -0.2184
   20MPD2    C3  313   1.578   1.802  14.191  0.6113  0.1590 -0.0266
   20MPD2    C4  314   1.670   1.896  14.241  0.2828 -0.2159 -0.1547
   20MPD2    C5  315   1.630   2.025  14.272  0.2837 -0.3663  0.3303
   20MPD2     H  316   1.369   1.784  14.125 -0.2035 -1.6047  0.5208
   20MPD2    H1  317   1.775   1.876  14.264 -0.5041 -1.2248  2.5558
   20MPD2    H2  318   1.477   2.169  14.270 -1.1138  0.1556 -0.7985
   20MPD2    H3  319   1.705   2.089  14.316  0.6592 -0.5753 -0.0096
   20MPD2     N  320   1.623   1.664  14.179  0.0559 -0.1294  0.2973
   20MPD2    H5  321   1.720   1.641  14.196 -0.6038 -1.1277  2.7423
   20MPD2    N1  322   1.280   2.021  14.151 -0.3764 -0.5432 -0.0957
   20MPD2    H7  323   1.219   1.949  14.116  0.1375 -1.5820  1.1340
   21TMC2    C1  324   3.291   1.750  14.630 -0.0229  0.6957 -0.2025
   21TMC2    C2  325   3.356   1.649  14.694  0.5591  0.6703  0.5191
   21TMC2    C3  326   3.404   1.680  14.820 -0.4561 -0.2259  0.3836
   21TMC2    C4  327   3.263   1.863  14.691  0.0827  0.3010  0.0101
   21TMC2    C5  328   3.328   1.895  14.811  1.0483  0.9653  0.3676
   21TMC2    C6  329   3.416   1.805  14.872  0.1789 -0.2129  0.1339
   21TMC2     C  330   3.298   1.742  14.486 -0.1032  0.4549 -0.8936
   21TMC2     O  331   3.340   1.643  14.438 -0.2805  0.0051  0.3131
   21TMC2     H  332   3.361   1.549  14.652  0.4423  0.5071  0.8892
   21TMC2    H1  333   3.180   1.922  14.654 -0.3898 -1.2373 -1.3652
   21TMC2    H2  334   3.465   1.818  14.968  2.0506  0.6025 -0.9350
   21TMC2    C7  335   3.300   2.017  14.888  0.0623  0.4029  0.5706
   21TMC2    C8  336   3.472   1.581  14.896  0.3816 -0.4139 -0.7526
   21TMC2    O1  337   3.364   2.027  14.993 -0.3374 -0.2003  0.0485
   21TMC2    O2  338   3.579   1.607  14.946 -0.3087 -0.1045  0.2244
   21TMC2    O5  339   3.415   1.459  14.870  0.6353  0.1415  0.4510
   21TMC2    H5  340   3.323   1.468  14.837  0.6249 -1.6142 -0.0184
   22MPD2     C  341   3.227   1.909  13.999 -0.3900  0.1027  0.1389
   22MPD2    C1  342   3.314   1.818  14.053  0.1017 -0.0136 -0.0394
   22MPD2    C2  343   3.316   1.795  14.190  0.2034  0.0341  0.1049
   22MPD2    C3  344   3.253   1.882  14.280 -0.1767 -0.8251 -0.2672
   22MPD2    C4  345   3.170   1.976  14.226  0.8988 -0.4977  0.4697
   22MPD2    C5  346   3.151   1.984  14.091 -0.2422  0.2583 -0.5107
   22MPD2     H  347   3.387   1.724  14.230 -0.2911 -0.1889  0.5770
   22MPD2    H1  348   3.102   2.022  14.297 -0.7029 -3.2412  0.7276
   22MPD2    H2  349   3.218   1.927  13.892  2.4833  2.2723  0.2832
   22MPD2    H3  350   3.069   2.046  14.057  0.5853  1.7867  0.2945
   22MPD2     N  351   3.251   1.859  14.419 -0.3928  0.0848  0.1595
   22MPD2    H5  352   3.213   1.940  14.467 -0.3296 -1.2425  2.4714
   22MPD2    N1  353   3.400   1.739  13.982 -0.6703 -0.0405  0.7820
   22MPD2    H7  354   3.466   1.677  14.029  1.3718  0.3411 -1.5397
   23TMC2    C1  355   0.168   3.241  14.475  0.0368 -0.4985 -0.8665
   23TMC2    C2  356   0.220   3.332  14.386 -0.2089 -0.4691 -0.0829
   23TMC2    C3  357   0.194   3.303  14.259 -0.0056  0.5245 -0.0178
   23TMC2    C4  358   0.086   3.135  14.437 -1.2281  1.0583  0.2219
   23TMC2    C5  359   0.065   3.113  14.303 -0.6317 -0.8592 -0.0089
   23TMC2    C6  360   0.126   3.192  14.206  0.4910 -0.6532  0.5589
   23TMC2     C  361   0.201   3.249  14.616  0.1065  0.7940  0.3804
   23TMC2     O  362   0.182   3.142  14.671 -0.4516 -0.2827  0.5885
   23TMC2     H  363   0.307   3.394  14.407 -0.6549 -0.4188  1.5520
   23TMC2    H1  364   0.041   3.074  14.515  1.0178 -1.5347 -0.5575
   23TMC2    H2  365   0.114   3.168  14.102 -0.1147  1.3261  0.1656
   23TMC2    C7  366   4.681   3.025  14.269 -0.9376 -0.1937 -0.7734
   23TMC2    C8  367   0.240   3.394  14.155  0.1082 -0.5442 -0.2739
   23TMC2    O1  368   4.675   2.988  14.153  0.0693 -0.8431 -0.6604
   23TMC2    O2  369   0.261   3.355  14.044 -0.7897  0.0691 -0.0606
   23TMC2    O5  370   0.293   3.503  14.211  0.3949  0.6343 -0.1233
   23TMC2    H5  371   0.273   3.500  14.307  0.7862  0.2338 -0.0544
   24MPD2     C  372   0.411   3.469  15.031  0.2159  0.3052 -0.0406
   24MPD2    C1  373   0.353   3.341  15.016 -0.7075  0.5258  0.1779
   24MPD2    C2  374   0.312   3.303  14.887 -0.4195  0.6568 -0.2683
   24MPD2    C3  375   0.312   3.393  14.786  0.3937 -0.7376  0.2844
   24MPD2    C4  376   0.354   3.522  14.805 -0.1841  0.6806 -0.1872
   24MPD2    C5  377   0.406   3.559  14.929  0.1242  0.5301 -0.4673
   24MPD2     H  378   0.277   3.203  14.867  1.3276  0.1958 -1.0176
   24MPD2    H1  379   0.344   3.598  14.728  0.7009  0.1979 -0.7762
   24MPD2    H2  380   0.444   3.507  15.127  1.0499 -1.1903  0.2623
   24MPD2    H3  381   0.444   3.659  14.946 -2.1628  0.8732  2.4615
   24MPD2     N  382   0.255   3.372  14.662 -0.2476  0.8882  0.1429
   24MPD2    H5  383   0.237   3.454  14.604 -0.3352  2.3674  2.2849
   24MPD2    N1  384   0.374   3.250  15.122 -0.7291  0.2298  0.1816
   24MPD2    H7  385   0.361   3.152  15.099 -0.7357  0.4699 -0.8393
   25TMC2    C1  386   4.081   0.348  11.574  0.2142  0.0204 -0.2705
   25TMC2    C2  387   4.173   0.440  11.548  0.4061  0.1520  0.0352
   25TMC2    C3  388   4.208   0.530  11.648  0.4626 -0.4297  0.3086
   25TMC2    C4  389   4.025   0.342  11.701  0.1042  0.4966 -0.4311
   25TMC2    C5  390   4.055   0.435  11.791 -0.0548  1.1019  0.0648
   25TMC2    C6  391   4.157   0.523  11.774 -0.2229 -0.2750  0.2331
   25TMC2     C  392   4.063   0.241  11.482  0.1457 -0.3501 -0.0323
   25TMC2     O  393   4.171   0.209  11.429  0.4456 -0.0728 -0.0492
   25TMC2     H  394   4.199   0.449  11.443 -2.5262  0.1257 -0.7037
   25TMC2    H1  395   3.941   0.275  11.713 -0.3365  1.5242  2.3393
   25TMC2    H2  396   4.196   0.579  11.858  1.2812 -0.4307 -0.3527
   25TMC2    C7  397   4.006   0.424  11.928  0.1171  1.1037  0.5256
   25TMC2    C8  398   4.332   0.599  11.624  0.4042 -0.6676 -0.4987
   25TMC2    O1  399   3.887   0.429  11.951 -0.0820  0.0889 -0.5651
   25TMC2    O2  400   4.356   0.704  11.679 -0.1268 -0.3393  0.2913
   25TMC2    O5  401   4.416   0.506  11.576  0.3270  0.3342 -0.0508
   25TMC2    H5  402   4.386   0.412  11.575 -0.7403  0.6766 -0.9404
   26MPD2     C  403   3.802   4.616  11.240 -0.3910 -0.3089 -0.4884
   26MPD2    C1  404   3.710   4.700  11.301  0.6326  0.3018 -0.5285
   26MPD2    C2  405   3.760   0.060  11.385  0.8818  0.1973  0.2623
   26MPD2    C3  406   3.899   0.086  11.391 -0.3645  0.0939  0.6091
   26MPD2    C4  407   3.989   4.731  11.337  0.0044 -0.7093 -0.3856
   26MPD2    C5  408   3.932   4.631  11.260 -0.1483  0.5351 -0.2153
   26MPD2     H  409   3.686   0.127  11.427 -0.0806 -0.9122  0.3420
   26MPD2    H1  410   4.096   0.010  11.345  0.0808 -1.7540  0.6850
   26MPD2    H2  411   3.775   4.528  11.184 -1.0370  0.1682 -0.9186
   26MPD2    H3  412   4.005   4.563  11.218  0.4072  1.1088 -0.1911
   26MPD2     N  413   3.936   0.191  11.476 -0.6471  0.1731 -0.6433
   26MPD2    H5  414   3.870   0.258  11.515  0.5762  2.1824 -2.0431
   26MPD2    N1  415   3.571   4.675  11.279  0.2293 -0.0811 -0.1118
   26MPD2    H7  416   3.565   4.600  11.212 -2.0213  0.0139  0.0097
   27TMC2    C1  417   3.179   2.522  11.784  0.6589 -0.5491  0.5504
   27TMC2    C2  418   3.203   2.566  11.659 -0.1771 -0.6739  0.0050
   27TMC2    C3  419   3.292   2.670  11.653 -0.1383  0.1260 -0.0773
   27TMC2    C4  420   3.230   2.570  11.905 -0.5222 -0.0910 -0.6675
   27TMC2    C5  421   3.313   2.672  11.897  0.6093 -0.4752 -0.9013
   27TMC2    C6  422   3.356   2.719  11.773 -0.4772  0.3718 -0.1964
   27TMC2     C  423   3.077   2.423  11.792  0.3024  0.0637  0.6311
   27TMC2     O  424   3.081   2.335  11.707 -0.4828  0.3815  0.1263
   27TMC2     H  425   3.142   2.532  11.577  1.4563 -2.5316 -0.4226
   27TMC2    H1  426   3.221   2.519  12.000 -0.2778 -1.2304 -1.2592
   27TMC2    H2  427   3.438   2.789  11.768 -0.5281  0.4783  0.4438
   27TMC2    C7  428   3.367   2.732  12.021  0.6408 -0.3786 -0.5140
   27TMC2    C8  429   3.337   2.719  11.523 -0.2242  0.7494 -0.2656
   27TMC2    O1  430   3.482   2.782  12.007 -0.1646 -0.1114 -0.0417
   27TMC2    O2  431   3.361   2.636  11.437  0.5349 -0.1743  0.6650
   27TMC2    O5  432   3.391   2.842  11.537  0.4098 -0.4030 -0.0081
   27TMC2    H5  433   3.348   2.894  11.608 -0.4134 -1.7883  0.4944
   28MPD2     C  434   2.638   2.274  11.995  0.0420 -0.3498 -0.7113
   28MPD2    C1  435   2.658   2.403  12.028 -0.6684 -0.2603 -0.3826
   28MPD2    C2  436   2.780   2.455  11.993 -1.1851  0.2606  0.5261
   28MPD2    C3  437   2.874   2.380  11.929  0.0203 -0.4691  0.3220
   28MPD2    C4  438   2.861   2.248  11.910  0.2890  0.3714 -0.6103
   28MPD2    C5  439   2.740   2.195  11.948  0.6429  0.4228  0.5490
   28MPD2     H  440   2.801   2.560  12.009 -1.2292  0.0374  2.0259
   28MPD2    H1  441   2.930   2.182  11.859 -0.7665 -1.2487  0.0952
   28MPD2    H2  442   2.547   2.224  12.026  0.1451  0.4123  0.8365
   28MPD2    H3  443   2.716   2.092  11.926  0.1601  0.5923  0.2786
   28MPD2     N  444   2.989   2.456  11.895 -0.2698  0.5436 -0.2660
   28MPD2    H5  445   3.003   2.545  11.940 -0.2508  0.8850 -0.9487
   28MPD2    N1  446   2.561   2.472  12.109 -0.0494  0.6103 -0.0851
   28MPD2    H7  447   2.483   2.411  12.132  1.0538 -0.8222 -0.1268
   29TMC2    C1  448   2.244   0.412  14.179 -0.0040 -0.3842  0.0769
   29TMC2    C2  449   2.147   0.425  14.271 -0.3693  0.0585  0.5224
   29TMC2    C3  450   2.123   0.552  14.320 -1.1553  0.2994 -0.2469
   29TMC2    C4  451   2.326   0.517  14.147  0.6648  0.6087  0.4771
   29TMC2    C5  452   2.300   0.638  14.207  0.8699  0.1920 -0.6456
   29TMC2    C6  453   2.200   0.664  14.297  0.2529  0.4110  0.3333
   29TMC2     C  454   2.246   0.291  14.109  0.2993 -0.6069 -0.3835
   29TMC2     O  455   2.340   0.212  14.119  0.2822 -0.2308 -0.5290
   29TMC2     H  456   2.085   0.338  14.288  0.0992 -0.5034 -0.6168
   29TMC2    H1  457   2.416   0.505  14.087 -0.5444 -0.0449 -1.2178
   29TMC2    H2  458   2.180   0.768  14.320 -1.8775  0.2549 -0.8351
   29TMC2    C7  459   2.351   0.755  14.141 -0.5114  0.1138  0.8501
   29TMC2    C8  460   2.001   0.565  14.388  0.1145 -0.1994  0.1255
   29TMC2    O1  461   2.378   0.733  14.021  0.6192 -0.0837  0.2268
   29TMC2    O2  462   1.904   0.492  14.369 -0.1791 -0.2748 -0.5695
   29TMC2    O5  463   2.024   0.645  14.499 -0.5844 -0.0225 -0.5519
   29TMC2    H5  464   2.118   0.673  14.510 -0.8386  1.1336 -1.3340
   30MPD2     C  465   1.999   4.703  13.805  0.0540 -0.0977 -0.5433
   30MPD2    C1  466   2.121   4.685  13.874 -0.2131  0.5095 -0.5965
   30MPD2    C2  467   2.172   0.053  13.950  0.0963 -0.6647 -0.1113
   30MPD2    C3  468   2.098   0.166  13.957 -0.1617 -0.1528 -0.5578
   30MPD2    C4  469   1.987   0.187  13.889 -0.2879 -0.3328 -0.1927
   30MPD2    C5  470   1.930   0.084  13.810  0.4233  0.5124 -0.0207
   30MPD2     H  471   2.273   0.048  13.990  0.1584 -1.2762 -0.3299
   30MPD2    H1  472   1.921   0.273  13.886  0.5187  0.2241 -1.5459
   30MPD2    H2  473   1.958   4.621  13.748 -0.2339 -0.5793  0.3504
   30MPD2    H3  474   1.835   0.102  13.761 -0.0451  0.9854  1.0573
   30MPD2     N  475   2.127   0.276  14.040 -0.3084  0.1680 -0.4045
   30MPD2    H5  476   2.061   0.353  14.029 -0.0822  0.5323  0.7701
   30MPD2    N1  477   2.192   4.560  13.873 -0.3352  0.0506  0.0134
   30MPD2    H7  478   2.259   4.557  13.950  0.2036  0.9753 -0.4336
   31TMC2    C1  479   4.340   3.742  15.660  0.2095  0.3677 -0.3583
   31TMC2    C2  480   4.217   3.802  15.669 -0.2175  0.0229  0.9845
   31TMC2    C3  481   4.166   3.813  15.796  1.0474 -0.3562  0.4460
   31TMC2    C4  482   4.407   3.687  15.772 -0.3609 -1.0014 -0.3980
   31TMC2    C5  483   4.347   3.706  15.892  0.6409 -0.5340  0.1348
   31TMC2    C6  484   4.224   3.765  15.904  0.5617  0.1997 -0.0800
   31TMC2     C  485   4.414   3.760  15.539  0.3514 -0.2889  0.7860
   31TMC2     O  486   4.406   3.872  15.496  0.0099  0.9694  0.2705
   31TMC2     H  487   4.161   3.832  15.581 -2.2465 -2.4004  1.4325
   31TMC2    H1  488   4.508   3.649  15.756  0.5609  0.9133  0.9445
   31TMC2    H2  489   4.175   3.766  16.001 -2.3882 -3.2080 -1.5595
   31TMC2    C7  490   4.425   3.676  16.012  0.5606 -0.0447  0.0278
   31TMC2    C8  491   4.023   3.818  15.813 -0.0176 -0.5799 -0.0042
   31TMC2    O1  492   4.505   3.587  15.998  0.4155  0.7817 -0.2580
   31TMC2    O2  493   3.969   3.731  15.879  0.0515  0.1486  0.3013
   31TMC2    O5  494   4.003   3.950  15.829 -0.2744  0.1174 -0.4594
   31TMC2    H5  495   4.080   3.997  15.791  0.7823  0.1111  1.6295
   32MPD2     C  496   4.696   3.616  15.149 -0.4203 -0.4277 -0.3540
   32MPD2    C1  497   4.608   3.722  15.163 -0.0797  0.1335  0.6694
   32MPD2    C2  498   4.538   3.744  15.277 -0.3522 -0.1310 -0.2622
   32MPD2    C3  499   4.540   3.637  15.365 -0.2572  0.6736 -0.0727
   32MPD2    C4  500   4.628   3.535  15.351 -0.3076 -0.7853 -0.4052
   32MPD2    C5  501   4.707   3.522  15.244  0.0321 -0.4532 -0.2011
   32MPD2     H  502   4.487   3.838  15.294  1.2179  0.6320  0.2236
   32MPD2    H1  503   4.637   3.461  15.429 -0.1447 -1.4322 -1.0400
   32MPD2    H2  504   0.023   3.594  15.064  0.9372  0.6513  0.3732
   32MPD2    H3  505   0.043   3.442  15.233  3.4102  2.5515  0.3574
   32MPD2     N  506   4.475   3.648  15.492  0.5371 -0.5315  0.0718
   32MPD2    H5  507   4.485   3.576  15.562 -0.1912 -2.1254 -1.4706
   32MPD2    N1  508   4.625   3.819  15.065  0.3777  0.0356  0.2468
   32MPD2    H7  509   4.696   3.800  14.995  1.0577  2.6838  0.2340
   33TMC2    C1  510   0.390   1.818  10.446 -0.3180 -0.0213  0.6038
   33TMC2    C2  511   0.414   1.890  10.560  0.2732 -0.0162  0.9743
   33TMC2    C3  512   0.450   2.022  10.549 -0.0382  0.1354  0.1498
   33TMC2    C4  513   0.406   1.881  10.327  0.1938  0.3573  0.5954
   33TMC2    C5  514   0.429   2.012  10.312  0.0128 -0.0515  0.1690
   33TMC2    C6  515   0.449   2.084  10.427 -0.1735 -0.1032 -0.2188
   33TMC2     C  516   0.394   1.676  10.461  0.5235  0.5088  0.4976
   33TMC2     O  517   0.346   1.607  10.375 -0.3177 -0.2190 -0.3705
   33TMC2     H  518   0.418   1.834  10.653 -0.2666 -1.2488  0.2618
   33TMC2    H1  519   0.411   1.813  10.243  0.0934  1.6896 -0.4743
   33TMC2    H2  520   0.468   2.191  10.427 -0.0913 -0.1134  2.1550
   33TMC2    C7  521   0.496   2.048  10.194 -0.1856 -0.0942  0.6010
   33TMC2    C8  522   0.464   2.106  10.660 -0.3710 -0.3081 -0.3936
   33TMC2    O1  523   0.467   1.996  10.091  0.0979  0.4927 -0.1339
   33TMC2    O2  524   0.525   2.213  10.659  0.0686  0.3145 -0.2960
   33TMC2    O5  525   0.359   2.082  10.746 -0.4142  0.2090  0.0215
   33TMC2    H5  526   0.316   1.994  10.733 -0.2942  0.2609 -0.7240
   34MPD2     C  527   0.618   1.242  10.607 -0.3958  0.4054 -0.0675
   34MPD2    C1  528   0.511   1.256  10.520 -0.0663  0.0943  0.8947
   34MPD2    C2  529   0.463   1.383  10.508 -0.1339 -0.0267 -0.0087
   34MPD2    C3  530   0.525   1.491  10.570 -0.3119  0.4089  0.9872
   34MPD2    C4  531   0.637   1.469  10.640 -0.2114 -0.4222  0.3686
   34MPD2    C5  532   0.676   1.344  10.675 -0.2002  0.2341  0.8939
   34MPD2     H  533   0.373   1.391  10.447  1.0537 -3.2636 -2.1479
   34MPD2    H1  534   0.689   1.553  10.684  1.4820 -0.7051 -1.0697
   34MPD2    H2  535   0.648   1.141  10.636 -0.3220  0.6770  0.7958
   34MPD2    H3  536   0.763   1.314  10.733  0.8092 -1.0002 -1.2186
   34MPD2     N  537   0.492   1.628  10.551 -0.0000  0.2232 -0.0894
   34MPD2    H5  538   0.559   1.690  10.595  0.5100  0.1297 -0.7265
   34MPD2    N1  539   0.455   1.154  10.440  0.6034 -0.4367 -0.3126
   34MPD2    H7  540   0.377   1.176  10.379 -1.1093 -1.0685  1.6441
   35TMC2    C1  541   1.357   3.086  11.047 -0.6186  0.4913 -0.1571
   35TMC2    C2  542   1.293   3.179  10.960 -0.0914  0.1404  0.5572
   35TMC2    C3  543   1.213   3.135  10.858  0.2712  0.0780 -0.5570
   35TMC2    C4  544   1.323   2.955  11.037  0.1684  0.0889 -0.2443
   35TMC2    C5  545   1.234   2.913  10.943  0.1409  0.8995 -0.0092
   35TMC2    C6  546   1.191   2.998  10.845  0.3632 -0.7997  0.6492
   35TMC2     C  547   1.437   3.141  11.154  0.4307  0.4705 -0.3001
   35TMC2     O  548   1.411   3.257  11.179 -0.0593  0.2533 -0.4671
   35TMC2     H  549   1.326   3.283  10.961  1.3445 -0.2952 -0.4610
   35TMC2    H1  550   1.354   2.885  11.113 -0.1853 -0.7590 -0.8796
   35TMC2    H2  551   1.150   2.958  10.753  0.0532 -0.1275  0.4909
   35TMC2    C7  552   1.167   2.787  10.956 -0.0475 -0.1582 -0.0075
   35TMC2    C8  553   1.191   3.218  10.748 -0.4785 -0.7991 -0.2270
   35TMC2    O1  554   1.218   2.707  11.034  0.2609 -0.2506 -0.0772
   35TMC2    O2  555   1.258   3.308  10.702 -0.2114  0.2693 -0.1297
   35TMC2    O5  556   1.075   3.195  10.694  0.5418  0.5955 -0.1077
   35TMC2    H5  557   1.032   3.121  10.741  1.7785  0.6859  1.1771
   36MPD2     C  558   1.645   3.080  11.615  0.3048  0.0278 -0.5413
   36MPD2    C1  559   1.657   2.966  11.550 -0.0506 -0.3098  0.3174
   36MPD2    C2  560   1.606   2.959  11.420 -0.2744 -0.7032 -0.2379
   36MPD2    C3  561   1.552   3.069  11.355 -0.2977  0.2985  0.2743
   36MPD2    C4  562   1.554   3.188  11.420  0.4570 -0.2815  0.5156
   36MPD2    C5  563   1.596   3.195  11.549  0.2068  0.1435 -0.4306
   36MPD2     H  564   1.610   2.868  11.362  0.4290 -0.5407 -0.4551
   36MPD2    H1  565   1.531   3.285  11.378  2.0303 -0.1661 -0.0876
   36MPD2    H2  566   1.682   3.076  11.717  0.9755  0.8572 -0.7555
   36MPD2    H3  567   1.569   3.282  11.608  3.8866  0.7075  0.4077
   36MPD2     N  568   1.513   3.045  11.217  0.1463 -0.3959 -0.1199
   36MPD2    H5  569   1.530   2.953  11.177 -1.4129 -1.2875  1.2516
   36MPD2    N1  570   1.698   2.851  11.622 -0.3452 -0.1396 -0.2827
   36MPD2    H7  571   1.720   2.852  11.721 -4.1995 -0.3944  0.6110
   37TMC2    C1  572   2.838   3.317  11.803  1.2120  1.1563  0.7161
   37TMC2    C2  573   2.728   3.400  11.790 -0.4960  0.4251 -0.0311
   37TMC2    C3  574   2.693   3.440  11.666 -0.4682  0.5035 -0.6859
   37TMC2    C4  575   2.908   3.262  11.699  0.5498  0.3482  0.4020
   37TMC2    C5  576   2.861   3.296  11.570 -1.0719 -0.0592 -0.5011
   37TMC2    C6  577   2.765   3.398  11.555 -0.0137  0.2254 -0.1616
   37TMC2     C  578   2.875   3.269  11.935  0.5026 -0.1609 -0.6472
   37TMC2     O  579   2.788   3.250  12.014 -0.1313  0.8107 -0.6015
   37TMC2     H  580   2.682   3.440  11.880 -1.0297 -1.4991  0.5739
   37TMC2    H1  581   3.001   3.206  11.708 -0.0271 -0.5833  0.4823
   37TMC2    H2  582   2.766   3.442  11.455  1.1170  1.2617  0.3029
   37TMC2    C7  583   2.923   3.269  11.445 -0.3690  0.0516 -0.0509
   37TMC2    C8  584   2.569   3.502  11.636  0.3104  0.2072  0.5896
   37TMC2    O1  585   2.868   3.288  11.343 -0.9215  0.4540  0.5129
   37TMC2    O2  586   2.470   3.479  11.702  0.1053 -0.8638  0.5363
   37TMC2    O5  587   2.582   3.592  11.532 -0.5212 -0.5397 -0.1433
   37TMC2    H5  588   2.673   3.626  11.517  0.7687 -3.6267  0.7916
   38MPD2     C  589   3.273   3.173  12.266  0.6430  0.6617 -0.3222
   38MPD2    C1  590   3.321   3.222  12.148  0.1257 -0.4331 -0.3135
   38MPD2    C2  591   3.229   3.264  12.044  0.1760 -0.0522 -0.7646
   38MPD2    C3  592   3.091   3.261  12.061  0.4947  0.4891  0.0023
   38MPD2    C4  593   3.041   3.217  12.186 -0.1448 -0.0811 -0.5786
   38MPD2    C5  594   3.137   3.182  12.281 -0.1771  0.4837 -0.6441
   38MPD2     H  595   3.279   3.295  11.952  0.2565 -2.2829 -1.4550
   38MPD2    H1  596   2.936   3.207  12.209 -0.1856 -2.3790 -1.7382
   38MPD2    H2  597   3.339   3.148  12.349 -0.9485  0.6750  0.9497
   38MPD2    H3  598   3.101   3.153  12.379  1.9305  0.7827  0.2240
   38MPD2     N  599   3.010   3.287  11.949 -0.1601  0.2847  0.8649
   38MPD2    H5  600   3.054   3.326  11.867 -1.6596  2.4398  1.0807
   38MPD2    N1  601   3.456   3.206  12.106  0.4197  0.8322  0.8080
   38MPD2    H7  602   3.479   3.236  12.012 -2.4101  0.7087  0.0852
   39TMC2    C1  603   1.814   4.310   1.246  0.5274 -0.2827 -0.2504
   39TMC2    C2  604   1.902   4.208   1.236 -0.1167 -0.1660 -0.6024
   39TMC2    C3  605   2.012   4.217   1.310  0.0009  0.8270 -0.6668
   39TMC2    C4  606   1.840   4.424   1.321  0.7776 -0.1668 -0.2581
   39TMC2    C5  607   1.953   4.423   1.394 -0.7801 -0.1714  0.4304
   39TMC2    C6  608   2.033   4.319   1.400  0.2869  0.3047 -0.5429
   39TMC2     C  609   1.703   4.322   1.157  0.4361  0.0698 -0.2880
   39TMC2     O  610   1.620   4.405   1.197  0.1876 -0.3989 -0.0469
   39TMC2     H  611   1.878   4.122   1.175 -0.6943  1.2055 -2.3130
   39TMC2    H1  612   1.773   4.510   1.325 -0.1676 -0.9984  2.0427
   39TMC2    H2  613   2.123   4.324   1.461  0.9585  0.4605 -1.5462
   39TMC2    C7  614   2.009   4.544   1.439  0.0952 -0.4717 -0.1918
   39TMC2    C8  615   2.093   4.095   1.338 -0.0596 -0.1068 -0.3538
   39TMC2    O1  616   2.005   4.643   1.367 -0.0956  0.1895 -0.9060
   39TMC2    O2  617   2.199   4.090   1.399  0.4981  0.0099  0.8606
   39TMC2    O5  618   2.018   3.987   1.319 -0.2583 -0.5034  0.3752
   39TMC2    H5  619   1.923   4.003   1.301 -0.5006  0.3108  2.3375
   40MPD2     C  620   1.618   4.170   0.819 -0.3015  0.5852 -0.1560
   40MPD2    C1  621   1.604   4.252   0.932  0.5111  0.0303 -0.3622
   40MPD2    C2  622   1.485   4.321   0.946 -0.4310  0.4307  0.0725
   40MPD2    C3  623   1.384   4.305   0.852 -0.0878  0.3320  0.1103
   40MPD2    C4  624   1.408   4.234   0.735  0.0159 -0.2486 -0.4383
   40MPD2    C5  625   1.524   4.162   0.722  0.1000  0.4541  0.0719
   40MPD2     H  626   1.463   4.387   1.029  1.4019  0.6584  0.3831
   40MPD2    H1  627   1.327   4.207   0.669 -0.3048  1.3561 -0.7030
   40MPD2    H2  628   1.716   4.126   0.804 -0.6842  0.7505 -3.0284
   40MPD2    H3  629   1.539   4.099   0.636 -0.3408  0.6319 -0.1335
   40MPD2     N  630   1.254   4.354   0.873  0.6287  0.2104 -0.0490
   40MPD2    H5  631   1.190   4.332   0.797  1.1610 -0.5102 -0.2870
   40MPD2    N1  632   1.708   4.251   1.035 -0.2930  0.1888 -0.2590
   40MPD2    H7  633   1.791   4.195   1.017 -1.4788 -1.0349 -1.9475
   41TMC2    C1  634   1.208   3.303  13.340  0.1670  0.0226 -0.0195
   41TMC2    C2  635   1.305   3.322  13.437  0.0287 -0.1000 -0.7532
   41TMC2    C3  636   1.423   3.388  13.412 -0.3944  0.2100 -0.1753
   41TMC2    C4  637   1.233   3.329  13.209 -0.1041  0.6319 -0.6371
   41TMC2    C5  638   1.350   3.390  13.181  0.0261  0.4407  0.4861
   41TMC2    C6  639   1.448   3.417  13.279  0.7380  0.2910 -0.1899
   41TMC2     C  640   1.075   3.252  13.370 -0.1167 -0.5874 -0.8786
   41TMC2     O  641   0.989   3.260  13.282 -0.1644 -0.0979  0.2600
   41TMC2     H  642   1.293   3.278  13.535 -1.6213 -0.7465 -1.2387
   41TMC2    H1  643   1.152   3.316  13.138 -0.0885 -0.8151 -0.3984
   41TMC2    H2  644   1.548   3.440  13.244  0.7455 -0.8295 -0.9147
   41TMC2    C7  645   1.392   3.428  13.044 -0.7637 -0.3707  0.1726
   41TMC2    C8  646   1.540   3.360  13.482 -0.5615  0.2724  0.8671
   41TMC2    O1  647   1.480   3.515  13.039  0.5520 -0.0392 -1.1296
   41TMC2    O2  648   1.644   3.374  13.431 -0.1833 -0.1046  0.4955
   41TMC2    O5  649   1.519   3.382  13.615  0.5728  0.4322  0.0095
   41TMC2    H5  650   1.425   3.397  13.637  0.7246  0.8859  0.3414
   42MPD2     C  651   0.832   3.133  13.492  0.4796  0.1426 -1.0794
   42MPD2    C1  652   0.953   3.147  13.556  0.6463 -0.5735 -0.4737
   42MPD2    C2  653   0.970   3.086  13.681 -0.0919  0.9888 -0.3802
   42MPD2    C3  654   0.867   3.012  13.733 -0.1599  0.1410 -0.4673
   42MPD2    C4  655   0.744   3.007  13.670 -0.1404  0.1464 -0.1165
   42MPD2    C5  656   0.734   3.068  13.548 -0.1765 -0.0315  0.0216
   42MPD2     H  657   1.062   3.102  13.736  0.8247 -1.3046 -1.2578
   42MPD2    H1  658   0.659   2.951  13.709 -0.1711  0.3853  0.1607
   42MPD2    H2  659   0.809   3.171  13.393 -1.2735  1.2727 -0.2329
   42MPD2    H3  660   0.641   3.048  13.496 -0.7428  1.3033  0.5164
   42MPD2     N  661   0.870   2.943  13.859 -0.3217 -0.4188  0.5593
   42MPD2    H5  662   0.790   2.889  13.891 -1.4752  1.4715  0.8625
   42MPD2    N1  663   1.065   3.208  13.496  0.4337 -0.1776 -0.4361
   42MPD2    H7  664   1.144   3.210  13.560 -0.3785  0.6298  0.5366
   43TMC2    C1  665   1.994   1.224   0.485 -0.2225 -0.6550  0.0358
   43TMC2    C2  666   1.986   1.329   0.400  0.1315 -0.5187  0.0108
   43TMC2    C3  667   2.066   1.441   0.429  0.1336 -0.2985  0.0118
   43TMC2    C4  668   2.078   1.231   0.599 -0.0134 -0.4249  0.5694
   43TMC2    C5  669   2.141   1.345   0.634  0.0281 -0.3615  0.1501
   43TMC2    C6  670   2.145   1.451   0.543 -0.0318  0.0534  0.7599
   43TMC2     C  671   1.948   1.097   0.438  0.0976  0.1338 -0.5287
   43TMC2     O  672   1.930   1.089   0.317  0.1100  0.0200 -0.4728
   43TMC2     H  673   1.918   1.313   0.317 -0.4050  2.6253 -0.1681
   43TMC2    H1  674   2.081   1.147   0.667 -2.5094 -0.3808  0.7505
   43TMC2    H2  675   2.214   1.533   0.559  0.3327  0.2015 -1.5335
   43TMC2    C7  676   2.245   1.343   0.730  0.4495 -0.1763 -0.7003
   43TMC2    C8  677   2.057   1.552   0.335 -0.1204  0.3258  0.5632
   43TMC2    O1  678   2.331   1.428   0.711 -0.4269  0.1526 -0.1564
   43TMC2    O2  679   2.012   1.534   0.225  0.2402 -0.1097  0.1833
   43TMC2    O5  680   2.058   1.670   0.403 -0.1290 -0.4003  0.3088
   43TMC2    H5  681   2.088   1.673   0.496 -0.9920 -2.1494  0.6349
   44MPD2     C  682   1.923   0.594   0.493  0.3249  0.3136 -0.7238
   44MPD2    C1  683   1.955   0.672   0.382  0.8140  0.1906  0.4580
   44MPD2    C2  684   1.955   0.808   0.393  0.0887  0.1886  0.2676
   44MPD2    C3  685   1.913   0.864   0.515 -0.1178  0.5359 -0.0534
   44MPD2    C4  686   1.868   0.785   0.621  1.1281  0.4025  0.0271
   44MPD2    C5  687   1.879   0.648   0.611 -0.3667 -0.1371  0.2043
   44MPD2     H  688   1.970   0.870   0.305  2.1882 -0.6417  0.0560
   44MPD2    H1  689   1.847   0.828   0.718  0.7016 -0.0407  0.1313
   44MPD2    H2  690   1.929   0.486   0.484 -2.8703  0.0222  0.4414
   44MPD2    H3  691   1.848   0.580   0.690  0.0640  0.2945  0.7478
   44MPD2     N  692   1.918   1.004   0.538 -0.2492  0.6376  0.4064
   44MPD2    H5  693   1.913   1.038   0.634  2.4761  0.4271  0.6080
   44MPD2    N1  694   2.022   0.609   0.271  0.0992  1.0370 -0.9091
   44MPD2    H7  695   2.036   0.509   0.276  0.4703  1.1376  0.1625
   45TMC2    C1  696   3.243   2.528  10.057  0.3369 -0.2141  0.0307
   45TMC2    C2  697   3.362   2.468  10.035  0.0430 -0.4976 -0.6691
   45TMC2    C3  698   3.476   2.547  10.058  0.6551  0.3120 -1.3435
   45TMC2    C4  699   3.237   2.643  10.133 -0.1096 -0.0513 -0.3058
   45TMC2    C5  700   3.356   2.714  10.160 -0.4975 -0.4700  0.7056
   45TMC2    C6  701   3.475   2.670  10.109 -0.0751  0.2423 -0.4813
   45TMC2     C  702   3.116   2.463  10.013  0.3711 -0.0085 -0.1873
   45TMC2     O  703   3.119   2.345   9.991  0.3461  0.2056  0.3451
   45TMC2     H  704   3.357   2.376   9.978  2.5470  0.2345 -2.0655
   45TMC2    H1  705   3.144   2.695  10.155  0.8457  0.8133  1.7602
   45TMC2    H2  706   3.570   2.722  10.122  0.5117 -1.1776  0.9663
   45TMC2    C7  707   3.339   2.849  10.192  0.6073 -0.6435  0.0996
   45TMC2    C8  708   3.607   2.481  10.019 -0.0271  0.7600 -0.0105
   45TMC2    O1  709   3.245   2.881  10.260 -0.2292  0.1425  0.3360
   45TMC2    O2  710   3.625   2.361  10.014  0.0584  0.1794 -0.6924
   45TMC2    O5  711   3.678   2.579   9.961 -0.0712 -0.0683  0.6697
   45TMC2    H5  712   3.638   2.668   9.945  2.2048  0.9340  0.6061
   46MPD2     C  713   2.840   2.397   9.944  0.2934  0.1467 -0.1892
   46MPD2    C1  714   2.882   2.523   9.947 -1.0074  0.5295  0.8243
   46MPD2    C2  715   2.791   2.621   9.904 -0.3985 -0.2712  0.2281
   46MPD2    C3  716   2.661   2.585   9.866 -0.3024 -0.4616 -0.1233
   46MPD2    C4  717   2.623   2.451   9.860 -0.0597 -0.1404  0.1895
   46MPD2    C5  718   2.713   2.363   9.900 -0.1261 -0.1164 -0.5216
   46MPD2     H  719   2.808   2.728   9.910 -0.9797 -0.0641 -1.7467
   46MPD2    H1  720   2.525   2.417   9.828  0.7428  1.4899 -4.0239
   46MPD2    H2  721   2.906   2.317   9.977  1.4528  2.2990  2.7225
   46MPD2    H3  722   2.693   2.256   9.902 -1.6213  0.2113  2.7488
   46MPD2     N  723   2.585   2.689   9.818 -0.2249 -0.3051 -0.1689
   46MPD2    H5  724   2.621   2.783   9.806  0.8333 -0.3094  2.9558
   46MPD2    N1  725   3.014   2.557   9.990  0.3910  0.1068 -0.2345
   46MPD2    H7  726   3.036   2.656   9.992  1.0248 -0.0283 -0.6058
   47TMC2    C1  727   0.551   3.755   9.134 -0.0127  0.2089 -0.0942
   47TMC2    C2  728   0.605   3.717   9.256 -0.2080  0.0523 -0.8734
   47TMC2    C3  729   0.547   3.778   9.362 -0.1394 -0.3925 -0.2145
   47TMC2    C4  730   0.454   3.848   9.121 -0.1128 -0.5285  0.1972
   47TMC2    C5  731   0.404   3.912   9.232 -0.5395  0.0409 -0.1786
   47TMC2    C6  732   0.451   3.873   9.354 -0.0159  0.9342 -0.3199
   47TMC2     C  733   0.597   3.692   9.015  0.4447 -1.0719  0.5099
   47TMC2     O  734   0.587   3.754   8.912 -0.3057 -0.1312  0.4215
   47TMC2     H  735   0.681   3.644   9.283 -1.7482 -1.0512  0.4489
   47TMC2    H1  736   0.409   3.871   9.025  0.1287 -0.7785  0.0273
   47TMC2    H2  737   0.413   3.918   9.445  0.5682 -1.0691  0.9013
   47TMC2    C7  738   0.318   4.034   9.230  0.5113  0.1536  0.8282
   47TMC2    C8  739   0.581   3.719   9.498 -0.2559 -0.5127 -0.3112
   47TMC2    O1  740   0.254   4.052   9.336 -0.0006  0.5945  0.1585
   47TMC2    O2  741   0.493   3.726   9.585 -0.5385 -0.3761  0.3238
   47TMC2    O5  742   0.709   3.758   9.524  0.0417  0.5885  0.3365
   47TMC2    H5  743   0.774   3.761   9.450 -0.6243 -2.1753 -0.3702
   48MPD2     C  744   0.759   3.509   8.843  0.4227 -0.0970  0.1044
   48MPD2    C1  745   0.703   3.470   8.964  0.1059 -0.7496 -0.7505
   48MPD2    C2  746   0.745   3.351   9.021  0.4785  0.4872 -0.8353
   48MPD2    C3  747   0.824   3.262   8.952 -0.1236 -0.2857 -0.5099
   48MPD2    C4  748   0.873   3.301   8.830  0.3776  0.4325  0.1147
   48MPD2    C5  749   0.838   3.427   8.777  0.9319  0.3347 -0.4816
   48MPD2     H  750   0.707   3.330   9.120 -1.2316 -0.1180 -1.6157
   48MPD2    H1  751   0.939   3.237   8.773  0.6050  0.1206  0.7280
   48MPD2    H2  752   0.742   3.606   8.797 -1.5620 -1.2277 -1.5298
   48MPD2    H3  753   0.889   3.465   8.690  1.2273  1.3125  0.1134
   48MPD2     N  754   0.857   3.139   9.015 -0.5380  0.0076 -0.2390
   48MPD2    H5  755   0.806   3.124   9.102 -0.9318  1.2401 -0.2583
   48MPD2    N1  756   0.623   3.558   9.042 -0.2292 -0.0954  0.4110
   48MPD2    H7  757   0.605   3.531   9.138  0.3129  0.3811  0.6406
   49TMC2    C1  758   4.255   1.945  10.294 -0.3225 -0.1102  0.0046
   49TMC2    C2  759   4.231   2.032  10.192 -0.1861 -0.2869 -0.2941
   49TMC2    C3  760   4.104   2.085  10.195  0.0875  0.6618 -0.1296
   49TMC2    C4  761   4.162   1.905  10.390 -0.6067  0.6386 -0.3265
   49TMC2    C5  762   4.044   1.969  10.385  1.2836 -0.0926 -0.2896
   49TMC2    C6  763   4.010   2.066  10.290  0.7306  0.2611 -0.1627
   49TMC2     C  764   4.384   1.875  10.295  0.1122 -0.3036 -0.1925
   49TMC2     O  765   4.472   1.918  10.222  0.5439  0.2469  0.1710
   49TMC2     H  766   4.291   2.036  10.102 -3.7539  0.4683 -2.6069
   49TMC2    H1  767   4.185   1.849  10.479  2.7285  0.8853 -1.0509
   49TMC2    H2  768   3.912   2.110  10.275 -0.2964 -1.5333  1.3987
   49TMC2    C7  769   3.930   1.917  10.458 -0.4015  0.1998  0.1898
   49TMC2    C8  770   4.048   2.161  10.080 -1.0770  0.0537  0.5125
   49TMC2    O1  771   3.836   1.996  10.474 -1.1136 -0.1780  0.5517
   49TMC2    O2  772   3.928   2.182  10.058  0.4565 -0.0331  0.1457
   49TMC2    O5  773   4.140   2.262  10.063 -0.4494 -0.7681  0.1353
   49TMC2    H5  774   4.230   2.246  10.098  0.8402 -2.0439 -3.7025
   50MPD2     C  775   4.633   1.765  10.421 -0.0686 -0.0913  0.1724
   50MPD2    C1  776   4.504   1.705  10.434  0.5553 -0.0426 -0.2143
   50MPD2    C2  777   4.490   1.591  10.511  0.4481 -0.5560 -0.1002
   50MPD2    C3  778   4.606   1.535  10.569  0.6021  0.7896 -0.9834
   50MPD2    C4  779   4.728   1.590  10.544 -0.2756 -0.1916  0.2963
   50MPD2    C5  780   0.004   1.707  10.472  0.1542  0.6718 -0.0038
   50MPD2     H  781   4.388   1.557  10.524  0.0348  1.1137  1.1115
   50MPD2    H1  782   0.082   1.546  10.583 -0.7793  0.0460  1.7270
   50MPD2    H2  783   4.645   1.854  10.360 -1.9597 -1.2694 -1.9037
   50MPD2    H3  784   0.103   1.749  10.455  0.3974 -0.3303 -1.1048
   50MPD2     N  785   4.602   1.423  10.657 -0.3653  0.7654 -0.1471
   50MPD2    H5  786   4.686   1.386  10.701 -1.5532 -1.9552 -0.2306
   50MPD2    N1  787   4.387   1.767  10.384  0.1632 -0.7745  0.1114
   50MPD2    H7  788   4.301   1.720  10.411  0.9654 -2.2435  0.1381
   51TMC2    C1  789   4.709   4.061   1.744 -0.3199 -0.1672 -0.0856
   51TMC2    C2  790   0.007   4.069   1.874  0.4022 -0.2569  0.5104
   51TMC2    C3  791   4.722   4.190   1.940 -0.6857  0.6702 -0.1327
   51TMC2    C4  792   4.652   4.167   1.674 -0.5893 -0.7718  0.0695
   51TMC2    C5  793   4.628   4.285   1.746 -0.3125 -0.0827  0.5226
   51TMC2    C6  794   4.668   4.303   1.877  0.1500 -0.3219  0.3153
   51TMC2     C  795   4.722   3.934   1.673  0.3653  0.1362  0.4547
   51TMC2     O  796   4.658   3.913   1.567 -0.0266 -0.0816  0.1691
   51TMC2     H  797   0.051   3.984   1.925 -0.3084 -1.1567 -0.3866
   51TMC2    H1  798   4.620   4.154   1.571  2.3607  0.7686 -1.0438
   51TMC2    H2  799   4.668   4.403   1.919  0.9800  0.7360 -2.1626
   51TMC2    C7  800   4.563   4.397   1.678  0.0267  0.1349  0.1932
   51TMC2    C8  801   0.036   4.198   2.067 -0.5241 -0.4887  0.6432
   51TMC2    O1  802   4.499   4.475   1.753 -0.4049 -0.0841 -0.0088
   51TMC2    O2  803   0.102   4.109   2.119  0.3214  0.1322  0.1377
   51TMC2    O5  804   4.711   4.307   2.129 -0.0472 -0.0273  0.1429
   51TMC2    H5  805   4.659   4.362   2.066  1.5433  2.7003  1.2021
   52MPD2     C  806   0.197   3.464   1.606  0.7506 -0.1946 -0.7680
   52MPD2    C1  807   0.132   3.546   1.519  0.1180 -0.0664  0.9253
   52MPD2    C2  808   0.093   3.669   1.566  0.3846 -0.3723 -0.7811
   52MPD2    C3  809   0.123   3.721   1.690 -0.2447 -1.1482 -0.2161
   52MPD2    C4  810   0.187   3.632   1.775  0.9598 -0.0464  0.3008
   52MPD2    C5  811   0.232   3.511   1.730  0.4482  0.8156 -0.5592
   52MPD2     H  812   0.044   3.730   1.491  0.0672 -1.1778 -1.2330
   52MPD2    H1  813   0.200   3.647   1.881  0.5504  2.9241 -0.0671
   52MPD2    H2  814   0.228   3.363   1.585  1.6353 -0.1775  0.4074
   52MPD2    H3  815   0.291   3.449   1.796 -3.3143 -0.9754  1.0778
   52MPD2     N  816   0.082   3.850   1.735 -0.1351  0.7653  1.3650
   52MPD2    H5  817   0.117   3.878   1.826  1.4637 -0.7197  1.1920
   52MPD2    N1  818   0.102   3.505   1.390 -0.2264 -0.6716  0.0968
   52MPD2    H7  819   0.037   3.567   1.343  1.1279  2.5574  2.5033
   53TMC2    C1  820   3.748   3.228  11.382  0.2327 -1.0187 -0.1583
   53TMC2    C2  821   3.870   3.198  11.325  0.2882 -0.3992 -1.2082
   53TMC2    C3  822   3.982   3.206  11.397 -0.1389  0.4107  0.3607
   53TMC2    C4  823   3.742   3.277  11.511  0.0045  0.7099 -0.5306
   53TMC2    C5  824   3.861   3.286  11.579  0.3141 -0.7589 -0.3372
   53TMC2    C6  825   3.984   3.268  11.520 -0.2422  0.4997 -0.7902
   53TMC2     C  826   3.631   3.224  11.295 -0.0139 -0.0916 -0.4638
   53TMC2     O  827   3.651   3.264  11.178  0.5757 -0.3425  0.1600
   53TMC2     H  828   3.853   3.144  11.233  0.9492 -2.3734 -0.1913
   53TMC2    H1  829   3.656   3.321  11.560  0.1416  0.8454 -0.4083
   53TMC2    H2  830   4.078   3.279  11.573 -1.2170  1.7512  0.6945
   53TMC2    C7  831   3.849   3.303  11.721 -0.2696  0.0441 -0.4715
   53TMC2    C8  832   4.113   3.209  11.338  0.5664  0.4304 -0.2285
   53TMC2    O1  833   3.741   3.348  11.761 -0.1783 -0.2463  0.3847
   53TMC2    O2  834   4.174   3.313  11.344  0.6095  0.5871 -0.3333
   53TMC2    O5  835   4.112   3.121  11.238  0.2402  0.5756 -0.1246
   53TMC2    H5  836   4.060   3.040  11.259 -0.6041  1.3286  0.6858
   54MPD2     C  837   3.356   3.256  11.175  0.2276 -0.0618 -0.0168
   54MPD2    C1  838   3.389   3.230  11.308  0.2012 -0.1160  0.3580
   54MPD2    C2  839   3.285   3.226  11.399 -0.2116  0.0572 -0.6101
   54MPD2    C3  840   3.149   3.230  11.359  0.1084 -0.1640  0.2160
   54MPD2    C4  841   3.119   3.227  11.228  0.0527 -0.0588 -0.0498
   54MPD2    C5  842   3.225   3.249  11.136  0.6378  0.2779  0.2682
   54MPD2     H  843   3.309   3.232  11.504 -3.2576 -0.6881  0.1326
   54MPD2    H1  844   3.018   3.212  11.194  0.0858 -1.3199  0.3904
   54MPD2    H2  845   3.427   3.275  11.095 -0.1384  0.4420 -0.2253
   54MPD2    H3  846   3.210   3.260  11.029  0.8714 -0.7914  0.1301
   54MPD2     N  847   3.052   3.228  11.460 -0.6170  0.7795  0.1390
   54MPD2    H5  848   3.082   3.233  11.557 -0.5873 -0.8904  0.2229
   54MPD2    N1  849   3.518   3.214  11.365  0.4334 -0.5155  0.1099
   54MPD2    H7  850   3.530   3.191  11.463 -1.2438  0.0678  0.4422
   55TMC2    C1  851   4.722   1.638   0.289 -0.0481  0.0946 -0.5779
   55TMC2    C2  852   0.056   1.663   0.179 -0.5449  0.4155  0.0525
   55TMC2    C3  853   0.161   1.572   0.141 -0.0050 -0.0507  0.0775
   55TMC2    C4  854   0.003   1.518   0.348  0.1429  0.1289  0.4470
   55TMC2    C5  855   0.102   1.426   0.311 -1.0625 -0.2634 -0.2573
   55TMC2    C6  856   0.180   1.454   0.205  0.1712 -0.7017  0.1549
   55TMC2     C  857   4.582   1.688   0.298 -0.1979 -0.0002  0.6783
   55TMC2     O  858   4.520   1.642   0.390 -0.2440  0.0035 -0.8943
   55TMC2     H  859   0.054   1.760   0.133 -0.0245  0.2551 -0.3068
   55TMC2    H1  860   4.673   1.496   0.430 -2.1002 -1.1027 -1.7077
   55TMC2    H2  861   0.267   1.394   0.181 -0.6394 -1.6347 -0.4997
   55TMC2    C7  862   0.064   1.286   0.331  0.0102  0.2141 -0.2350
   55TMC2    C8  863   0.277   1.617   0.074 -0.6825 -0.6681 -0.1662
   55TMC2    O1  864   4.683   1.267   0.355 -0.0384 -0.1504  0.2781
   55TMC2    O2  865   0.387   1.568   0.087  0.0855  0.1776  0.1109
   55TMC2    O5  866   0.245   1.691  17.712 -0.0074  0.4998 -0.3784
   55TMC2    H5  867   0.147   1.695  17.705  0.2007  2.7952 -1.9177
   56MPD2     C  868   4.409   1.941   0.100  0.0378 -0.2280  0.6332
   56MPD2    C1  869   4.422   1.838   0.186  0.3179 -0.2869  0.1581
   56MPD2    C2  870   4.312   1.769   0.243 -0.3412 -0.5474 -0.6133
   56MPD2    C3  871   4.184   1.821   0.222 -0.3028 -0.2905 -0.1322
   56MPD2    C4  872   4.176   1.935   0.144 -0.3175  0.1063 -0.1390
   56MPD2    C5  873   4.283   1.995   0.086 -0.1065  0.7123 -0.1094
   56MPD2     H  874   4.325   1.677   0.299  1.0886 -0.4370 -0.7741
   56MPD2    H1  875   4.079   1.982   0.129  0.8156  2.3963 -0.2567
   56MPD2    H2  876   4.497   1.986   0.055 -1.1108 -0.2182 -1.5851
   56MPD2    H3  877   4.278   2.082   0.023  0.4311  0.8372  0.0200
   56MPD2     N  878   4.081   1.747   0.283  0.9764 -0.0903  0.0320
   56MPD2    H5  879   4.097   1.655   0.321  0.3304  0.4952  1.7139
   56MPD2    N1  880   4.555   1.789   0.204 -0.5692  0.7210 -0.3753
   56MPD2    H7  881   4.629   1.839   0.156 -0.9624 -0.5311 -2.2852
   57TMC2    C1  882   4.081   1.794  13.000 -0.4365 -0.0369 -0.2294
   57TMC2    C2  883   4.058   1.694  12.913 -0.2991 -0.3033  0.3066
   57TMC2    C3  884   4.164   1.603  12.891  0.1315  0.4357  0.6248
   57TMC2    C4  885   4.199   1.826  13.052  0.0210  0.7967 -0.0603
   57TMC2    C5  886   4.305   1.746  13.018 -0.3406  0.1078  0.5287
   57TMC2    C6  887   4.290   1.637  12.932 -0.8112  0.4285  0.0623
   57TMC2     C  888   3.964   1.857  13.053  0.7476  0.4591  0.5345
   57TMC2     O  889   3.977   1.960  13.117  0.2060 -0.0314  0.0108
   57TMC2     H  890   3.965   1.680  12.858 -0.8805 -1.2281  1.5309
   57TMC2    H1  891   4.202   1.908  13.123 -0.7884 -0.5827  1.5390
   57TMC2    H2  892   4.365   1.559  12.927 -0.5672  0.3017  5.1331
   57TMC2    C7  893   4.436   1.780  13.079  0.1579  0.4789  0.4085
   57TMC2    C8  894   4.126   1.471  12.824 -0.3096 -0.6416 -0.2015
   57TMC2    O1  895   4.436   1.875  13.154  0.1230 -0.4638 -0.0411
   57TMC2    O2  896   4.021   1.470  12.760  0.0011  0.1775 -0.1967
   57TMC2    O5  897   4.158   1.382  12.915 -0.5132  0.1057 -0.1995
   57TMC2    H5  898   4.245   1.390  12.959 -0.4458 -2.6002  0.1155
   58MPD2     C  899   3.493   1.880  13.225 -0.0355 -0.2075  0.8907
   58MPD2    C1  900   3.611   1.889  13.296 -0.2211  0.1301 -0.1582
   58MPD2    C2  901   3.728   1.849  13.233 -0.2277 -0.6575  0.7349
   58MPD2    C3  902   3.727   1.822  13.097  0.0565  0.6495  0.3632
   58MPD2    C4  903   3.609   1.820  13.025 -1.7501  0.5509 -0.4245
   58MPD2    C5  904   3.492   1.848  13.093  0.3150  0.5428 -0.1496
   58MPD2     H  905   3.819   1.855  13.291  1.3608 -1.2173 -1.6900
   58MPD2    H1  906   3.619   1.788  12.922  1.8087  1.8916 -0.4845
   58MPD2    H2  907   3.396   1.914  13.260  0.4425  1.1892  0.8521
   58MPD2    H3  908   3.397   1.852  13.042 -0.4842  0.7067  1.3663
   58MPD2     N  909   3.841   1.799  13.022  0.3296 -0.1518 -0.1983
   58MPD2    H5  910   3.839   1.719  12.960 -0.6905 -0.7836  0.6532
   58MPD2    N1  911   3.620   1.927  13.433  0.4678  0.4571 -0.5958
   58MPD2    H7  912   3.710   1.919  13.480 -0.3246  0.7822  0.9881
   59TMC2    C1  913   2.268   2.216  12.617  0.1802 -0.1957 -0.4369
   59TMC2    C2  914   2.350   2.125  12.682 -0.0755  0.7092 -0.0435
   59TMC2    C3  915   2.380   2.006  12.614 -0.2063  0.1863 -0.0903
   59TMC2    C4  916   2.215   2.186  12.499 -0.0348 -0.0212 -0.7591
   59TMC2    C5  917   2.253   2.072  12.433 -0.1944  0.8188  0.8213
   59TMC2    C6  918   2.327   1.982  12.496 -0.4518  0.0819  0.7125
   59TMC2     C  919   2.260   2.353  12.672 -0.0581  0.3052  0.3995
   59TMC2     O  920   2.171   2.428  12.629 -0.1515  0.5088  0.0948
   59TMC2     H  921   2.415   2.146  12.767 -0.0711  1.7827 -0.3117
   59TMC2    H1  922   2.144   2.260  12.462 -1.5847 -1.0608  0.1170
   59TMC2    H2  923   2.369   1.903  12.435 -1.3691 -0.9062  1.3611
   59TMC2    C7  924   2.196   2.023  12.310  0.9210  0.8867 -0.2640
   59TMC2    C8  925   2.435   1.894  12.690 -0.3496 -0.8929 -0.8028
   59TMC2    O1  926   2.208   1.906  12.288 -0.0414 -0.2386 -0.4789
   59TMC2    O2  927   2.500   1.798  12.644 -0.1799  0.0935  0.5320
   59TMC2    O5  928   2.386   1.895  12.816 -0.1171 -0.0313  0.3269
   59TMC2    H5  929   2.333   1.975  12.837  1.0189  1.0432 -0.9141
   60MPD2     C  930   2.336   2.620  12.773  0.1459  0.1857 -1.2173
   60MPD2    C1  931   2.365   2.504  12.839 -0.9613 -0.7399 -0.2653
   60MPD2    C2  932   2.419   2.504  12.967  0.4047 -0.0784 -0.3697
   60MPD2    C3  933   2.449   2.623  13.023 -0.2060  0.1013  0.1855
   60MPD2    C4  934   2.421   2.742  12.948  0.0370 -0.4405 -0.0364
   60MPD2    C5  935   2.373   2.739  12.823  0.8847 -0.8225 -0.2844
   60MPD2     H  936   2.435   2.405  13.008  1.3553  0.5390  0.7395
   60MPD2    H1  937   2.452   2.840  12.983 -2.0970  0.4711 -0.7124
   60MPD2    H2  938   2.282   2.626  12.679  0.3074  0.1372 -1.3130
   60MPD2    H3  939   2.354   2.832  12.770  2.3653 -0.2694  0.1491
   60MPD2     N  940   2.515   2.629  13.148  0.0483  0.3970  0.4088
   60MPD2    H5  941   2.572   2.711  13.168  2.4502 -1.2630  0.2826
   60MPD2    N1  942   2.339   2.376  12.780 -0.0168  0.0276 -0.0075
   60MPD2    H7  943   2.390   2.299  12.821  0.5695  0.4816  0.1333
   61TMC2    C1  944   1.155   3.714  15.816 -0.8976  0.3070 -0.4402
   61TMC2    C2  945   1.063   3.665  15.909  0.0031 -0.1478  0.1665
   61TMC2    C3  946   0.936   3.707  15.906  0.2466 -0.0194  0.6822
   61TMC2    C4  947   1.112   3.819  15.738 -0.6327  0.1663  0.1006
   61TMC2    C5  948   0.990   3.877  15.749  0.6581  1.0882 -0.0293
   61TMC2    C6  949   0.895   3.818  15.830 -0.0445  0.3618 -0.1568
   61TMC2     C  950   1.252   3.619  15.760 -1.1087  0.5679 -0.1094
   61TMC2     O  951   1.258   3.518  15.825  0.5802 -0.1130 -0.4197
   61TMC2     H  952   1.071   3.567  15.955 -1.1840 -0.6777 -0.7738
   61TMC2    H1  953   1.185   3.866  15.674 -0.5017  1.6190  1.2917
   61TMC2    H2  954   0.789   3.836  15.819 -0.0328  1.4899  1.6278
   61TMC2    C7  955   0.957   3.970  15.645 -0.6090  0.2722 -0.3250
   61TMC2    C8  956   0.851   3.585  15.901 -1.2564  0.2664  0.2640
   61TMC2    O1  957   1.051   3.993  15.572 -0.4647 -0.3492 -0.3632
   61TMC2    O2  958   0.865   3.502  15.988  0.2767  0.1709  0.2224
   61TMC2    O5  959   0.854   3.554  15.776  0.1567 -0.2843  0.2205
   61TMC2    H5  960   0.832   3.627  15.714 -1.9887  0.0479  1.3652
   62MPD2     C  961   1.389   3.422  15.584  0.2307  0.1845  0.6074
   62MPD2    C1  962   1.358   3.550  15.546 -0.0638  0.3237 -0.3762
   62MPD2    C2  963   1.394   3.596  15.423  0.1784 -0.7133  0.0050
   62MPD2    C3  964   1.450   3.511  15.335 -0.5515 -0.7524  0.3513
   62MPD2    C4  965   1.476   3.378  15.366  0.1826  0.1000  0.6339
   62MPD2    C5  966   1.449   3.332  15.492 -0.0741 -0.1914  1.0240
   62MPD2     H  967   1.360   3.695  15.394 -0.4632 -1.1523 -0.7664
   62MPD2    H1  968   1.528   3.310  15.300 -1.4293 -1.6548  1.1645
   62MPD2    H2  969   1.376   3.380  15.683  0.6367  0.3158  0.7200
   62MPD2    H3  970   1.484   3.240  15.536  1.4454  0.0280  0.2905
   62MPD2     N  971   1.479   3.564  15.209 -0.5022  0.1098 -0.0451
   62MPD2    H5  972   1.463   3.663  15.193  0.7991 -0.2938 -3.8689
   62MPD2    N1  973   1.297   3.644  15.633 -0.1091 -0.3102 -0.5512
   62MPD2    H7  974   1.279   3.733  15.590  1.5551 -0.3012 -1.2424
   63TMC2    C1  975   0.290   3.636  10.714 -0.6888 -0.9253  0.4778
   63TMC2    C2  976   0.250   3.766  10.745 -0.0847 -0.5753  0.3354
   63TMC2    C3  977   0.264   3.859  10.649 -0.1223  0.3433  0.5366
   63TMC2    C4  978   0.335   3.603  10.589 -0.7703  0.1511  0.0846
   63TMC2    C5  979   0.351   3.704  10.496 -0.2369 -0.3115  0.2615
   63TMC2    C6  980   0.322   3.834  10.526  0.2071  0.5977 -0.4985
   63TMC2     C  981   0.263   3.535  10.808 -0.5409 -0.2084 -0.0791
   63TMC2     O  982   0.231   3.584  10.916  0.0328 -0.4113  0.1127
   63TMC2     H  983   0.236   3.799  10.847 -2.5955 -3.2317  0.8396
   63TMC2    H1  984   0.383   3.508  10.567 -1.9971 -0.6125  0.7453
   63TMC2    H2  985   0.323   3.918  10.458  0.5359  1.0520  0.0659
   63TMC2    C7  986   0.401   3.673  10.361  0.2142  0.1724 -0.5177
   63TMC2    C8  987   0.265   4.002  10.696  0.4221  0.6888 -0.5003
   63TMC2    O1  988   0.389   3.552  10.337 -0.5985  0.1526  0.1945
   63TMC2    O2  989   0.217   4.030  10.805 -0.2807 -0.4587  0.5631
   63TMC2    O5  990   0.379   4.060  10.658 -0.1311  0.1355  0.4166
   63TMC2    H5  991   0.437   4.009  10.598  1.7518  1.2596  1.2484
   64MPD2     C  992   0.201   3.055  10.964  0.5127  0.2971  0.3626
   64MPD2    C1  993   0.232   3.053  10.832  0.5191  0.2160  0.0469
   64MPD2    C2  994   0.248   3.173  10.766  0.0570  0.0652  0.2956
   64MPD2    C3  995   0.230   3.293  10.828 -1.0101 -0.4776  0.1715
   64MPD2    C4  996   0.203   3.295  10.967  0.5235 -0.4961 -0.8998
   64MPD2    C5  997   0.192   3.175  11.028 -0.7981  0.2665  0.1741
   64MPD2     H  998   0.251   3.178  10.658  1.4560 -2.3756  0.2039
   64MPD2    H1  999   0.182   3.379  11.032  0.9754 -1.1964  0.1529
   64MPD2    H2 1000   0.178   2.972  11.029 -0.9463 -0.6744 -1.3981
   64MPD2    H3 1001   0.173   3.175  11.135  0.2067  3.1970  0.3626
   64MPD2     N 1002   0.270   3.405  10.753 -0.2412 -0.0789  0.3312
   64MPD2    H5 1003   0.285   3.401  10.653 -1.0384 -0.6674  0.2352
   64MPD2    N1 1004   0.252   2.937  10.762  0.0337  0.1082  0.1547
   64MPD2    H7 1005   0.284   2.950  10.666 -1.6793  0.8822 -0.3170
   65TMC2    C1 1006   1.877   3.324  15.544 -0.3046 -0.6588 -0.6416
   65TMC2    C2 1007   1.897   3.280  15.421  1.1626  0.0858  0.2297
   65TMC2    C3 1008   1.855   3.370  15.332 -0.3120  0.2103 -0.0008
   65TMC2    C4 1009   1.831   3.451  15.581 -0.4647  0.0944 -0.1150
   65TMC2    C5 1010   1.786   3.533  15.480 -0.0033  0.3959 -0.0962
   65TMC2    C6 1011   1.802   3.495  15.350 -0.7432 -0.0318 -0.0071
   65TMC2     C 1012   1.875   3.228  15.656  0.8611  0.1108  0.5682
   65TMC2     O 1013   1.861   3.274  15.769  0.4370  0.3892  0.0759
   65TMC2     H 1014   1.947   3.186  15.404 -2.3091 -2.0144  1.4082
   65TMC2    H1 1015   1.815   3.477  15.685 -0.0357  0.1178 -0.0523
   65TMC2    H2 1016   1.773   3.565  15.273  0.4715 -0.3053 -0.7116
   65TMC2    C7 1017   1.732   3.661  15.498 -0.4772  0.5746  0.6652
   65TMC2    C8 1018   1.894   3.336  15.200  0.2069 -0.6908 -0.0605
   65TMC2    O1 1019   1.739   3.742  15.406 -0.0606 -0.1269 -0.2689
   65TMC2    O2 1020   1.951   3.231  15.173  0.0621 -0.4677  0.1773
   65TMC2    O5 1021   1.900   3.447  15.124  0.3937  0.2590  0.0924
   65TMC2    H5 1022   1.863   3.535  15.150 -0.5846  0.3925 -1.7693
   66MPD2     C 1023   1.824   2.984  15.827  0.2869  0.0790 -0.5319
   66MPD2    C1 1024   1.851   2.984  15.693 -0.2210  1.2364 -0.4696
   66MPD2    C2 1025   1.842   2.864  15.627 -0.2342 -0.2327 -0.4903
   66MPD2    C3 1026   1.809   2.745  15.692  0.2261  0.0340  0.2044
   66MPD2    C4 1027   1.792   2.744  15.830 -0.4237  0.0816  0.0901
   66MPD2    C5 1028   1.793   2.868  15.885  0.1569  0.4614 -0.2075
   66MPD2     H 1029   1.858   2.871  15.520 -1.4083  0.7736 -0.6025
   66MPD2    H1 1030   1.763   2.659  15.890 -0.8254  1.2893  1.5899
   66MPD2    H2 1031   1.819   3.070  15.893 -1.0098 -1.0867  0.9101
   66MPD2    H3 1032   1.760   2.876  15.988  0.4332 -0.6172 -0.0307
   66MPD2     N 1033   1.775   2.622  15.617 -0.4591  0.1920 -0.2697
   66MPD2    H5 1034   1.743   2.542  15.670  0.9465 -0.0241  0.2314
   66MPD2    N1 1035   1.867   3.096  15.612 -0.0690  0.2811  0.3234
   66MPD2    H7 1036   1.849   3.085  15.513 -1.3599 -0.4933  0.6557
   67TMC2    C1 1037   2.212   2.322  14.289 -0.1083  0.0280  0.8384
   67TMC2    C2 1038   2.128   2.432  14.262 -0.3369 -0.7117 -0.0338
   67TMC2    C3 1039   2.150   2.538  14.347 -0.0148 -0.4214 -0.6906
   67TMC2    C4 1040   2.326   2.324  14.366  0.0369 -0.7412 -0.2057
   67TMC2    C5 1041   2.338   2.429  14.441 -0.3208  0.1705  0.4436
   67TMC2    C6 1042   2.258   2.539  14.437 -0.0980  0.3650 -0.3829
   67TMC2     C 1043   2.177   2.190  14.242 -0.7563 -0.0767 -0.8656
   67TMC2     O 1044   2.254   2.096  14.246 -0.0408  0.1731  0.1772
   67TMC2     H 1045   2.045   2.425  14.193 -1.9582  1.1266  1.7488
   67TMC2    H1 1046   2.389   2.237  14.384 -0.5949 -0.8561  1.4654
   67TMC2    H2 1047   2.282   2.632  14.488 -2.4696  0.4687  0.5425
   67TMC2    C7 1048   2.430   2.418  14.549  0.0758 -0.3893  0.6201
   67TMC2    C8 1049   2.061   2.650  14.324  0.4818  0.2351  0.3967
   67TMC2    O1 1050   2.513   2.326  14.548  0.2301 -0.0791  0.1610
   67TMC2    O2 1051   2.004   2.659  14.215  0.0294  0.5460 -0.0017
   67TMC2    O5 1052   2.013   2.670  14.448 -0.1900  0.0018 -0.2106
   67TMC2    H5 1053   2.057   2.629  14.525 -1.2046 -1.8739 -0.6389
   68MPD2     C 1054   2.047   1.994  14.044 -0.2021 -0.4627  0.1528
   68MPD2    C1 1055   1.982   2.096  14.108 -0.7186  0.5266 -0.3471
   68MPD2    C2 1056   1.863   2.141  14.052  0.0504 -0.3176  0.3724
   68MPD2    C3 1057   1.812   2.073  13.943  0.1599  0.4892  0.6810
   68MPD2    C4 1058   1.871   1.957  13.894 -0.7540  0.0979 -0.9988
   68MPD2    C5 1059   1.991   1.919  13.950  0.0642 -0.2875  0.2938
   68MPD2     H 1060   1.812   2.224  14.100  0.2447 -0.7369  1.3007
   68MPD2    H1 1061   1.831   1.902  13.809  2.0484 -1.1429 -1.5004
   68MPD2    H2 1062   2.148   1.969  14.076  1.0784  2.1935 -1.7544
   68MPD2    H3 1063   2.047   1.833  13.915  0.8054 -0.0282  0.8200
   68MPD2     N 1064   1.679   2.098  13.887  0.4135  0.0630 -0.1146
   68MPD2    H5 1065   1.648   2.029  13.819 -1.6611 -0.4621  1.3689
   68MPD2    N1 1066   2.045   2.184  14.200 -0.4172  0.3128  0.0194
   68MPD2    H7 1067   1.988   2.262  14.231 -0.5074  0.0713  0.4549
   69TMC2    C1 1068   4.112   3.662  12.448 -0.3672 -0.6384 -0.2758
   69TMC2    C2 1069   4.003   3.750  12.448 -0.0219 -0.2935 -0.8917
   69TMC2    C3 1070   3.943   3.771  12.333 -0.2173 -0.2507  0.7828
   69TMC2    C4 1071   4.171   3.621  12.335 -0.0148  0.0207  0.1818
   69TMC2    C5 1072   4.111   3.665  12.220  0.1453 -0.1251  0.8477
   69TMC2    C6 1073   3.987   3.730  12.206 -0.2422  0.5243  0.2893
   69TMC2     C 1074   4.150   3.617  12.586 -0.0657  0.2836  0.9517
   69TMC2     O 1075   4.115   3.697  12.670 -0.0799  0.1264  0.0309
   69TMC2     H 1076   3.961   3.777  12.544 -0.1822  3.0662 -1.9178
   69TMC2    H1 1077   4.260   3.559  12.337  0.4100  0.6374  0.1872
   69TMC2    H2 1078   3.926   3.742  12.117 -0.6814 -1.0009  0.3777
   69TMC2    C7 1079   4.168   3.610  12.104  0.1608  0.3516  0.9728
   69TMC2    C8 1080   3.831   3.865  12.335  0.1631 -0.3031 -0.2975
   69TMC2    O1 1081   4.253   3.525  12.117  0.4651 -0.6951  0.9205
   69TMC2    O2 1082   3.732   3.870  12.409 -0.3397 -0.1534 -0.4043
   69TMC2    O5 1083   3.854   3.948  12.236 -0.3672  0.0541 -0.1536
   69TMC2    H5 1084   3.941   3.932  12.194 -0.6100 -3.0898  0.5243
   70MPD2     C 1085   4.209   3.480  12.843 -0.1976 -0.2645 -0.5803
   70MPD2    C1 1086   4.195   3.415  12.719 -0.0397  0.8609  0.6181
   70MPD2    C2 1087   4.186   3.278  12.717 -1.0869  0.4848 -0.3486
   70MPD2    C3 1088   4.202   3.203  12.833  0.1785  0.2268 -0.2613
   70MPD2    C4 1089   4.225   3.267  12.947 -0.2640  0.3088  0.0600
   70MPD2    C5 1090   4.228   3.405  12.952 -0.4492  0.3485 -1.2335
   70MPD2     H 1091   4.163   3.237  12.619  2.1064 -1.4567 -0.2896
   70MPD2    H1 1092   4.250   3.213  13.038 -0.8228  1.9608  1.2038
   70MPD2    H2 1093   4.214   3.587  12.857  2.6883 -0.1749 -2.3158
   70MPD2    H3 1094   4.263   3.448  13.046 -1.8540 -2.7881  0.7337
   70MPD2     N 1095   4.209   3.060  12.828 -0.4356 -0.1998 -0.1516
   70MPD2    H5 1096   4.216   3.013  12.918  1.8582  0.4444  0.0068
   70MPD2    N1 1097   4.178   3.481  12.594 -0.0875  0.1115  0.1845
   70MPD2    H7 1098   4.173   3.433  12.505  1.7103 -1.9181  1.1588
   71TMC2    C1 1099   1.345   3.764   1.229  0.0279  0.6715 -0.6143
   71TMC2    C2 1100   1.456   3.834   1.204 -0.3867 -0.0018 -0.7903
   71TMC2    C3 1101   1.556   3.832   1.297  0.1722 -0.4417  0.1715
   71TMC2    C4 1102   1.322   3.718   1.356  0.2603 -0.1374 -0.5285
   71TMC2    C5 1103   1.414   3.736   1.454 -0.1200  0.0520  0.0512
   71TMC2    C6 1104   1.533   3.800   1.430 -0.1150 -0.0779  0.0625
   71TMC2     C 1105   1.246   3.764   1.124  0.3873 -0.3808  0.0623
   71TMC2     O 1106   1.273   3.850   1.040  0.4537 -0.5200  0.1218
   71TMC2     H 1107   1.486   3.875   1.108 -0.8809  1.6707 -0.2296
   71TMC2    H1 1108   1.238   3.652   1.371 -1.1445  1.8815  0.4229
   71TMC2    H2 1109   1.601   3.813   1.514 -1.3656 -0.3161  1.1270
   71TMC2    C7 1110   1.350   3.791   1.577 -0.5920 -0.7215  0.4021
   71TMC2    C8 1111   1.677   3.887   1.264 -0.3669 -0.4571 -0.3245
   71TMC2    O1 1112   1.419   3.809   1.674 -0.1469 -0.0468 -0.0761
   71TMC2    O2 1113   1.722   3.890   1.151 -0.4213  0.2080 -0.0337
   71TMC2    O5 1114   1.704   3.982   1.357 -0.0568 -0.0542  0.4910
   71TMC2    H5 1115   1.641   3.983   1.432 -1.3887 -0.7810 -0.6225
   72MPD2     C 1116   0.799   3.701   0.892 -0.4319 -0.1894  0.1920
   72MPD2    C1 1117   0.909   3.786   0.863 -0.1563  0.2643 -0.1802
   72MPD2    C2 1118   1.021   3.770   0.941 -0.1902  0.0785  0.0887
   72MPD2    C3 1119   1.022   3.691   1.056 -0.3394  0.5674  0.1234
   72MPD2    C4 1120   0.912   3.615   1.085 -0.0350  0.3688 -0.5098
   72MPD2    C5 1121   0.808   3.621   0.997  0.6839 -0.5624 -0.5933
   72MPD2     H 1122   1.098   3.841   0.912 -0.3683 -0.9716 -2.9582
   72MPD2    H1 1123   0.902   3.554   1.175  2.4600  2.8833  1.4538
   72MPD2    H2 1124   0.699   3.711   0.852 -0.6071  1.5682  1.0305
   72MPD2    H3 1125   0.715   3.574   1.026  0.8932 -0.6882 -0.1387
   72MPD2     N 1126   1.129   3.700   1.149 -0.2204  0.1366  0.1221
   72MPD2    H5 1127   1.121   3.653   1.239 -3.0019 -0.1430 -0.2830
   72MPD2    N1 1128   0.911   3.874   0.751  0.6279  0.0544 -0.3854
   72MPD2    H7 1129   0.990   3.937   0.739  1.9763 -1.7316 -0.8102
   73TMC2    C1 1130   1.209   1.594  13.569 -0.9071 -0.3483  0.7072
   73TMC2    C2 1131   1.147   1.677  13.659  0.7257  0.9805  0.4794
   73TMC2    C3 1132   1.151   1.665  13.795  0.6020 -0.6863  0.4346
   73TMC2    C4 1133   1.278   1.490  13.624 -0.3479  0.2360 -0.1860
   73TMC2    C5 1134   1.275   1.469  13.763 -0.2656  1.5991 -0.7588
   73TMC2    C6 1135   1.218   1.556  13.850  0.5712  0.4587 -0.0759
   73TMC2     C 1136   1.282   1.649  13.456  0.0396 -0.2120 -0.1605
   73TMC2     O 1137   1.385   1.590  13.425 -0.2615 -0.3047 -0.1380
   73TMC2     H 1138   1.104   1.773  13.632 -0.0622  0.7112  0.7485
   73TMC2    H1 1139   1.335   1.417  13.567 -0.2073  0.1896  0.0166
   73TMC2    H2 1140   1.243   1.550  13.956  0.6277  0.0944 -0.1082
   73TMC2    C7 1141   1.412   1.424  13.796 -0.1645  1.0663 -0.0667
   73TMC2    C8 1142   1.119   1.782  13.875 -0.0510  0.6393  0.4283
   73TMC2    O1 1143   1.419   1.309  13.844 -0.6672 -0.4616 -0.3098
   73TMC2    O2 1144   1.077   1.887  13.821 -0.3247 -0.2787  0.0445
   73TMC2    O5 1145   1.180   1.775  13.995 -0.1703  0.1629  0.0209
   73TMC2    H5 1146   1.182   1.678  14.011  0.9889  0.2909  0.6502
   74MPD2     C 1147   1.443   2.032  13.151 -0.0254 -0.4589  0.2318
   74MPD2    C1 1148   1.512   1.942  13.226 -0.1721  0.0829 -0.0877
   74MPD2    C2 1149   1.444   1.844  13.302  0.2156 -0.0478  0.3830
   74MPD2    C3 1150   1.300   1.848  13.306  0.2882 -0.5678 -0.0054
   74MPD2    C4 1151   1.236   1.959  13.244  0.0834  0.1151  0.1406
   74MPD2    C5 1152   1.313   2.051  13.172  0.2046  0.0303 -0.6222
   74MPD2     H 1153   1.505   1.779  13.364  2.1594  1.0572 -0.3704
   74MPD2    H1 1154   1.130   1.980  13.254  0.0537  0.3837 -0.7475
   74MPD2    H2 1155   1.491   2.109  13.091 -1.3838  0.3753  0.2110
   74MPD2    H3 1156   1.253   2.119  13.114 -0.9310 -0.9481 -0.5995
   74MPD2     N 1157   1.228   1.761  13.399  0.1536  0.3982 -0.4740
   74MPD2    H5 1158   1.139   1.802  13.428  0.3388  0.1326  0.4711
   74MPD2    N1 1159   1.651   1.951  13.224  0.4327 -0.0205 -0.1938
   74MPD2    H7 1160   1.692   2.005  13.149 -2.7074  0.8815 -1.2588
   75TMC2    C1 1161   1.457   2.153  13.871  0.2524 -0.0293 -0.2136
   75TMC2    C2 1162   1.437   2.024  13.830 -0.2451  0.5528  0.6929
   75TMC2    C3 1163   1.386   2.000  13.707 -0.1524  0.7994  0.3688
   75TMC2    C4 1164   1.421   2.263  13.791 -0.1074  0.3590  0.2241
   75TMC2    C5 1165   1.366   2.230  13.672  0.2462 -0.1799 -0.7338
   75TMC2    C6 1166   1.353   2.102  13.625 -0.1829 -0.0896 -0.4058
   75TMC2     C 1167   1.585   2.184  13.937  0.6014 -1.0234 -0.2670
   75TMC2     O 1168   1.603   2.293  13.993 -0.4523  0.3667  0.0380
   75TMC2     H 1169   1.470   1.940  13.889  0.2238 -0.9439 -1.7216
   75TMC2    H1 1170   1.460   2.361  13.815  0.0423  0.7418 -1.5608
   75TMC2    H2 1171   1.328   2.071  13.524  0.0259  0.0685 -0.5046
   75TMC2    C7 1172   1.367   2.322  13.560 -0.3683  0.3451  0.0695
   75TMC2    C8 1173   1.460   1.890  13.646 -0.4801  0.2349  0.8599
   75TMC2    O1 1174   1.324   2.279  13.450 -0.0757 -0.7639 -0.5401
   75TMC2    O2 1175   1.449   1.782  13.693  0.0690  0.3036  0.2431
   75TMC2    O5 1176   1.572   1.960  13.635  0.3990 -0.4455  0.8005
   75TMC2    H5 1177   1.578   2.028  13.564  2.0890  0.4345  1.7971
   76TMC2    C1 1178   0.416   2.460  12.047 -0.0186  0.0887 -0.2477
   76TMC2    C2 1179   0.309   2.377  12.075 -0.5949 -0.0322 -0.3210
   76TMC2    C3 1180   0.337   2.240  12.068 -0.0869 -0.3087  0.3737
   76TMC2    C4 1181   0.544   2.412  12.029  0.2710 -0.6968  0.0744
   76TMC2    C5 1182   0.560   2.277  12.043  0.3873  0.4029 -0.9010
   76TMC2    C6 1183   0.458   2.183  12.054  0.7755 -0.2112 -0.0739
   76TMC2     C 1184   0.381   2.588  11.984 -0.0744 -0.6648  0.2056
   76TMC2     O 1185   0.262   2.589  11.954  0.4772 -0.1043 -0.0030
   76TMC2     H 1186   0.206   2.413  12.076 -0.1783  1.1503  0.7498
   76TMC2    H1 1187   0.619   2.473  11.979 -0.5215 -0.9770 -1.4273
   76TMC2    H2 1188   0.473   2.076  12.045  0.7942 -0.2383  0.2696
   76TMC2    C7 1189   0.693   2.222  12.063  0.4514  0.2461 -0.3118
   76TMC2    C8 1190   0.223   2.144  12.069  0.0467  0.0225  0.0106
   76TMC2    O1 1191   0.707   2.098  12.040  0.0701 -0.3263 -0.1719
   76TMC2    O2 1192   0.239   2.028  12.042 -0.2549  0.3754 -0.7526
   76TMC2    O5 1193   0.117   2.207  12.129  0.0316  0.5890  0.2864
   76TMC2    H5 1194   0.140   2.272  12.199  1.5942  0.7033 -0.3322
   77MPD2     C 1195   0.430   3.086  11.912 -0.2103 -0.5341 -0.3080
   77MPD2    C1 1196   0.330   2.999  11.871  0.4317  0.3745 -0.1697
   77MPD2    C2 1197   0.349   2.872  11.902  0.0420  0.4164  0.1527
   77MPD2    C3 1198   0.457   2.819  11.965 -0.8262 -0.2943 -0.8732
   77MPD2    C4 1199   0.551   2.907  12.015 -0.3932  0.6790  0.1736
   77MPD2    C5 1200   0.539   3.035  11.981  0.4021 -0.6385  0.1865
   77MPD2     H 1201   0.255   2.817  11.897  0.8886 -0.7863 -2.8969
   77MPD2    H1 1202   0.646   2.881  12.059 -1.7705 -0.6562  2.3693
   77MPD2    H2 1203   0.432   3.189  11.880 -0.6030 -0.1809  0.7944
   77MPD2    H3 1204   0.635   3.084  11.997  0.8575 -1.4003 -0.1994
   77MPD2     N 1205   0.476   2.684  11.998  0.5511 -0.2958 -0.1856
   77MPD2    H5 1206   0.560   2.657  12.047  3.0787  1.2902 -3.6633
   77MPD2    N1 1207   0.211   3.031  11.809  0.4901 -0.2121 -0.7161
   77MPD2    H7 1208   0.137   2.963  11.792  1.9236 -1.8928 -0.2593
   78TMC2    C1 1209   0.866   3.193   1.038 -0.4008 -0.2191 -0.4983
   78TMC2    C2 1210   0.829   3.254   0.919 -0.6137  0.2787  0.0529
   78TMC2    C3 1211   0.920   3.335   0.866  0.7035 -0.0222 -0.1065
   78TMC2    C4 1212   0.986   3.212   1.106  0.3678  0.2351 -0.1155
   78TMC2    C5 1213   1.073   3.291   1.035 -0.3025  0.5179  0.4659
   78TMC2    C6 1214   1.047   3.353   0.919  0.1587 -0.3833  1.0507
   78TMC2     C 1215   0.787   3.092   1.095 -0.2038  0.0111  0.3540
   78TMC2     O 1216   0.815   3.067   1.212  0.3748 -0.3546 -0.1734
   78TMC2     H 1217   0.732   3.239   0.872 -1.2759  2.2292  0.7906
   78TMC2    H1 1218   1.023   3.155   1.190 -1.1028 -0.7377 -0.1158
   78TMC2    H2 1219   1.114   3.432   0.888 -0.8365  0.3545  0.7570
   78TMC2    C7 1220   1.203   3.333   1.100  0.3071 -0.3804  0.5366
   78TMC2    C8 1221   0.902   3.354   0.731 -0.8124  0.2823  0.1819
   78TMC2    O1 1222   1.286   3.388   1.028 -0.2306 -0.0003 -0.2139
   78TMC2    O2 1223   0.794   3.341   0.674 -0.3410 -0.0761 -0.0324
   78TMC2    O5 1224   1.013   3.312   0.666 -0.2730 -0.0994 -0.0632
   78TMC2    H5 1225   1.096   3.314   0.719 -0.3979 -1.9395  0.1949
   79MPD1     C 1226   0.328   2.863   1.149  0.4180 -0.1097  0.2319
   79MPD1    C1 1227   0.406   2.941   1.236  0.2731 -1.2552 -0.1368
   79MPD1    C2 1228   0.523   2.989   1.190 -0.7085  0.3617 -0.9485
   79MPD1    C3 1229   0.570   2.980   1.062 -0.2286  0.3542  0.2988
   79MPD1    C4 1230   0.490   2.911   0.981 -0.5106  0.2669  0.3435
   79MPD1    C5 1231   0.377   2.840   1.024 -1.0368 -0.6497 -0.0943
   79MPD1     H 1232   0.578   3.052   1.259  0.6548 -0.3325 -1.3830
   79MPD1    H1 1233   0.521   2.895   0.879 -2.7788 -1.7332 -0.0440
   79MPD1    H2 1234   0.238   2.814   1.185  1.1924 -1.0828  0.8402
   79MPD1    H3 1235   0.327   2.776   0.953 -1.8204 -1.4283  1.1705
   79MPD1     N 1236   0.691   3.040   1.013  0.3711  0.0579 -0.3572
   79MPD1    H5 1237   0.704   3.021   0.914  1.5019  2.4160 -0.6432
   79MPD1    N1 1238   0.372   2.943   1.373 -0.3331 -0.7127  0.1629
   79MPD1    H6 1239   0.413   3.009   1.438 -2.1983 -0.2277  0.8266
   79MPD1    H7 1240   0.274   2.951   1.398 -0.3030 -1.8394  0.6051
   80TMC2    C1 1241   3.427   2.232  11.621  0.4446  0.3836  0.3824
   80TMC2    C2 1242   3.314   2.211  11.554 -0.1318 -0.0540 -0.4768
   80TMC2    C3 1243   3.249   2.093  11.571 -0.3419 -0.0153  0.5643
   80TMC2    C4 1244   3.490   2.139  11.703 -1.0666 -0.7402  0.2704
   80TMC2    C5 1245   3.429   2.016  11.710  0.1710 -0.6399  0.0681
   80TMC2    C6 1246   3.304   1.993  11.646 -0.4462 -0.0466  0.1812
   80TMC2     C 1247   3.516   2.332  11.558 -0.2862  0.1563  0.3642
   80TMC2     O 1248   3.518   2.332  11.437  0.1274  0.4444  0.0221
   80TMC2     H 1249   3.268   2.302  11.516 -1.0509 -0.5242 -0.4723
   80TMC2    H1 1250   3.589   2.152  11.745 -0.8018  0.6222 -0.7698
   80TMC2    H2 1251   3.250   1.900  11.663 -0.0721 -0.3511 -0.3045
   80TMC2    C7 1252   3.469   1.920  11.807 -0.5422  0.0564  0.2791
   80TMC2    C8 1253   3.128   2.065  11.496  0.0571  0.1888 -0.1083
   80TMC2    O1 1254   3.412   1.812  11.797 -0.0996 -0.6858  0.2635
   80TMC2    O2 1255   3.128   1.987  11.404 -0.1241  0.1317  0.1713
   80TMC2    O5 1256   3.059   2.173  11.510  0.3594  0.5147  0.2262
   80TMC2    H5 1257   3.081   2.228  11.588 -0.1319  1.4692 -0.3082
   81MPD2     C 1258   3.651   2.590  11.485  0.2494  0.3164 -0.2442
   81MPD2    C1 1259   3.648   2.534  11.614  0.2797 -0.1678 -0.0457
   81MPD2    C2 1260   3.698   2.607  11.726 -0.3646 -0.3419  0.5225
   81MPD2    C3 1261   3.737   2.739  11.704 -1.3606 -0.0146  0.5352
   81MPD2    C4 1262   3.724   2.796  11.579  0.6324  0.2334 -0.3368
   81MPD2    C5 1263   3.682   2.721  11.474  0.4273 -0.7280 -0.3729
   81MPD2     H 1264   3.691   2.565  11.826  1.5586  2.3386  1.7766
   81MPD2    H1 1265   3.747   2.899  11.557  0.3585  0.1725 -0.9151
   81MPD2    H2 1266   3.616   2.546  11.393 -1.1228  2.9387 -0.9781
   81MPD2    H3 1267   3.682   2.771  11.378 -1.6032  0.9281  0.4994
   81MPD2     N 1268   3.760   2.804  11.827  0.3339 -0.4367 -0.2405
   81MPD2    H5 1269   3.787   2.753  11.911 -0.9010  0.7567  0.8638
   81MPD2    N1 1270   3.571   2.420  11.650  1.1874 -0.2102  0.8219
   81MPD2    H7 1271   3.552   2.402  11.748 -1.7872 -0.7655  0.1360
   82TMC2    C1 1272   2.357   1.338  10.789  0.1654  1.0452 -0.0349
   82TMC2    C2 1273   2.391   1.274  10.670 -0.3832  0.1513  0.2864
   82TMC2    C3 1274   2.442   1.148  10.683 -0.1043  0.3003  0.2750
   82TMC2    C4 1275   2.368   1.277  10.905 -0.0174  0.3044  0.0157
   82TMC2    C5 1276   2.420   1.154  10.914 -0.3434  0.0697 -0.0357
   82TMC2    C6 1277   2.453   1.083  10.802  0.0068  0.1985  0.0066
   82TMC2     C 1278   2.271   1.458  10.785 -0.1513 -0.6334  0.4012
   82TMC2     O 1279   2.242   1.517  10.884 -0.3690  0.1885 -0.0167
   82TMC2     H 1280   2.387   1.333  10.579  0.9478  3.3788  2.3034
   82TMC2    H1 1281   2.334   1.332  10.992  2.5397 -1.8777  2.4099
   82TMC2    H2 1282   2.518   0.996  10.804 -0.0109  0.2399  2.7598
   82TMC2    C7 1283   2.356   1.078  11.024  0.2663  1.0533  0.5092
   82TMC2    C8 1284   2.507   1.093  10.565  0.3990 -0.9378 -0.3548
   82TMC2    O1 1285   2.330   1.142  11.124  0.1493 -0.1041 -0.4843
   82TMC2    O2 1286   2.592   1.010  10.568  0.0521 -0.5664 -0.1005
   82TMC2    O5 1287   2.416   1.098  10.466  0.0240  0.0101 -0.0901
   82TMC2    H5 1288   2.362   1.179  10.477 -0.2688  0.2415 -3.2351
   83MPD2     C 1289   1.921   1.750  10.563 -0.4524 -0.0402  0.0872
   83MPD2    C1 1290   1.945   1.636  10.483  0.3656  0.6707 -0.1194
   83MPD2    C2 1291   2.019   1.530  10.530 -0.0477  0.3197 -0.6703
   83MPD2    C3 1292   2.098   1.555  10.640 -0.5582  0.1030 -0.2989
   83MPD2    C4 1293   2.078   1.669  10.722 -0.2800  0.0348  0.3477
   83MPD2    C5 1294   1.986   1.763  10.683 -0.0970 -0.3445  1.0294
   83MPD2     H 1295   2.030   1.439  10.473 -0.3117 -0.8973  1.2190
   83MPD2    H1 1296   2.143   1.702  10.803 -2.1073  0.1438  1.7654
   83MPD2    H2 1297   1.849   1.822  10.527 -2.9833 -1.5712  2.1157
   83MPD2    H3 1298   1.975   1.855  10.741  1.6154 -0.5754  1.7256
   83MPD2     N 1299   2.198   1.462  10.666  0.1652 -0.6102 -0.0178
   83MPD2    H5 1300   2.201   1.392  10.593  0.5488  0.2846 -0.8705
   83MPD2    N1 1301   1.879   1.648  10.361 -0.3706 -0.5828 -0.3507
   83MPD2    H7 1302   1.829   1.734  10.344  2.0096  0.8081 -0.2292
   84TMC2    C1 1303   4.396   1.097  10.938 -0.5007 -0.2516 -0.6789
   84TMC2    C2 1304   4.511   1.033  10.963 -0.0344  0.4913 -0.5962
   84TMC2    C3 1305   4.622   1.076  10.896  0.2209 -0.4695  0.2655
   84TMC2    C4 1306   4.397   1.206  10.854 -0.3767 -0.0561  0.7855
   84TMC2    C5 1307   4.511   1.253  10.795  0.6255  0.5402  0.1594
   84TMC2    C6 1308   4.622   1.178  10.806 -0.6917 -1.2392  0.3097
   84TMC2     C 1309   4.275   1.077  11.013  0.0559  0.5669 -0.4817
   84TMC2     O 1310   4.163   1.098  10.969 -0.2123 -0.4629  0.2964
   84TMC2     H 1311   4.516   0.938  11.017 -0.4315  0.6263 -0.3227
   84TMC2    H1 1312   4.305   1.259  10.834 -0.3875 -0.2565  0.2852
   84TMC2    H2 1313   4.708   1.203  10.747  1.2146 -2.1235  2.6923
   84TMC2    C7 1314   4.488   1.351  10.688  0.8234 -0.1328 -0.0705
   84TMC2    C8 1315   0.003   0.981  10.893  0.0083 -0.2009 -0.2814
   84TMC2    O1 1316   4.373   1.357  10.641 -0.7054 -0.4648 -0.1683
   84TMC2    O2 1317   0.085   0.955  10.806 -0.5407 -0.2417 -0.6190
   84TMC2    O5 1318   0.029   0.935  11.021  0.4829 -0.1474 -0.0436
   84TMC2    H5 1319   4.706   0.966  11.092  0.1956  1.0862 -0.8124
   85TMC2    C1 1320   4.007   4.337  15.952  0.8319 -0.3652 -0.6988
   85TMC2    C2 1321   3.882   4.336  15.901  0.5874 -0.1889  0.0904
   85TMC2    C3 1322   3.857   4.430  15.803 -0.0001 -0.9294  0.8163
   85TMC2    C4 1323   4.109   4.419  15.916 -0.0867  0.3853  0.1015
   85TMC2    C5 1324   4.079   4.512  15.821  0.7516 -0.6792  0.3727
   85TMC2    C6 1325   3.954   4.513  15.760 -0.0364  0.1472  0.5460
   85TMC2     C 1326   4.037   4.241  16.056 -0.0751 -0.2064  0.0662
   85TMC2     O 1327   4.155   4.231  16.094  0.2408  0.0024  0.2419
   85TMC2     H 1328   3.801   4.277  15.944  1.2872 -1.6196 -0.5706
   85TMC2    H1 1329   4.206   4.409  15.964  0.0220 -1.7611 -0.5398
   85TMC2    H2 1330   3.929   4.581  15.680  0.3600 -0.1663  0.1532
   85TMC2    C7 1331   4.194   4.578  15.769  0.1762 -0.5861  0.0425
   85TMC2    C8 1332   3.720   4.460  15.768  0.0363 -0.0610  0.0928
   85TMC2    O1 1333   4.295   4.515  15.786 -0.0798 -0.3698  0.3668
   85TMC2    O2 1334   3.689   4.566  15.721  0.8625 -0.3183 -0.3465
   85TMC2    O5 1335   3.641   4.347  15.771 -0.0581 -0.2609 -0.1411
   85TMC2    H5 1336   3.684   4.261  15.791 -1.4777 -1.1546 -0.9261
   86MPD2     C 1337   3.952   3.778  16.276  0.0007 -0.0173  0.3414
   86MPD2    C1 1338   3.844   3.807  16.195  0.0366 -0.8523  0.2301
   86MPD2    C2 1339   3.840   3.933  16.139  0.5247 -0.2671  0.7247
   86MPD2    C3 1340   3.948   4.025  16.148  0.9408  0.8722  0.5972
   86MPD2    C4 1341   4.054   3.992  16.230 -0.3624 -0.2592  0.0567
   86MPD2    C5 1342   4.053   3.870  16.288 -0.1549 -0.3201  0.3454
   86MPD2     H 1343   3.756   3.969  16.080  0.4594  0.3581  1.1996
   86MPD2    H1 1344   4.127   4.070  16.251 -0.1544 -0.2223 -0.7933
   86MPD2    H2 1345   3.964   3.685  16.330 -1.7113 -1.0532 -1.0594
   86MPD2    H3 1346   4.141   3.842  16.344  0.5942  0.1301 -0.6135
   86MPD2     N 1347   3.937   4.146  16.076  0.0810 -0.0730  0.3040
   86MPD2    H5 1348   3.852   4.159  16.022 -0.5699 -2.2839  0.8246
   86MPD2    N1 1349   3.740   3.713  16.171 -0.2045 -0.4285  0.1132
   86MPD2    H7 1350   3.674   3.732  16.097  1.0160 -0.4701 -0.9812
   87TMC2    C1 1351   2.158   2.154   0.901  0.7070 -0.7284 -0.6475
   87TMC2    C2 1352   2.212   2.048   0.974  0.4346 -0.2025 -0.3368
   87TMC2    C3 1353   2.245   2.082   1.107 -0.5128  0.0341  0.1839
   87TMC2    C4 1354   2.128   2.275   0.955  0.9376  0.1532 -0.1374
   87TMC2    C5 1355   2.163   2.302   1.086 -0.5223 -0.1790  0.0917
   87TMC2    C6 1356   2.229   2.207   1.162 -1.1600 -0.7903 -0.0636
   87TMC2     C 1357   2.106   2.115   0.773 -0.1379 -0.0906  0.0707
   87TMC2     O 1358   2.105   1.999   0.742  0.6622 -0.0552 -0.0077
   87TMC2     H 1359   2.239   1.954   0.926  0.3551  0.1259 -1.0313
   87TMC2    H1 1360   2.066   2.352   0.911  0.0537 -0.9410 -0.8083
   87TMC2    H2 1361   2.249   2.223   1.267 -0.0050  1.7959 -0.6995
   87TMC2    C7 1362   2.079   2.394   1.153 -0.5736  0.0665  0.5153
   87TMC2    C8 1363   2.325   1.993   1.177  0.4295  0.2796  0.0560
   87TMC2    O1 1364   1.960   2.412   1.116 -0.4658  0.5553  0.8991
   87TMC2    O2 1365   2.391   2.027   1.275 -0.0813 -0.4004 -0.4736
   87TMC2    O5 1366   2.270   1.873   1.160 -0.3409  0.9204 -0.2418
   87TMC2    H5 1367   2.191   1.870   1.102 -0.0179 -3.9974 -0.4415
   88MPD2     C 1368   2.175   2.526   1.490 -0.4217  0.1698  0.2097
   88MPD2    C1 1369   2.099   2.523   1.369  0.3334  0.5140 -0.1852
   88MPD2    C2 1370   1.982   2.597   1.365  0.5025  0.6173 -1.1128
   88MPD2    C3 1371   1.934   2.669   1.473  0.3986  0.6401 -0.5159
   88MPD2    C4 1372   2.016   2.678   1.586  0.8468 -0.0435  0.2620
   88MPD2    C5 1373   2.130   2.608   1.592 -1.0306 -0.1800  0.6736
   88MPD2     H 1374   1.940   2.598   1.265 -1.0573 -0.5516 -0.4815
   88MPD2    H1 1375   1.990   2.737   1.672  0.2799  1.0991 -0.6910
   88MPD2    H2 1376   2.268   2.474   1.505 -0.6403 -0.3463 -0.2076
   88MPD2    H3 1377   2.185   2.607   1.686  1.5340 -3.4151 -0.8324
   88MPD2     N 1378   1.825   2.760   1.460 -0.1341  0.1129 -0.8049
   88MPD2    H5 1379   1.804   2.832   1.528 -0.5969  0.7350 -1.6099
   88MPD2    N1 1380   2.145   2.435   1.269  0.5007  0.7010  0.1659
   88MPD2    H7 1381   2.235   2.391   1.285  1.1626  1.8052 -0.5037
   89TMC2    C1 1382   2.354   0.426   1.575  0.9876  0.0490 -0.3048
   89TMC2    C2 1383   2.486   0.468   1.591 -0.0057 -0.4445 -0.5684
   89TMC2    C3 1384   2.531   0.570   1.510  0.3417 -0.8651  0.4651
   89TMC2    C4 1385   2.275   0.474   1.478  0.0782 -0.0540 -0.5456
   89TMC2    C5 1386   2.325   0.574   1.398 -0.2711 -0.8633  0.3606
   89TMC2    C6 1387   2.454   0.627   1.413 -0.0142  0.0818 -0.3432
   89TMC2     C 1388   2.309   0.317   1.664 -0.1264  0.2484 -0.0903
   89TMC2     O 1389   2.349   0.338   1.779  0.1042 -0.9978  0.3571
   89TMC2     H 1390   2.555   0.424   1.662 -0.2084  0.7287  0.3521
   89TMC2    H1 1391   2.169   0.449   1.483 -0.2982  1.5533 -0.4119
   89TMC2    H2 1392   2.495   0.706   1.352 -0.5509  1.6919  1.3894
   89TMC2    C7 1393   2.249   0.600   1.280 -0.0155  0.0654 -0.1921
   89TMC2    C8 1394   2.679   0.603   1.521  0.1782 -0.6355 -0.4347
   89TMC2    O1 1395   2.140   0.548   1.262 -0.6604 -0.4010 -0.5492
   89TMC2    O2 1396   2.710   0.717   1.491 -0.2359  0.2446  0.1489
   89TMC2    O5 1397   2.729   0.490   1.460 -0.0447  0.3957 -0.1601
   89TMC2    H5 1398   2.666   0.415   1.470 -0.8348  1.2795  1.5479
   90MPD2     C 1399   2.196   4.571   1.754  0.1975  0.5151 -0.2594
   90MPD2    C1 1400   2.137   4.612   1.639  0.4787 -0.1376  0.0697
   90MPD2    C2 1401   2.162   4.734   1.593  0.7297  0.0403 -0.3762
   90MPD2    C3 1402   2.235   0.083   1.670 -0.2509 -0.1171 -0.7476
   90MPD2    C4 1403   2.290   0.053   1.790 -0.3970  0.0559  0.1633
   90MPD2    C5 1404   2.274   4.656   1.829  0.0007 -0.7076  0.4506
   90MPD2     H 1405   2.110   0.043   1.510 -0.2502 -0.4942 -0.0457
   90MPD2    H1 1406   2.342   0.119   1.858  1.3506  0.5266 -1.6498
   90MPD2    H2 1407   2.175   4.471   1.789 -3.3109  1.8079  1.3845
   90MPD2    H3 1408   2.322   4.622   1.920 -0.7508  0.4816  1.2999
   90MPD2     N 1409   2.257   0.205   1.600  0.5109 -0.6099 -0.4404
   90MPD2    H5 1410   2.233   0.215   1.502  0.7500  1.5735 -0.2672
   90MPD2    N1 1411   2.054   4.528   1.572  0.6352  0.7711 -0.2056
   90MPD2    H7 1412   2.030   4.445   1.626  0.6513  0.9210  0.0309
   91TMC2    C1 1413   3.336   0.156  16.016 -0.3448 -0.4552  0.4712
   91TMC2    C2 1414   3.405   0.092  16.119  0.2890  0.1921 -0.1790
   91TMC2    C3 1415   3.340   4.727  16.180 -0.2428 -0.3885 -0.2095
   91TMC2    C4 1416   3.223   0.105  15.959  1.1460  0.2095 -0.0955
   91TMC2    C5 1417   3.161   0.006  16.033 -0.1543 -0.7630 -0.6241
   91TMC2    C6 1418   3.212   4.683  16.146 -0.0364 -0.5160 -0.0630
   91TMC2     C 1419   3.401   0.271  15.949  0.4193 -0.3279  0.3944
   91TMC2     O 1420   3.331   0.337  15.876  0.4615 -0.2650  0.0367
   91TMC2     H 1421   3.497   0.119  16.168 -0.7844  0.9367  1.4340
   91TMC2    H1 1422   3.175   0.154  15.875  0.1044  1.4637  1.2449
   91TMC2    H2 1423   3.158   4.605  16.198 -1.5072 -0.6372 -1.7739
   91TMC2    C7 1424   3.049   4.674  15.977 -0.1359 -0.0127  0.3634
   91TMC2    C8 1425   3.413   4.682  16.306 -0.6024 -0.5557 -0.0013
   91TMC2    O1 1426   2.990   4.603  16.049 -0.4958  0.3243  0.2203
   91TMC2    O2 1427   3.535   4.685  16.324 -0.8979 -0.5069 -0.0237
   91TMC2    O5 1428   3.331   4.631  16.403  0.3575 -0.2201 -0.0808
   91TMC2    H5 1429   3.237   4.635  16.374  0.8459 -0.1248 -1.6318
   92MPD2     C 1430   3.589   0.495  15.878  0.1441  0.5623  0.0408
   92MPD2    C1 1431   3.624   0.374  15.928  0.3686  0.2097  0.3354
   92MPD2    C2 1432   3.756   0.343  15.937  0.7931  0.6877  0.0584
   92MPD2    C3 1433   3.853   0.426  15.889 -0.8692  0.5515  0.0289
   92MPD2    C4 1434   3.808   0.544  15.823 -0.2750  0.0080  1.1648
   92MPD2    C5 1435   3.679   0.581  15.827  0.0776 -0.5634 -0.0251
   92MPD2     H 1436   3.778   0.246  15.981 -1.9574 -0.1235 -0.3239
   92MPD2    H1 1437   3.885   0.613  15.792 -0.2051 -0.1984  0.8734
   92MPD2    H2 1438   3.487   0.533  15.872 -0.3639 -0.5991  1.3395
   92MPD2    H3 1439   3.653   0.679  15.789 -1.7574 -0.7620  0.7198
   92MPD2     N 1440   3.986   0.375  15.892  0.3582 -0.6224  0.1525
   92MPD2    H5 1441   3.999   0.286  15.939  0.0123 -0.4201  0.6393
   92MPD2    N1 1442   3.536   0.270  15.973 -0.1711  0.1579  0.2157
   92MPD2    H7 1443   3.572   0.183  16.011  0.5573 -0.3562 -1.6239
   93TMC2    C1 1444   1.530   0.765  14.091 -0.1287 -0.3785 -0.8261
   93TMC2    C2 1445   1.524   0.737  14.229  0.1926 -0.5517 -0.4704
   93TMC2    C3 1446   1.647   0.743  14.290  0.4901 -0.4343 -0.6729
   93TMC2    C4 1447   1.645   0.806  14.027  0.4227  0.7782 -0.8950
   93TMC2    C5 1448   1.762   0.824  14.104  0.4102 -0.3425  0.4368
   93TMC2    C6 1449   1.768   0.787  14.237  0.3737 -0.1430 -0.0508
   93TMC2     C 1450   1.410   0.827  14.038  0.6185 -0.1396  0.6269
   93TMC2     O 1451   1.434   0.931  13.978  0.0682 -0.3068 -0.6386
   93TMC2     H 1452   1.433   0.707  14.281 -1.0496  2.0078 -1.1541
   93TMC2    H1 1453   1.635   0.841  13.925 -0.2241  2.0367 -0.3904
   93TMC2    H2 1454   1.857   0.783  14.298 -0.7777 -1.6816  1.5548
   93TMC2    C7 1455   1.889   0.832  14.029 -0.5832 -0.0859 -0.0340
   93TMC2    C8 1456   1.652   0.707  14.426  0.3728 -0.6835  0.2712
   93TMC2    O1 1457   1.985   0.781  14.078 -0.0894 -0.2794  0.6786
   93TMC2    O2 1458   1.584   0.624  14.480 -0.2060 -0.2651  0.1401
   93TMC2    O5 1459   1.668   0.832  14.485 -0.2311  0.1218 -0.0591
   93TMC2    H5 1460   1.671   0.911  14.426  3.3064 -0.2851 -0.4175
   94MPD2     C 1461   1.182   0.874  13.860  0.7682 -0.1544  0.1099
   94MPD2    C1 1462   1.172   0.796  13.974  0.2893  0.6489 -0.2213
   94MPD2    C2 1463   1.049   0.744  14.024 -0.2592  0.9114  0.9525
   94MPD2    C3 1464   0.937   0.769  13.953 -0.1647 -0.7157  0.3330
   94MPD2    C4 1465   0.949   0.839  13.830  0.1522  0.4498 -0.1691
   94MPD2    C5 1466   1.069   0.883  13.783  0.7931 -0.1721  0.5150
   94MPD2     H 1467   1.050   0.691  14.119 -0.3809  1.2414  1.1387
   94MPD2    H1 1468   0.856   0.860  13.778  0.6118  1.4631 -0.5991
   94MPD2    H2 1469   1.282   0.899  13.826 -0.1127  1.9433 -0.9209
   94MPD2    H3 1470   1.071   0.936  13.689  0.6032  0.9103  1.1243
   94MPD2     N 1471   0.808   0.730  13.995 -0.1097  0.7762 -0.1956
   94MPD2    H5 1472   0.728   0.754  13.938 -0.5128 -0.9414 -0.3347
   94MPD2    N1 1473   1.288   0.765  14.049 -0.1479 -0.0892 -0.0812
   94MPD2    H7 1474   1.281   0.693  14.120  0.0889 -0.3626 -0.3417
   95TMC2    C1 1475   0.949   2.178  15.997  0.4025  0.4983  0.5420
   95TMC2    C2 1476   0.855   2.080  16.008 -0.6754 -0.2239  0.4051
   95TMC2    C3 1477   0.821   2.032  16.129  0.2780  0.3435 -0.2298
   95TMC2    C4 1478   1.007   2.236  16.109 -0.5080 -0.1642 -0.1452
   95TMC2    C5 1479   0.972   2.172  16.226 -0.0672 -0.0246  0.0004
   95TMC2    C6 1480   0.881   2.074  16.241 -0.7854  0.3519 -0.3462
   95TMC2     C 1481   1.015   2.202  15.874 -0.4567 -0.5940  0.1775
   95TMC2     O 1482   1.102   2.293  15.883  0.6289 -0.1251  0.6278
   95TMC2     H 1483   0.799   2.041  15.924 -3.5885 -0.4095  2.4616
   95TMC2    H1 1484   1.087   2.309  16.103 -1.9217  1.2900 -1.5175
   95TMC2    H2 1485   0.866   2.018  16.333  0.0517 -0.5117 -0.7378
   95TMC2    C7 1486   0.998   2.239  16.349 -0.5597 -0.6221  0.8189
   95TMC2    C8 1487   0.734   1.915  16.137  0.7211  0.4366 -0.6009
   95TMC2    O1 1488   0.945   2.184  16.445  0.3150  0.0229  0.3723
   95TMC2    O2 1489   0.698   1.848  16.036  0.1759  0.8317  0.7855
   95TMC2    O5 1490   0.654   1.936  16.238 -0.2674  0.3873  0.7716
   95TMC2    H5 1491   0.697   2.000  16.299  0.1865 -0.5562  1.4321
   96MPD2     C 1492   1.134   2.109  15.390  0.5558  0.5241  0.7090
   96MPD2    C1 1493   1.202   2.177  15.483 -0.3021  0.0844  0.1049
   96MPD2    C2 1494   1.149   2.193  15.616  0.4794 -0.4699  0.7974
   96MPD2    C3 1495   1.030   2.126  15.646  0.0566  0.0188 -0.9084
   96MPD2    C4 1496   0.966   2.054  15.548 -0.1374  0.1499 -0.3168
   96MPD2    C5 1497   1.011   2.049  15.417 -0.3548  0.0397 -0.4665
   96MPD2     H 1498   1.205   2.248  15.690 -0.7779  0.6179  0.9493
   96MPD2    H1 1499   0.865   2.019  15.568  1.0331 -1.9377  1.8411
   96MPD2    H2 1500   1.178   2.087  15.294  1.0090  0.1473  0.9999
   96MPD2    H3 1501   0.954   2.000  15.339 -1.0909  3.3980 -2.0068
   96MPD2     N 1502   0.968   2.122  15.774 -0.4498  0.5612 -0.7326
   96MPD2    H5 1503   0.890   2.058  15.782 -0.7801  0.7736 -2.2514
   96MPD2    N1 1504   1.334   2.221  15.451 -0.0933  0.1751 -0.5589
   96MPD2    H7 1505   1.370   2.214  15.357  0.2405  1.4454 -0.5228
   97TMC2    C1 1506   3.968   4.462  17.542 -0.7891  0.0333 -0.6471
   97TMC2    C2 1507   4.091   4.442  17.590 -0.0424 -0.1671  0.0462
   97TMC2    C3 1508   4.193   4.522  17.551  0.0844  0.0793 -0.2814
   97TMC2    C4 1509   3.934   4.568  17.461  0.0317 -0.1332 -0.6279
   97TMC2    C5 1510   4.045   4.646  17.422 -0.4654  0.3152 -0.3995
   97TMC2    C6 1511   4.171   4.631  17.479 -0.3968 -0.3205 -0.2288
   97TMC2     C 1512   3.864   4.376  17.599 -0.0548 -0.4187 -0.7253
   97TMC2     O 1513   3.870   4.346  17.719 -0.0637 -0.6078  0.0932
   97TMC2     H 1514   4.112   4.349  17.642 -0.2327  0.3153  1.0066
   97TMC2    H1 1515   3.831   4.586  17.430  0.8997  0.1169 -3.3965
   97TMC2    H2 1516   4.255   4.699  17.472 -0.5814 -0.1394 -0.6303
   97TMC2    C7 1517   4.033   0.034  17.352  0.1577 -0.2789 -0.7438
   97TMC2    C8 1518   4.334   4.481  17.575  0.0750  0.6229 -0.3031
   97TMC2    O1 1519   4.096   0.122  17.410 -0.0341 -0.4727  0.3520
   97TMC2    O2 1520   4.428   4.514  17.504  0.1844 -0.3122 -0.3057
   97TMC2    O5 1521   4.333   4.450  17.707  0.1581 -0.0094  0.2596
   97TMC2    H5 1522   4.246   4.422  17.742  1.2999 -2.1959  1.3224
   98MPD2     C 1523   3.407   4.142  17.533  0.5768  0.1034  0.2058
   98MPD2    C1 1524   3.496   4.138  17.647 -0.0726 -0.3880  0.6349
   98MPD2    C2 1525   3.616   4.208  17.638 -0.0041  0.2776  0.5521
   98MPD2    C3 1526   3.653   4.266  17.512 -1.1583  0.1545 -0.7222
   98MPD2    C4 1527   3.561   4.263  17.409  0.2207  0.2196  0.5999
   98MPD2    C5 1528   3.451   4.189  17.415 -0.2269 -1.0246 -0.7080
   98MPD2     H 1529   3.677   4.231  17.725  0.2314  0.1623  0.4158
   98MPD2    H1 1530   3.566   4.333  17.326  0.5626  0.8753  1.1738
   98MPD2    H2 1531   3.311   4.092  17.543  0.9913 -1.0537 -1.6541
   98MPD2    H3 1532   3.380   4.180  17.333  0.5514  0.6365 -1.5595
   98MPD2     N 1533   3.772   4.338  17.499 -0.3829  0.2856  0.7538
   98MPD2    H5 1534   3.806   4.371  17.409  0.2710 -1.5982  0.3304
   98MPD2    N1 1535   3.446   4.085   0.023  0.8858 -0.3254  0.4018
   98MPD2    H7 1536   3.357   4.037   0.028  1.0387 -0.7248 -0.6669
   99TMC2    C1 1537   2.267   0.922   1.471  0.3857 -0.6728  0.5924
   99TMC2    C2 1538   2.330   0.868   1.569 -0.2216 -0.0377  0.1518
   99TMC2    C3 1539   2.260   0.839   1.679  0.7517  0.0001  0.3639
   99TMC2    C4 1540   2.128   0.943   1.477 -0.3278 -0.2804 -0.6133
   99TMC2    C5 1541   2.056   0.911   1.591  0.7300 -0.6460 -0.8019
   99TMC2    C6 1542   2.125   0.852   1.695 -0.2596  0.7483 -0.0577
   99TMC2     C 1543   2.344   0.990   1.372 -0.2153  0.5630 -0.1121
   99TMC2     O 1544   2.465   0.977   1.386  0.4009  0.3122  0.3445
   99TMC2     H 1545   2.437   0.851   1.567  0.2880  3.4678 -2.4304
   99TMC2    H1 1546   2.068   1.000   1.406 -2.6161 -2.2175 -0.2545
   99TMC2    H2 1547   2.075   0.831   1.788  0.0687  1.6269  0.3210
   99TMC2    C7 1548   1.951   1.011   1.623 -0.4765  1.1028 -0.3662
   99TMC2    C8 1549   2.338   0.786   1.790 -0.2911  0.2494 -0.3788
   99TMC2    O1 1550   1.966   1.076   1.727 -0.7664 -0.5478  0.2775
   99TMC2    O2 1551   2.451   0.752   1.777 -0.5981 -0.1237  0.2428
   99TMC2    O5 1552   2.286   0.813   1.908 -0.3596 -0.9407  0.4068
   99TMC2    H5 1553   2.200   0.859   1.914 -0.0625 -0.4364  0.7392
  100MPD2     C 1554   2.457   1.189   1.178 -0.0922  0.0293 -0.3644
  100MPD2    C1 1555   2.333   1.126   1.161 -0.1750 -0.4963 -0.0643
  100MPD2    C2 1556   2.262   1.156   1.047 -0.0953 -0.4900 -0.2935
  100MPD2    C3 1557   2.317   1.234   0.944 -0.7502  0.2834  0.3988
  100MPD2    C4 1558   2.435   1.298   0.963 -0.2651  0.1793  0.4473
  100MPD2    C5 1559   2.503   1.276   1.081 -0.5225 -0.0241 -0.6459
  100MPD2     H 1560   2.159   1.124   1.034 -0.2209 -0.2217  0.0644
  100MPD2    H1 1561   2.465   1.372   0.889  1.2685  0.6026  1.5089
  100MPD2    H2 1562   2.519   1.160   1.263  1.1231  1.0134 -0.9182
  100MPD2    H3 1563   2.586   1.339   1.111  0.4621 -1.6987  0.1654
  100MPD2     N 1564   2.228   1.253   0.833 -0.2453  0.5890 -0.0044
  100MPD2    H5 1565   2.147   1.192   0.822  1.3853 -2.0171  2.2385
  100MPD2    N1 1566   2.267   1.050   1.267 -0.4666 -0.1701 -0.3453
  100MPD2    H7 1567   2.171   1.024   1.248 -0.9385  0.6075  0.9700
  101TMC2    C1 1568   3.605   3.112  13.581 -1.3938  0.0684 -0.4985
  101TMC2    C2 1569   3.644   3.156  13.703  0.4506  0.4286  0.9583
  101TMC2    C3 1570   3.722   3.270  13.695 -0.3610 -0.2020 -0.7022
  101TMC2    C4 1571   3.624   3.187  13.469 -0.9123  0.5719  0.4619
  101TMC2    C5 1572   3.686   3.306  13.467  0.4500  0.9215 -0.3190
  101TMC2    C6 1573   3.749   3.346  13.580  0.0081  0.2471 -0.1372
  101TMC2     C 1574   3.496   3.010  13.582  0.6374  0.2594  0.7926
  101TMC2     O 1575   3.393   3.016  13.649  0.0582  0.1078 -0.1343
  101TMC2     H 1576   3.631   3.089  13.787 -0.4443 -1.8714 -1.0290
  101TMC2    H1 1577   3.573   3.165  13.376  1.9308  1.7740 -1.3915
  101TMC2    H2 1578   3.796   3.443  13.584  1.1182 -0.3329  0.8446
  101TMC2    C7 1579   3.711   3.375  13.341  0.0881  0.2329 -0.9441
  101TMC2    C8 1580   3.744   3.332  13.824 -0.3412 -0.7579  1.0442
  101TMC2    O1 1581   3.630   3.358  13.248 -0.3838  0.2065  0.0247
  101TMC2    O2 1582   3.852   3.389  13.844 -0.0465  0.5670 -0.4875
  101TMC2    O5 1583   3.657   3.282  13.918  0.4709 -0.0185  0.5167
  101TMC2    H5 1584   3.575   3.251  13.874 -0.5294  1.9806  0.9737
  102MPD2     C 1585   3.465   2.830  13.259 -0.2133  0.0178  0.3521
  102MPD2    C1 1586   3.421   2.872  13.382  0.3158 -0.2678  0.1222
  102MPD2    C2 1587   3.295   2.844  13.425  0.3182  0.3312 -0.6732
  102MPD2    C3 1588   3.199   2.792  13.333 -1.4160  0.3978 -0.1417
  102MPD2    C4 1589   3.241   2.780  13.199 -0.1865 -0.4405 -0.7526
  102MPD2    C5 1590   3.373   2.792  13.168  0.4437 -0.2105  0.2626
  102MPD2     H 1591   3.267   2.860  13.528  1.1252  0.1164 -0.4293
  102MPD2    H1 1592   3.170   2.757  13.120 -1.2997 -2.4239  0.8106
  102MPD2    H2 1593   3.566   2.851  13.225 -0.0355  0.0402  0.8937
  102MPD2    H3 1594   3.403   2.780  13.064  1.7396  0.0071  0.6104
  102MPD2     N 1595   3.075   2.752  13.379 -0.3012  0.1130  0.3440
  102MPD2    H5 1596   3.065   2.746  13.480  0.2432 -0.3192  0.3739
  102MPD2    N1 1597   3.518   2.939  13.467 -0.4526 -0.1168  0.4460
  102MPD2    H7 1598   3.614   2.938  13.434 -0.5927 -2.3128  0.0764
  103TMC2    C1 1599   1.264   2.704  12.336 -0.1290  0.1791 -0.4534
  103TMC2    C2 1600   1.363   2.713  12.236 -0.7482  0.5321  0.1728
  103TMC2    C3 1601   1.459   2.805  12.250 -0.4105  0.1986 -0.0436
  103TMC2    C4 1602   1.255   2.794  12.438 -0.1332 -0.3034 -0.0538
  103TMC2    C5 1603   1.351   2.887  12.448 -0.3076 -0.4984  0.4813
  103TMC2    C6 1604   1.456   2.888  12.357  0.3457  0.4422  0.6248
  103TMC2     C 1605   1.162   2.598  12.333 -0.3662 -0.2284 -0.1257
  103TMC2     O 1606   1.059   2.620  12.400 -0.1706 -0.6684 -0.5716
  103TMC2     H 1607   1.371   2.657  12.143  0.7635  0.5241  0.3159
  103TMC2    H1 1608   1.196   2.776  12.528  1.7474 -0.3199  1.1682
  103TMC2    H2 1609   1.528   2.970  12.357  0.6180  0.2173 -1.2223
  103TMC2    C7 1610   1.335   2.980  12.554 -0.3021 -0.6680  0.4943
  103TMC2    C8 1611   1.589   2.773  12.198  0.0388  0.1455 -0.2836
  103TMC2    O1 1612   1.287   2.940  12.658 -0.1930 -0.2318  0.2229
  103TMC2    O2 1613   1.609   2.666  12.143  0.4625 -0.2033 -0.0328
  103TMC2    O5 1614   1.666   2.885  12.185 -0.0275 -0.3518  0.2583
  103TMC2    H5 1615   1.629   2.967  12.225 -1.1002 -1.0118  0.6438
  104MPD2     C 1616   1.199   2.264  12.172 -0.9602  0.6033  0.1093
  104MPD2    C1 1617   1.125   2.373  12.224 -0.1417 -0.0300  0.2815
  104MPD2    C2 1618   0.984   2.377  12.218 -0.5578  0.1354 -0.3014
  104MPD2    C3 1619   0.914   2.282  12.151  0.0011  0.2219  0.6854
  104MPD2    C4 1620   0.983   2.180  12.086  0.1121 -0.3382 -0.0605
  104MPD2    C5 1621   1.118   2.171  12.105  0.2442 -0.0010 -0.4970
  104MPD2     H 1622   0.934   2.466  12.256 -0.4335 -0.6807  1.7953
  104MPD2    H1 1623   0.940   2.104  12.022  1.2010 -1.2013  0.2399
  104MPD2    H2 1624   1.305   2.258  12.192 -0.6860  1.6927 -1.0724
  104MPD2    H3 1625   1.175   2.087  12.069  1.5368  0.8204 -0.3866
  104MPD2     N 1626   0.777   2.313  12.124  0.4146  0.0462  0.3687
  104MPD2    H5 1627   0.738   2.393  12.172  2.7222  2.2270 -1.3765
  104MPD2    N1 1628   1.206   2.485  12.267 -0.3631 -0.4079 -0.0518
  104MPD2    H7 1629   1.306   2.479  12.253 -0.3616 -0.8040  0.1208
  105TMC2    C1 1630   1.707   1.663   0.019  0.3367  0.1832  0.0648
  105TMC2    C2 1631   1.684   1.572   0.118  0.2414  0.3166  0.0383
  105TMC2    C3 1632   1.699   1.610   0.248  0.2048 -0.3581  0.9949
  105TMC2    C4 1633   1.731   1.799   0.049  0.5801  0.0522 -0.2357
  105TMC2    C5 1634   1.734   1.822   0.182 -0.8499 -0.4731  0.3090
  105TMC2    C6 1635   1.721   1.737   0.281  0.3009  0.3123  0.6665
  105TMC2     C 1636   1.722   1.611  17.626 -0.5562 -0.7156  0.5235
  105TMC2     O 1637   1.708   1.491  17.612 -0.4601  0.3672 -0.3604
  105TMC2     H 1638   1.658   1.468   0.102 -0.8968  0.5632  0.2808
  105TMC2    H1 1639   1.749   1.879  17.722 -1.0892  0.3074 -0.3690
  105TMC2    H2 1640   1.714   1.757   0.388 -3.5948 -2.7803  1.0229
  105TMC2    C7 1641   1.801   1.953   0.204 -0.2316  0.1562 -0.0075
  105TMC2    C8 1642   1.688   1.514   0.359 -0.3406  0.0010  0.3828
  105TMC2    O1 1643   1.787   2.038   0.117 -0.5738  0.3965  0.1886
  105TMC2    O2 1644   1.747   1.540   0.460  0.3769  0.5489 -0.5055
  105TMC2    O5 1645   1.569   1.456   0.348  0.0553  0.0801  0.3365
  105TMC2    H5 1646   1.539   1.453   0.254 -1.3875  0.5052  0.7747
  106MPD2     C 1647   1.743   1.716  17.127  0.8701  0.7146 -0.4844
  106MPD2    C1 1648   1.826   1.805  17.196 -0.3760 -0.4599 -0.6141
  106MPD2    C2 1649   1.838   1.783  17.332  0.6751 -1.1181 -0.0792
  106MPD2    C3 1650   1.764   1.689  17.396  0.4759 -0.0909  0.5099
  106MPD2    C4 1651   1.710   1.584  17.324  0.1194 -0.2265  0.3943
  106MPD2    C5 1652   1.684   1.608  17.191  0.5460 -0.2575  0.0906
  106MPD2     H 1653   1.902   1.845  17.394 -1.1662 -0.1046  0.8098
  106MPD2    H1 1654   1.658   1.497  17.363  2.8199 -1.2446  1.7631
  106MPD2    H2 1655   1.710   1.730  17.025  0.2532 -2.1640 -0.6952
  106MPD2    H3 1656   1.634   1.531  17.133 -0.6114 -0.6252  1.5640
  106MPD2     N 1657   1.767   1.704  17.536  0.0713 -0.7818 -1.1093
  106MPD2    H5 1658   1.801   1.788  17.581 -0.2209 -1.3335  0.1345
  106MPD2    N1 1659   1.895   1.915  17.137  0.9373 -0.6208  0.2187
  106MPD2    H7 1660   1.949   1.977  17.196  2.2406 -2.4989  0.9749
  107TMC2    C1 1661   3.429   1.030  11.336  0.3835 -0.4786 -0.2177
  107TMC2    C2 1662   3.382   0.965  11.229 -0.7067  0.4875  0.4901
  107TMC2    C3 1663   3.471   0.881  11.163  0.1048 -0.1804 -0.5203
  107TMC2    C4 1664   3.547   1.004  11.394  0.0903 -0.4923 -0.8153
  107TMC2    C5 1665   3.633   0.925  11.326 -0.2561 -0.2161 -0.4740
  107TMC2    C6 1666   3.606   0.868  11.201 -0.0162  0.5026  0.2801
  107TMC2     C 1667   3.351   1.135  11.398 -0.4337 -0.4939 -1.1121
  107TMC2     O 1668   3.365   1.154  11.517 -0.7002  0.7142  0.7461
  107TMC2     H 1669   3.285   0.994  11.191  0.4130  2.9476 -0.4637
  107TMC2    H1 1670   3.585   1.059  11.480  1.4367  2.0771 -3.0346
  107TMC2    H2 1671   3.664   0.789  11.154  1.8764 -0.0130  3.5206
  107TMC2    C7 1672   3.765   0.920  11.378  0.0555 -0.4461  0.2128
  107TMC2    C8 1673   3.436   0.823  11.036 -0.0350 -0.0040 -0.2276
  107TMC2    O1 1674   3.775   0.930  11.500  0.3993  0.0989 -0.3401
  107TMC2    O2 1675   3.364   0.875  10.948  0.0384 -0.0569 -0.1091
  107TMC2    O5 1676   3.428   0.691  11.066 -0.2043  0.2574  0.2541
  107TMC2    H5 1677   3.481   0.669  11.145 -1.9392 -1.5914  0.9241
  108MPD2     C 1678   3.152   1.372  11.221 -0.3281  0.3779 -0.1473
  108MPD2    C1 1679   3.202   1.311  11.332 -0.0411  0.7560 -1.0020
  108MPD2    C2 1680   3.152   1.344  11.458  0.3475  0.8367 -0.4877
  108MPD2    C3 1681   3.056   1.444  11.472  0.4692 -0.2506 -0.1698
  108MPD2    C4 1682   3.003   1.506  11.365  0.1303 -0.3011 -0.7190
  108MPD2    C5 1683   3.054   1.462  11.242  0.2665 -0.1931 -0.1698
  108MPD2     H 1684   3.190   1.290  11.545  0.2592  1.2397 -0.1968
  108MPD2    H1 1685   2.932   1.587  11.367  3.4211  2.5913 -1.3260
  108MPD2    H2 1686   3.180   1.343  11.121  0.7216 -0.6363  0.4391
  108MPD2    H3 1687   3.003   1.507  11.158 -1.5869 -1.7828  0.1140
  108MPD2     N 1688   2.996   1.484  11.595 -0.2239  0.4342  0.0683
  108MPD2    H5 1689   2.919   1.549  11.607 -0.0303  0.5042  0.9300
  108MPD2    N1 1690   3.286   1.200  11.306 -0.1210 -0.0967 -0.2358
  108MPD2    H7 1691   3.300   1.178  11.208  1.1361 -2.6444  0.4996
  109TMC2    C1 1692   2.469   3.683   0.270  0.4573 -0.4263  0.1348
  109TMC2    C2 1693   2.441   3.723   0.140 -0.4841  0.3862 -0.0771
  109TMC2    C3 1694   2.508   3.657   0.041  0.2658 -0.1453  0.5157
  109TMC2    C4 1695   2.567   3.590   0.298  0.8712 -0.3569  0.6177
  109TMC2    C5 1696   2.621   3.521   0.194 -0.6558 -0.3179 -0.0904
  109TMC2    C6 1697   2.595   3.559   0.065  0.1980 -0.0916  0.2477
  109TMC2     C 1698   2.425   3.773   0.367  0.2704 -0.1539 -0.3991
  109TMC2     O 1699   2.409   3.889   0.337 -0.2259  0.2180 -0.2115
  109TMC2     H 1700   2.370   3.804   0.128 -1.9034 -0.7213  0.8337
  109TMC2    H1 1701   2.587   3.559   0.400 -0.1826 -0.9120  0.6595
  109TMC2    H2 1702   2.641   3.536  17.713 -0.9653  0.4004 -0.4337
  109TMC2    C7 1703   2.764   3.502   0.220  0.4356 -0.0294  0.2947
  109TMC2    C8 1704   2.488   3.700  17.644  0.0074 -0.0773 -0.1531
  109TMC2    O1 1705   2.809   3.530   0.332 -0.1416  0.5064  0.3800
  109TMC2    O2 1706   2.512   3.627  17.549 -0.3328 -0.6100 -0.0076
  109TMC2    O5 1707   2.488   3.836  17.637  0.2110 -0.7175  0.1451
  109TMC2    H5 1708   2.463   3.878  17.722  1.8181 -0.6715  0.6022
  110MPD2     C 1709   2.232   3.896   0.826 -0.4914 -0.1586  0.3967
  110MPD2    C1 1710   2.232   3.760   0.817 -0.1939  0.4140 -0.1917
  110MPD2    C2 1711   2.287   3.697   0.702 -0.0461  0.3022 -0.3402
  110MPD2    C3 1712   2.331   3.778   0.598 -0.0355  0.0742  0.0079
  110MPD2    C4 1713   2.340   3.917   0.613 -0.2695 -0.4787  0.2110
  110MPD2    C5 1714   2.303   3.971   0.734  0.9038  0.2675 -0.8242
  110MPD2     H 1715   2.272   3.591   0.686 -3.3795  1.1367 -2.8263
  110MPD2    H1 1716   2.368   3.984   0.533  0.7669  2.0998  2.7155
  110MPD2    H2 1717   2.190   3.946   0.912 -0.4838  4.5425 -2.3206
  110MPD2    H3 1718   2.308   4.078   0.747  3.1585  0.0988 -0.4015
  110MPD2     N 1719   2.387   3.713   0.484 -0.1288 -0.1832 -0.5323
  110MPD2    H5 1720   2.397   3.612   0.482 -1.2987 -0.3162  0.5249
  110MPD2    N1 1721   2.169   3.681   0.912  0.2753 -0.3587 -0.1490
  110MPD2    H7 1722   2.184   3.580   0.918 -1.4744 -0.7067 -1.9210
  111TMC2    C1 1723   2.517   3.493  12.252 -0.1420  0.0570 -0.1344
  111TMC2    C2 1724   2.448   3.611  12.291 -0.2149 -0.4464  0.4606
  111TMC2    C3 1725   2.517   3.687  12.380  0.0087 -0.4162 -0.2590
  111TMC2    C4 1726   2.647   3.461  12.288 -0.0185 -0.0048  0.6467
  111TMC2    C5 1727   2.705   3.536  12.385  0.6910 -0.0991  0.0672
  111TMC2    C6 1728   2.643   3.649  12.432 -0.2571  0.2487  0.9101
  111TMC2     C 1729   2.450   3.425  12.144  0.6932 -0.1441  0.0990
  111TMC2     O 1730   2.363   3.485  12.077  0.5050 -0.1006  0.7207
  111TMC2     H 1731   2.347   3.633  12.259 -0.3343  2.2657  2.7262
  111TMC2    H1 1732   2.706   3.376  12.256 -0.5926  0.4670 -1.6250
  111TMC2    H2 1733   2.692   3.723  12.495 -0.0651 -0.9573  2.1755
  111TMC2    C7 1734   2.849   3.547  12.378  0.3318  0.2233  0.3348
  111TMC2    C8 1735   2.463   3.814  12.431  0.5090  0.4196 -0.0556
  111TMC2    O1 1736   2.906   3.577  12.483 -0.0571 -1.0024  0.2443
  111TMC2    O2 1737   2.491   3.880  12.526 -0.1551 -0.4789  0.4476
  111TMC2    O5 1738   2.369   3.858  12.356 -0.4393  0.0858  0.6988
  111TMC2    H5 1739   2.378   3.829  12.262 -1.3856  2.9171 -0.2693
  112MPD2     C 1740   2.401   2.995  11.852 -0.0757  0.0097 -0.3594
  112MPD2    C1 1741   2.429   3.128  11.817 -0.3765 -0.4060  0.1849
  112MPD2    C2 1742   2.432   3.222  11.921  0.2365  1.0112 -0.8293
  112MPD2    C3 1743   2.441   3.191  12.053  0.5168 -0.3277 -0.3838
  112MPD2    C4 1744   2.433   3.058  12.091 -0.1180  0.0187  0.5966
  112MPD2    C5 1745   2.409   2.965  11.983  0.6308 -0.3683 -0.1093
  112MPD2     H 1746   2.441   3.327  11.894  0.9899  1.0030 -0.6025
  112MPD2    H1 1747   2.452   3.030  12.194  2.3079  3.3441  1.0435
  112MPD2    H2 1748   2.377   2.918  11.780  1.4432  0.3533 -1.2286
  112MPD2    H3 1749   2.395   2.858  11.998  2.0418 -0.2701  1.8188
  112MPD2     N 1750   2.473   3.288  12.153 -0.5842  0.7363  0.0889
  112MPD2    H5 1751   2.519   3.259  12.238  0.0734 -3.4547 -1.7040
  112MPD2    N1 1752   2.435   3.170  11.687  0.0759  0.2638 -0.2312
  112MPD2    H7 1753   2.429   3.269  11.666 -0.4146 -0.1081 -1.8250
  113TMC2    C1 1754   1.207   1.236   0.682  0.4899 -0.4561  0.1500
  113TMC2    C2 1755   1.171   1.367   0.652  0.0786 -0.1225 -0.5904
  113TMC2    C3 1756   1.083   1.386   0.550  0.0645 -0.4534 -1.0289
  113TMC2    C4 1757   1.174   1.126   0.608  0.6956  0.6043 -0.5639
  113TMC2    C5 1758   1.084   1.146   0.511  0.2186 -0.6635  0.8569
  113TMC2    C6 1759   1.033   1.274   0.477  0.1975  0.7437  0.2709
  113TMC2     C 1760   1.332   1.228   0.756  0.2400 -0.6267  0.1254
  113TMC2     O 1761   1.378   1.331   0.804 -0.4630 -0.1630  0.3167
  113TMC2     H 1762   1.205   1.450   0.713  0.5785  0.5186 -1.7603
  113TMC2    H1 1763   1.199   1.025   0.636 -4.2414 -0.8485 -1.3386
  113TMC2    H2 1764   0.962   1.290   0.397  1.4561 -0.5068 -1.0980
  113TMC2    C7 1765   1.012   1.031   0.477  0.5589 -0.5160 -0.3210
  113TMC2    C8 1766   1.014   1.515   0.558 -0.2797 -0.2658  0.0354
  113TMC2    O1 1767   0.972   1.016   0.359  0.4680  0.0626 -0.0548
  113TMC2    O2 1768   0.891   1.527   0.572  0.4338 -0.5629  0.0359
  113TMC2    O5 1769   1.105   1.614   0.575  0.5082 -0.3718 -0.1265
  113TMC2    H5 1770   1.194   1.577   0.558  0.2856 -0.1846 -1.6632
  114MPD2     C 1771   1.696   0.961   1.008 -0.2460 -0.4234 -0.2890
  114MPD2    C1 1772   1.668   1.097   1.013  0.7804 -1.2658  0.4278
  114MPD2    C2 1773   1.559   1.139   0.941  0.5172  0.4386  0.3461
  114MPD2    C3 1774   1.491   1.055   0.857  0.1443  0.3315  1.1680
  114MPD2    C4 1775   1.530   0.924   0.857  0.2812 -0.4310 -0.3046
  114MPD2    C5 1776   1.629   0.876   0.932  0.1624  0.0803 -0.6593
  114MPD2     H 1777   1.531   1.243   0.940  0.8529  0.5218 -0.6749
  114MPD2    H1 1778   1.483   0.854   0.789  2.1007 -0.5956 -1.3923
  114MPD2    H2 1779   1.769   0.910   1.069  0.3314  0.8844  0.1082
  114MPD2    H3 1780   1.655   0.771   0.925  3.5140  0.8328  0.1990
  114MPD2     N 1781   1.389   1.098   0.766 -0.0046  0.3059  0.5868
  114MPD2    H5 1782   1.346   1.020   0.717 -1.1272  0.7000  0.9549
  114MPD2    N1 1783   1.731   1.197   1.100  1.4548  0.0879 -0.0609
  114MPD2    H7 1784   1.690   1.290   1.107  2.3116  0.4926 -0.3605
  115TMC2    C1 1785   1.976   4.226   0.124 -0.0463  0.1892 -0.3217
  115TMC2    C2 1786   2.086   4.226   0.039  0.1302  0.2473 -0.5375
  115TMC2    C3 1787   2.132   4.343  17.731  0.0777  0.1781 -0.4688
  115TMC2    C4 1788   1.906   4.343   0.139  0.2270  0.6418 -0.1949
  115TMC2    C5 1789   1.965   4.461   0.106  0.0601  0.2021  0.2337
  115TMC2    C6 1790   2.082   4.462   0.034 -0.5877 -0.0680  0.2922
  115TMC2     C 1791   1.902   4.100   0.125 -0.5546  0.7291 -0.5749
  115TMC2     O 1792   1.949   4.005   0.065 -0.4630  0.0240  0.1586
  115TMC2     H 1793   2.137   4.132   0.018 -1.7812 -0.8501 -0.3415
  115TMC2    H1 1794   1.804   4.346   0.176  1.0837  1.0250  2.1525
  115TMC2    H2 1795   2.139   4.553   0.024 -2.1893  0.6249 -2.4310
  115TMC2    C7 1796   1.908   4.587   0.149  0.6149  0.2770  0.4058
  115TMC2    C8 1797   2.268   4.342  17.680 -0.1913 -0.2132  0.0556
  115TMC2    O1 1798   1.814   4.591   0.227  0.4059  0.0370 -0.2560
  115TMC2    O2 1799   2.352   4.266  17.721  0.0083  0.1451  0.4575
  115TMC2    O5 1800   2.291   4.459  17.611 -0.0841 -0.2450  0.3092
  115TMC2    H5 1801   2.208   4.506  17.589  1.5168  2.3940  0.0175
  116MPD2     C 1802   1.476   3.853   0.291 -0.3425  0.0870 -0.1116
  116MPD2    C1 1803   1.560   3.827   0.183 -0.0709  0.3605  0.1272
  116MPD2    C2 1804   1.675   3.897   0.160  0.0664  0.1530  0.3103
  116MPD2    C3 1805   1.700   4.003   0.242  0.4784 -0.1638  0.4164
  116MPD2    C4 1806   1.609   4.033   0.343 -1.1871  0.2182 -0.4573
  116MPD2    C5 1807   1.505   3.952   0.377  0.9669  0.1342 -0.5438
  116MPD2     H 1808   1.747   3.865   0.086  0.8098  4.6571 -0.9364
  116MPD2    H1 1809   1.611   4.123   0.403  1.1266 -2.3166  3.2918
  116MPD2    H2 1810   1.391   3.791   0.317 -1.3470  0.7680 -1.7621
  116MPD2    H3 1811   1.435   3.978   0.457  0.2752 -1.1552 -0.7271
  116MPD2     N 1812   1.805   4.099   0.225 -0.0826 -0.4125 -0.2197
  116MPD2    H5 1813   1.815   4.172   0.296  0.6321  0.4064 -1.1624
  116MPD2    N1 1814   1.515   3.723   0.095 -0.4945  0.2445 -0.1671
  116MPD2    H7 1815   1.421   3.687   0.107 -0.6006  1.2757  2.1119
  117TMC2    C1 1816   0.471   1.068  14.261 -0.5640  0.0042 -0.3469
  117TMC2    C2 1817   0.555   1.016  14.358  1.4179 -0.4445  0.3784
  117TMC2    C3 1818   0.627   1.113  14.429  0.3774  0.3075 -0.8904
  117TMC2    C4 1819   0.466   1.202  14.227  0.0885 -0.2258 -0.1286
  117TMC2    C5 1820   0.556   1.284  14.288  0.6212  0.4304 -0.2330
  117TMC2    C6 1821   0.625   1.243  14.396  0.2941  0.4783  0.1181
  117TMC2     C 1822   0.405   0.965  14.177 -0.3143  0.4548  0.5389
  117TMC2     O 1823   0.412   0.853  14.219  0.1909  0.0875  0.2777
  117TMC2     H 1824   0.564   0.911  14.383 -1.5191 -0.6949  0.3567
  117TMC2    H1 1825   0.392   1.242  14.160  0.4188 -1.0094 -0.9655
  117TMC2    H2 1826   0.698   1.307  14.445  1.7844 -1.4954  0.4751
  117TMC2    C7 1827   0.585   1.418  14.240  0.4973 -0.8610 -0.1769
  117TMC2    C8 1828   0.695   1.083  14.553 -0.2857 -0.4084  0.2241
  117TMC2    O1 1829   0.649   1.481  14.321 -0.3748 -0.2075 -0.2975
  117TMC2    O2 1830   0.735   1.169  14.630 -0.2153  0.0656  0.1105
  117TMC2    O5 1831   0.759   0.970  14.527  0.1246  0.4036 -0.1349
  117TMC2    H5 1832   0.753   0.943  14.433  1.3890  0.6281 -0.2868
  118MPD2     C 1833   0.447   1.609  13.953 -0.0765  0.3143  0.8001
  118MPD2    C1 1834   0.531   1.583  14.055 -0.5055  0.3188  0.5081
  118MPD2    C2 1835   0.612   1.683  14.102  0.1441  0.1417 -0.3169
  118MPD2    C3 1836   0.600   1.808  14.040  0.1210 -0.3779  0.0450
  118MPD2    C4 1837   0.506   1.834  13.946 -0.1556 -0.3358  0.0725
  118MPD2    C5 1838   0.428   1.734  13.897 -0.4284 -0.4114  0.2270
  118MPD2     H 1839   0.680   1.678  14.186  1.9666 -1.1466 -1.8776
  118MPD2    H1 1840   0.486   1.931  13.904  2.8541 -0.4004 -1.5315
  118MPD2    H2 1841   0.382   1.529  13.918 -0.0648  0.2414  0.9436
  118MPD2    H3 1842   0.355   1.751  13.819  1.0467 -1.7126 -1.4303
  118MPD2     N 1843   0.687   1.917  14.057  0.1808 -0.1189 -0.8157
  118MPD2    H5 1844   0.688   1.987  13.983 -0.8906  2.0943  1.2716
  118MPD2    N1 1845   0.522   1.459  14.119  0.2192 -0.0755  0.3432
  118MPD2    H7 1846   0.463   1.391  14.072 -0.0485 -0.2157  0.8868
  119TMC2    C1 1847   3.762   2.215  13.256 -0.6698 -0.1241 -0.3395
  119TMC2    C2 1848   3.843   2.215  13.155 -0.9816  0.2912 -0.3957
  119TMC2    C3 1849   3.795   2.208  13.030  0.4949  0.2005 -0.0614
  119TMC2    C4 1850   3.624   2.208  13.245 -0.1717 -0.9747  0.4670
  119TMC2    C5 1851   3.580   2.201  13.113  0.2137  0.0370  0.3816
  119TMC2    C6 1852   3.664   2.215  13.009  0.4974 -0.3582 -0.3771
  119TMC2     C 1853   3.812   2.182  13.385 -1.2695  0.0590  0.8605
  119TMC2     O 1854   3.735   2.189  13.478  0.5237  0.0838 -0.0669
  119TMC2     H 1855   3.950   2.226  13.160 -0.8096 -2.0951  1.3009
  119TMC2    H1 1856   3.558   2.195  13.330 -0.4479 -0.7160  0.2923
  119TMC2    H2 1857   3.621   2.230  12.911  0.6970  2.8521  0.0343
  119TMC2    C7 1858   3.441   2.184  13.084 -0.1105 -0.0022  0.1321
  119TMC2    C8 1859   3.896   2.217  12.921  0.2152 -0.1318 -0.5066
  119TMC2    O1 1860   3.409   2.199  12.965  0.0761 -0.1492 -0.1687
  119TMC2    O2 1861   4.016   2.236  12.936 -0.4297  0.1086  0.3057
  119TMC2    O5 1862   3.848   2.170  12.804 -0.1005  0.6482  0.6161
  119TMC2    H5 1863   3.751   2.155  12.808 -0.2212  0.6196 -1.9819
  120MPD2     C 1864   4.072   1.828  13.646  0.0530  0.0638 -0.4991
  120MPD2    C1 1865   3.977   1.911  13.692  0.5330 -0.4360 -0.1744
  120MPD2    C2 1866   3.943   2.018  13.611 -0.1487 -0.4578  0.3223
  120MPD2    C3 1867   3.981   2.020  13.478 -0.2834  0.8987  0.1834
  120MPD2    C4 1868   4.085   1.937  13.437  0.2735 -0.3518 -0.5297
  120MPD2    C5 1869   4.125   1.836  13.523  0.0940  0.6595  0.0725
  120MPD2     H 1870   3.873   2.098  13.630  0.7328  0.3993 -0.0150
  120MPD2    H1 1871   4.121   1.930  13.335 -0.7006  0.3425 -0.9240
  120MPD2    H2 1872   4.102   1.740  13.701  2.2978  1.9538  1.3374
  120MPD2    H3 1873   4.190   1.757  13.488 -1.7425 -1.2750  1.0302
  120MPD2     N 1874   3.923   2.097  13.375 -0.4428 -0.0744 -0.6725
  120MPD2    H5 1875   3.956   2.073  13.282  0.6359 -0.7084 -0.1293
  120MPD2    N1 1876   3.919   1.884  13.822 -0.5194 -0.2297 -0.8718
  120MPD2    H7 1877   3.964   1.812  13.878  0.1368  0.9068  0.0492
  121TMC2    C1 1878   0.697   3.888  14.016 -0.0809 -0.6723  0.2140
  121TMC2    C2 1879   0.697   3.790  14.114 -0.2148  0.1727  0.1029
  121TMC2    C3 1880   0.576   3.750  14.167 -0.2713  0.4757 -0.2294
  121TMC2    C4 1881   0.585   3.969  14.006 -0.1127  0.0854  0.4307
  121TMC2    C5 1882   0.466   3.925  14.062 -0.4194 -0.1773 -0.5784
  121TMC2    C6 1883   0.458   3.821  14.148 -0.0624  0.0672 -0.6544
  121TMC2     C 1884   0.823   3.936  13.972 -0.1881  0.8735 -0.2617
  121TMC2     O 1885   0.921   3.906  14.039 -0.4101 -0.3157  0.6744
  121TMC2     H 1886   0.786   3.728  14.110 -1.3769 -1.4602 -0.8062
  121TMC2    H1 1887   0.578   4.069  13.964  1.9746 -0.1960 -0.6032
  121TMC2    H2 1888   0.367   3.784  14.194  1.1861  1.5455  3.0511
  121TMC2    C7 1889   0.363   4.022  14.066 -0.6959  0.1912 -0.7728
  121TMC2    C8 1890   0.568   3.626  14.241 -0.3383  0.0693 -0.4499
  121TMC2    O1 1891   0.397   4.142  14.069  0.4302  0.0019  0.1574
  121TMC2    O2 1892   0.657   3.544  14.230  0.3173  0.4961  0.3912
  121TMC2    O5 1893   0.558   3.672  14.366  0.6181 -0.5171 -0.5744
  121TMC2    H5 1894   0.529   3.766  14.370 -0.5598 -1.0164  2.4666
  122MPD2     C 1895   1.023   3.901  13.779 -0.8619  0.3828 -0.0008
  122MPD2    C1 1896   0.928   3.997  13.761 -0.4423 -0.1057 -0.6759
  122MPD2    C2 1897   0.949   4.096  13.666  0.0082 -0.7727  0.1972
  122MPD2    C3 1898   1.068   4.092  13.591 -0.2674 -0.7859  0.3499
  122MPD2    C4 1899   1.170   4.005  13.617  0.3009 -0.8492  0.5749
  122MPD2    C5 1900   1.139   3.901  13.708 -0.4034  0.0713 -0.4106
  122MPD2     H 1901   0.877   4.177  13.657 -0.1505 -1.1655 -2.2101
  122MPD2    H1 1902   1.260   3.997  13.557  0.1360 -3.4198  0.6685
  122MPD2    H2 1903   1.008   3.815  13.844 -1.0521  1.4540  1.3654
  122MPD2    H3 1904   1.212   3.822  13.720  1.7702  2.2044  0.3123
  122MPD2     N 1905   1.107   4.178  13.492  0.5106  0.7006 -0.0392
  122MPD2    H5 1906   1.200   4.157  13.458  0.0187  0.9693 -1.5500
  122MPD2    N1 1907   0.822   4.004  13.858 -0.3848  0.1270  0.0025
  122MPD2    H7 1908   0.738   4.056  13.835 -0.2875 -0.1283 -0.9621
  123TMC2    C1 1909   2.691   1.751  11.033 -1.2747  0.9194  0.2291
  123TMC2    C2 1910   2.687   1.830  11.145  0.2431  0.5986 -0.1424
  123TMC2    C3 1911   2.732   1.954  11.133 -0.5516  0.8533  0.0261
  123TMC2    C4 1912   2.752   1.802  10.916  0.3971 -0.2541 -0.1950
  123TMC2    C5 1913   2.805   1.926  10.913 -0.4744 -0.5445 -0.4993
  123TMC2    C6 1914   2.792   2.004  11.020 -0.3955  0.1623 -0.4240
  123TMC2     C 1915   2.690   1.607  11.057  0.0422 -0.7521  0.7694
  123TMC2     O 1916   2.703   1.557  11.168  0.2785  0.6756 -0.5173
  123TMC2     H 1917   2.657   1.798  11.244 -1.1313  2.8465  0.1636
  123TMC2    H1 1918   2.762   1.740  10.827 -1.0759  0.2648 -0.7343
  123TMC2    H2 1919   2.802   2.112  11.013  0.2587  0.0794 -0.8431
  123TMC2    C7 1920   2.885   1.958  10.789  0.7852 -0.1444 -0.5327
  123TMC2    C8 1921   2.714   2.042  11.245  0.0966 -0.0292  0.4493
  123TMC2    O1 1922   2.865   1.879  10.696 -0.4935  0.1269 -0.0173
  123TMC2    O2 1923   2.631   2.030  11.334  0.4904 -0.6708  0.1173
  123TMC2    O5 1924   2.835   2.101  11.267 -0.2284  0.4611  1.2508
  123TMC2    H5 1925   2.901   2.079  11.198  1.1691  2.0477  2.0919
  124MPD2     C 1926   2.818   1.159  10.840  0.2153  0.0276 -0.5828
  124MPD2    C1 1927   2.796   1.252  10.736 -0.6730 -0.1833 -0.2946
  124MPD2    C2 1928   2.749   1.375  10.774 -0.7463 -0.2131  0.2004
  124MPD2    C3 1929   2.725   1.406  10.907  0.0880  0.0690 -0.1622
  124MPD2    C4 1930   2.752   1.315  11.002  0.2634  0.4432 -0.6680
  124MPD2    C5 1931   2.798   1.193  10.971 -0.1586 -0.5464 -0.1135
  124MPD2     H 1932   2.710   1.448  10.704  0.5395 -0.2252 -0.5222
  124MPD2    H1 1933   2.731   1.351  11.102  0.8886 -1.2638  0.0810
  124MPD2    H2 1934   2.861   1.061  10.822 -1.0095 -0.7068  0.5008
  124MPD2    H3 1935   2.820   1.108  11.035 -1.4006  0.3337  1.4855
  124MPD2     N 1936   2.686   1.541  10.938 -0.1953 -0.2250 -0.3617
  124MPD2    H5 1937   2.671   1.602  10.859  2.0939 -0.2958 -0.8682
  124MPD2    N1 1938   2.827   1.216  10.604 -0.1452  0.0052 -0.5888
  124MPD2    H7 1939   2.857   1.121  10.589 -0.4943  0.0981 -1.8908
  125TMC2    C1 1940   4.471   4.537   9.542 -0.0835  0.3892 -0.2329
  125TMC2    C2 1941   4.465   4.657   9.595 -0.4697  0.3145 -0.3560
  125TMC2    C3 1942   4.550   0.021   9.547 -0.3220 -0.3029  0.9092
  125TMC2    C4 1943   4.557   4.513   9.440 -0.2687 -0.9463 -0.1923
  125TMC2    C5 1944   4.639   4.615   9.397  0.4538 -0.0669 -0.1613
  125TMC2    C6 1945   4.643   0.004   9.447 -0.0409 -0.2196 -0.3372
  125TMC2     C 1946   4.382   4.435   9.594 -0.0251  0.2767  0.2875
  125TMC2     O 1947   4.286   4.473   9.658 -0.0332 -0.1608  0.7087
  125TMC2     H 1948   4.402   4.675   9.681 -1.3549 -1.8868 -0.5412
  125TMC2    H1 1949   4.553   4.422   9.380 -1.3411 -0.2399 -1.1894
  125TMC2    H2 1950   4.712   0.082   9.417 -0.1868  0.1806  0.3446
  125TMC2    C7 1951   4.729   4.586   9.281 -0.0994  0.6955 -0.7605
  125TMC2    C8 1952   4.562   0.136   9.629  0.4120 -0.5709 -0.1274
  125TMC2    O1 1953   0.022   4.683   9.213 -0.3334  0.5573 -0.4928
  125TMC2    O2 1954   4.609   0.244   9.598 -0.4515  0.0804  0.0673
  125TMC2    O5 1955   4.516   0.113   9.758  0.1133 -0.3352 -0.1280
  125TMC2    H5 1956   4.508   0.016   9.771 -0.0365  0.0724  2.6580
  126MPD1     C 1957   4.207   3.966   9.684 -0.0965 -0.1862 -0.5406
  126MPD1    C1 1958   4.336   3.953   9.632  0.3203  0.0850 -0.1979
  126MPD1    C2 1959   4.409   4.066   9.599  0.5306  0.4618  0.3183
  126MPD1    C3 1960   4.352   4.192   9.623 -0.3831 -0.1636 -0.3328
  126MPD1    C4 1961   4.225   4.198   9.681  0.1230 -0.1627 -0.5597
  126MPD1    C5 1962   4.161   4.089   9.713  0.6610 -0.4581 -0.3502
  126MPD1     H 1963   4.502   4.055   9.545 -1.0015  3.6616 -2.9751
  126MPD1    H1 1964   4.172   4.289   9.703 -2.2847 -1.2634 -1.8330
  126MPD1    H2 1965   4.145   3.878   9.694  0.5939 -0.4006  1.8985
  126MPD1    H3 1966   4.066   4.095   9.765  0.6720  0.7491 -0.4734
  126MPD1     N 1967   4.424   4.303   9.576 -0.2217  0.2023  0.3903
  126MPD1    H5 1968   4.514   4.283   9.533  0.2127 -2.1725  2.3774
  126MPD1    N1 1969   4.377   3.825   9.590  0.2641  0.6520 -0.1701
  126MPD1    H6 1970   4.347   3.742   9.641 -0.4486 -0.4192 -2.3315
  126MPD1    H7 1971   4.476   3.825   9.569  0.4905 -0.2684  0.9002
  127TMC2    C1 1972   0.906   1.870   9.453 -0.2026  0.3657  0.0705
  127TMC2    C2 1973   1.011   1.799   9.406  0.0851  0.3861 -0.0235
  127TMC2    C3 1974   1.105   1.769   9.499  0.4189 -0.5662  0.0415
  127TMC2    C4 1975   0.885   1.885   9.588 -0.3679  0.5085  0.4429
  127TMC2    C5 1976   0.974   1.841   9.679  0.9132 -0.5027 -0.2569
  127TMC2    C6 1977   1.088   1.785   9.634 -0.1703 -0.2433 -1.0604
  127TMC2     C 1978   0.879   1.996   9.391  0.3767  0.0477 -0.3742
  127TMC2     O 1979   0.923   2.086   9.458  0.5075  0.0092  0.1938
  127TMC2     H 1980   1.036   1.806   9.301 -0.0926 -1.7229 -0.2200
  127TMC2    H1 1981   0.808   1.956   9.615 -0.2599 -0.3468  2.9955
  127TMC2    H2 1982   1.170   1.761   9.701 -0.2392 -0.2944 -0.9950
  127TMC2    C7 1983   0.980   1.916   9.802  0.4739  0.0268  0.2608
  127TMC2    C8 1984   1.241   1.755   9.452  0.2063  0.7853 -0.0326
  127TMC2    O1 1985   1.086   1.904   9.865  0.3334  0.0691  0.0214
  127TMC2    O2 1986   1.340   1.812   9.501 -0.1159  0.3755  0.0289
  127TMC2    O5 1987   1.245   1.669   9.344  0.1459  0.9563 -0.4432
  127TMC2    H5 1988   1.159   1.627   9.320  0.3003  0.2067  0.3292
  128MPD2     C 1989   0.828   2.065   9.043 -0.4135 -0.3184 -0.1698
  128MPD2    C1 1990   0.862   2.097   9.165  0.6962 -0.0161  0.0721
  128MPD2    C2 1991   0.891   2.224   9.199 -0.5876 -0.3354  0.7683
  128MPD2    C3 1992   0.875   2.325   9.097 -0.4102  0.7904  0.2940
  128MPD2    C4 1993   0.850   2.291   8.967  0.6385  0.3724  0.3065
  128MPD2    C5 1994   0.825   2.153   8.941  0.4445  0.7775  0.5533
  128MPD2     H 1995   0.900   2.256   9.302 -1.8054  2.1818  0.0924
  128MPD2    H1 1996   0.859   2.360   8.883  0.7081  1.7460  1.4467
  128MPD2    H2 1997   0.790   1.965   9.027  0.8789 -1.1693  2.2052
  128MPD2    H3 1998   0.791   2.112   8.847 -0.7292 -2.1934  2.2745
  128MPD2     N 1999   0.898   2.466   9.129  0.3948  0.5508 -0.0206
  128MPD2    H5 2000   0.922   2.483   9.226 -0.8758 -1.6203  0.6761
  128MPD2    N1 2001   0.861   1.988   9.256  0.2248 -0.3416  0.9998
  128MPD2    H7 2002   0.845   1.899   9.211  1.3865 -1.7872  3.4965
  129TMC2    C1 2003   4.488   2.400   1.407 -0.4926 -0.2370  0.1431
  129TMC2    C2 2004   4.536   2.316   1.506 -0.1080  0.6510  0.3597
  129TMC2    C3 2005   4.458   2.306   1.617 -0.3808 -0.9743 -0.6437
  129TMC2    C4 2006   4.368   2.465   1.416  0.6997 -0.6578  0.2909
  129TMC2    C5 2007   4.292   2.440   1.531 -0.6048 -0.4818 -0.2420
  129TMC2    C6 2008   4.326   2.354   1.630 -0.3222  0.2609 -0.3429
  129TMC2     C 2009   4.587   2.442   1.306  0.0380 -0.9209  0.3844
  129TMC2     O 2010   4.663   2.353   1.272 -0.0966 -0.0959 -0.2581
  129TMC2     H 2011   4.639   2.283   1.518 -0.2298  0.1867  0.1056
  129TMC2    H1 2012   4.318   2.513   1.333  0.2377  0.4558  1.2228
  129TMC2    H2 2013   4.254   2.333   1.708 -0.9145  1.3383 -0.5991
  129TMC2    C7 2014   4.156   2.503   1.523  0.1737 -0.3412  0.4103
  129TMC2    C8 2015   4.493   2.203   1.705  0.4135 -0.5814  0.6794
  129TMC2    O1 2016   4.063   2.450   1.578  0.0860  0.1427  0.2990
  129TMC2    O2 2017   4.565   2.109   1.673 -0.5797  0.4867 -0.4069
  129TMC2    O5 2018   4.433   2.210   1.826  0.0234  0.0634 -0.0042
  129TMC2    H5 2019   4.409   2.297   1.862  0.0819  0.4263 -0.8344
  130MPD2     C 2020   4.704   2.574   1.072 -0.3325 -0.0450 -0.2050
  130MPD2    C1 2021   4.633   2.642   1.174  0.3434  0.4958  0.6191
  130MPD2    C2 2022   4.617   2.780   1.174  0.3953  0.0003  0.1333
  130MPD2    C3 2023   4.680   2.856   1.076 -0.5647 -0.1734 -0.3251
  130MPD2    C4 2024   0.021   2.796   0.981  0.5762 -0.4286  0.0805
  130MPD2    C5 2025   0.022   2.658   0.973  0.1521 -0.6733  0.6570
  130MPD2     H 2026   4.555   2.827   1.250  0.9007 -1.8533  1.6990
  130MPD2    H1 2027   0.069   2.849   0.899  0.1413 -0.1061  0.0326
  130MPD2    H2 2028   4.711   2.467   1.055  1.9360 -0.0434  0.8593
  130MPD2    H3 2029   0.077   2.608   0.895 -1.0340 -0.1030 -0.5364
  130MPD2     N 2030   4.675   3.003   1.080  0.8179 -1.0138  0.3751
  130MPD2    H5 2031   4.629   3.046   1.160  0.4940 -0.1020 -0.3008
  130MPD2    N1 2032   4.568   2.570   1.276  0.1249 -0.3944 -0.3528
  130MPD2    H7 2033   4.510   2.617   1.345  1.0821 -2.3393  1.8032
  131TMC2    C1 2034   3.162   2.149  10.310 -0.4143  0.1000 -0.5224
  131TMC2    C2 2035   3.059   2.195  10.398  0.0804 -0.4392 -0.1531
  131TMC2    C3 2036   3.085   2.313  10.457  0.3684 -0.0524 -0.4537
  131TMC2    C4 2037   3.276   2.221  10.288 -0.1955  0.2910 -0.3270
  131TMC2    C5 2038   3.300   2.333  10.355  0.1697 -0.8320 -0.7976
  131TMC2    C6 2039   3.202   2.381  10.444 -0.3844 -0.5120 -0.7936
  131TMC2     C 2040   3.153   2.009  10.271  0.1420 -0.2547 -0.1657
  131TMC2     O 2041   3.062   1.943  10.319  0.5117 -0.1983  0.6958
  131TMC2     H 2042   2.974   2.129  10.400  1.1038 -1.7700 -0.5386
  131TMC2    H1 2043   3.354   2.175  10.228  0.6628 -1.2873  1.9806
  131TMC2    H2 2044   3.215   2.471  10.502  0.5504 -0.5361 -0.9652
  131TMC2    C7 2045   3.434   2.371  10.377  1.0294  0.8187 -0.3292
  131TMC2    C8 2046   3.003   2.346  10.561  0.0448 -0.6169  0.5791
  131TMC2    O1 2047   3.516   2.282  10.359  0.2968  0.8963  0.5816
  131TMC2    O2 2048   3.029   2.381  10.675 -0.2363  0.1239 -0.1659
  131TMC2    O5 2049   2.883   2.317  10.516  0.0066  0.5046 -0.0454
  131TMC2    H5 2050   2.885   2.302  10.419 -0.6585 -3.3348  0.5513
  132MPD2     C 2051   3.307   1.836   9.991 -0.1868  0.2123 -0.5006
  132MPD2    C1 2052   3.233   1.848  10.108  0.0986  0.8090  0.4011
  132MPD2    C2 2053   3.173   1.737  10.164 -0.2651 -0.4518  0.3228
  132MPD2    C3 2054   3.172   1.614  10.097  0.0284 -0.2970  0.7069
  132MPD2    C4 2055   3.231   1.609   9.974  0.9155 -0.3860  0.4842
  132MPD2    C5 2056   3.305   1.714   9.922  1.2777  0.0258  0.8662
  132MPD2     H 2057   3.118   1.740  10.257 -0.1187 -0.7410  0.4215
  132MPD2    H1 2058   3.234   1.517   9.917  3.2986 -0.6929  1.0814
  132MPD2    H2 2059   3.373   1.911   9.950  1.5150 -1.0338 -0.0558
  132MPD2    H3 2060   3.350   1.720   9.824 -3.0496 -3.5953 -1.3450
  132MPD2     N 2061   3.101   1.499  10.152  0.3379 -1.0699  0.4576
  132MPD2    H5 2062   3.060   1.502  10.244 -2.3789 -1.0763 -0.7733
  132MPD2    N1 2063   3.240   1.974  10.173 -0.1440  0.0061  0.0591
  132MPD2    H7 2064   3.305   2.045  10.141  0.8274 -0.8263  0.1771
  133TMC2    C1 2065   3.075   3.490  10.005 -0.1645  0.2072 -1.0044
  133TMC2    C2 2066   3.100   3.605  10.065 -0.9565 -0.0336  0.3664
  133TMC2    C3 2067   3.217   3.668  10.047 -0.4664  0.2335 -0.1484
  133TMC2    C4 2068   3.155   3.438   9.911  0.0665 -0.5715 -0.5972
  133TMC2    C5 2069   3.269   3.507   9.880 -0.1639  0.0857 -0.1504
  133TMC2    C6 2070   3.301   3.624   9.949 -0.2274 -0.3563 -0.2882
  133TMC2     C 2071   2.941   3.433  10.005 -0.2348 -0.0561  0.6193
  133TMC2     O 2072   2.924   3.324   9.950  0.4210  0.5975 -0.9250
  133TMC2     H 2073   3.044   3.638  10.152 -0.3133 -1.4074  1.3156
  133TMC2    H1 2074   3.122   3.352   9.853 -1.5128  0.5341 -1.3217
  133TMC2    H2 2075   3.381   3.691   9.921 -2.0416  2.1996  0.6901
  133TMC2    C7 2076   3.373   3.458   9.790  0.4344  0.1489  0.1043
  133TMC2    C8 2077   3.232   3.804  10.079  0.0065  0.1178  0.2258
  133TMC2    O1 2078   3.460   3.546   9.767  0.1681 -0.1386  0.0554
  133TMC2    O2 2079   3.135   3.881  10.084 -0.1840  0.1656  0.0822
  133TMC2    O5 2080   3.343   3.798  10.158 -0.6897  0.1222  0.4309
  133TMC2    H5 2081   3.376   3.706  10.165  1.5206  0.9420  0.4615
  134MPD2     C 2082   2.622   3.596  10.079 -0.7440 -0.4886  0.2779
  134MPD2    C1 2083   2.704   3.491  10.041 -0.2915 -0.7483  0.1738
  134MPD2    C2 2084   2.652   3.369  10.018 -0.7115  0.2805  0.1707
  134MPD2    C3 2085   2.510   3.348  10.020  0.1992 -0.1404 -0.0451
  134MPD2    C4 2086   2.429   3.455  10.044 -0.3573 -0.8168 -0.3171
  134MPD2    C5 2087   2.491   3.575  10.081 -0.2437 -0.2213 -0.5154
  134MPD2     H 2088   2.712   3.282   9.992 -1.0629  0.1906 -0.3293
  134MPD2    H1 2089   2.321   3.449  10.041 -0.0980 -4.4121 -1.5409
  134MPD2    H2 2090   2.661   3.692  10.112 -0.3617 -0.6045  0.1665
  134MPD2    H3 2091   2.425   3.656  10.108  0.6772  0.2481  0.3199
  134MPD2     N 2092   2.445   3.232   9.978  1.1116 -0.2178  0.0095
  134MPD2    H5 2093   2.344   3.236   9.970  1.2056  1.7732 -0.1917
  134MPD2    N1 2094   2.842   3.519  10.038 -0.7127 -0.2465 -0.2126
  134MPD2    H7 2095   2.860   3.617  10.059 -0.3668 -0.3874  0.1503
  135TMC2    C1 2096   4.525   4.386   9.933 -0.7147 -0.0156 -0.4547
  135TMC2    C2 2097   4.393   4.409   9.958 -0.1966 -0.2252  0.2514
  135TMC2    C3 2098   4.316   4.301  10.000 -0.0412  0.2798  0.2130
  135TMC2    C4 2099   4.586   4.264   9.937  0.4531 -0.4724  0.8942
  135TMC2    C5 2100   4.505   4.159   9.973  0.0453 -0.2307  0.3401
  135TMC2    C6 2101   4.368   4.176   9.994  0.4612 -0.5428 -0.7364
  135TMC2     C 2102   4.603   4.496   9.878  0.7946 -0.0627  0.3507
  135TMC2     O 2103   4.552   4.608   9.875  0.8852 -0.5273  0.5939
  135TMC2     H 2104   4.345   4.506   9.956 -1.1588 -0.7015  0.2502
  135TMC2    H1 2105   4.693   4.249   9.927  0.4233  0.7960 -1.5286
  135TMC2    H2 2106   4.317   4.087  10.029 -0.5154 -0.0239 -0.8526
  135TMC2    C7 2107   4.554   4.024   9.940  0.2472 -0.5490  0.1848
  135TMC2    C8 2108   4.168   4.315  10.004 -0.1204  0.4264  0.2859
  135TMC2    O1 2109   4.644   4.013   9.861 -0.2089 -0.4300  0.0765
  135TMC2    O2 2110   4.096   4.215  10.009 -0.1826 -0.0840  0.2503
  135TMC2    O5 2111   4.152   4.425  10.076  0.1762  0.1180 -0.3170
  135TMC2    H5 2112   4.235   4.474  10.094  0.3800 -0.1977 -0.4153
  136MPD2     C 2113   0.062   4.675   9.777  0.3787 -0.1536 -0.5503
  136MPD2    C1 2114   0.062   4.538   9.741  0.6370  0.7553  0.1114
  136MPD2    C2 2115   0.148   4.491   9.648 -0.3222 -0.1595  0.1913
  136MPD2    C3 2116   0.218   4.584   9.569 -0.4459 -0.5838 -0.1942
  136MPD2    C4 2117   0.201   4.713   9.588 -0.5974  0.0001 -0.4733
  136MPD2    C5 2118   0.131   0.022   9.696 -0.0076 -0.2374  0.6712
  136MPD2     H 2119   0.148   4.385   9.627  0.2695  0.1791 -1.5142
  136MPD2    H1 2120   0.260   0.050   9.534 -0.3800  1.0313  1.1708
  136MPD2    H2 2121   4.736   4.727   9.849 -1.2190 -1.9792 -0.6354
  136MPD2    H3 2122   0.130   0.127   9.720  0.0557  0.2881 -1.5906
  136MPD2     N 2123   0.303   4.545   9.460  0.7735  0.7118  0.3066
  136MPD2    H5 2124   0.334   4.625   9.405 -0.8740  0.7192 -0.6175
  136MPD2    N1 2125   4.715   4.454   9.814  0.0034  0.5107  0.1259
  136MPD2    H7 2126   4.731   4.355   9.799 -0.9888  0.1565  1.3187
  137TMC2    C1 2127   4.445   3.265   9.642 -0.6676 -0.0851 -0.3493
  137TMC2    C2 2128   4.450   3.307   9.512 -0.4823 -0.7995 -0.3616
  137TMC2    C3 2129   4.384   3.425   9.486  0.4978  0.2236 -0.3888
  137TMC2    C4 2130   4.385   3.338   9.742  0.7416 -0.3916 -0.0667
  137TMC2    C5 2131   4.333   3.461   9.714  0.5428  0.6005  0.4019
  137TMC2    C6 2132   4.334   3.508   9.585 -0.0814 -0.4675  0.0549
  137TMC2     C 2133   4.483   3.135   9.679  0.4535  0.1771 -0.1128
  137TMC2     O 2134   4.489   3.106   9.798 -0.0659  0.6467  0.3981
  137TMC2     H 2135   4.506   3.255   9.434 -2.3703 -1.3709 -1.3592
  137TMC2    H1 2136   4.401   3.306   9.844 -0.0656 -1.4057 -0.2526
  137TMC2    H2 2137   4.287   3.602   9.558  1.6426 -0.2536 -2.2251
  137TMC2    C7 2138   4.269   3.544   9.811  0.6360 -0.2049  0.3840
  137TMC2    C8 2139   4.407   3.494   9.359 -1.0774  0.3520  0.1070
  137TMC2    O1 2140   4.223   3.648   9.772 -0.0324 -0.2532  0.1367
  137TMC2    O2 2141   4.435   3.611   9.348  0.0792  0.1334  0.5341
  137TMC2    O5 2142   4.434   3.406   9.263  0.2320 -0.6854 -0.4282
  137TMC2    H5 2143   4.396   3.317   9.279 -1.1295  0.1191  0.8105
  138MPD2     C 2144   4.504   2.841   9.467 -0.7082 -0.2137 -0.3942
  138MPD2    C1 2145   4.518   2.913   9.584  0.3818 -0.1854  0.5919
  138MPD2    C2 2146   4.544   2.847   9.705  0.0378 -0.5505  0.2271
  138MPD2    C3 2147   4.561   2.713   9.709  0.2959 -0.3888  0.1751
  138MPD2    C4 2148   4.562   2.643   9.589 -0.3288 -0.4591  0.5995
  138MPD2    C5 2149   4.531   2.708   9.469 -0.6015 -0.7910 -0.4347
  138MPD2     H 2150   4.536   2.899   9.799 -0.0995  0.9142 -0.5903
  138MPD2    H1 2151   4.579   2.537   9.578  0.8003 -0.1985 -0.2430
  138MPD2    H2 2152   4.493   2.889   9.370 -3.6108  2.2121  1.1496
  138MPD2    H3 2153   4.529   2.650   9.377 -1.2967 -1.0293 -0.2682
  138MPD2     N 2154   4.573   2.648   9.839 -0.2196  0.6116  0.2755
  138MPD2    H5 2155   4.596   2.711   9.914  2.2631 -0.4456  0.3833
  138MPD2    N1 2156   4.503   3.051   9.570  0.3377  0.2178  0.1427
  138MPD2    H7 2157   4.490   3.093   9.479  0.6205  0.2196  0.1017
  139TMC2    C1 2158   0.828   2.050  13.422 -0.8954  0.0908 -0.0397
  139TMC2    C2 2159   0.929   2.136  13.423  0.6608 -0.3088 -0.1405
  139TMC2    C3 2160   0.905   2.268  13.416  0.6901 -0.2333 -0.0375
  139TMC2    C4 2161   0.697   2.089  13.386 -0.1010  1.1133  0.1603
  139TMC2    C5 2162   0.681   2.224  13.370 -0.6224  0.0524 -0.8694
  139TMC2    C6 2163   0.780   2.317  13.395 -0.7846  0.4398  0.6871
  139TMC2     C 2164   0.859   1.910  13.448  0.1590  0.1514  0.5470
  139TMC2     O 2165   0.972   1.875  13.418 -0.1242 -0.2767  0.3822
  139TMC2     H 2166   1.032   2.110  13.444  0.8425  2.4659  2.3855
  139TMC2    H1 2167   0.619   2.014  13.382  3.5452 -2.6090 -0.7936
  139TMC2    H2 2168   0.755   2.422  13.402 -1.6179  0.2882 -0.0581
  139TMC2    C7 2169   0.546   2.266  13.360  0.1960  0.7150 -0.3125
  139TMC2    C8 2170   1.006   2.354  13.474  0.3379 -0.2924  0.6375
  139TMC2    O1 2171   0.518   2.378  13.406  0.0468 -0.3612  0.0550
  139TMC2    O2 2172   1.019   2.470  13.435 -0.1485  0.1189  0.0836
  139TMC2    O5 2173   1.027   2.315  13.605 -0.8283  0.1842  0.0821
  139TMC2    H5 2174   0.979   2.232  13.626 -0.0964 -0.3755 -0.4669
  140MPD2     C 2175   0.745   1.702  13.723 -0.1227 -0.1301  0.1296
  140MPD2    C1 2176   0.796   1.721  13.595 -0.0393 -0.0199  0.9215
  140MPD2    C2 2177   0.868   1.621  13.536 -0.3590  0.1730  0.1513
  140MPD2    C3 2178   0.865   1.495  13.590 -0.8378  0.1556  0.6436
  140MPD2    C4 2179   0.831   1.489  13.720  0.6508  0.0673 -0.1735
  140MPD2    C5 2180   0.767   1.589  13.790 -0.4186  0.1094  0.2978
  140MPD2     H 2181   0.921   1.639  13.443  2.3955 -1.7760  1.3582
  140MPD2    H1 2182   0.839   1.401  13.783 -2.1698  1.5276  2.2321
  140MPD2    H2 2183   0.701   1.790  13.769  1.3082 -0.3472  1.8973
  140MPD2    H3 2184   0.738   1.580  13.894  0.2461  1.0693  0.5793
  140MPD2     N 2185   0.936   1.399  13.523  0.4816 -1.0773  0.1604
  140MPD2    H5 2186   0.962   1.417  13.427 -1.3318  3.4217  0.5058
  140MPD2    N1 2187   0.774   1.849  13.535  0.2210  0.1809  0.7720
  140MPD2    H7 2188   0.703   1.907  13.578  0.1059  1.8854 -1.7851
  141TMC2    C1 2189   0.928   2.917  14.076  0.3265  1.1274  0.1869
  141TMC2    C2 2190   0.849   2.807  14.082 -0.6359  0.0155  0.0298
  141TMC2    C3 2191   0.780   2.791  14.203 -0.5832  1.0618  0.1392
  141TMC2    C4 2192   0.960   2.999  14.179 -0.3412 -0.3620 -0.3143
  141TMC2    C5 2193   0.900   2.966  14.297  0.0397  0.3331 -0.2199
  141TMC2    C6 2194   0.803   2.863  14.315 -1.2657  0.9148 -0.5773
  141TMC2     C 2195   0.972   2.970  13.951 -0.3562  0.6993 -0.4627
  141TMC2     O 2196   1.073   3.036  13.950 -0.0390 -0.3559 -0.2490
  141TMC2     H 2197   0.833   2.740  13.999  0.8442 -0.2841 -0.0231
  141TMC2    H1 2198   1.003   3.097  14.163 -0.6520  0.1592  1.9666
  141TMC2    H2 2199   0.741   2.846  14.401 -0.7436  4.2257  0.4447
  141TMC2    C7 2200   0.886   3.053  14.408 -0.1989 -0.3771  0.3176
  141TMC2    C8 2201   0.701   2.672  14.212 -0.8590 -0.2783 -0.2343
  141TMC2    O1 2202   0.792   3.048  14.488  0.0013  0.3871  0.3427
  141TMC2    O2 2203   0.678   2.624  14.323 -0.8074  0.2095 -0.6086
  141TMC2    O5 2204   0.600   2.702  14.130 -0.2646  0.1115  0.5514
  141TMC2    H5 2205   0.629   2.741  14.045 -1.1857  2.4393  1.2981
  142TMC2    C1 2206   3.414   1.420  10.371  0.1588  0.2498  0.0486
  142TMC2    C2 2207   3.515   1.456  10.293 -0.0598 -0.4748  0.2489
  142TMC2    C3 2208   3.525   1.587  10.275  0.2363  0.9786 -0.4868
  142TMC2    C4 2209   3.326   1.511  10.427 -0.4287 -0.2215 -0.0640
  142TMC2    C5 2210   3.350   1.644  10.414 -0.0989 -0.6239 -0.1770
  142TMC2    C6 2211   3.454   1.682  10.333 -0.3746  0.4987  0.1592
  142TMC2     C 2212   3.385   1.281  10.374  0.0663 -0.1056  0.2152
  142TMC2     O 2213   3.267   1.252  10.384 -0.5097 -0.0148 -0.0052
  142TMC2     H 2214   3.581   1.382  10.249  0.3443  1.0563 -1.7225
  142TMC2    H1 2215   3.251   1.491  10.503  0.6836 -2.8222  0.3618
  142TMC2    H2 2216   3.478   1.785  10.308 -0.8340  1.0143  1.8977
  142TMC2    C7 2217   3.261   1.738  10.488  0.2434 -0.1971 -0.0555
  142TMC2    C8 2218   3.602   1.621  10.165 -0.1781  0.1192  0.6350
  142TMC2    O1 2219   3.147   1.697  10.506 -0.3675  0.1733 -0.5879
  142TMC2    O2 2220   3.669   1.722  10.168  0.3544 -0.3700 -0.0906
  142TMC2    O5 2221   3.556   1.557  10.058  0.6510  0.0043 -0.5372
  142TMC2    H5 2222   3.481   1.494  10.066 -1.1251  2.0536 -0.9817
  143MPD2     C 2223   3.527   0.807  10.480  0.2651 -0.4383  0.6331
  143MPD2    C1 2224   3.414   0.844  10.410 -1.0538  0.1204 -0.0868
  143MPD2    C2 2225   3.399   0.977  10.380 -0.0668  0.0138 -0.0947
  143MPD2    C3 2226   3.503   1.063  10.416  0.0570 -0.7739 -0.0146
  143MPD2    C4 2227   3.625   1.014  10.470 -0.0447  0.1766 -0.0077
  143MPD2    C5 2228   3.635   0.883  10.501  0.0839 -0.4106 -0.0431
  143MPD2     H 2229   3.305   1.019  10.346  0.4286  0.4524 -0.9304
  143MPD2    H1 2230   3.709   1.080  10.488 -0.3552  0.6735 -0.3600
  143MPD2    H2 2231   3.546   0.702  10.498  2.3610 -0.2844 -0.7151
  143MPD2    H3 2232   3.723   0.845  10.552 -0.5601 -3.1125 -0.9042
  143MPD2     N 2233   3.495   1.207  10.406 -0.0182 -0.0206 -0.0163
  143MPD2    H5 2234   3.576   1.262  10.433  2.2492 -3.7502  0.7506
  143MPD2    N1 2235   3.322   0.741  10.367 -0.4245 -0.0315 -0.1133
  143MPD2    H7 2236   3.339   0.646  10.397  1.1955 -0.1848 -1.5378
  144TMC2    C1 2237   1.156   0.224   0.214 -0.0950 -0.5597  0.1010
  144TMC2    C2 2238   1.207   0.133   0.123 -0.1842  0.0091 -0.3791
  144TMC2    C3 2239   1.311   0.059   0.161 -0.4013 -1.3361 -0.6909
  144TMC2    C4 2240   1.224   0.258   0.327  0.1919 -0.6337  0.9068
  144TMC2    C5 2241   1.339   0.187   0.357  0.8188 -0.8194  0.6315
  144TMC2    C6 2242   1.375   0.079   0.279 -0.1814  0.4217 -0.3454
  144TMC2     C 2243   1.027   0.288   0.190 -0.6709 -0.2609 -0.1697
  144TMC2     O 2244   1.011   0.322   0.076 -0.6263  0.4956 -0.2482
  144TMC2     H 2245   1.155   0.125   0.028  1.0739  1.3645 -1.1792
  144TMC2    H1 2246   1.193   0.344   0.387 -0.3773 -1.9321  2.4602
  144TMC2    H2 2247   1.476   0.042   0.295  0.0286  1.5709  1.0268
  144TMC2    C7 2248   1.431   0.229   0.461  0.2855 -0.1831 -0.1273
  144TMC2    C8 2249   1.397   4.729   0.062  0.1636  0.3059 -0.7716
  144TMC2    O1 2250   1.535   0.165   0.480  0.0406  0.8846 -0.5290
  144TMC2    O2 2251   1.519   0.005   0.056  1.2445 -0.2650 -0.2350
  144TMC2    O5 2252   1.309   4.654  17.737 -0.1701  0.4459 -0.3315
  144TMC2    H5 2253   1.237   4.645   0.058  1.3427 -0.4438  1.2333
  145MPD2     C 2254   0.541   0.413   0.334  0.4609  0.2753 -0.0236
  145MPD2    C1 2255   0.604   0.420   0.210  0.1604  0.3734  0.2835
  145MPD2    C2 2256   0.737   0.370   0.191  0.3879  0.1734  0.0835
  145MPD2    C3 2257   0.800   0.317   0.302 -0.2148  1.0480 -0.8019
  145MPD2    C4 2258   0.722   0.282   0.413  0.1698 -0.2466 -0.3262
  145MPD2    C5 2259   0.592   0.335   0.433  0.2914  0.0776  1.1156
  145MPD2     H 2260   0.784   0.388   0.096  1.9178  0.7009  0.9369
  145MPD2    H1 2261   0.761   0.231   0.500  0.4470 -0.5343 -0.6176
  145MPD2    H2 2262   0.440   0.447   0.353  0.1308 -1.8937  2.1508
  145MPD2    H3 2263   0.531   0.304   0.517 -1.7694 -1.3540 -0.9473
  145MPD2     N 2264   0.939   0.283   0.303  0.0454 -0.5758 -0.1335
  145MPD2    H5 2265   0.974   0.243   0.389  2.1516  3.1998  0.7395
  145MPD2    N1 2266   0.540   0.490   0.107 -0.0065 -0.0070  0.0211
  145MPD2    H7 2267   0.599   0.518   0.030  3.1280 -0.5419  2.2095
  146TMC2    C1 2268   2.759   4.269  12.934 -0.4729 -0.3516 -0.0627
  146TMC2    C2 2269   2.775   4.349  12.821 -0.1448  0.2834  0.2839
  146TMC2    C3 2270   2.801   4.288  12.699 -0.5987  0.2073  0.6871
  146TMC2    C4 2271   2.773   4.133  12.924 -0.0171  0.0488 -0.1907
  146TMC2    C5 2272   2.799   4.081  12.803 -0.9092  0.0278  0.2525
  146TMC2    C6 2273   2.813   4.155  12.688  0.2351 -0.1891 -1.0051
  146TMC2     C 2274   2.744   4.323  13.063 -0.5631  0.0124 -0.8129
  146TMC2     O 2275   2.706   4.438  13.081  0.6915 -0.3861  0.0735
  146TMC2     H 2276   2.758   4.454  12.842 -3.5919 -0.0320 -0.9377
  146TMC2    H1 2277   2.753   4.064  13.005  1.3379  0.4865  0.5122
  146TMC2    H2 2278   2.860   4.110  12.601  2.2586  0.1295 -0.0528
  146TMC2    C7 2279   2.793   3.940  12.784 -0.7423 -0.8449 -0.3477
  146TMC2    C8 2280   2.811   4.368  12.585  0.2819 -0.5498 -0.0921
  146TMC2    O1 2281   2.756   3.903  12.675  0.6896  0.1572  0.2833
  146TMC2    O2 2282   2.826   4.493  12.591 -0.6335  0.2889 -0.3804
  146TMC2    O5 2283   2.777   4.292  12.477  0.2942 -0.1309  0.1996
  146TMC2    H5 2284   2.769   4.195  12.489 -0.7345 -0.1416 -0.5646
  147MPD2     C 2285   2.921   3.464  12.916 -0.0539 -0.6756  0.1754
  147MPD2    C1 2286   2.964   3.549  13.023 -0.4341  0.5844 -0.0104
  147MPD2    C2 2287   2.943   3.679  13.007  0.0134 -0.0644  0.2975
  147MPD2    C3 2288   2.878   3.731  12.889  0.1853  0.0547 -0.0706
  147MPD2    C4 2289   2.838   3.647  12.788  0.3175 -0.4751  0.2030
  147MPD2    C5 2290   2.860   3.512  12.805  0.2145 -0.6594  0.4005
  147MPD2     H 2291   2.959   3.746  13.090  1.4575  0.1143 -0.1242
  147MPD2    H1 2292   2.792   3.678  12.695 -2.1529 -2.3254  0.8033
  147MPD2    H2 2293   2.937   3.357  12.916 -0.8455 -0.7960  0.2917
  147MPD2    H3 2294   2.848   3.443  12.722  0.4791 -1.3925  0.9758
  147MPD2     N 2295   2.857   3.871  12.884 -0.3938 -0.6704  0.0364
  147MPD2    H5 2296   2.902   3.922  12.959 -0.0181 -0.8759 -0.0524
  147MPD2    N1 2297   3.024   3.483  13.131 -0.3696 -1.2443  0.7581
  147MPD2    H7 2298   3.006   3.384  13.137 -0.3819 -1.1414  2.2111
  148TMC2    C1 2299   2.478   2.665  10.943 -0.2164  0.6229 -0.0012
  148TMC2    C2 2300   2.607   2.695  10.967 -0.2594  0.3069  0.4735
  148TMC2    C3 2301   2.678   2.616  11.049  0.7752  0.5526  0.2832
  148TMC2    C4 2302   2.408   2.568  11.000 -0.2713 -0.3472 -0.5448
  148TMC2    C5 2303   2.488   2.483  11.078 -0.5729  0.2487 -0.1227
  148TMC2    C6 2304   2.624   2.502  11.098 -0.2892  0.3085 -0.2973
  148TMC2     C 2305   2.412   2.753  10.845 -0.2729  0.1840 -0.3994
  148TMC2     O 2306   2.441   2.871  10.862  0.0760 -0.2454  0.5035
  148TMC2     H 2307   2.638   2.785  10.915  0.5227 -0.5995 -0.6379
  148TMC2    H1 2308   2.301   2.557  10.988 -0.8116  4.1445  0.1471
  148TMC2    H2 2309   2.679   2.431  11.159 -0.5615  1.6879  1.5335
  148TMC2    C7 2310   2.436   2.348  11.077  0.4367  0.0158  0.1300
  148TMC2    C8 2311   2.816   2.647  11.068  0.8006 -0.0060  0.1673
  148TMC2    O1 2312   2.359   2.317  11.166  0.5293  0.3260  0.1720
  148TMC2    O2 2313   2.908   2.585  11.016 -0.5315  0.2229 -0.0041
  148TMC2    O5 2314   2.811   2.782  11.070  0.4020 -0.3106 -0.0476
  148TMC2    H5 2315   2.731   2.818  11.114 -0.0437  1.4566 -2.3483
  149MPD2     C 2316   2.225   2.885  10.681  0.1799  0.3010 -0.0668
  149MPD2    C1 2317   2.251   2.752  10.670  0.2818  0.7466  0.6106
  149MPD2    C2 2318   2.188   2.676  10.572  0.4300 -0.1391 -0.0034
  149MPD2    C3 2319   2.095   2.739  10.479 -0.3376 -0.0556 -0.4196
  149MPD2    C4 2320   2.074   2.870  10.477 -0.2025 -0.2071  0.3161
  149MPD2    C5 2321   2.139   2.940  10.582  0.1766 -0.4536 -0.0199
  149MPD2     H 2322   2.198   2.569  10.576 -2.2391 -0.4038 -0.1045
  149MPD2    H1 2323   2.008   2.921  10.408 -0.1449 -0.5117  0.0386
  149MPD2    H2 2324   2.254   2.957  10.757  0.6696  0.6519 -0.5948
  149MPD2    H3 2325   2.117   3.047  10.580 -2.3536 -0.9713  0.8526
  149MPD2     N 2326   2.027   2.670  10.375  0.0463  0.2360 -0.1519
  149MPD2    H5 2327   1.970   2.724  10.312 -0.3198 -2.2334 -1.9269
  149MPD2    N1 2328   2.326   2.683  10.763 -0.1585 -0.0007 -1.0150
  149MPD2    H7 2329   2.324   2.582  10.767  0.1488 -0.0103 -1.1266
  150TMC2    C1 2330   0.019   1.909  12.349 -0.2238 -0.2897  0.6338
  150TMC2    C2 2331   0.014   1.776  12.356  0.0858  0.0984 -0.4923
  150TMC2    C3 2332   0.124   1.704  12.398 -0.2893 -0.1216  0.3110
  150TMC2    C4 2333   0.130   1.979  12.374  0.4582  0.2736 -0.8995
  150TMC2    C5 2334   0.240   1.904  12.416 -0.2814  0.0230 -0.3740
  150TMC2    C6 2335   0.238   1.769  12.438  0.2351  0.2495 -0.1962
  150TMC2     C 2336   4.636   1.998  12.343 -0.1196 -0.3825 -0.8466
  150TMC2     O 2337   4.653   2.121  12.359  0.1387 -0.7008  0.0678
  150TMC2     H 2338   4.655   1.725  12.347  0.4870 -0.7400  0.0209
  150TMC2    H1 2339   0.139   2.086  12.362  2.1660  0.0145 -1.9813
  150TMC2    H2 2340   0.327   1.712  12.462  1.3134  1.4995 -1.2085
  150TMC2    C7 2341   0.364   1.969  12.455 -0.4122  0.3429 -0.2131
  150TMC2    C8 2342   0.115   1.563  12.417  0.0666 -0.4277  0.1768
  150TMC2    O1 2343   0.454   1.901  12.496  0.3121  0.2252 -0.1333
  150TMC2    O2 2344   0.149   1.503  12.517 -0.8231 -0.4107 -0.1740
  150TMC2    O5 2345   0.017   1.510  12.337 -0.2279 -0.0258 -0.4258
  150TMC2    H5 2346   4.736   1.548  12.248 -0.3662  0.1950 -0.3043
  151MPD2     C 2347   4.148   2.058  12.209  0.2307 -0.0103 -0.2123
  151MPD2    C1 2348   4.185   1.930  12.169 -0.0742  0.6295  0.1227
  151MPD2    C2 2349   4.309   1.883  12.207 -0.8704 -0.8398 -0.0069
  151MPD2    C3 2350   4.399   1.973  12.264  0.0110  0.6552 -0.2960
  151MPD2    C4 2351   4.361   2.099  12.295  0.7165 -0.6637  0.2152
  151MPD2    C5 2352   4.238   2.148  12.266  0.4070 -0.1577  0.4332
  151MPD2     H 2353   4.344   1.784  12.182  0.5489  0.0850 -1.6977
  151MPD2    H1 2354   4.421   2.171  12.348 -1.3649  0.9343  0.4009
  151MPD2    H2 2355   4.044   2.087  12.198 -0.2660 -2.1236 -0.9236
  151MPD2    H3 2356   4.210   2.246  12.303 -2.5195 -1.3805  1.4247
  151MPD2     N 2357   4.526   1.927  12.299  0.0671  0.3583  0.1444
  151MPD2    H5 2358   4.540   1.833  12.261 -0.7581 -0.0813  0.9273
  151MPD2    N1 2359   4.086   1.863  12.095  0.3007 -0.2827 -0.7059
  151MPD2    H7 2360   4.011   1.920  12.057  1.8749  1.5506 -1.1028
  152TMC2    C1 2361   0.244   1.869  12.781 -0.4107 -0.0945 -0.7072
  152TMC2    C2 2362   0.319   1.756  12.771  0.0497 -0.0460 -0.2096
  152TMC2    C3 2363   0.454   1.776  12.790  0.2868 -0.1341  0.2225
  152TMC2    C4 2364   0.301   1.997  12.784  0.3436  0.0646 -0.6649
  152TMC2    C5 2365   0.434   2.023  12.792 -0.0700  0.2739  0.2595
  152TMC2    C6 2366   0.511   1.905  12.800  0.1489  0.0341  0.0799
  152TMC2     C 2367   0.097   1.862  12.758  0.2022 -0.3536  0.1850
  152TMC2     O 2368   0.033   1.964  12.781  0.3497  0.2501  0.1487
  152TMC2     H 2369   0.284   1.657  12.794  0.9058 -0.4375 -0.5900
  152TMC2    H1 2370   0.232   2.080  12.784  1.3180  0.8811  2.3669
  152TMC2    H2 2371   0.615   1.914  12.828  0.2715 -1.3087  0.0583
  152TMC2    C7 2372   0.473   2.152  12.845 -0.2180  0.4647 -0.8022
  152TMC2    C8 2373   0.524   1.678  12.868 -0.1416 -0.0441  0.0696
  152TMC2    O1 2374   0.384   2.230  12.872 -0.1868  0.4085  0.4327
  152TMC2    O2 2375   0.508   1.683  12.990  0.1134 -0.1489 -0.5433
  152TMC2    O5 2376   0.511   1.561  12.800 -0.8086  0.4379 -0.1207
  152TMC2    H5 2377   0.522   1.569  12.703 -0.3944  1.4223  0.0053
  153MPD2     C 2378   4.617   1.579  12.662  0.1180  0.5130 -0.3711
  153MPD2    C1 2379   4.645   1.712  12.687 -0.6206 -0.5822 -0.1037
  153MPD2    C2 2380   4.544   1.805  12.672 -0.0963 -0.4930 -0.0643
  153MPD2    C3 2381   4.413   1.772  12.632  0.1059 -0.1261  0.0681
  153MPD2    C4 2382   4.388   1.641  12.601  0.3567  0.1241 -0.2343
  153MPD2    C5 2383   4.492   1.550  12.616 -0.0348 -0.0528 -0.5837
  153MPD2     H 2384   4.556   1.909  12.700  1.1790  0.1792 -3.0570
  153MPD2    H1 2385   4.289   1.605  12.576  1.1214 -2.2687  0.2628
  153MPD2    H2 2386   4.689   1.500  12.678  0.0755  0.6243  0.3808
  153MPD2    H3 2387   4.474   1.450  12.577  0.9075 -0.6482  0.4894
  153MPD2     N 2388   4.317   1.877  12.636 -0.6090 -0.0534  0.8143
  153MPD2    H5 2389   4.343   1.969  12.672 -0.8719  0.2850  0.1376
  153MPD2    N1 2390   0.048   1.739  12.725 -0.5798 -0.7347 -0.0996
  153MPD2    H7 2391   0.117   1.665  12.718  1.3747  1.2158 -1.3529
  154TMC2    C1 2392   1.559   2.187  17.739 -0.1213 -0.0882  0.0026
  154TMC2    C2 2393   1.585   2.121  17.622 -0.0284 -0.1270 -0.5958
  154TMC2    C3 2394   1.664   2.175  17.531 -0.5415 -0.0423  0.1584
  154TMC2    C4 2395   1.611   2.310   0.022  0.5312  0.3007  0.8438
  154TMC2    C5 2396   1.696   2.365  17.666 -0.8468  0.6299 -0.3340
  154TMC2    C6 2397   1.713   2.304  17.545  0.1023 -0.4421  0.2678
  154TMC2     C 2398   1.465   2.142   0.095  0.1071  0.1246  0.2919
  154TMC2     O 2399   1.471   2.199   0.201 -0.0598 -0.1536 -0.8578
  154TMC2     H 2400   1.540   2.026  17.598 -0.3397  0.3089 -1.7354
  154TMC2    H1 2401   1.573   2.366   0.107 -1.6100  0.6726 -0.3390
  154TMC2    H2 2402   1.778   2.353  17.472 -2.7567  1.0843 -1.2435
  154TMC2    C7 2403   1.809   2.438  17.715 -0.0984  0.1561  0.0425
  154TMC2    C8 2404   1.664   2.101  17.406 -0.2305 -0.2078 -0.8122
  154TMC2    O1 2405   1.908   2.444  17.646 -0.3350 -0.5456 -0.0725
  154TMC2    O2 2406   1.606   1.994  17.379 -0.3294 -0.2244 -0.0811
  154TMC2    O5 2407   1.779   2.140  17.350 -0.2752 -0.0986  0.0167
  154TMC2    H5 2408   1.826   2.216  17.390 -1.0831  1.9619 -2.9968
  155MPD2     C 2409   1.206   1.876   0.091 -0.7125 -0.3499 -0.0037
  155MPD2    C1 2410   1.294   1.970   0.141 -0.1739  0.8777 -0.4833
  155MPD2    C2 2411   1.284   1.997   0.278  0.8365  0.8154 -0.2203
  155MPD2    C3 2412   1.203   1.924   0.365 -0.2167 -0.4459  0.0477
  155MPD2    C4 2413   1.125   1.821   0.310 -0.3794  0.2633 -0.2286
  155MPD2    C5 2414   1.134   1.794   0.176  0.0617 -0.0485 -0.7130
  155MPD2     H 2415   1.356   2.065   0.322  1.4134  1.0080 -1.4619
  155MPD2    H1 2416   1.067   1.755   0.373 -0.0385  0.9797  0.8266
  155MPD2    H2 2417   1.228   1.838  17.736  1.0792 -0.6109  0.5003
  155MPD2    H3 2418   1.095   1.709   0.121  2.0503 -0.5168 -1.4272
  155MPD2     N 2419   1.198   1.948   0.503 -0.1062 -0.4174 -0.2613
  155MPD2    H5 2420   1.140   1.887   0.561 -2.0482 -1.6919 -3.5451
  155MPD2    N1 2421   1.379   2.039   0.055 -0.6489  0.4122  0.3609
  155MPD2    H7 2422   1.377   2.013  17.701  0.7872 -0.9808  0.6893
  156TMC2    C1 2423   4.514   3.700  12.270  0.2236  0.0601  0.3395
  156TMC2    C2 2424   4.579   3.600  12.209 -0.0984  0.6646 -0.0141
  156TMC2    C3 2425   4.601   3.615  12.072  0.2063  0.0572 -0.0242
  156TMC2    C4 2426   4.456   3.804  12.201 -0.5587  0.1632 -0.6038
  156TMC2    C5 2427   4.476   3.809  12.065 -0.0819  0.1137 -0.0547
  156TMC2    C6 2428   4.541   3.710  12.002 -0.1578 -0.1398  0.4925
  156TMC2     C 2429   4.560   3.736  12.401 -0.1193 -0.0741  0.1433
  156TMC2     O 2430   4.583   3.857  12.418  0.3668 -0.1594  0.4959
  156TMC2     H 2431   4.658   3.551  12.265 -1.9704 -2.1459  0.2017
  156TMC2    H1 2432   4.430   3.896  12.253  1.7101  0.0257  0.7910
  156TMC2    H2 2433   4.572   3.724  11.899  1.1274 -1.9957  0.6340
  156TMC2    C7 2434   4.419   3.917  11.987  0.6211 -0.0118  0.0779
  156TMC2    C8 2435   4.709   3.540  12.001  0.1475  0.0462  0.7484
  156TMC2    O1 2436   4.375   4.015  12.041  0.4036 -0.7535  0.5208
  156TMC2    O2 2437   0.011   3.575  11.888  0.1444  0.4062 -0.7472
  156TMC2    O5 2438   0.016   3.428  12.071  0.4470  0.3743  0.2536
  156TMC2    H5 2439   4.697   3.406  12.149 -1.5261  0.0620 -1.2352
  157MPD2     C 2440   4.549   3.570  12.727  0.3106 -0.3565 -1.1949
  157MPD2    C1 2441   4.604   3.651  12.622 -1.2768 -0.6936 -0.0709
  157MPD2    C2 2442   4.707   3.743  12.652 -0.3417  0.4181 -0.7409
  157MPD2    C3 2443   0.005   3.773  12.784  0.4977  0.3344 -0.3505
  157MPD2    C4 2444   4.691   3.689  12.880 -0.7271  0.7992  0.1048
  157MPD2    C5 2445   4.594   3.588  12.855  0.7992  0.1546  0.0759
  157MPD2     H 2446   0.003   3.807  12.571  2.8277 -1.4556 -0.9528
  157MPD2    H1 2447   4.726   3.699  12.982 -0.6655  3.2592 -0.1600
  157MPD2    H2 2448   4.476   3.492  12.708 -0.3574  0.3694 -1.6117
  157MPD2    H3 2449   4.570   3.528  12.942  2.2649 -2.0701 -1.0665
  157MPD2     N 2450   0.070   3.895  12.807  0.5657  0.2258  0.4967
  157MPD2    H5 2451   0.091   3.948  12.723  2.5452 -0.2080  0.7401
  157MPD2    N1 2452   4.560   3.626  12.489  0.2523  0.7632  0.3007
  157MPD2    H7 2453   4.505   3.545  12.461 -0.1940  1.2101 -0.1349
  158TMC2    C1 2454   0.600   3.250  14.052 -0.4842  0.2541 -0.8252
  158TMC2    C2 2455   0.716   3.319  14.047 -0.6932 -1.1096  0.5978
  158TMC2    C3 2456   0.768   3.354  13.921 -0.1212  0.3136 -0.4593
  158TMC2    C4 2457   0.530   3.225  13.936  0.3962 -0.5335  0.5544
  158TMC2    C5 2458   0.579   3.272  13.820  0.4945  0.9380  0.0652
  158TMC2    C6 2459   0.699   3.328  13.806  0.0413  0.3662  0.0174
  158TMC2     C 2460   0.566   3.195  14.183  0.2265  0.8966 -0.3836
  158TMC2     O 2461   0.622   3.242  14.281 -0.2603  0.1832  0.2496
  158TMC2     H 2462   0.777   3.334  14.135 -0.9756 -0.0423  0.6147
  158TMC2    H1 2463   0.429   3.186  13.944  0.0284 -0.2464 -2.6053
  158TMC2    H2 2464   0.725   3.334  13.701 -1.9415  1.5816 -0.4134
  158TMC2    C7 2465   0.484   3.274  13.718  0.8824 -0.0729  1.0074
  158TMC2    C8 2466   0.901   3.406  13.911 -0.3841 -0.3035  0.1906
  158TMC2    O1 2467   0.507   3.348  13.623  0.0896 -0.0582  0.3912
  158TMC2    O2 2468   0.980   3.379  13.998  0.5716 -0.2261  0.4206
  158TMC2    O5 2469   0.926   3.463  13.790 -0.1187 -0.5558 -0.6335
  158TMC2    H5 2470   0.849   3.495  13.739 -1.8470 -2.2921  0.9077
  159MPD2     C 2471   0.310   2.864  14.486  0.0492  0.1810  0.1931
  159MPD2    C1 2472   0.269   2.841  14.354 -0.0288  0.7719  0.2046
  159MPD2    C2 2473   0.330   2.919  14.251  0.4814  0.2521 -0.2903
  159MPD2    C3 2474   0.417   3.022  14.285  0.4138  0.2734  0.8141
  159MPD2    C4 2475   0.455   3.036  14.418  0.0236  0.4482 -0.4753
  159MPD2    C5 2476   0.392   2.967  14.516 -0.7172 -0.2395  0.3827
  159MPD2     H 2477   0.307   2.900  14.147  1.6624 -0.7268 -0.3682
  159MPD2    H1 2478   0.538   3.098  14.452 -1.3311  0.3493  2.9693
  159MPD2    H2 2479   0.275   2.795  14.562  1.0840 -0.9298 -0.3355
  159MPD2    H3 2480   0.441   2.971  14.612  2.1638 -1.6542 -1.0380
  159MPD2     N 2481   0.478   3.093  14.176  0.2490  0.6348  0.0893
  159MPD2    H5 2482   0.460   3.060  14.081 -1.1673 -0.2016  0.6443
  159MPD2    N1 2483   0.187   2.738  14.326  0.4122  0.4283  0.3563
  159MPD2    H7 2484   0.153   2.700  14.413 -1.4189  0.6805 -0.2486
  160TMC2    C1 2485   4.264   0.478   0.828 -0.5754 -0.0083 -0.0868
  160TMC2    C2 2486   4.209   0.526   0.947  0.0254 -0.0149 -0.2638
  160TMC2    C3 2487   4.302   0.601   1.024  0.2134 -0.1236 -0.8207
  160TMC2    C4 2488   4.398   0.485   0.799  0.6701 -0.0482 -0.1867
  160TMC2    C5 2489   4.484   0.550   0.884 -0.2439 -0.6486  1.1986
  160TMC2    C6 2490   4.441   0.608   0.998 -0.1256  0.2038  0.8019
  160TMC2     C 2491   4.176   0.443   0.717 -0.3718  0.5059  0.4581
  160TMC2     O 2492   4.218   0.374   0.622 -0.0092  0.1910 -0.7866
  160TMC2     H 2493   4.105   0.524   0.975  1.1892  3.1093  4.2251
  160TMC2    H1 2494   4.435   0.442   0.706  1.0524 -0.0847 -0.0165
  160TMC2    H2 2495   4.497   0.666   1.071  1.0525 -0.2508  0.2520
  160TMC2    C7 2496   4.620   0.552   0.837 -0.5231  0.2008  0.0743
  160TMC2    C8 2497   4.245   0.680   1.122  0.0276 -0.2467 -0.6954
  160TMC2    O1 2498   4.658   0.450   0.779  0.3198 -0.2273  0.1289
  160TMC2    O2 2499   4.132   0.661   1.166 -0.3406 -0.0958 -0.2917
  160TMC2    O5 2500   4.286   0.804   1.086 -0.1013  0.7622 -0.5632
  160TMC2    H5 2501   4.368   0.813   1.033  0.2551  0.8516  0.0126
  161MPD2     C 2502   3.979   0.476   0.480  0.9182 -0.0208  0.7222
  161MPD2    C1 2503   3.986   0.555   0.595  0.3654  0.0929 -0.4585
  161MPD2    C2 2504   3.913   0.678   0.598 -0.3098 -0.7774  0.3334
  161MPD2    C3 2505   3.837   0.716   0.494  0.6160 -0.1174  0.0720
  161MPD2    C4 2506   3.832   0.638   0.385  0.3633 -0.4657  0.2117
  161MPD2    C5 2507   3.901   0.519   0.377 -0.1703 -0.1707  0.4508
  161MPD2     H 2508   3.931   0.753   0.674  0.2989 -0.5704 -0.0143
  161MPD2    H1 2509   3.773   0.667   0.298 -0.8190 -1.2576  0.7523
  161MPD2    H2 2510   4.032   0.382   0.477  2.3071  0.7236  1.9863
  161MPD2    H3 2511   3.906   0.468   0.282  1.5618  1.0024 -0.0722
  161MPD2     N 2512   3.767   0.836   0.486  0.1200 -0.1598  0.4229
  161MPD2    H5 2513   3.716   0.859   0.401  1.2882 -0.3467 -0.3239
  161MPD2    N1 2514   4.070   0.534   0.704  0.7737  0.5758  0.1220
  161MPD2    H7 2515   4.067   0.605   0.777 -2.0186 -1.1856  1.6865
  162TMC2    C1 2516   2.446   2.870   1.285 -0.4598 -0.5031 -0.2316
  162TMC2    C2 2517   2.312   2.904   1.284  0.4925 -0.5409 -0.6653
  162TMC2    C3 2518   2.248   2.913   1.406 -0.5204  0.3427 -0.0293
  162TMC2    C4 2519   2.508   2.859   1.404  0.4447  0.5555 -0.5658
  162TMC2    C5 2520   2.431   2.861   1.517  0.8314  0.7096 -0.5989
  162TMC2    C6 2521   2.304   2.889   1.524  0.4743  0.0400  0.5720
  162TMC2     C 2522   2.505   2.859   1.155 -0.2442  0.9610 -0.0923
  162TMC2     O 2523   2.431   2.888   1.062  0.4075 -0.3617 -0.2455
  162TMC2     H 2524   2.254   2.915   1.194 -1.3371  0.4804  0.6411
  162TMC2    H1 2525   2.601   2.803   1.405  0.1033 -0.0187  0.1039
  162TMC2    H2 2526   2.240   2.874   1.610 -1.0458  0.8323 -0.4265
  162TMC2    C7 2527   2.486   2.821   1.644 -0.2649  0.3184  0.2503
  162TMC2    C8 2528   2.107   2.944   1.405 -0.1225  0.2308 -0.1114
  162TMC2    O1 2529   2.411   2.780   1.730 -0.2535  0.0475 -0.9474
  162TMC2    O2 2530   2.043   2.921   1.304 -0.1514  0.1333 -0.1162
  162TMC2    O5 2531   2.082   3.040   1.498  0.0117 -0.6626  0.3361
  162TMC2    H5 2532   2.150   3.044   1.568  2.2618  3.1484 -2.0592
  163MPD2     C 2533   2.863   2.676   0.832  0.8336  0.3318  0.2963
  163MPD2    C1 2534   2.747   2.746   0.794  1.4624 -0.4343 -0.5766
  163MPD2    C2 2535   2.670   2.811   0.891 -0.1147 -0.4524 -0.0285
  163MPD2    C3 2536   2.710   2.793   1.024  1.1402  0.2608 -0.7482
  163MPD2    C4 2537   2.834   2.738   1.053 -0.6044 -0.3086  0.4120
  163MPD2    C5 2538   2.911   2.690   0.955  0.1484 -1.1351  0.3972
  163MPD2     H 2539   2.575   2.860   0.869 -1.1897 -3.3744 -1.9685
  163MPD2    H1 2540   2.867   2.720   1.154 -0.8965 -0.8507  0.4092
  163MPD2    H2 2541   2.920   2.616   0.762 -0.6216 -0.2769 -0.3534
  163MPD2    H3 2542   3.016   2.669   0.971  0.1741 -1.1584  0.1972
  163MPD2     N 2543   2.638   2.822   1.144 -1.2343  0.9586 -0.4001
  163MPD2    H5 2544   2.678   2.783   1.229 -0.0649 -1.6028 -2.1313
  163MPD2    N1 2545   2.709   2.735   0.667  0.3481  0.5603 -0.1742
  163MPD2    H7 2546   2.753   2.660   0.614  1.0881  1.8284 -1.3362
  164TMC2    C1 2547   3.187   2.241  11.164 -0.7934 -0.2760 -0.0493
  164TMC2    C2 2548   3.308   2.300  11.148  0.9552  1.1238 -0.0125
  164TMC2    C3 2549   3.309   2.436  11.164 -0.0748  0.2258 -0.2276
  164TMC2    C4 2550   3.073   2.315  11.193  0.2415  0.8186 -0.6680
  164TMC2    C5 2551   3.090   2.440  11.233  0.7577 -0.3621  0.3829
  164TMC2    C6 2552   3.203   2.506  11.213  0.8667  0.3230  0.2850
  164TMC2     C 2553   3.156   2.115  11.106 -0.0055 -0.0685  0.1521
  164TMC2     O 2554   3.039   2.086  11.093 -0.9947 -0.5570  0.0069
  164TMC2     H 2555   3.387   2.252  11.091  0.0689 -1.5333  1.0425
  164TMC2    H1 2556   2.971   2.279  11.181 -0.5461  3.0859 -0.8384
  164TMC2    H2 2557   3.207   2.609  11.246  3.0072 -0.3610  2.1280
  164TMC2    C7 2558   2.990   2.508  11.314 -0.3371  0.4116  0.0647
  164TMC2    C8 2559   3.417   2.507  11.121 -0.4854  0.4346 -0.5259
  164TMC2    O1 2560   2.976   2.628  11.317  0.0142  0.3755 -0.2531
  164TMC2    O2 2561   3.493   2.461  11.038 -0.0343  0.0561  0.3922
  164TMC2    O5 2562   3.431   2.621  11.191 -0.2932 -0.0516  0.6167
  164TMC2    H5 2563   3.384   2.622  11.277 -0.5176 -2.5144  0.5042
  165TMC2    C1 2564   4.239   0.243   1.573  0.1256  0.5991  0.1781
  165TMC2    C2 2565   4.190   0.294   1.688  0.8297 -0.0476 -0.1484
  165TMC2    C3 2566   4.197   0.431   1.700  0.5524  0.4079 -0.1916
  165TMC2    C4 2567   4.295   0.316   1.469  0.1111  0.6971  0.2953
  165TMC2    C5 2568   4.303   0.451   1.494 -0.4762 -0.0878  0.4797
  165TMC2    C6 2569   4.254   0.507   1.607 -0.2187 -0.5708  0.4890
  165TMC2     C 2570   4.252   0.092   1.565 -0.2606 -0.6008  0.3527
  165TMC2     O 2571   4.257   0.024   1.667  0.0242  0.3679 -0.0001
  165TMC2     H 2572   4.174   0.221   1.766 -0.5919  0.0673 -0.3283
  165TMC2    H1 2573   4.329   0.273   1.375  1.3177 -0.6940  1.3597
  165TMC2    H2 2574   4.255   0.614   1.623 -0.3770 -0.4008 -0.6367
  165TMC2    C7 2575   4.403   0.512   1.410  0.4882  0.4695  0.2046
  165TMC2    C8 2576   4.199   0.483   1.833 -0.1514 -0.6794 -0.3985
  165TMC2    O1 2577   4.482   0.435   1.353 -0.0715  0.5771  0.9662
  165TMC2    O2 2578   4.292   0.555   1.872  0.1055 -0.1137  1.0405
  165TMC2    O5 2579   4.115   0.417   1.914 -0.0381  0.1780  0.2556
  165TMC2    H5 2580   4.039   0.380   1.865 -0.0207  0.4156  0.0508
  166MPD2     C 2581   4.524   4.475   1.315  0.3203  0.4933 -0.3526
  166MPD2    C1 2582   4.518   4.498   1.454 -0.5229 -0.5996  0.7478
  166MPD2    C2 2583   4.437   4.598   1.495 -0.3028 -0.6604  0.1729
  166MPD2    C3 2584   4.378   4.680   1.406 -0.2776  0.2483  0.0040
  166MPD2    C4 2585   4.395   4.658   1.270 -0.6860 -0.5426 -0.2152
  166MPD2    C5 2586   4.463   4.552   1.224 -0.0024  0.5949 -0.6754
  166MPD2     H 2587   4.431   4.628   1.600 -1.1112 -1.7782  0.4431
  166MPD2    H1 2588   4.341   4.719   1.197  0.4464  1.1457  0.3608
  166MPD2    H2 2589   4.573   4.387   1.275  0.9740  0.0914  1.3200
  166MPD2    H3 2590   4.480   4.544   1.117  1.8599  1.4144 -0.4305
  166MPD2     N 2591   4.289   0.050   1.440 -0.0138 -1.0782 -0.0250
  166MPD2    H5 2592   4.263   0.117   1.368 -1.4790 -0.2268  1.3175
  166MPD2    N1 2593   4.574   4.403   1.537  0.0572  0.1549  0.4833
  166MPD2    H7 2594   4.637   4.333   1.499 -1.5120 -1.0063  0.0180
  167TMC2    C1 2595   3.067   2.783  12.803  0.3788 -0.3340 -0.6457
  167TMC2    C2 2596   2.989   2.884  12.852 -0.0612 -0.1699  0.1768
  167TMC2    C3 2597   2.865   2.847  12.899 -0.3047  0.2557 -0.5236
  167TMC2    C4 2598   3.012   2.657  12.785  0.0391 -0.5625  0.2465
  167TMC2    C5 2599   2.882   2.628  12.827 -0.4172  0.4568  0.3246
  167TMC2    C6 2600   2.806   2.723  12.887  0.1714 -0.4906 -0.7193
  167TMC2     C 2601   3.176   2.821  12.719 -0.4899 -0.9561 -0.1868
  167TMC2     O 2602   3.223   2.928  12.738 -0.3376  0.0768 -0.0406
  167TMC2     H 2603   3.021   2.988  12.849  0.0881 -0.1433  2.6585
  167TMC2    H1 2604   3.078   2.574  12.760  0.4410  0.0321 -0.6688
  167TMC2    H2 2605   2.708   2.713  12.931  0.5587 -0.1963  0.2173
  167TMC2    C7 2606   2.818   2.497  12.837 -0.8193 -0.1330  0.4738
  167TMC2    C8 2607   2.786   2.945  12.965 -0.0983 -0.4538  0.3667
  167TMC2    O1 2608   2.711   2.480  12.896 -0.6091 -0.1702 -0.1610
  167TMC2    O2 2609   2.708   2.913  13.052  0.2871 -0.4792  0.7402
  167TMC2    O5 2610   2.804   3.072  12.923 -0.1670 -0.3143 -0.0364
  167TMC2    H5 2611   2.858   3.077  12.841 -3.6189  2.3689 -2.1636
  168MPD2     C 2612   3.387   2.857  12.516  0.0277 -0.0161  0.3159
  168MPD2    C1 2613   3.278   2.772  12.494 -0.4922  0.0867  0.5395
  168MPD2    C2 2614   3.244   2.726  12.367 -0.5307 -0.1396 -0.3575
  168MPD2    C3 2615   3.319   2.768  12.257  0.4028 -0.0896  0.4163
  168MPD2    C4 2616   3.429   2.842  12.279  0.8598  0.0672 -0.0761
  168MPD2    C5 2617   3.465   2.881  12.403  0.2180 -0.5438 -0.1956
  168MPD2     H 2618   3.153   2.669  12.353 -0.8831 -0.0036  1.3947
  168MPD2    H1 2619   3.481   2.895  12.201  0.1184  1.4601  0.3858
  168MPD2    H2 2620   3.423   2.894  12.611 -1.5332  0.1514  0.8459
  168MPD2    H3 2621   3.545   2.953  12.419 -2.2435  1.6385  2.3333
  168MPD2     N 2622   3.281   2.732  12.128  0.2101  0.1223  0.1288
  168MPD2    H5 2623   3.187   2.695  12.113  1.0418 -1.7350 -0.4885
  168MPD2    N1 2624   3.192   2.744  12.606 -0.2059  0.2832  0.3000
  168MPD2    H7 2625   3.120   2.673  12.594  0.2131 -0.7589  4.0833
  169MPD1     C 2626   0.042   3.256   9.476  0.1268 -0.3157  0.4308
  169MPD1    C1 2627   0.077   3.223   9.604 -0.5285 -0.3308  0.0459
  169MPD1    C2 2628   0.127   3.094   9.628  0.2257  0.4195 -0.1977
  169MPD1    C3 2629   0.145   3.001   9.523  0.1117 -0.4020 -0.3248
  169MPD1    C4 2630   0.097   3.036   9.396 -0.1454 -0.2534  0.1371
  169MPD1    C5 2631   0.049   3.165   9.371 -0.1588 -0.3427  0.5089
  169MPD1     H 2632   0.160   3.069   9.728  0.7367  0.2714 -0.4053
  169MPD1    H1 2633   0.104   2.964   9.315 -1.4624 -1.0540  0.7241
  169MPD1    H2 2634   0.007   3.354   9.447 -0.3203 -0.6349 -0.1222
  169MPD1    H3 2635   0.014   3.187   9.271  1.1764  0.1514  0.1440
  169MPD1     N 2636   0.196   2.874   9.560 -0.2209  0.2073 -0.4265
  169MPD1    H5 2637   0.214   2.857   9.658 -0.5178 -0.2432 -0.4523
  169MPD1    N1 2638   0.050   3.320   9.704  0.4628 -0.0980  0.6325
  169MPD1    H6 2639   0.126   3.319   9.772  0.5992  3.8272  0.5849
  169MPD1    H7 2640   0.043   3.416   9.671  2.6626 -0.9231 -2.2290
  170MPD1     C 2641   3.250   0.016  12.796  0.7756  0.1600 -0.2677
  170MPD1    C1 2642   3.339   4.700  12.880 -0.5957  0.6744 -0.2837
  170MPD1    C2 2643   3.326   4.732  13.016 -0.1482 -0.5359  0.4564
  170MPD1    C3 2644   3.247   0.098  13.061 -0.6253  0.3036  0.5680
  170MPD1    C4 2645   3.161   0.163  12.973 -0.3514  0.0682  1.3695
  170MPD1    C5 2646   3.168   0.120  12.840  0.1674  0.6795 -0.5173
  170MPD1     H 2647   3.399   4.684  13.079  1.2950  2.0460  0.7445
  170MPD1    H1 2648   3.085   0.236  12.998 -1.8185 -0.8855 -0.3454
  170MPD1    H2 2649   3.237   4.708  12.698  1.0806 -1.1692  0.2880
  170MPD1    H3 2650   3.093   0.151  12.768 -2.8099 -0.1462  2.2534
  170MPD1     N 2651   3.261   0.137  13.198  0.7407  0.7909  0.6585
  170MPD1    H5 2652   3.333   0.086  13.247  0.8560  0.0263 -0.2895
  170MPD1    N1 2653   3.411   4.586  12.842  0.7280 -0.0941 -0.2598
  170MPD1    H6 2654   3.420   4.587  12.741 -1.0674 -0.7271 -0.4330
  170MPD1    H7 2655   3.501   4.581  12.888 -0.5298 -0.9252  2.0961
  171MPD1     C 2656   1.224   1.444  15.238  0.4180 -0.9493 -0.3428
  171MPD1    C1 2657   1.235   1.453  15.374 -0.4177 -0.8956  0.3710
  171MPD1    C2 2658   1.339   1.395  15.439 -0.3620 -0.1687  0.0737
  171MPD1    C3 2659   1.438   1.330  15.370 -0.1731 -0.4208 -0.7972
  171MPD1    C4 2660   1.434   1.338  15.229 -0.0072  0.1996 -0.0443
  171MPD1    C5 2661   1.328   1.387  15.162  0.6752  0.8587  0.1046
  171MPD1     H 2662   1.337   1.389  15.547  4.2805  5.1513  0.4972
  171MPD1    H1 2663   1.508   1.288  15.167  0.6849  1.4227 -0.1906
  171MPD1    H2 2664   1.139   1.494  15.192  0.0759 -0.1611  1.1644
  171MPD1    H3 2665   1.326   1.396  15.054 -2.7152 -0.3080  0.0679
  171MPD1     N 2666   1.547   1.262  15.430 -0.5197 -0.0369 -0.0964
  171MPD1    H5 2667   1.612   1.212  15.370 -0.3877 -0.9789  0.8365
  171MPD1    N1 2668   1.135   1.518  15.448 -0.0230  0.1534 -0.2604
  171MPD1    H6 2669   1.122   1.611  15.410 -0.5257 -1.1661 -3.2663
  171MPD1    H7 2670   1.163   1.544  15.543 -0.6477  2.0870 -0.6264
  172MPD1     C 2671   1.090   0.624  17.425  0.2356  0.4870  0.3349
  172MPD1    C1 2672   1.074   0.584  17.552 -0.5329 -0.0350  0.4187
  172MPD1    C2 2673   1.101   0.670  17.652  0.1677 -0.1778 -0.4092
  172MPD1    C3 2674   1.171   0.788  17.638  0.0653  0.0030 -0.1511
  172MPD1    C4 2675   1.186   0.826  17.505  0.1814  0.1457  0.5494
  172MPD1    C5 2676   1.157   0.741  17.401  0.7248 -0.3062 -0.0265
  172MPD1     H 2677   1.093   0.630   0.008  2.7382 -0.5227 -0.3405
  172MPD1    H1 2678   1.233   0.922  17.485 -0.5361  0.1146 -1.3419
  172MPD1    H2 2679   1.060   0.563  17.340  1.7309 -2.5795  2.0163
  172MPD1    H3 2680   1.165   0.770  17.297 -2.1573 -1.2422 -0.5045
  172MPD1     N 2681   1.197   0.884  17.739 -0.0402  0.3929 -0.0909
  172MPD1    H5 2682   1.245   0.969  17.710  0.5384 -0.3368 -1.2407
  172MPD1    N1 2683   1.015   0.460  17.569  0.3426  0.9078  0.0730
  172MPD1    H6 2684   1.051   0.414  17.652 -1.7762 -2.1299 -0.7153
  172MPD1    H7 2685   1.043   0.400  17.492  0.2335 -0.9980  1.5202
  173MPD1     C 2686   2.926   1.025  13.844  0.7816  0.6240 -0.2078
  173MPD1    C1 2687   2.790   1.023  13.890  1.3334  0.2447 -0.8542
  173MPD1    C2 2688   2.753   0.926  13.978  0.6327  0.4796 -0.0798
  173MPD1    C3 2689   2.849   0.835  14.035  0.3977  0.0377  0.3518
  173MPD1    C4 2690   2.984   0.847  13.995  0.2276  0.2642 -0.1642
  173MPD1    C5 2691   3.018   0.939  13.897 -0.5637 -0.1098 -0.6961
  173MPD1     H 2692   2.648   0.924  14.004  0.4175  0.1053 -0.9599
  173MPD1    H1 2693   3.065   0.778  14.015  0.6036  0.6363 -0.3914
  173MPD1    H2 2694   2.956   1.085  13.760  1.4208  0.5045 -0.0646
  173MPD1    H3 2695   3.123   0.937  13.870 -1.0705  1.4365 -2.7566
  173MPD1     N 2696   2.807   0.740  14.132 -0.5510 -0.4830  0.6381
  173MPD1    H5 2697   2.710   0.743  14.162 -0.6700 -0.1827  0.2144
  173MPD1    N1 2698   2.696   1.107  13.820 -0.1361 -0.5292  0.6263
  173MPD1    H6 2699   2.611   1.113  13.875 -1.6299 -2.7117 -1.4482
  173MPD1    H7 2700   2.727   1.197  13.783 -0.0474 -0.8788 -0.1603
  174MPD1     C 2701   2.852   4.562  13.858  0.6421 -0.2631  0.3033
  174MPD1    C1 2702   2.861   4.524  13.990 -0.2411 -0.0021 -0.1300
  174MPD1    C2 2703   2.842   4.633  14.078 -0.6518  1.2713  0.0525
  174MPD1    C3 2704   2.858   0.032  14.023  0.6581  0.3280  0.3869
  174MPD1    C4 2705   2.884   0.051  13.885 -0.6797  0.6653 -0.0163
  174MPD1    C5 2706   2.863   4.684  13.804  0.4734  0.1083  0.6394
  174MPD1     H 2707   2.818   4.629  14.183 -0.8113  1.9504  0.0407
  174MPD1    H1 2708   2.889   0.149  13.838  0.7086 -0.0603 -1.3722
  174MPD1    H2 2709   2.854   4.477  13.791 -0.7258 -1.8951  2.3056
  174MPD1    H3 2710   2.874   4.694  13.696  1.7939 -1.0179  0.6696
  174MPD1     N 2711   2.843   0.150  14.101  0.2028 -0.2785 -0.0467
  174MPD1    H5 2712   2.835   0.238  14.051 -1.3114 -1.4713 -1.8841
  174MPD1    N1 2713   2.838   4.390  14.044 -0.2345 -0.0086 -0.4749
  174MPD1    H6 2714   2.740   4.365  14.053 -0.9310  2.8826 -0.0456
  174MPD1    H7 2715   2.866   4.399  14.142  2.0342 -0.7154 -1.0577
  175MPD1     C 2716   0.543   2.217  15.446 -0.4383  0.0564  0.1089
  175MPD1    C1 2717   0.630   2.136  15.369  0.7160 -0.8521  0.5041
  175MPD1    C2 2718   0.623   2.001  15.389  0.2502 -0.1832 -0.7410
  175MPD1    C3 2719   0.520   1.947  15.459  0.2844 -0.1524 -0.3945
  175MPD1    C4 2720   0.417   2.027  15.506 -0.5732  0.7087  0.0671
  175MPD1    C5 2721   0.437   2.161  15.509 -0.4401 -0.0023 -0.7517
  175MPD1     H 2722   0.708   1.942  15.358 -0.9829 -2.1439 -0.4001
  175MPD1    H1 2723   0.332   1.999  15.567 -0.4877  1.8277  0.7036
  175MPD1    H2 2724   0.556   2.325  15.451 -0.2106  0.0167  0.3805
  175MPD1    H3 2725   0.365   2.224  15.560 -0.0446 -0.5616  0.5084
  175MPD1     N 2726   0.510   1.814  15.492 -0.6626  0.0277  0.3079
  175MPD1    H5 2727   0.429   1.788  15.546 -0.2145  1.5223  1.7132
  175MPD1    N1 2728   0.735   2.191  15.302 -0.4532 -0.7518  0.1870
  175MPD1    H6 2729   0.726   2.291  15.290  1.0100 -0.8820 -1.9827
  175MPD1    H7 2730   0.766   2.145  15.217 -1.8635  0.8138 -1.1496
  176MPD1     C 2731   2.473   3.111  16.812 -0.2033  0.4372 -0.4752
  176MPD1    C1 2732   2.455   3.235  16.763  0.1713  0.0294 -0.6034
  176MPD1    C2 2733   2.507   3.342  16.835 -0.0222  0.4565 -0.7306
  176MPD1    C3 2734   2.568   3.327  16.959  0.1939 -0.1106 -0.1735
  176MPD1    C4 2735   2.582   3.199  17.008  0.1188 -0.0748 -0.6529
  176MPD1    C5 2736   2.536   3.097  16.929  0.1551  0.1008  0.0207
  176MPD1     H 2737   2.504   3.443  16.799  1.8487  0.9540  0.4978
  176MPD1    H1 2738   2.627   3.180  17.105 -1.6395  2.1943  0.6093
  176MPD1    H2 2739   2.444   3.022  16.759 -0.2179  0.9930 -1.3968
  176MPD1    H3 2740   2.541   2.998  16.974 -0.0217  0.0439 -0.0852
  176MPD1     N 2741   2.600   3.450  17.022  0.1170  0.7578  0.1010
  176MPD1    H5 2742   2.602   3.529  16.958 -0.2895 -1.6734 -2.9160
  176MPD1    N1 2743   2.404   3.255  16.630 -0.0001 -0.2916 -0.5185
  176MPD1    H6 2744   2.350   3.184  16.581 -1.1651  1.0339 -1.1486
  176MPD1    H7 2745   2.335   3.330  16.629 -2.7179 -2.8148 -0.8962
  177MPD1     C 2746   0.995   3.108   9.869  0.6140 -0.0953  0.1579
  177MPD1    C1 2747   1.037   3.190   9.768 -0.0599  0.3131  0.1780
  177MPD1    C2 2748   1.022   3.150   9.637 -0.0362 -1.8700 -0.4402
  177MPD1    C3 2749   0.971   3.020   9.615 -0.1258  0.0423 -0.1094
  177MPD1    C4 2750   0.929   2.936   9.713 -0.0084 -0.1671  0.2220
  177MPD1    C5 2751   0.947   2.984   9.845  0.3173 -0.1833  0.3464
  177MPD1     H 2752   1.052   3.209   9.551 -0.0304  1.4047  1.8369
  177MPD1    H1 2753   0.910   2.829   9.703  1.3935 -0.2165 -2.0125
  177MPD1    H2 2754   1.010   3.134   9.973  0.0353 -1.4966  0.5976
  177MPD1    H3 2755   0.923   2.931   9.937 -1.3365 -0.0575 -0.0107
  177MPD1     N 2756   0.975   2.985   9.476 -0.2172 -0.5849 -0.3247
  177MPD1    H5 2757   1.022   3.050   9.413 -1.6428 -0.4405 -1.2335
  177MPD1    N1 2758   1.105   3.305   9.803  0.2695  0.0887 -0.7103
  177MPD1    H6 2759   1.071   3.334   9.895 -2.3350 -0.5454 -1.4780
  177MPD1    H7 2760   1.102   3.376   9.729 -1.3123 -0.1635 -0.8932
  178MPD1     C 2761   3.711   3.624   0.389 -0.3666 -0.2859 -0.2190
  178MPD1    C1 2762   3.632   3.556   0.294 -0.1298 -0.3692 -0.2794
  178MPD1    C2 2763   3.616   3.606   0.164  0.0901 -0.0515  0.0868
  178MPD1    C3 2764   3.682   3.720   0.125 -0.1692 -0.2434 -0.0020
  178MPD1    C4 2765   3.757   3.787   0.217  0.2896 -0.4394  0.4558
  178MPD1    C5 2766   3.772   3.744   0.351 -0.3456  0.9573 -0.2480
  178MPD1     H 2767   3.563   3.541   0.096 -1.4419  1.2913 -0.0037
  178MPD1    H1 2768   3.809   3.877   0.186 -1.4842  0.5909  0.4743
  178MPD1    H2 2769   3.714   3.591   0.492  1.0266  1.3942  0.2640
  178MPD1    H3 2770   3.837   3.794   0.421 -0.8614  1.8390 -0.3972
  178MPD1     N 2771   3.679   3.774  17.741  0.0094  0.0526 -0.4547
  178MPD1    H5 2772   3.742   3.853  17.730 -0.8072  1.1595  2.7521
  178MPD1    N1 2773   3.557   3.441   0.326  0.6467  0.5191  0.1309
  178MPD1    H6 2774   3.552   3.386   0.240 -2.4862  0.4837  0.3416
  178MPD1    H7 2775   3.604   3.383   0.395  0.5637  0.0829 -0.1759
  179MPD1     C 2776   2.994   2.715  15.238  0.1909  0.0433  0.6778
  179MPD1    C1 2777   2.874   2.648  15.229  0.5539 -0.3383 -0.1195
  179MPD1    C2 2778   2.862   2.522  15.288  0.2148 -0.7421  0.3627
  179MPD1    C3 2779   2.963   2.468  15.367  0.1732  1.0723 -0.8335
  179MPD1    C4 2780   3.079   2.540  15.369 -0.8725 -0.2051  0.1129
  179MPD1    C5 2781   3.096   2.664  15.312 -0.7676 -0.0271 -0.6698
  179MPD1     H 2782   2.769   2.468  15.278 -0.1309 -0.6515  2.9713
  179MPD1    H1 2783   3.162   2.501  15.429 -0.0950 -1.4405 -1.7657
  179MPD1    H2 2784   3.008   2.807  15.183  0.4407 -1.2429 -1.4436
  179MPD1    H3 2785   3.188   2.720  15.320 -0.6654 -0.3197  0.1901
  179MPD1     N 2786   2.950   2.343  15.434  0.3989  0.2327  0.2238
  179MPD1    H5 2787   3.037   2.319  15.480  1.5215  1.3448 -1.3410
  179MPD1    N1 2788   2.764   2.705  15.164 -0.1494 -0.5431 -0.2659
  179MPD1    H6 2789   2.671   2.671  15.184 -0.3357 -0.3445 -0.7806
  179MPD1    H7 2790   2.763   2.804  15.189  0.0929 -0.2112 -1.5601
  180MPD1     C 2791   3.297   3.346  15.667 -0.5585  0.1463  0.1520
  180MPD1    C1 2792   3.372   3.345  15.553  0.0585  0.2457 -0.0667
  180MPD1    C2 2793   3.308   3.341  15.434 -0.6895 -1.0489  0.3059
  180MPD1    C3 2794   3.173   3.358  15.420 -0.2402  0.3060 -0.2325
  180MPD1    C4 2795   3.097   3.374  15.535 -0.2168 -0.5159  0.0125
  180MPD1    C5 2796   3.164   3.368  15.651 -0.4251 -0.8251  0.1677
  180MPD1     H 2797   3.370   3.346  15.344 -2.2895  2.4907 -0.5948
  180MPD1    H1 2798   2.989   3.380  15.530 -0.3970 -3.3462  1.0181
  180MPD1    H2 2799   3.339   3.336  15.767 -2.1123  0.1315  0.7976
  180MPD1    H3 2800   3.105   3.368  15.742 -0.0041 -0.4598  0.4454
  180MPD1     N 2801   3.112   3.351  15.292 -0.5998 -0.2537 -0.4260
  180MPD1    H5 2802   3.168   3.344  15.207 -0.8701  1.4463 -0.7360
  180MPD1    N1 2803   3.508   3.311  15.569 -0.4876 -0.1186  0.6507
  180MPD1    H6 2804   3.539   3.345  15.660 -0.2059 -0.4633  0.6808
  180MPD1    H7 2805   3.562   3.355  15.495 -0.6444 -0.7022  0.1942
  181MPD1     C 2806   4.076   0.203  10.060  0.1285 -0.5873 -1.3758
  181MPD1    C1 2807   4.105   0.337  10.077  0.2080 -0.2660 -0.5126
  181MPD1    C2 2808   4.234   0.387  10.059  0.3871  0.0186 -0.0462
  181MPD1    C3 2809   4.331   0.292  10.022 -0.0063  0.2139 -0.0386
  181MPD1    C4 2810   4.295   0.160  10.002 -0.0091 -0.5761 -0.0421
  181MPD1    C5 2811   4.166   0.118  10.014 -0.5850 -0.0064 -0.2808
  181MPD1     H 2812   4.248   0.495  10.060 -0.2531  0.0965  0.7773
  181MPD1    H1 2813   4.364   0.084   9.967  0.1733 -0.6738  0.5321
  181MPD1    H2 2814   3.980   0.169  10.095  0.5043 -0.2091  0.0488
  181MPD1    H3 2815   4.146   0.013   9.997 -0.5159 -0.0137 -0.3203
  181MPD1     N 2816   4.472   0.329  10.008  0.0785 -0.0944  0.2447
  181MPD1    H5 2817   4.534   0.250   9.995  0.2599 -0.0352  0.7281
  181MPD1    N1 2818   3.997   0.430  10.114  0.4414  0.1665  0.0875
  181MPD1    H6 2819   3.912   0.387  10.079  0.8040 -0.2749 -0.2576
  181MPD1    H7 2820   3.998   0.522  10.069  1.4040 -0.0043 -0.2581
  182MPD1     C 2821   0.859   4.182   1.735 -0.2608 -0.5630 -0.0082
  182MPD1    C1 2822   0.836   4.302   1.803  0.7323 -0.1223  0.2076
  182MPD1    C2 2823   0.778   4.412   1.748 -0.3990 -0.5281  0.2970
  182MPD1    C3 2824   0.740   4.409   1.615 -0.0199 -0.1585 -0.1157
  182MPD1    C4 2825   0.756   4.289   1.545  0.9452  0.6764 -0.8897
  182MPD1    C5 2826   0.815   4.181   1.606 -0.8026 -0.2580  0.1911
  182MPD1     H 2827   0.785   4.501   1.809 -1.4168 -0.3888  0.2033
  182MPD1    H1 2828   0.717   4.277   1.445 -0.1935 -0.0358 -0.3548
  182MPD1    H2 2829   0.914   4.097   1.774  1.8933  0.2822 -1.1756
  182MPD1    H3 2830   0.818   4.083   1.560  2.1893 -0.9612  1.8648
  182MPD1     N 2831   0.674   4.523   1.555  0.0924  0.6026  0.0338
  182MPD1    H5 2832   0.625   4.510   1.467  2.6820  0.8566 -1.4208
  182MPD1    N1 2833   0.895   4.311   1.930  0.4274  0.2329  0.4264
  182MPD1    H6 2834   0.927   4.223   1.970  1.3557  0.3109 -0.1531
  182MPD1    H7 2835   0.822   4.348   1.990  0.2541 -1.1343  1.0521
  183MPD1     C 2836   1.805   0.262   9.385  0.2217 -0.4461  0.1355
  183MPD1    C1 2837   1.732   0.163   9.333 -0.0259  0.0768  0.2593
  183MPD1    C2 2838   1.597   0.195   9.321 -0.0766 -0.6791 -0.3905
  183MPD1    C3 2839   1.543   0.318   9.338 -0.3347 -0.3729  0.2103
  183MPD1    C4 2840   1.624   0.421   9.383 -0.3169 -0.3656 -0.2782
  183MPD1    C5 2841   1.757   0.386   9.407 -1.0990  0.7742 -0.9770
  183MPD1     H 2842   1.537   0.113   9.285  0.6007 -0.7931 -1.2550
  183MPD1    H1 2843   1.599   0.522   9.413  0.5966 -0.7292  1.7399
  183MPD1    H2 2844   1.910   0.247   9.406  0.8111  0.1081 -2.3977
  183MPD1    H3 2845   1.815   0.462   9.457  0.6889 -0.7182 -0.7623
  183MPD1     N 2846   1.402   0.333   9.319 -0.4158 -0.1960 -0.0823
  183MPD1    H5 2847   1.351   0.249   9.295 -1.0379 -0.1327  1.0246
  183MPD1    N1 2848   1.784   0.038   9.327  0.0961 -0.8686 -0.2867
  183MPD1    H6 2849   1.884   0.042   9.309  0.4819 -0.8040  1.9566
  183MPD1    H7 2850   1.744   4.723   9.249  1.0356 -1.5412 -0.3210
  184MPD1     C 2851   0.688   2.309   9.744 -0.2280  0.6603  0.0979
  184MPD1    C1 2852   0.618   2.389   9.832 -0.0002  0.6466  0.1970
  184MPD1    C2 2853   0.596   2.524   9.789  0.1274 -0.0649  0.1922
  184MPD1    C3 2854   0.652   2.568   9.669 -0.3455  0.6567  0.1678
  184MPD1    C4 2855   0.732   2.488   9.595 -0.4017 -0.4330  0.0491
  184MPD1    C5 2856   0.750   2.360   9.630 -0.1015  0.5649 -0.4355
  184MPD1     H 2857   0.537   2.592   9.850  0.3277 -0.5882  0.9797
  184MPD1    H1 2858   0.783   2.524   9.507  0.6003  0.6700  1.0971
  184MPD1    H2 2859   0.713   2.207   9.774 -2.4221 -0.4729 -1.8849
  184MPD1    H3 2860   0.815   2.304   9.565 -0.6575 -2.5848  1.6913
  184MPD1     N 2861   0.634   2.707   9.618  0.7763  0.3843 -0.4181
  184MPD1    H5 2862   0.678   2.721   9.527  2.0963  0.6472  0.2665
  184MPD1    N1 2863   0.545   2.330   9.937 -0.0237  0.0987  0.2655
  184MPD1    H6 2864   0.588   2.246   9.974 -2.6624 -1.2839  0.2450
  184MPD1    H7 2865   0.533   2.384  10.023  0.7882  0.2847  0.2612
  185MPD1     C 2866   0.406   2.966   8.807 -0.2493  0.9070 -0.0112
  185MPD1    C1 2867   0.538   2.970   8.846  0.3884  0.1204 -0.0967
  185MPD1    C2 2868   0.558   2.971   8.985 -0.8007 -0.5458 -0.0451
  185MPD1    C3 2869   0.453   2.970   9.080 -0.2117  0.1758 -0.0066
  185MPD1    C4 2870   0.324   2.956   9.038  0.2407  0.4092 -0.0356
  185MPD1    C5 2871   0.305   2.964   8.901  0.2467  0.2411 -0.3087
  185MPD1     H 2872   0.656   2.984   9.030 -0.5376 -1.2485 -0.3997
  185MPD1    H1 2873   0.238   2.956   9.103  0.2507  0.8394 -0.0272
  185MPD1    H2 2874   0.362   2.967   8.708  0.2115 -1.2520 -0.2177
  185MPD1    H3 2875   0.204   2.962   8.862  0.2569  0.4771 -0.3477
  185MPD1     N 2876   0.475   2.980   9.220  0.2979  0.3366 -0.8344
  185MPD1    H5 2877   0.395   2.949   9.276  0.4860 -0.1635 -0.8441
  185MPD1    N1 2878   0.631   2.992   8.750  0.1192  0.4992 -0.4511
  185MPD1    H6 2879   0.718   2.948   8.780 -0.2029 -1.9427 -3.0776
  185MPD1    H7 2880   0.603   2.940   8.667  1.0054  1.0098 -1.0738
  186MPD1     C 2881   3.576   2.063  15.713 -0.4119  0.3503  0.5962
  186MPD1    C1 2882   3.453   2.120  15.728  0.0646 -0.4732 -0.4305
  186MPD1    C2 2883   3.442   2.244  15.789  0.2217 -0.0292  1.1698
  186MPD1    C3 2884   3.551   2.308  15.846 -0.2895  0.2536 -0.3266
  186MPD1    C4 2885   3.677   2.257  15.824  0.1120 -0.4432  0.4866
  186MPD1    C5 2886   3.686   2.137  15.761  0.0394 -0.2796 -0.2364
  186MPD1     H 2887   3.344   2.290  15.797  0.0841 -0.2803  0.9373
  186MPD1    H1 2888   3.770   2.306  15.849 -0.4531  0.2984  1.1447
  186MPD1    H2 2889   3.592   1.983  15.641  2.4901 -0.5494  2.2396
  186MPD1    H3 2890   3.785   2.101  15.736 -0.2490  0.4426 -2.3933
  186MPD1     N 2891   3.539   2.429  15.921 -0.1398 -1.2422  0.3309
  186MPD1    H5 2892   3.627   2.457  15.964 -1.3548  0.8246  1.4561
  186MPD1    N1 2893   3.337   2.062  15.674  0.9109 -0.4413  0.5932
  186MPD1    H6 2894   3.261   2.065  15.742  1.2978 -1.6071  1.0868
  186MPD1    H7 2895   3.352   1.965  15.648  1.5226 -0.3927  0.7629
  187MPD1     C 2896   3.152   4.349  17.590 -0.1663 -0.6848  0.4351
  187MPD1    C1 2897   3.168   4.461  17.519 -0.7065  0.3496  0.2764
  187MPD1    C2 2898   3.058   4.516  17.455 -0.4678 -0.0502  0.7017
  187MPD1    C3 2899   2.937   4.448  17.437 -0.5166 -0.2446 -0.4327
  187MPD1    C4 2900   2.935   4.324  17.486 -0.0824 -0.5740 -0.4491
  187MPD1    C5 2901   3.030   4.278  17.573  0.9551  0.0548 -0.5574
  187MPD1     H 2902   3.078   4.612  17.409  0.7852 -1.3959 -1.5748
  187MPD1    H1 2903   2.860   4.248  17.469  0.8850 -2.0206  1.6745
  187MPD1    H2 2904   3.223   4.312  17.663  0.8650 -0.6915 -0.5822
  187MPD1    H3 2905   3.011   4.185  17.625 -0.3333  0.2392 -0.7001
  187MPD1     N 2906   2.815   4.498  17.373 -0.3180  0.1715 -0.3700
  187MPD1    H5 2907   2.734   4.438  17.367  1.2892 -2.1999  1.5286
  187MPD1    N1 2908   3.277   4.546  17.540 -0.1717  0.6576  0.7816
  187MPD1    H6 2909   3.362   4.502  17.576 -0.1315  2.1139  2.4584
  187MPD1    H7 2910   3.304   4.613  17.468 -0.2876 -0.0832  0.0449
  188MPD1     C 2911   3.152   4.378  10.100  0.7203  0.1680  0.2097
  188MPD1    C1 2912   3.019   4.399  10.116 -0.4224  0.0988 -0.7181
  188MPD1    C2 2913   2.948   4.289  10.164 -0.7357 -0.1869  0.3948
  188MPD1    C3 2914   3.015   4.184  10.233 -0.2689  1.0016  0.0276
  188MPD1    C4 2915   3.150   4.182  10.234 -0.7708 -0.8508 -0.1666
  188MPD1    C5 2916   3.222   4.277  10.168 -0.3335 -0.5799 -0.3970
  188MPD1     H 2917   2.840   4.292  10.170 -0.6699  0.8897  0.9630
  188MPD1    H1 2918   3.202   4.099  10.281  0.3285  1.0566  2.0041
  188MPD1    H2 2919   3.213   4.454  10.052  2.1409 -1.7565 -1.0278
  188MPD1    H3 2920   3.328   4.269  10.143  0.3162 -0.7590  2.4898
  188MPD1     N 2921   2.951   4.074  10.298  0.0060  0.8584  0.0939
  188MPD1    H5 2922   3.012   4.002  10.337 -0.7459 -1.3254 -2.7021
  188MPD1    N1 2923   2.949   4.501  10.044 -0.7804 -0.1117  0.6735
  188MPD1    H6 2924   3.010   4.577  10.016  3.3582 -3.4683  0.6420
  188MPD1    H7 2925   2.857   4.529  10.078 -0.3860  2.0924 -0.0911
  189MPD1     C 2926   4.647   0.679   0.104 -0.4113 -0.4755  0.2237
  189MPD1    C1 2927   4.633   0.578   0.010  0.6484  0.0219 -0.6803
  189MPD1    C2 2928   4.540   0.607  17.648  0.5057  0.4017 -0.6961
  189MPD1    C3 2929   4.459   0.720  17.645  0.4789 -0.3865 -0.2641
  189MPD1    C4 2930   4.475   0.804   0.008 -0.0933  0.3625  0.2595
  189MPD1    C5 2931   4.562   0.780   0.112  0.0257 -0.1718 -0.1857
  189MPD1     H 2932   4.541   0.530  17.573  0.5425  0.5532 -0.8502
  189MPD1    H1 2933   4.405   0.883   0.028 -2.0750 -0.5608 -3.1138
  189MPD1    H2 2934   4.725   0.680   0.180 -2.8098 -1.8108  2.7289
  189MPD1    H3 2935   4.574   0.853   0.191  0.4725 -0.3469 -0.0961
  189MPD1     N 2936   4.365   0.736  17.537 -0.2281  0.2773 -0.3891
  189MPD1    H5 2937   4.355   0.656  17.475 -0.2399  0.7225 -0.9641
  189MPD1    N1 2938   4.723   0.469   0.000 -0.4630  0.2107 -0.3549
  189MPD1    H6 2939   0.030   0.448   0.090  1.6211  2.6966 -0.7952
  189MPD1    H7 2940   4.686   0.384  17.702  0.8231  0.4124 -1.8998
  190MPD1     C 2941   2.891   3.716  15.101  0.1726  0.2466 -0.0791
  190MPD1    C1 2942   3.013   3.756  15.064  0.5489 -0.0789 -0.6512
  190MPD1    C2 2943   3.114   3.746  15.156 -0.1515  0.4696  0.4709
  190MPD1    C3 2944   3.094   3.732  15.292  0.5613 -0.1960 -0.2368
  190MPD1    C4 2945   2.966   3.713  15.337  0.3122 -0.2482 -0.0424
  190MPD1    C5 2946   2.868   3.706  15.243 -0.1415  0.2463  0.6256
  190MPD1     H 2947   3.216   3.764  15.123 -0.8489 -0.3264 -2.0749
  190MPD1    H1 2948   2.937   3.688  15.439 -1.6541  0.2300 -0.5010
  190MPD1    H2 2949   2.801   3.708  15.041  0.4741 -1.6701 -0.2999
  190MPD1    H3 2950   2.768   3.707  15.282 -0.9115 -0.5003 -1.3175
  190MPD1     N 2951   3.198   3.746  15.389 -0.4819  0.3793  0.2274
  190MPD1    H5 2952   3.296   3.738  15.362 -0.9824  0.0711 -1.4913
  190MPD1    N1 2953   3.039   3.763  14.926 -0.3218 -0.0657 -0.2712
  190MPD1    H6 2954   3.113   3.832  14.923 -1.7509  1.4980  0.6576
  190MPD1    H7 2955   2.963   3.815  14.881  0.3425  0.6192 -0.5931
  191MPD1     C 2956   2.505   0.891  12.798  0.5643 -0.3147  0.2276
  191MPD1    C1 2957   2.447   0.931  12.682 -0.0406  0.2339 -0.9265
  191MPD1    C2 2958   2.523   0.935  12.568  0.4391 -0.1107  0.4101
  191MPD1    C3 2959   2.650   0.893  12.561 -0.7542 -0.3925  0.0583
  191MPD1    C4 2960   2.707   0.842  12.677 -0.3560 -0.8090 -0.5404
  191MPD1    C5 2961   2.630   0.838  12.788 -0.0469  0.2361  0.3255
  191MPD1     H 2962   2.484   0.973  12.475  1.2064 -2.2318 -0.7569
  191MPD1    H1 2963   2.807   0.802  12.679 -0.4054 -0.9255 -0.2930
  191MPD1    H2 2964   2.447   0.882  12.889 -0.5461  0.3409 -0.4156
  191MPD1    H3 2965   2.675   0.801  12.880  0.6475  0.2029 -0.0269
  191MPD1     N 2966   2.725   0.896  12.442  0.1436 -0.7505  0.3973
  191MPD1    H5 2967   2.692   0.956  12.367 -1.4782 -1.7651  0.2990
  191MPD1    N1 2968   2.312   0.971  12.677 -0.8231  0.8000 -0.2393
  191MPD1    H6 2969   2.270   0.966  12.585  0.9596 -1.5214 -0.9329
  191MPD1    H7 2970   2.258   0.913  12.742 -0.8092  1.4689  0.3724
  192MPD1     C 2971   2.825   1.176  11.472  0.1474 -0.3041  1.0325
  192MPD1    C1 2972   2.743   1.212  11.578 -0.6326 -0.3424  0.0817
  192MPD1    C2 2973   2.767   1.165  11.705 -0.1611 -0.6343 -0.5115
  192MPD1    C3 2974   2.882   1.083  11.728 -0.2868  0.3381  0.2140
  192MPD1    C4 2975   2.961   1.056  11.619  0.0189 -0.4630  0.3000
  192MPD1    C5 2976   2.935   1.102  11.497 -0.0518 -0.1993 -0.3479
  192MPD1     H 2977   2.698   1.192  11.785  0.0511 -1.7641  0.0491
  192MPD1    H1 2978   3.052   0.999  11.636  1.6554  1.9737 -0.3764
  192MPD1    H2 2979   2.810   1.206  11.369  0.2956  1.2769  1.4825
  192MPD1    H3 2980   3.009   1.077  11.422 -0.2457  0.6987 -0.8318
  192MPD1     N 2981   2.921   1.030  11.849  0.2864  0.0896 -0.0309
  192MPD1    H5 2982   3.003   0.970  11.849 -0.0180 -0.3167  0.9571
  192MPD1    N1 2983   2.625   1.280  11.541 -0.2002 -0.2790 -0.2775
  192MPD1    H6 2984   2.651   1.349  11.470 -1.8421  0.8192  0.2098
  192MPD1    H7 2985   2.571   1.320  11.617 -0.3254 -0.4548 -0.2730
  193MPD1     C 2986   1.629   0.972  15.854 -0.4665 -1.1153  0.2723
  193MPD1    C1 2987   1.576   1.089  15.894  0.2260 -1.0728 -0.7878
  193MPD1    C2 2988   1.652   1.175  15.967  0.6909  0.9507  0.3312
  193MPD1    C3 2989   1.783   1.138  15.997 -0.1771 -0.0471 -0.2167
  193MPD1    C4 2990   1.834   1.012  15.963 -0.2702  0.3240 -0.1246
  193MPD1    C5 2991   1.755   0.929  15.886  0.3188 -0.2484  0.3892
  193MPD1     H 2992   1.617   1.273  15.996 -0.0168  0.0755  2.4652
  193MPD1    H1 2993   1.936   0.984  15.986 -0.1041  0.6986 -0.4023
  193MPD1    H2 2994   1.568   0.906  15.793 -0.8702 -1.2648  0.8369
  193MPD1    H3 2995   1.803   0.836  15.855 -1.1942  0.1312 -3.0174
  193MPD1     N 2996   1.878   1.225  16.069  0.0269  0.0523 -0.6804
  193MPD1    H5 2997   1.965   1.175  16.083 -0.6817 -0.2526  2.5499
  193MPD1    N1 2998   1.438   1.114  15.872 -0.3703  0.2541 -0.0508
  193MPD1    H6 2999   1.418   1.077  15.779  1.6047 -0.3140 -0.2501
  193MPD1    H7 3000   1.419   1.212  15.853 -1.3224  0.0045 -0.4036
  194MPD1     C 3001   4.430   3.455  17.049  0.0084 -0.7597  0.4522
  194MPD1    C1 3002   4.446   3.393  16.929  0.8082  0.3210 -0.5603
  194MPD1    C2 3003   4.479   3.260  16.922 -0.5867 -1.1716  0.4048
  194MPD1    C3 3004   4.484   3.186  17.036 -0.7382 -0.1800  0.5600
  194MPD1    C4 3005   4.465   3.249  17.155  0.1698 -0.2698 -0.0965
  194MPD1    C5 3006   4.441   3.382  17.164  0.0706  0.5117  0.6778
  194MPD1     H 3007   4.490   3.213  16.824 -1.1882  0.7491 -0.5943
  194MPD1    H1 3008   4.480   3.196  17.249 -0.8023 -1.2907 -0.5174
  194MPD1    H2 3009   4.386   3.554  17.046  1.5472 -0.1058 -0.7184
  194MPD1    H3 3010   4.412   3.425  17.259  0.0665  1.0154  0.4491
  194MPD1     N 3011   4.517   3.050  17.042 -0.4348 -0.1353  0.7067
  194MPD1    H5 3012   4.506   3.006  17.133 -1.0727  0.3578  0.8745
  194MPD1    N1 3013   4.394   3.465  16.815  0.2806  0.0284 -0.1700
  194MPD1    H6 3014   4.434   3.443  16.724 -0.7408 -0.4347 -0.4972
  194MPD1    H7 3015   4.399   3.564  16.838  3.3871 -0.1819  0.0575
  195MPD1     C 3016   2.379   0.221  17.381  0.5285  0.1367 -0.0913
  195MPD1    C1 3017   2.275   0.145  17.444 -0.8627  0.1619  0.4033
  195MPD1    C2 3018   2.316   0.073  17.558 -0.3153 -0.4888  0.5046
  195MPD1    C3 3019   2.446   0.058  17.592 -0.0638  0.0343  0.1362
  195MPD1    C4 3020   2.544   0.125  17.523  0.5216  0.5180 -0.1795
  195MPD1    C5 3021   2.508   0.210  17.428  0.7226 -0.6350  0.8292
  195MPD1     H 3022   2.241   0.019  17.615  0.9996  0.0307  2.6984
  195MPD1    H1 3023   2.646   0.136  17.560 -0.0782  1.8110  1.0946
  195MPD1    H2 3024   2.359   0.293  17.302  0.1523  1.4795  1.2347
  195MPD1    H3 3025   2.581   0.281  17.393 -0.1147  1.1792  2.8005
  195MPD1     N 3026   2.496   4.720  17.700 -0.0870  0.1921 -0.3966
  195MPD1    H5 3027   2.597   4.711  17.698 -0.1493 -0.3588 -0.9486
  195MPD1    N1 3028   2.146   0.166  17.414  0.3398  0.5417 -0.7686
  195MPD1    H6 3029   2.086   0.084  17.417  0.1783  0.6917  0.1071
  195MPD1    H7 3030   2.135   0.187  17.315 -0.2526  1.6657 -0.4596
  196MPD1     C 3031   0.500   4.294  17.570  0.7222 -0.2794 -0.3968
  196MPD1    C1 3032   0.509   4.163  17.615 -0.1275  0.5044 -0.3559
  196MPD1    C2 3033   0.571   4.126  17.735 -0.1595 -0.1628 -0.2799
  196MPD1    C3 3034   0.653   4.227   0.047 -0.1679  0.5834  0.2700
  196MPD1    C4 3035   0.659   4.360  17.738  0.6165 -0.1295  0.1736
  196MPD1    C5 3036   0.573   4.390  17.643 -0.7530  0.2192  0.2927
  196MPD1     H 3037   0.560   4.022   0.022  1.6461 -0.9417 -2.2547
  196MPD1    H1 3038   0.719   4.434   0.046 -0.3972 -1.4137  3.1441
  196MPD1    H2 3039   0.437   4.322  17.486  1.6852  0.8060 -0.7622
  196MPD1    H3 3040   0.563   4.494  17.615  0.3507  0.0406 -0.7530
  196MPD1     N 3041   0.727   4.202   0.162  0.6137  0.5031  0.0028
  196MPD1    H5 3042   0.777   4.271   0.217  2.4203 -1.8722  1.3106
  196MPD1    N1 3043   0.431   4.059  17.556  0.0055 -0.0886 -0.1169
  196MPD1    H6 3044   0.422   4.063  17.455 -1.0252  1.5708  0.0245
  196MPD1    H7 3045   0.462   3.966  17.582 -2.2475 -1.3409 -1.9554
  197MPD1     C 3046   0.672   1.149  17.242  0.4585  0.0949  0.0258
  197MPD1    C1 3047   0.583   1.177  17.133 -0.3358  0.0131  0.9233
  197MPD1    C2 3048   0.623   1.273  17.039 -0.0721 -1.2453  0.0439
  197MPD1    C3 3049   0.753   1.321  17.043 -0.1734 -0.1776 -0.0152
  197MPD1    C4 3050   0.842   1.289  17.149 -0.1998 -0.2368 -0.0198
  197MPD1    C5 3051   0.797   1.209  17.250  0.5985  0.2345 -0.3316
  197MPD1     H 3052   0.547   1.302  16.967  1.1714  3.3812  0.5732
  197MPD1    H1 3053   0.944   1.324  17.159 -1.1486  1.7655  2.5912
  197MPD1    H2 3054   0.645   1.071  17.312  1.3849 -0.2700 -0.0288
  197MPD1    H3 3055   0.858   1.194  17.337  0.8113  1.8576 -0.2043
  197MPD1     N 3056   0.815   1.405  16.948 -0.4010  0.1457 -0.0280
  197MPD1    H5 3057   0.910   1.433  16.966  0.0419 -0.2957 -1.6984
  197MPD1    N1 3058   0.458   1.118  17.134 -0.3387  0.2179 -0.3672
  197MPD1    H6 3059   0.413   1.095  17.046 -0.4091  0.4210 -0.3825
  197MPD1    H7 3060   0.458   1.035  17.193 -0.6787  1.9793  2.1046
  198MPD1     C 3061   2.514   4.424  14.445 -0.2387  0.1744 -0.4625
  198MPD1    C1 3062   2.569   4.546  14.412  0.8553  0.2907  0.2433
  198MPD1    C2 3063   2.621   4.624  14.516  0.4250  0.1340 -0.4961
  198MPD1    C3 3064   2.621   4.581  14.644  0.1375 -0.6348 -0.3688
  198MPD1    C4 3065   2.592   4.445  14.665  0.0456  0.1768  0.7363
  198MPD1    C5 3066   2.540   4.374  14.566  0.5486 -0.0974 -1.0731
  198MPD1     H 3067   2.651   4.724  14.489  0.7047  0.5097  1.2001
  198MPD1    H1 3068   2.600   4.395  14.760 -0.6094 -1.7006 -0.1907
  198MPD1    H2 3069   2.465   4.360  14.373 -1.1175  2.6339 -2.0495
  198MPD1    H3 3070   2.515   4.270  14.580 -0.0608 -0.3940 -4.3478
  198MPD1     N 3071   2.677   4.661  14.751  0.4224 -0.5969 -0.2062
  198MPD1    H5 3072   2.687   0.023  14.730  0.2228 -1.0677 -2.4887
  198MPD1    N1 3073   2.553   4.600  14.280  0.0628 -0.6289 -0.2757
  198MPD1    H6 3074   2.632   4.663  14.269 -0.0369 -0.3781  0.4301
  198MPD1    H7 3075   2.561   4.519  14.218 -2.1363 -0.7279 -0.4450
  199MPD1     C 3076   0.061   1.272   9.220  0.2770  0.0456  0.2466
  199MPD1    C1 3077   4.735   1.197   9.316  0.1937  0.2810 -0.2059
  199MPD1    C2 3078   4.683   1.265   9.428  0.3164  0.0711  0.4912
  199MPD1    C3 3079   4.700   1.404   9.452  0.3684  0.4644 -0.9644
  199MPD1    C4 3080   0.040   1.471   9.361  1.1485  0.3682 -0.2308
  199MPD1    C5 3081   0.081   1.406   9.248  0.8477 -0.3644  0.4832
  199MPD1     H 3082   4.609   1.221   9.494  0.7899 -0.6464  0.5453
  199MPD1    H1 3083   0.065   1.575   9.375  2.8410  0.2393 -2.2127
  199MPD1    H2 3084   0.103   1.232   9.129  0.4464  3.6586 -1.2351
  199MPD1    H3 3085   0.149   1.460   9.183  0.9184  0.2417  1.0517
  199MPD1     N 3086   4.661   1.480   9.562  0.1294  0.0755  0.2769
  199MPD1    H5 3087   4.677   1.579   9.551 -0.7124  0.1662 -0.0770
  199MPD1    N1 3088   4.704   1.060   9.302  0.0096  0.4081 -0.7191
  199MPD1    H6 3089   0.018   1.017   9.225  0.4799 -1.0146  0.3780
  199MPD1    H7 3090   4.700   1.006   9.389  0.0478  1.5203 -0.0253
  200MPD1     C 3091   4.695   2.046  14.069  0.8111 -0.3743  0.4735
  200MPD1    C1 3092   4.569   1.990  14.093 -0.4370  0.1391  0.2855
  200MPD1    C2 3093   4.536   1.865  14.046 -0.4445  0.5813 -0.5156
  200MPD1    C3 3094   4.626   1.781  13.984 -0.6482  0.0878  0.4065
  200MPD1    C4 3095   0.016   1.825  13.968  0.0111 -0.1646 -0.0974
  200MPD1    C5 3096   0.044   1.955  14.006 -0.5537  0.0569  0.3802
  200MPD1     H 3097   4.438   1.824  14.065  0.0830 -0.2185  0.5185
  200MPD1    H1 3098   0.094   1.774  13.913 -0.4502  0.8386 -1.6653
  200MPD1    H2 3099   4.732   2.143  14.101  0.4995 -0.5682  1.4152
  200MPD1    H3 3100   0.147   1.974  13.978 -0.5814 -1.8105 -1.0049
  200MPD1     N 3101   4.571   1.664  13.929 -0.5067  0.1741  0.2003
  200MPD1    H5 3102   4.478   1.643  13.965  0.1252 -1.4098  0.9053
  200MPD1    N1 3103   4.484   2.077  14.160 -0.7470  0.7298 -0.0851
  200MPD1    H6 3104   4.390   2.042  14.172 -1.1543  0.5213 -3.8430
  200MPD1    H7 3105   4.529   2.102  14.248 -0.7737 -1.5758  0.5702
  201MPD1     C 3106   1.449   0.135  13.236  0.4384 -0.2970 -0.5562
  201MPD1    C1 3107   1.491   0.049  13.140  0.3341  0.4497  0.1759
  201MPD1    C2 3108   1.619   4.730  13.148 -0.0933  0.4229 -0.0547
  201MPD1    C3 3109   1.713   0.045  13.242  0.3398 -0.5800  0.4368
  201MPD1    C4 3110   1.675   0.152  13.327 -0.1017 -0.5287  0.6364
  201MPD1    C5 3111   1.543   0.191  13.322  0.4049 -0.5397  0.3884
  201MPD1     H 3112   1.653   4.653  13.080  2.2492  1.4304 -0.0130
  201MPD1    H1 3113   1.739   0.205  13.396  1.5236 -1.7542  0.0772
  201MPD1    H2 3114   1.347   0.172  13.232 -0.0467 -1.2485  3.0943
  201MPD1    H3 3115   1.499   0.265  13.388  0.8563 -0.9999  1.2024
  201MPD1     N 3116   1.839   4.718  13.245 -0.6796 -0.8495 -0.2251
  201MPD1    H5 3117   1.849   4.644  13.177 -2.5586 -1.6921  0.4249
  201MPD1    N1 3118   1.386   4.714  13.073  0.2899 -0.2320 -0.1575
  201MPD1    H6 3119   1.308   0.041  13.057  0.1833  0.1590  1.9214
  201MPD1    H7 3120   1.428   4.687  12.985  0.2135 -1.8188  0.2891
  202MPD1     C 3121   1.192   4.042   9.009 -0.4939 -0.2559  0.5811
  202MPD1    C1 3122   1.255   3.945   9.075 -0.1855  0.4036 -0.0484
  202MPD1    C2 3123   1.299   3.995   9.197 -0.0690  0.7929  0.0601
  202MPD1    C3 3124   1.223   4.076   9.276  0.2929  0.2831 -0.3365
  202MPD1    C4 3125   1.135   4.150   9.209 -0.2328 -0.3892  0.8675
  202MPD1    C5 3126   1.118   4.136   9.078  1.0687 -0.9366 -0.6301
  202MPD1     H 3127   1.365   3.924   9.245 -0.9513 -0.8839 -1.1840
  202MPD1    H1 3128   1.064   4.213   9.261 -0.3985  0.8627 -0.9100
  202MPD1    H2 3129   1.169   4.035   8.903 -2.5179 -0.9464  1.0614
  202MPD1    H3 3130   1.040   4.192   9.027  1.0159 -0.7821 -0.3843
  202MPD1     N 3131   1.227   4.095   9.417  0.4664  0.6292 -0.2211
  202MPD1    H5 3132   1.148   4.143   9.458 -0.2199 -0.6569 -0.0185
  202MPD1    N1 3133   1.334   3.847   9.007  0.3020  0.0537  0.3666
  202MPD1    H6 3134   1.288   3.811   8.924  0.6870  0.5873 -0.0778
  202MPD1    H7 3135   1.367   3.777   9.073 -0.6701  0.6546  1.4903
  203MPD1     C 3136   0.693   1.267  12.534  0.4624  0.0207  0.4819
  203MPD1    C1 3137   0.743   1.198  12.430  0.0404  0.6586 -0.4345
  203MPD1    C2 3138   0.755   1.061  12.429  0.2487 -0.4249  0.1935
  203MPD1    C3 3139   0.738   0.993  12.548 -0.5233 -0.6251  1.1230
  203MPD1    C4 3140   0.695   1.060  12.663  0.7058  0.2991  0.0641
  203MPD1    C5 3141   0.667   1.191  12.649  0.2531 -0.5394 -0.3022
  203MPD1     H 3142   0.776   1.012  12.335 -1.1086  1.9600 -1.3666
  203MPD1    H1 3143   0.684   1.024  12.764  2.3672 -0.4432 -0.0206
  203MPD1    H2 3144   0.669   1.373  12.524  1.5987  0.2705  0.3738
  203MPD1    H3 3145   0.628   1.237  12.739  1.8979 -1.0728  0.6823
  203MPD1     N 3146   0.756   0.853  12.547 -0.5854 -0.4951 -0.6739
  203MPD1    H5 3147   0.802   0.821  12.463  0.2574 -0.5401 -0.2030
  203MPD1    N1 3148   0.753   1.266  12.310 -0.7570 -0.0494  0.0872
  203MPD1    H6 3149   0.767   1.366  12.323  0.5994 -0.3647  1.0979
  203MPD1    H7 3150   0.829   1.226  12.255 -1.0619  0.7454 -0.9081
  204MPD1     C 3151   4.485   2.250  17.454  0.8984 -0.1860 -0.6955
  204MPD1    C1 3152   4.510   2.237  17.322  0.9184 -0.1779 -0.4890
  204MPD1    C2 3153   4.517   2.113  17.265 -0.2033  0.3547  0.4048
  204MPD1    C3 3154   4.466   2.005  17.322  0.0330  0.1268 -0.4674
  204MPD1    C4 3155   4.442   2.015  17.459 -0.5491  0.0649  0.2617
  204MPD1    C5 3156   4.453   2.143  17.524  0.6652  0.3134 -0.5433
  204MPD1     H 3157   4.544   2.110  17.159 -1.0424 -1.3853  0.2421
  204MPD1    H1 3158   4.419   1.931  17.524 -0.3721  0.6927  1.1499
  204MPD1    H2 3159   4.489   2.345  17.507  1.2056 -1.0413  0.8220
  204MPD1    H3 3160   4.450   2.159  17.631  1.2235 -0.7027 -0.3796
  204MPD1     N 3161   4.444   1.881  17.248  0.2534  0.3545  0.0386
  204MPD1    H5 3162   4.466   1.885  17.148 -0.0808 -1.0732 -0.0958
  204MPD1    N1 3163   4.554   2.349  17.242 -0.1529  0.0383 -0.5242
  204MPD1    H6 3164   4.526   2.439  17.282  0.2881 -0.2152  0.3442
  204MPD1    H7 3165   4.520   2.342  17.147  0.8361 -0.5008 -0.8371
  205MPD1     C 3166   4.414   0.547  16.444 -0.1117 -0.3877  0.0300
  205MPD1    C1 3167   4.458   0.430  16.500  0.3194 -0.6612  0.3991
  205MPD1    C2 3168   4.559   0.438  16.598  0.5366  0.0144 -0.3176
  205MPD1    C3 3169   4.587   0.562  16.657  0.0274  0.2212 -0.3471
  205MPD1    C4 3170   4.548   0.678  16.593 -0.7228 -0.8147 -0.3810
  205MPD1    C5 3171   4.469   0.669  16.482 -0.6096  0.4031  0.1832
  205MPD1     H 3172   4.601   0.348  16.641  1.2756  0.4290 -0.1741
  205MPD1    H1 3173   4.573   0.775  16.634 -3.3039  0.4496 -1.7868
  205MPD1    H2 3174   4.344   0.537  16.361  0.1231 -0.4909 -0.1558
  205MPD1    H3 3175   4.443   0.759  16.426 -0.3533  1.5103  1.8367
  205MPD1     N 3176   4.667   0.579  16.775 -0.0510  0.4149  0.2621
  205MPD1    H5 3177   4.686   0.674  16.805  1.3032  0.0819  0.4675
  205MPD1    N1 3178   4.434   0.315  16.420 -0.6045  0.6273 -0.0903
  205MPD1    H6 3179   4.352   0.319  16.360  0.2405 -2.0450 -1.4445
  205MPD1    H7 3180   4.427   0.228  16.473  1.1955  0.7316  0.3318
  206MPD1     C 3181   0.117   3.262  17.389 -0.4265  0.2053  0.1367
  206MPD1    C1 3182   0.139   3.149  17.317  0.2873  0.1225 -0.2924
  206MPD1    C2 3183   0.125   3.147  17.180 -0.2280  0.0292 -0.4203
  206MPD1    C3 3184   0.094   3.265  17.118  0.2974 -0.0371 -0.1205
  206MPD1    C4 3185   0.075   3.375  17.187  0.6464 -0.0213  0.7373
  206MPD1    C5 3186   0.085   3.378  17.321  0.1606 -0.3346 -0.0564
  206MPD1     H 3187   0.138   3.059  17.118  1.9930  1.4908 -2.0372
  206MPD1    H1 3188   0.046   3.465  17.135 -3.4547  0.1004  3.1650
  206MPD1    H2 3189   0.127   3.263  17.497 -2.7122  1.4627  0.3382
  206MPD1    H3 3190   0.060   3.471  17.371 -2.9561 -1.8217  1.2280
  206MPD1     N 3191   0.082   3.268  16.975 -0.4543 -0.2106  0.2797
  206MPD1    H5 3192   0.052   3.358  16.939  0.6434 -0.1792 -0.5649
  206MPD1    N1 3193   0.156   3.031  17.386 -0.1603 -0.1451  0.5948
  206MPD1    H6 3194   0.216   3.043  17.468 -1.4665  2.6893  1.1645
  206MPD1    H7 3195   0.192   2.962  17.321  0.0399  0.2870  0.2412
  207MPD1     C 3196   2.722   0.839   9.583  0.8210  0.2882  0.3159
  207MPD1    C1 3197   2.730   0.701   9.587  0.1037  0.0170  0.0046
  207MPD1    C2 3198   2.804   0.644   9.693 -0.4840 -0.5843  0.4054
  207MPD1    C3 3199   2.895   0.720   9.768  0.4584 -0.1127 -0.6383
  207MPD1    C4 3200   2.894   0.857   9.755 -0.5295 -0.8056 -0.0016
  207MPD1    C5 3201   2.808   0.914   9.665  0.0956  0.1590 -0.2334
  207MPD1     H 3202   2.789   0.539   9.715  0.2426 -0.6438  0.6067
  207MPD1    H1 3203   2.952   0.925   9.816 -0.2363 -2.1707  1.2163
  207MPD1    H2 3204   2.667   0.893   9.507  0.1343  0.6986  1.1152
  207MPD1    H3 3205   2.808   1.022   9.655 -0.4621  0.1815  0.0202
  207MPD1     N 3206   2.969   0.676   9.877 -0.8267 -1.0215  0.3117
  207MPD1    H5 3207   3.015   0.749   9.930 -1.0466 -0.8101  0.2066
  207MPD1    N1 3208   2.629   0.620   9.530 -0.0978 -0.4952  0.1149
  207MPD1    H6 3209   2.643   0.520   9.517  1.4538 -0.0152 -1.8280
  207MPD1    H7 3210   2.585   0.664   9.450 -0.8793 -1.8272 -0.1954
  208MPD1     C 3211   4.389   4.226   0.349  0.2835  0.1311 -0.5550
  208MPD1    C1 3212   4.445   4.248   0.473 -0.0014  1.2860 -0.5296
  208MPD1    C2 3213   4.551   4.335   0.478  1.0256  0.2730 -0.0603
  208MPD1    C3 3214   4.592   4.412   0.370  0.1381  0.5713  0.0870
  208MPD1    C4 3215   4.527   4.396   0.246 -0.0395  0.1974  0.2124
  208MPD1    C5 3216   4.438   4.295   0.237  0.0908 -0.1481 -0.2072
  208MPD1     H 3217   4.590   4.356   0.577 -0.1691 -1.4610  0.7776
  208MPD1    H1 3218   4.568   4.429   0.151  1.1334  2.8807  1.6630
  208MPD1    H2 3219   4.308   4.156   0.333 -1.1093  1.7039 -0.3566
  208MPD1    H3 3220   4.395   4.268   0.142  0.5335  0.3401 -0.5442
  208MPD1     N 3221   4.701   4.504   0.399  0.0565 -0.2756  0.6738
  208MPD1    H5 3222   0.027   4.482   0.475  0.3119  1.5801  1.0018
  208MPD1    N1 3223   4.388   4.187   0.583  0.1604 -0.1724 -0.4997
  208MPD1    H6 3224   4.448   4.173   0.664 -0.7230 -0.2368  0.1470
  208MPD1    H7 3225   4.328   4.107   0.566 -0.1596 -0.1489  0.5350
  209MPD1     C 3226   2.406   4.311  11.430  0.2248 -0.1619 -0.3877
  209MPD1    C1 3227   2.416   4.434  11.490  0.6152 -0.5104  0.5591
  209MPD1    C2 3228   2.532   4.509  11.465  0.4315  0.1891  0.3133
  209MPD1    C3 3229   2.616   4.462  11.366 -0.0631  0.2316 -0.2403
  209MPD1    C4 3230   2.600   4.335  11.305  0.0969 -0.3084 -0.5139
  209MPD1    C5 3231   2.495   4.257  11.342  0.2268 -0.1490  0.2059
  209MPD1     H 3232   2.546   4.607  11.509  1.2294  0.9682 -1.6648
  209MPD1    H1 3233   2.670   4.278  11.245  1.1654  1.8574 -1.3272
  209MPD1    H2 3234   2.335   4.232  11.453 -1.1220  1.2012  0.1131
  209MPD1    H3 3235   2.482   4.157  11.302  0.5469  0.5587 -1.6710
  209MPD1     N 3236   2.716   4.550  11.310  0.6492  0.4074  0.3219
  209MPD1    H5 3237   2.718   4.644  11.349 -0.1342  0.7321 -0.4174
  209MPD1    N1 3238   2.331   4.472  11.590  0.0034  0.0419  0.2175
  209MPD1    H6 3239   2.326   4.573  11.601  1.2090 -0.1421  2.4565
  209MPD1    H7 3240   2.239   4.432  11.572  0.3297 -0.8407  0.5064
  210MPD1     C 3241   3.312   0.600  11.465 -0.3042 -0.8219  0.1007
  210MPD1    C1 3242   3.297   0.480  11.532  0.2046  0.1380  0.0994
  210MPD1    C2 3243   3.228   0.378  11.468  0.2505  0.1620  0.9840
  210MPD1    C3 3244   3.163   0.401  11.341  0.0347 -0.0118  0.3452
  210MPD1    C4 3245   3.176   0.522  11.287 -0.8202 -0.7388  0.4865
  210MPD1    C5 3246   3.246   0.621  11.352  0.6362 -0.4765 -0.0836
  210MPD1     H 3247   3.212   0.283  11.518  1.6228 -0.4063  0.3450
  210MPD1    H1 3248   3.130   0.542  11.191  1.0776  1.7392  0.0692
  210MPD1    H2 3249   3.370   0.675  11.517 -0.5626  0.3431 -1.2986
  210MPD1    H3 3250   3.231   0.721  11.313 -1.0504 -0.9626 -0.7015
  210MPD1     N 3251   3.095   0.305  11.263 -0.1181  0.2506  0.3148
  210MPD1    H5 3252   3.052   0.331  11.175 -1.4346 -2.4458  0.1332
  210MPD1    N1 3253   3.374   0.454  11.647 -1.1118  0.2641 -0.5997
  210MPD1    H6 3254   3.344   0.385  11.716  0.2073 -0.0297 -0.3100
  210MPD1    H7 3255   3.395   0.538  11.701 -4.8481  0.1836  0.9893
  211MPD1     C 3256   4.733   4.439  16.063 -0.0899 -0.0529  0.3930
  211MPD1    C1 3257   0.060   4.546  16.001 -1.1597  0.2826  0.1369
  211MPD1    C2 3258   4.721   4.655  15.970 -0.7817 -0.3758 -0.4246
  211MPD1    C3 3259   4.585   4.664  15.991 -0.0047 -0.0818  0.4573
  211MPD1    C4 3260   4.530   4.548  16.045 -0.0610  0.2329 -0.5337
  211MPD1    C5 3261   4.601   4.437  16.076 -0.5529  0.4918 -1.0067
  211MPD1     H 3262   0.036   0.003  15.925  0.6733 -1.6247 -1.1247
  211MPD1    H1 3263   4.426   4.552  16.074  0.2696 -1.1792  0.8724
  211MPD1    H2 3264   0.053   4.352  16.096 -1.0670 -1.1158 -0.7628
  211MPD1    H3 3265   4.543   4.358  16.123  0.1880 -0.1464 -1.1705
  211MPD1     N 3266   4.515   0.047  15.964  1.1135  0.2758 -0.5509
  211MPD1    H5 3267   4.573   0.112  15.912 -0.2679  0.4288 -1.8997
  211MPD1    N1 3268   0.203   4.539  15.991  0.2046  0.3012 -0.5398
  211MPD1    H6 3269   0.228   4.588  15.906 -0.6995  1.7314  0.0158
  211MPD1    H7 3270   0.233   4.443  15.980  0.1338 -0.2162  3.4898
  212MPD1     C 3271   4.337   3.411  16.466 -0.0525  0.0867 -0.4482
  212MPD1    C1 3272   4.231   3.483  16.516 -0.1928  0.6204  0.0706
  212MPD1    C2 3273   4.118   3.418  16.562 -0.3818  0.1179  0.7296
  212MPD1    C3 3274   4.120   3.279  16.584  0.5106  0.3283 -0.7445
  212MPD1    C4 3275   4.232   3.211  16.547 -0.3621 -0.3905 -0.0082
  212MPD1    C5 3276   4.335   3.278  16.490 -0.9300  0.0039 -0.0842
  212MPD1     H 3277   4.030   3.474  16.591 -0.3786  1.1969 -1.3309
  212MPD1    H1 3278   4.245   3.106  16.573  0.4509 -0.6670 -1.5042
  212MPD1    H2 3279   4.422   3.468  16.430  0.5847  0.5114  1.7446
  212MPD1    H3 3280   4.423   3.217  16.478  0.3316  1.5662  1.3162
  212MPD1     N 3281   4.026   3.211  16.666  0.1724 -0.0008  0.2922
  212MPD1    H5 3282   4.035   3.110  16.673  1.8823  0.2475  1.7230
  212MPD1    N1 3283   4.226   3.624  16.496  0.1744  0.6101 -0.2642
  212MPD1    H6 3284   4.320   3.643  16.463 -0.5353  2.6061 -1.1163
  212MPD1    H7 3285   4.192   3.680  16.574 -1.1565 -1.3124  0.5624
  213MPD1     C 3286   2.286   3.794  15.825 -0.6697 -0.3635  0.2351
  213MPD1    C1 3287   2.179   3.712  15.785  0.3401 -0.4090 -0.7077
  213MPD1    C2 3288   2.120   3.733  15.656 -0.3221 -0.0653 -0.0524
  213MPD1    C3 3289   2.149   3.854  15.590  0.2471 -0.2013 -0.1022
  213MPD1    C4 3290   2.236   3.942  15.648 -0.8185  0.1958  0.3952
  213MPD1    C5 3291   2.303   3.911  15.766 -0.5958  0.2126  0.0581
  213MPD1     H 3292   2.056   3.659  15.611 -0.6631  0.9793 -1.2875
  213MPD1    H1 3293   2.264   4.041  15.614 -0.6113  0.7667  2.2076
  213MPD1    H2 3294   2.344   3.783  15.916 -0.2818  4.2307  0.5670
  213MPD1    H3 3295   2.377   3.983  15.798  1.5093 -1.9099 -0.0786
  213MPD1     N 3296   2.081   3.881  15.464 -0.6306  0.0482  0.1753
  213MPD1    H5 3297   2.024   3.807  15.424 -1.7474  1.5513 -1.0256
  213MPD1    N1 3298   2.177   3.580  15.827 -0.3995 -0.4464 -0.1740
  213MPD1    H6 3299   2.213   3.576  15.922 -2.5198  1.2442  0.6712
  213MPD1    H7 3300   2.082   3.545  15.829  0.0014 -1.2622  3.7488
  214MPD1     C 3301   1.796   3.482  14.587 -0.2566 -0.3490 -0.8412
  214MPD1    C1 3302   1.781   3.433  14.717 -0.0757  0.2360 -0.3989
  214MPD1    C2 3303   1.816   3.531  14.813  0.1192 -0.0195 -0.2744
  214MPD1    C3 3304   1.877   3.655  14.784  0.0970 -0.2082  0.3542
  214MPD1    C4 3305   1.903   3.683  14.653 -0.1914  0.2334  0.1352
  214MPD1    C5 3306   1.851   3.598  14.558  0.3990  0.2956 -0.4745
  214MPD1     H 3307   1.794   3.510  14.917  0.2849  2.2282  0.2364
  214MPD1    H1 3308   1.951   3.775  14.621 -1.0418  0.2864 -0.9948
  214MPD1    H2 3309   1.748   3.434  14.503  1.1115 -0.6236 -1.4549
  214MPD1    H3 3310   1.863   3.626  14.454  2.3034  2.3444  0.3103
  214MPD1     N 3311   1.919   3.759  14.876 -0.2780 -0.2608 -0.3753
  214MPD1    H5 3312   1.979   3.832  14.837 -0.2293  0.7311  1.5921
  214MPD1    N1 3313   1.716   3.312  14.750 -0.3902 -1.3682  0.3509
  214MPD1    H6 3314   1.716   3.239  14.678  1.5220 -1.1419  0.1312
  214MPD1    H7 3315   1.753   3.264  14.831  0.6725 -0.2659  0.5148
  215MPD1     C 3316   2.098   4.099  11.130  0.0490 -0.1210 -0.0712
  215MPD1    C1 3317   2.091   4.214  11.197  0.5491  0.0342 -0.5775
  215MPD1    C2 3318   2.189   4.313  11.165 -0.0898 -0.3438  0.0501
  215MPD1    C3 3319   2.277   4.301  11.057  0.1604  0.4812 -0.5026
  215MPD1    C4 3320   2.269   4.184  10.979  0.2380 -0.2818  0.1228
  215MPD1    C5 3321   2.178   4.085  11.018  0.5994  0.4513  0.4285
  215MPD1     H 3322   2.199   4.399  11.230  0.2929  0.2540 -0.7920
  215MPD1    H1 3323   2.326   4.177  10.887  1.2910 -4.1170  1.0774
  215MPD1    H2 3324   2.039   4.010  11.149 -0.3772  0.5616  1.7434
  215MPD1    H3 3325   2.167   3.997  10.956 -0.5076 -0.5199  2.0190
  215MPD1     N 3326   2.357   4.410  11.027 -0.3906  0.6437  0.1893
  215MPD1    H5 3327   2.360   4.486  11.094  1.4286 -0.5979  1.5247
  215MPD1    N1 3328   2.027   4.218  11.318  0.4926  0.0216 -0.0209
  215MPD1    H6 3329   2.011   4.312  11.353 -0.7068 -0.7350  1.4702
  215MPD1    H7 3330   1.938   4.169  11.313  1.3230 -1.6799  1.8433
  216MPD1     C 3331   4.172   3.131  16.957  0.2085  0.4712  0.8449
  216MPD1    C1 3332   4.163   3.002  16.911  0.0179 -0.3789 -0.3782
  216MPD1    C2 3333   4.093   2.913  16.993  0.0145  0.0960 -0.2431
  216MPD1    C3 3334   4.046   2.950  17.117  0.0100  0.1751  0.2969
  216MPD1    C4 3335   4.055   3.080  17.162  0.3957  0.2175  0.8423
  216MPD1    C5 3336   4.114   3.172  17.075  0.2561  0.5246 -0.4531
  216MPD1     H 3337   4.076   2.813  16.954 -1.0376 -1.3840  4.0439
  216MPD1    H1 3338   4.009   3.118  17.253 -1.8615  2.3135 -1.1736
  216MPD1    H2 3339   4.219   3.210  16.900  0.2823 -0.4719 -0.4139
  216MPD1    H3 3340   4.123   3.276  17.105 -0.2345  0.3662  0.2499
  216MPD1     N 3341   3.971   2.846  17.182  0.2143  0.3997 -0.2397
  216MPD1    H5 3342   3.966   2.756  17.134  3.2930  0.3675 -0.4883
  216MPD1    N1 3343   4.230   2.957  16.796 -0.4784  0.0327  0.4760
  216MPD1    H6 3344   4.331   2.969  16.792 -0.7279  1.4924 -1.6527
  216MPD1    H7 3345   4.202   2.863  16.771 -2.5472  0.5263  0.9288
  217MPD1     C 3346   0.730   0.027   8.577 -0.2151  0.4408 -0.1377
  217MPD1    C1 3347   0.698   0.086   8.697 -0.1083  0.4509 -0.0938
  217MPD1    C2 3348   0.651   0.017   8.806 -0.6908 -0.1266 -0.7601
  217MPD1    C3 3349   0.656   4.614   8.807 -0.2091  0.2851  0.4735
  217MPD1    C4 3350   0.694   4.558   8.682  0.6881  0.1994 -0.0080
  217MPD1    C5 3351   0.734   4.634   8.573 -0.2389  0.3029  0.2711
  217MPD1     H 3352   0.618   0.072   8.893 -0.4636  1.7051 -1.8233
  217MPD1    H1 3353   0.701   4.452   8.656  0.1212  0.4542 -1.2138
  217MPD1    H2 3354   0.768   0.080   8.491 -0.1730  0.5152 -0.0734
  217MPD1    H3 3355   0.768   4.595   8.477  2.3774 -0.4733  1.4887
  217MPD1     N 3356   0.614   4.535   8.915 -0.7194  0.4405 -0.0053
  217MPD1    H5 3357   0.628   4.435   8.917  2.3081  0.8815 -0.0374
  217MPD1    N1 3358   0.683   0.224   8.705  1.1356  0.3337  0.2077
  217MPD1    H6 3359   0.735   0.271   8.631  1.3706 -1.8298 -1.0079
  217MPD1    H7 3360   0.685   0.270   8.796  3.4844 -1.6478  1.1691
  218MPD1     C 3361   1.674   0.596  12.892 -0.5990 -0.1031 -0.1293
  218MPD1    C1 3362   1.733   0.472  12.867  0.5702 -0.3321 -0.0296
  218MPD1    C2 3363   1.870   0.468  12.836  0.6672  0.5048 -0.6874
  218MPD1    C3 3364   1.950   0.580  12.841 -0.2040 -0.4705 -0.5482
  218MPD1    C4 3365   1.890   0.701  12.871  0.1493  0.0026  0.3979
  218MPD1    C5 3366   1.753   0.710  12.895 -0.3184  0.1858 -0.0597
  218MPD1     H 3367   1.905   0.368  12.817 -1.8864 -0.7446  1.1785
  218MPD1    H1 3368   1.942   0.796  12.868  1.1408 -0.6016 -1.6446
  218MPD1    H2 3369   1.570   0.613  12.917 -1.1158 -1.7239 -1.2235
  218MPD1    H3 3370   1.716   0.806  12.929 -0.0891 -0.1968  1.2507
  218MPD1     N 3371   2.087   0.556  12.813 -0.0989  0.2057 -0.4035
  218MPD1    H5 3372   2.123   0.463  12.796  0.2388 -0.0384  1.6653
  218MPD1    N1 3373   1.660   0.357  12.904  0.1020 -0.1115  0.4069
  218MPD1    H6 3374   1.562   0.368  12.879 -0.1276 -1.0252  0.9229
  218MPD1    H7 3375   1.680   0.277  12.845  1.2417 -0.3684  1.1394
  219MPD1     C 3376   2.791   0.627  12.023 -0.5946  0.5005  0.1242
  219MPD1    C1 3377   2.661   0.677  12.041  0.5097  0.2400  0.7782
  219MPD1    C2 3378   2.595   0.657  12.165 -0.1048 -0.2682  0.1875
  219MPD1    C3 3379   2.655   0.573  12.262  0.4192  0.2478  0.1536
  219MPD1    C4 3380   2.771   0.508  12.230 -0.3610 -0.1459  0.6445
  219MPD1    C5 3381   2.845   0.540  12.120 -0.2248 -0.5986  1.0123
  219MPD1     H 3382   2.502   0.711  12.174  0.5433  0.4747  2.5267
  219MPD1    H1 3383   2.813   0.443  12.306  1.1778  0.3015  0.1657
  219MPD1    H2 3384   2.854   0.647  11.936  0.0066 -3.3059 -0.3605
  219MPD1    H3 3385   2.939   0.490  12.097 -0.9788 -1.6792  0.2860
  219MPD1     N 3386   2.598   0.557  12.392  0.0906  0.1612  0.2708
  219MPD1    H5 3387   2.656   0.511  12.462  2.4378  0.4520 -1.4893
  219MPD1    N1 3388   2.622   0.780  11.954 -0.2472 -0.6912 -0.1483
  219MPD1    H6 3389   2.524   0.808  11.964 -0.0396  0.4308 -1.2542
  219MPD1    H7 3390   2.655   0.773  11.859 -1.8470 -0.5050 -0.7177
  220MPD1     C 3391   1.932   3.804  10.072 -0.3372 -0.6729 -0.0160
  220MPD1    C1 3392   1.848   3.869   9.983 -0.8619 -0.0935 -0.2066
  220MPD1    C2 3393   1.857   4.000   9.955 -0.5309 -0.3415  0.2312
  220MPD1    C3 3394   1.944   4.082  10.030 -0.3792  0.6541  0.2245
  220MPD1    C4 3395   2.025   4.021  10.125 -0.4196  0.1957  0.4525
  220MPD1    C5 3396   2.019   3.884  10.144  0.0973 -0.4178 -0.4698
  220MPD1     H 3397   1.794   4.047   9.881 -0.8049  0.9368  1.2753
  220MPD1    H1 3398   2.096   4.079  10.181 -1.4907 -0.8227  2.8536
  220MPD1    H2 3399   1.917   3.698  10.088  1.8406 -0.7759  1.3416
  220MPD1    H3 3400   2.075   3.833  10.222 -2.0910  0.2498  1.5695
  220MPD1     N 3401   1.947   4.221   9.990 -0.1802 -0.5519 -0.2423
  220MPD1    H5 3402   1.879   4.252   9.922  0.8123  4.6394  1.0759
  220MPD1    N1 3403   1.763   3.786   9.909  0.0149  0.6615  0.1091
  220MPD1    H6 3404   1.682   3.837   9.876 -0.5534 -0.2527  0.0865
  220MPD1    H7 3405   1.738   3.698   9.953  0.0266  0.8742  0.5364
  221MPD1     C 3406   4.517   4.375  16.605 -0.2219 -0.8627  0.4637
  221MPD1    C1 3407   4.593   4.303  16.693 -0.5639  0.4611 -0.1060
  221MPD1    C2 3408   4.688   4.209  16.655 -0.4037 -0.9750 -0.0807
  221MPD1    C3 3409   4.707   4.188  16.519  0.4078  0.3062 -0.4628
  221MPD1    C4 3410   4.634   4.267  16.426 -0.0855  0.2190 -0.1812
  221MPD1    C5 3411   4.544   4.356  16.474 -0.1959  0.0741 -0.5743
  221MPD1     H 3412   4.734   4.145  16.729 -0.0914  0.3058  0.8174
  221MPD1    H1 3413   4.633   4.243  16.321  2.9034 -0.9345  0.0449
  221MPD1    H2 3414   4.434   4.436  16.639  1.5491  0.5878  2.2111
  221MPD1    H3 3415   4.494   4.417  16.401  0.8973  2.6849  0.8494
  221MPD1     N 3416   0.038   4.070  16.470  0.1572  0.1485  0.2580
  221MPD1    H5 3417   0.036   4.060  16.369  0.5237 -3.1113  0.5748
  221MPD1    N1 3418   4.559   4.310  16.829  0.3656 -0.3591  0.2083
  221MPD1    H6 3419   4.517   4.398  16.858 -1.2832 -1.7193  1.9622
  221MPD1    H7 3420   4.647   4.301  16.879  0.9450  1.2145 -0.5358
  222MPD1     C 3421   3.535   2.672  17.566 -0.1889 -0.3319  0.2904
  222MPD1    C1 3422   3.596   2.778  17.504 -0.1591 -0.6851  0.2342
  222MPD1    C2 3423   3.657   2.868  17.589  0.1463  0.0488  0.1239
  222MPD1    C3 3424   3.678   2.845  17.725  0.0784 -0.2631 -0.3819
  222MPD1    C4 3425   3.625   2.731   0.035 -0.4620  0.3674  0.2965
  222MPD1    C5 3426   3.555   2.643  17.695 -0.7603 -0.0638 -0.7931
  222MPD1     H 3427   3.698   2.958  17.545  1.9789  0.1100  2.0137
  222MPD1    H1 3428   3.627   2.712   0.141 -2.5150 -1.4229 -0.0057
  222MPD1    H2 3429   3.484   2.601  17.501  1.0857 -0.5586 -0.4577
  222MPD1    H3 3430   3.498   2.562  17.739 -4.3278  1.5580 -2.4656
  222MPD1     N 3431   3.755   2.927   0.072 -0.5169 -0.2381  0.0400
  222MPD1    H5 3432   3.757   2.901   0.170  0.1690  2.2998  0.6775
  222MPD1    N1 3433   3.583   2.808  17.364 -0.1441 -0.0607  0.4782
  222MPD1    H6 3434   3.584   2.727  17.302 -2.5005  0.1596  0.1490
  222MPD1    H7 3435   3.643   2.884  17.332  0.5882 -0.6062  0.5614
  223MPD1     C 3436   3.613   3.413   0.962  0.1796  0.0847  0.3174
  223MPD1    C1 3437   3.745   3.421   0.948 -0.2086  0.1085 -0.3892
  223MPD1    C2 3438   3.800   3.383   0.827 -0.7911  0.6428 -0.1870
  223MPD1    C3 3439   3.716   3.341   0.715 -0.1760 -0.5895 -0.0087
  223MPD1    C4 3440   3.582   3.316   0.743  0.1408 -0.4266  0.3120
  223MPD1    C5 3441   3.531   3.360   0.862 -0.3420  0.1013 -0.1923
  223MPD1     H 3442   3.908   3.371   0.825 -0.9482 -1.1574  3.1255
  223MPD1    H1 3443   3.513   3.254   0.687 -1.6840  0.3860  1.6760
  223MPD1    H2 3444   3.562   3.426   1.057 -0.3620 -0.2882  0.0733
  223MPD1    H3 3445   3.427   3.350   0.890 -0.1087 -1.7211  0.0523
  223MPD1     N 3446   3.780   3.308   0.590  0.0965 -0.0002 -0.0592
  223MPD1    H5 3447   3.881   3.322   0.593  0.0819  0.0046  0.4382
  223MPD1    N1 3448   3.829   3.435   1.067 -0.1945 -0.0716 -0.2033
  223MPD1    H6 3449   3.918   3.480   1.048 -0.3188  0.1873 -0.1730
  223MPD1    H7 3450   3.789   3.504   1.131 -0.7890  0.0862 -0.7453
  224MPD1     C 3451   0.869   0.298   8.986 -0.3737  0.3200 -0.7161
  224MPD1    C1 3452   0.959   0.202   9.013  0.3885  0.3535  0.8289
  224MPD1    C2 3453   0.914   0.096   9.094  0.0674 -0.1493  0.1782
  224MPD1    C3 3454   0.802   0.103   9.174 -0.3526 -0.2504 -0.1178
  224MPD1    C4 3455   0.711   0.202   9.134 -0.0002 -0.9022  0.3982
  224MPD1    C5 3456   0.744   0.297   9.045  0.0301  0.7836 -0.4673
  224MPD1     H 3457   0.981   0.014   9.117  0.5238 -0.0863 -0.9293
  224MPD1    H1 3458   0.613   0.214   9.179  0.7209  0.2626  1.6141
  224MPD1    H2 3459   0.892   0.375   8.913 -0.5330 -0.4857 -1.6209
  224MPD1    H3 3460   0.678   0.381   9.027 -1.1666 -0.6678 -2.9021
  224MPD1     N 3461   0.757   0.002   9.267 -0.3317  0.3451 -0.6647
  224MPD1    H5 3462   0.666   0.021   9.310  1.4280  1.8712  2.3678
  224MPD1    N1 3463   1.076   0.198   8.940 -0.3977 -0.4275  0.5896
  224MPD1    H6 3464   1.096   0.294   8.915 -0.4842  0.2398  3.0868
  224MPD1    H7 3465   1.152   0.181   9.006  0.3473  1.8779  0.3177
  225MPD1     C 3466   2.572   1.269  12.300 -0.4831  0.7542 -0.4440
  225MPD1    C1 3467   2.484   1.162  12.263 -0.1146 -0.1071 -0.3277
  225MPD1    C2 3468   2.348   1.199  12.262  0.3681  0.0373 -0.1060
  225MPD1    C3 3469   2.297   1.320  12.302  0.6978 -0.1557 -0.4956
  225MPD1    C4 3470   2.396   1.415  12.338  0.2227 -0.2661  0.1529
  225MPD1    C5 3471   2.532   1.388  12.336 -0.5751  1.0725 -0.8264
  225MPD1     H 3472   2.282   1.120  12.230 -0.5633  0.8946 -0.3104
  225MPD1    H1 3473   2.374   1.517  12.366  1.6107  0.4076 -1.2634
  225MPD1    H2 3474   2.678   1.247  12.311 -1.1384 -2.0447  0.3119
  225MPD1    H3 3475   2.607   1.456  12.375  1.8187 -1.3101 -1.2806
  225MPD1     N 3476   2.157   1.356  12.296 -0.1481  0.1085 -0.2353
  225MPD1    H5 3477   2.140   1.454  12.312  1.7817  0.6474 -1.4733
  225MPD1    N1 3478   2.529   1.036  12.213 -0.1917  0.4318  0.0671
  225MPD1    H6 3479   2.585   1.044  12.129 -2.0551  0.1159 -1.1885
  225MPD1    H7 3480   2.453   0.970  12.203 -0.7532  0.9297  0.9823
  226MPD1     C 3481   4.565   0.568   9.707 -0.2412  0.4696 -0.0327
  226MPD1    C1 3482   4.520   0.699   9.726 -0.0008  0.2519 -0.0480
  226MPD1    C2 3483   4.619   0.802   9.713 -0.8165 -0.2254  0.1889
  226MPD1    C3 3484   0.006   0.772   9.662 -1.0909 -0.1447  0.3662
  226MPD1    C4 3485   0.045   0.641   9.645 -0.4993  0.1467  0.4372
  226MPD1    C5 3486   4.692   0.543   9.678 -0.4257  0.1853 -0.4533
  226MPD1     H 3487   4.585   0.903   9.735  0.4348  0.2067  0.1493
  226MPD1    H1 3488   0.143   0.620   9.603 -0.8087  2.7252 -1.5624
  226MPD1    H2 3489   4.497   0.485   9.715  0.0473  0.0030 -2.7351
  226MPD1    H3 3490   4.723   0.440   9.667 -0.0949  0.0959  1.1843
  226MPD1     N 3491   0.087   0.884   9.639 -0.8294 -0.6308 -0.8246
  226MPD1    H5 3492   0.056   0.974   9.676 -0.9871 -0.8056 -0.5362
  226MPD1    N1 3493   4.392   0.717   9.788  0.4215  0.4103  0.8225
  226MPD1    H6 3494   4.350   0.803   9.753  1.3791 -0.1270 -1.5898
  226MPD1    H7 3495   4.334   0.635   9.775  0.4843  0.1508  2.1403
  227MPD1     C 3496   0.158   1.554  10.142  0.1994  0.1609 -0.0037
  227MPD1    C1 3497   0.055   1.466  10.118 -0.8956  0.4767  0.3467
  227MPD1    C2 3498   0.071   1.379  10.008  0.0537 -0.2595  0.6897
  227MPD1    C3 3499   0.167   1.409   9.913 -0.2954  0.1449 -0.2254
  227MPD1    C4 3500   0.254   1.510   9.936  0.8679 -0.1978 -0.3126
  227MPD1    C5 3501   0.254   1.574  10.052 -0.3582  0.1407  0.4387
  227MPD1     H 3502   0.007   1.293   9.992 -0.7009  0.5047 -0.3601
  227MPD1    H1 3503   0.341   1.522   9.871  0.4819 -3.1274 -1.3800
  227MPD1    H2 3504   0.160   1.610  10.235 -0.4032 -0.2297  0.2484
  227MPD1    H3 3505   0.328   1.654  10.057 -1.6681  1.2995  1.2512
  227MPD1     N 3506   0.189   1.324   9.802 -0.3926 -0.3509  0.0921
  227MPD1    H5 3507   0.126   1.245   9.796  1.1038 -1.6529  1.4638
  227MPD1    N1 3508   4.718   1.420  10.230 -0.3307  0.5179 -0.2465
  227MPD1    H6 3509   4.625   1.399  10.195 -0.9234  0.1055  1.6111
  227MPD1    H7 3510   4.715   1.492  10.301  0.0755  1.8753 -1.6101
  228MPD1     C 3511   3.807   3.783  13.696  0.6707  0.4554 -0.4267
  228MPD1    C1 3512   3.785   3.761  13.560  0.0880  0.4508  0.7568
  228MPD1    C2 3513   3.677   3.694  13.514 -0.0676  0.4864 -0.4700
  228MPD1    C3 3514   3.579   3.660  13.608  0.5101 -0.1095 -0.0736
  228MPD1    C4 3515   3.595   3.688  13.746 -0.6035 -0.6033 -0.0460
  228MPD1    C5 3516   3.716   3.746  13.788  0.0308 -0.6684 -0.3856
  228MPD1     H 3517   3.671   3.681  13.406 -0.4061 -2.1505 -0.1321
  228MPD1    H1 3518   3.518   3.662  13.818  1.8612 -2.6075  1.8641
  228MPD1    H2 3519   3.897   3.823  13.739  0.3596  0.6782  0.0231
  228MPD1    H3 3520   3.727   3.749  13.896 -1.6599  0.8215 -0.2515
  228MPD1     N 3521   3.459   3.607  13.556 -0.1137 -0.3790  0.4368
  228MPD1    H5 3522   3.457   3.609  13.454 -1.1495  2.8072  0.5166
  228MPD1    N1 3523   3.895   3.778  13.476  0.3607 -0.7657  0.2486
  228MPD1    H6 3524   3.878   3.781  13.375 -0.8470  2.8218  0.5777
  228MPD1    H7 3525   3.949   3.862  13.492 -0.2245 -0.5410  0.9879
  229MPD1     C 3526   2.814   3.051  14.450  0.0542  0.2655  0.2619
  229MPD1    C1 3527   2.869   2.947  14.375 -0.6363  0.3926 -0.4332
  229MPD1    C2 3528   2.957   2.858  14.436  0.2156 -0.1765  0.2628
  229MPD1    C3 3529   2.994   2.876  14.567  0.4425 -0.0017  0.4159
  229MPD1    C4 3530   2.936   2.972  14.646 -1.0852  0.4499  0.2761
  229MPD1    C5 3531   2.843   3.063  14.585  0.1745 -0.3194 -0.1063
  229MPD1     H 3532   2.996   2.781  14.369 -0.1268 -0.5647  0.5084
  229MPD1    H1 3533   2.960   2.978  14.751 -0.4997  1.1145  0.1133
  229MPD1    H2 3534   2.736   3.112  14.405 -0.6780 -1.5981 -1.0118
  229MPD1    H3 3535   2.786   3.130  14.649 -0.5542 -0.6597 -0.3998
  229MPD1     N 3536   3.081   2.788  14.625  0.3837 -0.6250  0.2673
  229MPD1    H5 3537   3.099   2.796  14.725 -0.1293 -0.0351  0.3085
  229MPD1    N1 3538   2.824   2.917  14.248  0.9093 -0.3040 -0.1874
  229MPD1    H6 3539   2.779   2.991  14.195  1.0097 -0.2253 -0.1629
  229MPD1    H7 3540   2.899   2.882  14.188  2.3473  0.8408  0.9180
  230MPD1     C 3541   3.461   2.608  15.492 -0.1365 -0.6104 -0.7395
  230MPD1    C1 3542   3.507   2.495  15.428  0.8914  0.1203  0.3118
  230MPD1    C2 3543   3.506   2.488  15.294 -0.1249  0.5906 -0.7610
  230MPD1    C3 3544   3.462   2.589  15.214  0.0295  0.1355 -0.0882
  230MPD1    C4 3545   3.441   2.708  15.279  0.0455  0.1142  0.5751
  230MPD1    C5 3546   3.436   2.720  15.414 -0.0546 -0.1015 -0.6569
  230MPD1     H 3547   3.528   2.390  15.252  0.0714  0.4485 -0.3216
  230MPD1    H1 3548   3.417   2.800  15.227 -2.3385 -0.9015 -0.0978
  230MPD1    H2 3549   3.446   2.611  15.599 -0.1997 -3.0980 -0.6738
  230MPD1    H3 3550   3.410   2.815  15.459 -0.3030  0.4309 -1.9509
  230MPD1     N 3551   3.443   2.563  15.075 -0.2800 -0.4805 -0.5644
  230MPD1    H5 3552   3.484   2.476  15.043 -1.9273 -2.3640  2.4515
  230MPD1    N1 3553   3.528   2.373  15.499  0.2111  0.3794 -0.3301
  230MPD1    H6 3554   3.567   2.386  15.592 -1.6491  0.9255  0.3658
  230MPD1    H7 3555   3.579   2.306  15.441  0.3232  0.5184 -0.3945
  231MPD1     C 3556   1.776   4.109  15.404  0.8281 -0.2588 -0.0314
  231MPD1    C1 3557   1.715   4.101  15.284  0.6675 -0.4754  0.4032
  231MPD1    C2 3558   1.719   4.208  15.202  0.3550  0.2601  0.8982
  231MPD1    C3 3559   1.779   4.323  15.241  0.4758  0.0176  0.4121
  231MPD1    C4 3560   1.833   4.336  15.367  0.3099 -1.2297  0.1786
  231MPD1    C5 3561   1.840   4.223  15.441  0.0760 -0.2517 -0.0026
  231MPD1     H 3562   1.685   4.190  15.100 -2.8418 -1.1938  2.2458
  231MPD1    H1 3563   1.881   4.426  15.403 -0.7803  0.2612 -2.1223
  231MPD1    H2 3564   1.778   4.026  15.473  0.7781 -2.2659 -2.4616
  231MPD1    H3 3565   1.896   4.218  15.534 -0.4892  1.1752  0.4184
  231MPD1     N 3566   1.795   4.428  15.150 -0.4734  0.1372 -0.4272
  231MPD1    H5 3567   1.736   4.423  15.068  1.0583  2.7432 -1.6886
  231MPD1    N1 3568   1.644   3.985  15.244 -0.4742  0.4808 -0.1353
  231MPD1    H6 3569   1.671   3.901  15.294  2.7570  1.6406  0.0442
  231MPD1    H7 3570   1.648   3.971  15.143  0.0273 -1.7578  0.2013
  232MPD1     C 3571   3.301   1.686   0.128  0.6502 -0.4844 -0.2504
  232MPD1    C1 3572   3.196   1.775   0.137 -0.0089  0.3766 -0.4444
  232MPD1    C2 3573   3.095   1.770   0.048  0.0512  0.4560 -0.0704
  232MPD1    C3 3574   3.103   1.694  17.675 -0.3480  0.0321  0.2392
  232MPD1    C4 3575   3.214   1.618  17.654  0.0922  0.9302 -0.5842
  232MPD1    C5 3576   3.308   1.607   0.010 -0.2487 -0.1448  0.4753
  232MPD1     H 3577   3.005   1.831   0.055  0.7251  1.2841  1.2869
  232MPD1    H1 3578   3.228   1.546  17.573 -2.1169  1.5903 -1.5477
  232MPD1    H2 3579   3.385   1.679   0.196 -0.3889 -2.8444  0.7863
  232MPD1    H3 3580   3.391   1.540  17.736  1.5921  2.4416 -0.5887
  232MPD1     N 3581   2.994   1.707  17.584 -0.2033  0.0503  0.5168
  232MPD1    H5 3582   2.915   1.764  17.615  0.3718  1.4718 -0.6385
  232MPD1    N1 3583   3.170   1.847   0.256  0.3140  0.7490  0.1571
  232MPD1    H6 3584   3.255   1.879   0.303  0.3950  2.6510 -1.3012
  232MPD1    H7 3585   3.112   1.929   0.241  1.3381  1.1857 -1.3228
  233MPD1     C 3586   4.592   0.171   0.867  0.5144 -0.4601  0.7181
  233MPD1    C1 3587   4.710   0.128   0.928  0.1020 -0.1989 -0.8887
  233MPD1    C2 3588   4.729   0.131   1.061 -0.2473  0.0820 -0.0908
  233MPD1    C3 3589   4.636   0.185   1.146  0.5845 -0.3397 -0.4369
  233MPD1    C4 3590   4.521   0.230   1.081  0.2073 -0.4301  0.6413
  233MPD1    C5 3591   4.501   0.221   0.949  0.1841 -0.9752  0.0236
  233MPD1     H 3592   0.079   0.079   1.101  0.1586  0.4791 -0.4540
  233MPD1    H1 3593   4.433   0.264   1.135 -0.8127 -0.3453 -1.0812
  233MPD1    H2 3594   4.571   0.151   0.762  0.1790  0.4445  0.6090
  233MPD1    H3 3595   4.402   0.234   0.907  0.8027  0.4582 -0.9974
  233MPD1     N 3596   4.648   0.198   1.286  0.5741 -0.3948 -0.1130
  233MPD1    H5 3597   4.576   0.248   1.337  1.7842  0.8936  0.3427
  233MPD1    N1 3598   0.060   0.048   0.849  0.7246  0.3138  0.8382
  233MPD1    H6 3599   0.154   0.032   0.885  0.0253 -1.6535  1.7944
  233MPD1    H7 3600   0.074   0.089   0.756 -0.4250 -0.2974  0.3983
  234MPD1     C 3601   1.938   3.738   9.434 -0.1921  0.1413  0.4852
  234MPD1    C1 3602   1.867   3.783   9.547 -0.3161  0.2418  0.4468
  234MPD1    C2 3603   1.728   3.781   9.539  0.2207  0.6334 -0.3001
  234MPD1    C3 3604   1.661   3.718   9.431 -0.1848  0.7140 -0.1866
  234MPD1    C4 3605   1.734   3.678   9.320 -0.3804  0.1997  1.2683
  234MPD1    C5 3606   1.868   3.696   9.320  0.8409 -0.6444 -0.2969
  234MPD1     H 3607   1.665   3.823   9.617  2.1762  1.0629  1.0645
  234MPD1    H1 3608   1.699   3.634   9.228 -1.4698  2.2110  0.7096
  234MPD1    H2 3609   2.044   3.754   9.417 -1.1138  1.4892 -4.0701
  234MPD1    H3 3610   1.928   3.660   9.238  0.2966  2.1871 -1.9153
  234MPD1     N 3611   1.525   3.696   9.445  0.3900 -0.0147  0.1399
  234MPD1    H5 3612   1.474   3.753   9.511  0.7096  0.0856  0.2983
  234MPD1    N1 3613   1.928   3.874   9.640 -0.4599  0.3353 -0.1486
  234MPD1    H6 3614   1.881   3.879   9.731 -0.8694 -0.2924 -0.3266
  234MPD1    H7 3615   2.021   3.838   9.656 -0.3807  0.0967 -1.1537
  235MPD1     C 3616   2.703   0.487  10.329  0.1563  0.0924  0.9477
  235MPD1    C1 3617   2.771   0.539  10.434  0.9067 -0.1781  0.0407
  235MPD1    C2 3618   2.820   0.668  10.420  0.7498  0.3062 -0.7144
  235MPD1    C3 3619   2.821   0.733  10.299 -0.6512  0.4280 -0.7392
  235MPD1    C4 3620   2.757   0.676  10.190 -0.0610 -0.6686  0.6406
  235MPD1    C5 3621   2.696   0.554  10.208  0.4326 -0.2909 -0.9076
  235MPD1     H 3622   2.874   0.716  10.501 -1.6372  0.1703  0.9455
  235MPD1    H1 3623   2.742   0.737  10.102  1.4901  0.8078  1.3933
  235MPD1    H2 3624   2.640   0.401  10.348 -0.5905 -0.0155 -1.9569
  235MPD1    H3 3625   2.624   0.525  10.133  2.0140  0.6356 -2.8059
  235MPD1     N 3626   2.873   0.866  10.304  0.0592  0.4410  0.5961
  235MPD1    H5 3627   2.898   0.905  10.394  1.9024 -0.6363  0.5454
  235MPD1    N1 3628   2.756   0.477  10.561  0.1273 -1.2780  0.4427
  235MPD1    H6 3629   2.746   0.375  10.557 -1.4706 -1.0501 -1.2768
  235MPD1    H7 3630   2.829   0.510  10.623  0.8695 -2.8797  0.4340
  236MPD1     C 3631   1.249   2.914  10.139  0.2400  0.5593  0.4275
  236MPD1    C1 3632   1.289   2.837  10.025  0.3909  0.0707 -0.1565
  236MPD1    C2 3633   1.403   2.766  10.040 -0.7761  0.3186 -0.1067
  236MPD1    C3 3634   1.467   2.748  10.165 -0.0983  0.9646  0.0213
  236MPD1    C4 3635   1.419   2.815  10.274 -0.0755  0.1979 -0.3555
  236MPD1    C5 3636   1.312   2.905  10.264  0.0019  0.0493 -0.3243
  236MPD1     H 3637   1.441   2.709   9.956 -0.1511 -1.1011  1.1301
  236MPD1    H1 3638   1.471   2.792  10.366 -0.3086  2.8609  0.4482
  236MPD1    H2 3639   1.159   2.975  10.141 -0.4830 -0.4587 -0.8734
  236MPD1    H3 3640   1.283   2.954  10.356  1.1519  1.3775 -0.6640
  236MPD1     N 3641   1.580   2.663  10.180 -0.7039 -0.4838  0.1502
  236MPD1    H5 3642   1.624   2.662  10.271  1.0309  0.2160 -0.6733
  236MPD1    N1 3643   1.231   2.866   9.899  0.2323 -0.1285  0.0906
  236MPD1    H6 3644   1.130   2.866   9.911  0.0505  1.3025 -1.4844
  236MPD1    H7 3645   1.258   2.789   9.837  0.6257  0.9297 -1.0424
  237MPD1     C 3646   2.065   1.009  14.504  0.0836 -0.2498 -0.4412
  237MPD1    C1 3647   2.108   0.921  14.595 -0.4862  0.3806  0.5473
  237MPD1    C2 3648   2.015   0.883  14.693  0.1167 -0.2768  0.3174
  237MPD1    C3 3649   1.888   0.942  14.693 -0.0308 -0.3723 -1.2556
  237MPD1    C4 3650   1.849   1.036  14.601 -0.8125 -0.4375 -0.3139
  237MPD1    C5 3651   1.941   1.069  14.502 -0.4723  0.4128 -0.0520
  237MPD1     H 3652   2.042   0.800  14.757 -2.2906  0.0875  1.7751
  237MPD1    H1 3653   1.749   1.077  14.598 -0.5127  0.2580 -0.9908
  237MPD1    H2 3654   2.120   1.039  14.416  0.0099 -1.0210 -0.7504
  237MPD1    H3 3655   1.910   1.124  14.414  0.8073  0.4578 -0.4732
  237MPD1     N 3656   1.778   0.902  14.784  0.0826  0.0596  0.6891
  237MPD1    H5 3657   1.689   0.945  14.759 -0.4406 -0.3550  1.8560
  237MPD1    N1 3658   2.230   0.852  14.582  0.1578 -0.4777  0.1490
  237MPD1    H6 3659   2.254   0.823  14.676  0.2391 -0.6690  0.0708
  237MPD1    H7 3660   2.307   0.910  14.549  0.1253 -1.3442 -1.4968
  238MPD1     C 3661   3.854   4.046  15.561 -0.1507  0.6323  1.0644
  238MPD1    C1 3662   3.747   4.037  15.647 -0.2503 -0.3653  0.1622
  238MPD1    C2 3663   3.618   4.039  15.591  0.6277 -0.0242  0.5564
  238MPD1    C3 3664   3.598   4.044  15.453 -0.1245 -0.2786  0.6216
  238MPD1    C4 3665   3.709   4.033  15.376  1.3777 -0.0540  0.0619
  238MPD1    C5 3666   3.835   4.041  15.426 -0.0746  0.2272 -0.1995
  238MPD1     H 3667   3.540   4.073  15.659  0.2480 -0.2910  0.2497
  238MPD1    H1 3668   3.693   4.034  15.269  0.2589 -0.6593  0.2168
  238MPD1    H2 3669   3.958   4.053  15.591  0.3266  0.5658 -0.5870
  238MPD1    H3 3670   3.919   4.059  15.360 -0.2843 -0.1021 -0.5577
  238MPD1     N 3671   3.475   4.061  15.388 -0.1884  0.3822 -0.2195
  238MPD1    H5 3672   3.480   4.077  15.288 -1.9789  2.2250 -0.0009
  238MPD1    N1 3673   3.760   4.085  15.779 -0.8494 -0.2274  0.3050
  238MPD1    H6 3674   3.848   4.054  15.820 -2.1812 -3.0439  1.0174
  238MPD1    H7 3675   3.686   4.045  15.836 -0.4135  0.6663  1.5113
  239MPD1     C 3676   3.741   4.698  14.868  0.0155  0.0516  0.1449
  239MPD1    C1 3677   3.608   4.673  14.860 -0.2395 -0.0343 -0.2228
  239MPD1    C2 3678   3.529   0.018  14.782 -0.5051 -0.3802  1.2213
  239MPD1    C3 3679   3.579   0.131  14.724  0.0223 -0.0916  0.1605
  239MPD1    C4 3680   3.714   0.153  14.723  0.0469 -0.0861 -0.2334
  239MPD1    C5 3681   3.797   0.069  14.800  0.6582  0.1241  0.1296
  239MPD1     H 3682   3.422   0.001  14.774  0.0675 -3.2170 -0.6049
  239MPD1    H1 3683   3.755   0.230  14.658 -0.2507  0.2882  0.0235
  239MPD1    H2 3684   3.808   4.641  14.931 -0.0307 -1.4648 -1.1898
  239MPD1    H3 3685   3.905   0.075  14.808  0.8440 -0.7379 -1.8085
  239MPD1     N 3686   3.501   0.222  14.646 -0.2424 -0.2279  0.0652
  239MPD1    H5 3687   3.546   0.296  14.593  2.1251 -2.2161 -0.7043
  239MPD1    N1 3688   3.550   4.576  14.939 -0.7018  0.2487  0.4968
  239MPD1    H6 3689   3.618   4.508  14.973 -1.1698 -0.4155  0.1186
  239MPD1    H7 3690   3.464   4.535  14.903  0.2327 -1.3563  0.1121
  240MPD1     C 3691   3.392   0.283  14.040  0.5921 -0.7128 -0.3072
  240MPD1    C1 3692   3.260   0.286  14.060  0.4445  0.7482  0.2688
  240MPD1    C2 3693   3.206   0.184  14.141 -0.4646 -0.9984  0.5019
  240MPD1    C3 3694   3.287   0.102  14.213 -0.4777 -0.2055  0.0501
  240MPD1    C4 3695   3.426   0.112  14.196  0.1825  0.5296  0.1436
  240MPD1    C5 3696   3.474   0.197  14.103 -0.2050 -0.3492 -0.0362
  240MPD1     H 3697   3.098   0.186  14.153 -0.2718 -0.5150  2.2014
  240MPD1    H1 3698   3.499   0.056  14.253 -0.3422  1.0655  1.3571
  240MPD1    H2 3699   3.444   0.349  13.972 -0.4738  1.1118  0.6501
  240MPD1    H3 3700   3.581   0.192  14.085  0.0111  0.3352  1.0387
  240MPD1     N 3701   3.229   0.002  14.298 -0.1333  0.5758 -0.4729
  240MPD1    H5 3702   3.131   0.008  14.323 -0.5468  0.5724 -2.0787
  240MPD1    N1 3703   3.183   0.386  13.998  0.9262  0.2795 -0.1612
  240MPD1    H6 3704   3.240   0.470  13.990  0.7207  0.3201 -1.2267
  240MPD1    H7 3705   3.097   0.418  14.041  1.1507  0.3037  0.2637
  241MPD1     C 3706   3.124   4.421  15.292 -0.5741 -0.1730  0.1451
  241MPD1    C1 3707   3.241   4.451  15.221 -0.1033  0.3252  0.4956
  241MPD1    C2 3708   3.238   4.450  15.086  0.5572 -0.2035  0.1982
  241MPD1    C3 3709   3.122   4.430  15.014  0.4606  0.1598  0.0976
  241MPD1    C4 3710   3.009   4.415  15.083 -0.6198  0.0435  0.4095
  241MPD1    C5 3711   3.007   4.413  15.219 -0.2050 -0.6364 -0.3202
  241MPD1     H 3712   3.332   4.457  15.032  0.8749 -0.8994  0.6483
  241MPD1    H1 3713   2.911   4.410  15.037 -0.9953  1.2004  1.0777
  241MPD1    H2 3714   3.133   4.413  15.400 -3.3891 -0.7793  0.3276
  241MPD1    H3 3715   2.915   4.412  15.277 -0.4928  1.1744 -0.7544
  241MPD1     N 3716   3.120   4.435  14.873 -0.0900  0.2160 -0.4874
  241MPD1    H5 3717   3.029   4.432  14.829  0.2406  1.0840 -1.2509
  241MPD1    N1 3718   3.368   4.460  15.287 -0.1617  0.0688 -0.4484
  241MPD1    H6 3719   3.415   4.537  15.240 -1.3101  0.6664 -0.6259
  241MPD1    H7 3720   3.353   4.493  15.382  1.0003 -2.1417  0.5094
  242MPD1     C 3721   2.520   3.417  16.162 -0.4674 -0.1134  0.5106
  242MPD1    C1 3722   2.517   3.475  16.042 -0.2621  0.0868 -0.4802
  242MPD1    C2 3723   2.537   3.402  15.925 -0.0264 -0.0366 -0.4301
  242MPD1    C3 3724   2.557   3.266  15.934  0.0567 -0.5052  0.3183
  242MPD1    C4 3725   2.561   3.208  16.054 -0.6209 -0.6005  0.0630
  242MPD1    C5 3726   2.547   3.284  16.168  0.2606  1.1490  0.4386
  242MPD1     H 3727   2.538   3.451  15.828 -1.5850  0.6732 -0.0893
  242MPD1    H1 3728   2.573   3.100  16.063 -1.8734 -0.6901  0.5924
  242MPD1    H2 3729   2.492   3.460  16.258 -2.0422  3.0167 -1.3366
  242MPD1    H3 3730   2.548   3.241  16.267 -1.7574  1.6007  0.6500
  242MPD1     N 3731   2.599   3.190  15.826 -0.2136  0.0903  0.1294
  242MPD1    H5 3732   2.628   3.094  15.845  1.6108  0.2617 -1.8414
  242MPD1    N1 3733   2.471   3.608  16.026  0.0184 -0.0178  0.2224
  242MPD1    H6 3734   2.518   3.646  15.944  0.5152 -1.4305 -0.1473
  242MPD1    H7 3735   2.496   3.665  16.107  0.6368  0.8290 -0.5603
  243MPD1     C 3736   3.415   2.118   0.241 -0.6695  0.2635  0.3075
  243MPD1    C1 3737   3.492   2.014   0.291  0.4949 -0.2095  0.1462
  243MPD1    C2 3738   3.600   1.986   0.209 -0.3760  0.2732  0.0335
  243MPD1    C3 3739   3.651   2.077   0.120 -0.1589 -0.6424 -0.0829
  243MPD1    C4 3740   3.578   2.184   0.084 -0.1226  0.1700  0.3869
  243MPD1    C5 3741   3.454   2.196   0.134  0.3739 -0.0969 -0.1275
  243MPD1     H 3742   3.653   1.893   0.223 -0.5856 -0.1836 -2.1833
  243MPD1    H1 3743   3.609   2.257   0.010  2.0790  0.0698  1.1916
  243MPD1    H2 3744   3.316   2.137   0.279 -0.8033 -0.5908  0.4022
  243MPD1    H3 3745   3.384   2.276   0.112  0.3794 -0.1168 -0.2211
  243MPD1     N 3746   3.767   2.031   0.047 -0.3507 -0.5457 -0.4090
  243MPD1    H5 3747   3.822   1.958   0.092  0.5399  0.4285  0.0873
  243MPD1    N1 3748   3.456   1.917   0.389 -0.0533  0.5323  0.1589
  243MPD1    H6 3749   3.528   1.857   0.429  0.2917  0.4160 -0.6367
  243MPD1    H7 3750   3.397   1.948   0.466 -0.7781 -0.7294  0.1202
  244MPD1     C 3751   4.182   1.261  17.307  0.3599 -0.2453 -0.3282
  244MPD1    C1 3752   4.131   1.352  17.221 -0.2978 -0.3284 -0.3337
  244MPD1    C2 3753   4.115   1.480  17.262 -0.7787  0.3248  0.5188
  244MPD1    C3 3754   4.128   1.515  17.394 -0.4636 -0.4081 -0.7652
  244MPD1    C4 3755   4.173   1.425  17.489 -0.4060 -0.0197  0.1927
  244MPD1    C5 3756   4.192   1.301  17.440 -0.4713  1.2891  0.4315
  244MPD1     H 3757   4.093   1.560  17.192  2.5728 -0.0709 -1.0241
  244MPD1    H1 3758   4.199   1.450  17.591  1.6031 -1.6967  0.0834
  244MPD1    H2 3759   4.218   1.163  17.279  0.4376  0.3873 -2.4290
  244MPD1    H3 3760   4.231   1.231  17.514 -1.7616 -0.0088 -0.1231
  244MPD1     N 3761   4.094   1.647  17.427 -0.1507  0.0118 -0.4953
  244MPD1    H5 3762   4.070   1.712  17.352 -0.0594  0.3074 -0.2679
  244MPD1    N1 3763   4.144   1.338  17.087  0.1851  0.0234  0.3891
  244MPD1    H6 3764   4.074   1.387  17.031 -1.9680 -2.4789  0.9265
  244MPD1    H7 3765   4.122   1.241  17.069  4.5381 -0.8569 -0.3443
  245MPD1     C 3766   1.939   1.859  12.663 -0.3318  0.2889  0.4072
  245MPD1    C1 3767   1.876   1.972  12.615  0.2848  0.4607 -0.2755
  245MPD1    C2 3768   1.891   2.089  12.689 -0.1342  0.1441 -0.0776
  245MPD1    C3 3769   1.962   2.098  12.812  0.6656  0.6270 -0.3125
  245MPD1    C4 3770   2.024   1.987  12.851 -0.5378  0.4647  0.4864
  245MPD1    C5 3771   2.019   1.873  12.773 -0.9794 -0.5523 -0.4773
  245MPD1     H 3772   1.829   2.173  12.660 -0.6153 -0.3300 -0.4328
  245MPD1    H1 3773   2.071   1.979  12.949  1.8954  1.8921 -0.5815
  245MPD1    H2 3774   1.948   1.761  12.618 -1.3095  0.6675 -0.6006
  245MPD1    H3 3775   2.064   1.778  12.801 -0.7204 -0.7994 -1.7325
  245MPD1     N 3776   1.957   2.218  12.890 -0.0802 -0.2678  0.1726
  245MPD1    H5 3777   1.888   2.286  12.857 -1.1168 -1.8818 -0.9990
  245MPD1    N1 3778   1.779   1.959  12.515 -0.0802 -0.3299  0.0117
  245MPD1    H6 3779   1.752   2.043  12.464 -0.6569 -0.6224 -0.1741
  245MPD1    H7 3780   1.800   1.882  12.452 -1.4376 -1.9212  1.4988
  246MPD1     C 3781   3.645   3.065   9.594  0.1296 -0.6934  0.0279
  246MPD1    C1 3782   3.511   3.022   9.603  0.3330  0.3870  0.0222
  246MPD1    C2 3783   3.424   3.110   9.664 -0.0604 -0.0670 -0.0591
  246MPD1    C3 3784   3.447   3.244   9.699  0.6128 -0.3520  0.3681
  246MPD1    C4 3785   3.575   3.294   9.661  0.3197  0.4810  0.7787
  246MPD1    C5 3786   3.671   3.200   9.606 -0.7390 -0.0164 -0.2322
  246MPD1     H 3787   3.326   3.079   9.699  0.8932  0.7744  3.3698
  246MPD1    H1 3788   3.606   3.396   9.683  0.6153  0.9909 -1.9714
  246MPD1    H2 3789   3.722   3.006   9.545  0.5796 -0.9280  1.0153
  246MPD1    H3 3790   3.772   3.238   9.595 -1.2976  1.0367 -1.6498
  246MPD1     N 3791   3.360   3.325   9.770 -0.1651  0.2346  0.0566
  246MPD1    H5 3792   3.275   3.280   9.804 -0.6203  0.2351 -1.1066
  246MPD1    N1 3793   3.492   2.877   9.594 -0.3000 -0.7908  0.7258
  246MPD1    H6 3794   3.394   2.852   9.581 -0.0505 -0.8265 -1.1415
  246MPD1    H7 3795   3.547   2.845   9.514 -0.2401 -1.1931  0.9291
  247MPD1     C 3796   1.087   2.641  16.644 -0.6073  0.3853 -0.3809
  247MPD1    C1 3797   1.071   2.512  16.682  0.2002 -0.2193  0.3267
  247MPD1    C2 3798   1.052   2.422  16.573 -0.5013 -0.5580 -0.1540
  247MPD1    C3 3799   1.071   2.457  16.441  0.2036 -0.9851 -0.0491
  247MPD1    C4 3800   1.099   2.586  16.406 -0.5429  0.0567  0.6404
  247MPD1    C5 3801   1.107   2.673  16.509  0.2681 -0.4202  1.0899
  247MPD1     H 3802   1.027   2.321  16.601 -1.7512 -0.3439 -0.4514
  247MPD1    H1 3803   1.112   2.636  16.311 -0.5977 -2.7061 -0.8212
  247MPD1    H2 3804   1.097   2.709  16.727 -0.0792 -0.9428  0.6459
  247MPD1    H3 3805   1.126   2.776  16.481  1.1478 -0.7639  0.4201
  247MPD1     N 3806   1.038   2.369  16.336 -0.3554  0.7534 -0.0654
  247MPD1    H5 3807   1.052   2.408  16.244  0.7360  1.2194  0.2966
  247MPD1    N1 3808   1.013   2.464  16.803 -0.1195  0.1262 -0.0861
  247MPD1    H6 3809   1.028   2.364  16.820  1.1831  0.0738 -1.5260
  247MPD1    H7 3810   1.049   2.528  16.872  0.2843 -2.6401  2.2807
  248MPD1     C 3811   1.992   2.828   0.247 -0.0820  0.0084 -0.3088
  248MPD1    C1 3812   1.860   2.817   0.286  0.9841 -0.2391 -0.4340
  248MPD1    C2 3813   1.792   2.706   0.232 -0.4405  0.2041  0.1770
  248MPD1    C3 3814   1.857   2.624   0.137  0.8548  0.6670  0.8396
  248MPD1    C4 3815   1.986   2.644   0.107 -0.3297 -0.5453 -0.2731
  248MPD1    C5 3816   2.052   2.752   0.155 -0.3020  0.2636  0.0519
  248MPD1     H 3817   1.688   2.692   0.261 -1.4121  0.2690 -3.2217
  248MPD1    H1 3818   2.040   2.581   0.038  0.1827 -0.2704 -0.1252
  248MPD1    H2 3819   2.046   2.918   0.274  0.3466 -0.2493 -0.3067
  248MPD1    H3 3820   2.157   2.778   0.142 -0.3932  0.6738  0.1174
  248MPD1     N 3821   1.778   2.515   0.080  0.4282 -0.4391  0.1013
  248MPD1    H5 3822   1.687   2.506   0.123  0.4522  1.2029  0.4900
  248MPD1    N1 3823   1.804   2.893   0.389  0.1044  0.0916 -0.0558
  248MPD1    H6 3824   1.703   2.905   0.389  0.2024  0.8011 -2.6649
  248MPD1    H7 3825   1.842   2.987   0.388 -0.5204  0.3308 -0.5292
  249MPD1     C 3826   3.625   1.555  10.635 -0.0258 -0.2863  0.2155
  249MPD1    C1 3827   3.724   1.498  10.562 -0.6553 -0.3092  0.3117
  249MPD1    C2 3828   3.831   1.566  10.511  0.1944 -0.0250  0.3809
  249MPD1    C3 3829   3.837   1.702  10.533  0.0951 -0.4741  0.0428
  249MPD1    C4 3830   3.735   1.761  10.605 -0.6088  0.4565  0.7976
  249MPD1    C5 3831   3.634   1.684  10.658 -0.2321 -0.1549 -0.1829
  249MPD1     H 3832   3.904   1.510  10.455  1.1493  2.0146 -0.4216
  249MPD1    H1 3833   3.727   1.866  10.632  2.7290  0.7487  0.5593
  249MPD1    H2 3834   3.547   1.491  10.673 -1.7430  1.9040  0.3539
  249MPD1    H3 3835   3.562   1.733  10.723  0.5076  0.2851  0.2947
  249MPD1     N 3836   3.940   1.780  10.478  0.4525  0.0225  0.7086
  249MPD1    H5 3837   4.018   1.731  10.435  1.0547  0.2551  1.5322
  249MPD1    N1 3838   3.711   1.362  10.533  0.9521 -0.3836  0.0631
  249MPD1    H6 3839   3.799   1.311  10.534  0.4389 -1.2556  1.8172
  249MPD1    H7 3840   3.665   1.315  10.611  0.1474 -1.6456 -1.1840
  250MPD2     C 3841   0.518   0.623  13.106  0.3740 -0.7356 -0.1484
  250MPD2    C1 3842   0.406   0.699  13.126 -0.1753  0.4708 -0.3403
  250MPD2    C2 3843   0.292   0.633  13.160  0.8314  0.1792 -0.0474
  250MPD2    C3 3844   0.286   0.496  13.163  0.3965  0.0072 -0.6120
  250MPD2    C4 3845   0.397   0.424  13.117 -0.3220 -0.3335  0.0456
  250MPD2    C5 3846   0.520   0.485  13.106  0.2854 -0.7982  0.5741
  250MPD2     H 3847   0.199   0.686  13.176  0.5604 -0.6793  1.2007
  250MPD2    H1 3848   0.403   0.316  13.106 -0.4754 -0.5347  2.0534
  250MPD2    H2 3849   0.613   0.672  13.089  0.8056 -1.6739 -0.4709
  250MPD2    H3 3850   0.613   0.438  13.076  0.4789 -0.0193 -0.0405
  250MPD2     N 3851   0.176   0.420  13.205 -0.3530 -0.4004  0.3698
  250MPD2    H5 3852   0.187   0.320  13.202 -0.4981 -0.4913  3.5563
  250MPD2    N1 3853   0.417   0.836  13.108  0.2681  0.3176 -0.4342
  250MPD2    H7 3854   0.507   0.872  13.078  1.3436 -1.9283  0.0842
  251TMC3    C1 3855   0.364   1.072  13.069  0.5917  0.8416 -0.2130
  251TMC3    C2 3856   0.273   1.158  13.013  0.2678  0.9950 -0.3604
  251TMC3    C3 3857   0.317   1.288  12.998 -0.0601  0.1524  0.6769
  251TMC3    C4 3858   0.497   1.101  13.088 -0.4398 -0.8631  0.3923
  251TMC3    C5 3859   0.533   1.233  13.064 -0.5820  0.4788  0.2654
  251TMC3    C6 3860   0.446   1.325  13.024  0.2160  0.5460 -0.4944
  251TMC3     C 3861   0.321   0.936  13.110  0.0627  0.5899 -0.4529
  251TMC3     O 3862   0.203   0.920  13.132  0.5099  0.0679  0.2097
  251TMC3     H 3863   0.173   1.118  12.995  1.3961 -0.1175 -4.3446
  251TMC3    H1 3864   0.550   1.034  13.155  1.5459  1.0279  0.7053
  251TMC3    H2 3865   0.483   1.426  13.013  0.5705  0.2313 -2.1857
  251TMC3    C7 3866   0.673   1.264  13.081  0.2721  0.2744  0.6388
  251TMC3    C8 3867   0.212   1.386  12.971 -0.5986  0.7485  0.2001
  251TMC3    O1 3868   0.751   1.176  13.060 -0.2062  0.1790  0.6140
  251TMC3    O2 3869   0.103   1.341  12.927  0.4307 -0.5922 -0.2627
  252TMC3    C1 3870   0.244   2.643   9.537 -0.4720  0.3141  0.2269
  252TMC3    C2 3871   0.320   2.561   9.462 -0.6753  0.2112  0.2681
  252TMC3    C3 3872   0.378   2.456   9.521 -0.1230 -0.4010  0.8291
  252TMC3    C4 3873   0.231   2.630   9.669  0.3011 -0.4077  0.3992
  252TMC3    C5 3874   0.268   2.506   9.712  0.3306  0.2842 -0.1267
  252TMC3    C6 3875   0.338   2.413   9.642 -0.1845 -0.0284 -0.7016
  252TMC3     C 3876   0.220   2.772   9.473 -0.1841  0.0730 -0.1804
  252TMC3     O 3877   0.198   2.764   9.355 -0.0114  0.1014  0.1159
  252TMC3     H 3878   0.357   2.602   9.368  1.2407 -0.8639  0.5507
  252TMC3    H1 3879   0.162   2.689   9.728 -0.5609  2.2769 -3.2980
  252TMC3    H2 3880   0.364   2.319   9.689  2.1725  0.8924 -0.1720
  252TMC3    C7 3881   0.220   2.462   9.848 -0.1954 -0.2667  1.3320
  252TMC3    C8 3882   0.430   2.351   9.436 -0.4938  0.2126 -0.1889
  252TMC3    O1 3883   0.235   2.535   9.943 -0.3945 -0.1498 -0.3414
  252TMC3    O2 3884   0.444   2.389   9.321  0.2804  0.9239  0.3096
  253MPD2     C 3885   1.113   0.949  15.539 -0.0646  0.1444  0.6647
  253MPD2    C1 3886   1.022   0.883  15.458 -0.1764  0.7720  0.1988
  253MPD2    C2 3887   0.923   0.807  15.515 -0.2057 -0.0903  0.6697
  253MPD2    C3 3888   0.907   0.795  15.653  0.7450 -0.1240 -0.0404
  253MPD2    C4 3889   1.002   0.850  15.727 -0.0916 -0.2651  0.5493
  253MPD2    C5 3890   1.106   0.923  15.676 -0.5633  0.6352 -0.3724
  253MPD2     H 3891   0.856   0.758  15.445  0.9998 -3.5358  1.9309
  253MPD2    H1 3892   0.987   0.841  15.834  1.7208  0.9028  0.9048
  253MPD2    H2 3893   1.192   1.016  15.507  1.8707 -1.7462  1.5455
  253MPD2    H3 3894   1.166   0.975  15.749  0.5688 -0.0592 -0.8064
  253MPD2     N 3895   0.797   0.731  15.716 -0.0780 -0.4573 -0.4864
  253MPD2    H5 3896   0.803   0.738  15.817  2.5251  1.3640 -0.7725
  253MPD2    N1 3897   1.021   0.900  15.318 -0.3878 -0.4098 -0.0710
  253MPD2    H7 3898   0.949   0.853  15.265 -2.4439  1.0485  1.4404
  254TMC3    C1 3899   0.610   0.597  15.757 -0.3297 -0.0504  0.2741
  254TMC3    C2 3900   0.485   0.556  15.716 -0.6674 -0.0377  0.1623
  254TMC3    C3 3901   0.423   0.455  15.784  0.9499  0.0696 -0.5170
  254TMC3    C4 3902   0.662   0.551  15.879 -0.0875  0.5588 -0.6058
  254TMC3    C5 3903   0.585   0.466  15.956  0.8743  0.4762 -0.7179
  254TMC3    C6 3904   0.468   0.413  15.906 -0.0554 -0.4516  0.1765
  254TMC3     C 3905   0.697   0.659  15.659  0.2833  1.0553  0.3902
  254TMC3     O 3906   0.673   0.625  15.545  0.1999 -0.6099  0.2426
  254TMC3     H 3907   0.436   0.593  15.627  0.0118  1.9965  0.6081
  254TMC3    H1 3908   0.752   0.601  15.914  0.0443  0.3400 -0.6361
  254TMC3    H2 3909   0.417   0.337  15.964  1.4469 -0.8786  0.9163
  254TMC3    C7 3910   0.613   0.432  16.091 -0.1927  0.3295  0.1576
  254TMC3    C8 3911   0.276   0.464  15.759  0.7296 -0.5797  0.0438
  254TMC3    O1 3912   0.596   0.319  16.139 -0.0098 -0.5190 -0.1680
  254TMC3    O2 3913   0.206   0.370  15.734 -0.3883  0.1390  0.1017
  255MPD2     C 3914   4.117   2.666  10.476  0.0096 -0.2811 -0.2402
  255MPD2    C1 3915   4.241   2.727  10.458  0.5560  0.1269 -0.3326
  255MPD2    C2 3916   4.344   2.643  10.426  0.2357 -0.5890 -0.0977
  255MPD2    C3 3917   4.335   2.512  10.394 -0.2189 -0.3710  0.0456
  255MPD2    C4 3918   4.213   2.448  10.411 -0.0514 -0.5151 -0.1306
  255MPD2    C5 3919   4.108   2.527  10.446  0.0689 -0.4300  0.2071
  255MPD2     H 3920   4.445   2.683  10.424  0.6856 -1.6526  1.4334
  255MPD2    H1 3921   4.200   2.342  10.395  3.8899 -0.7787 -1.6376
  255MPD2    H2 3922   4.026   2.724  10.484  0.5529  0.2276  2.3523
  255MPD2    H3 3923   4.016   2.470  10.451  0.4366 -1.0382 -0.0174
  255MPD2     N 3924   4.456   2.446  10.346  0.4498 -0.1359  0.4548
  255MPD2    H5 3925   4.540   2.501  10.364  0.6091 -0.8063  1.7456
  255MPD2    N1 3926   4.257   2.867  10.470  0.2244  0.1648 -0.2770
  255MPD2    H7 3927   4.175   2.919  10.500  0.8173  1.2406 -0.5421
  256TMC3    C1 3928   4.367   3.077  10.417 -0.5567 -0.2262  0.2673
  256TMC3    C2 3929   4.439   3.146  10.325  0.7382 -0.4039  0.0788
  256TMC3    C3 3930   4.415   3.277  10.316  0.2965  0.4706 -0.8713
  256TMC3    C4 3931   4.287   3.142  10.506  0.0495 -0.1875  0.1434
  256TMC3    C5 3932   4.276   3.277  10.499  0.0897  0.1943  0.5100
  256TMC3    C6 3933   4.332   3.353  10.399  0.5318  0.8628  0.4593
  256TMC3     C 3934   4.365   2.929  10.417  0.4234 -0.4730 -0.6252
  256TMC3     O 3935   4.464   2.888  10.364  0.1606 -0.9191 -0.0846
  256TMC3     H 3936   4.495   3.095  10.247 -1.6897 -1.9689 -0.6547
  256TMC3    H1 3937   4.217   3.084  10.564 -0.1740 -0.5172 -0.4553
  256TMC3    H2 3938   4.286   3.443  10.362 -0.0008  0.5318  0.3198
  256TMC3    C7 3939   4.147   3.326  10.545  0.2053  0.5369 -0.3970
  256TMC3    C8 3940   4.470   3.339  10.194  0.3076  0.5417  0.6929
  256TMC3    O1 3941   4.048   3.254  10.541  0.0777 -0.3486  0.5774
  256TMC3    O2 3942   4.494   3.264  10.100  0.0368 -0.3388 -0.2486
  257MPD2     C 3943   3.846   0.849  13.290 -0.1070 -0.2062  0.8152
  257MPD2    C1 3944   3.756   0.820  13.191  0.5068  0.4115  0.1670
  257MPD2    C2 3945   3.648   0.731  13.227  0.2190  0.1554  0.0959
  257MPD2    C3 3946   3.618   0.695  13.352 -0.2690  0.6448  0.2640
  257MPD2    C4 3947   3.697   0.748  13.450  0.1207  0.1423 -0.9848
  257MPD2    C5 3948   3.816   0.815  13.422  0.1077 -0.2804  0.4685
  257MPD2     H 3949   3.589   0.690  13.146 -0.8572  1.2976  0.3125
  257MPD2    H1 3950   3.679   0.712  13.551 -0.6678 -0.6959 -1.4183
  257MPD2    H2 3951   3.940   0.901  13.277  0.6705 -2.1360 -1.2511
  257MPD2    H3 3952   3.878   0.846  13.505 -0.1835 -1.5622  1.1618
  257MPD2     N 3953   3.512   0.607  13.379 -0.0690  0.3580 -0.0839
  257MPD2    H5 3954   3.474   0.559  13.298 -2.1710 -0.4337  1.3644
  257MPD2    N1 3955   3.777   0.844  13.053 -0.7472 -0.2066  0.1128
  257MPD2    H7 3956   3.725   0.805  12.976 -1.0604 -3.0000  1.7297
  258TMC3    C1 3957   3.400   0.439  13.498  0.0683 -0.1608  0.2358
  258TMC3    C2 3958   3.329   0.409  13.380 -0.3934 -0.2174 -0.0295
  258TMC3    C3 3959   3.289   0.282  13.379 -0.2617  0.2826 -0.4542
  258TMC3    C4 3960   3.457   0.352  13.587  0.2313 -0.4225  0.7880
  258TMC3    C5 3961   3.435   0.221  13.553  0.0406  0.0526  0.1899
  258TMC3    C6 3962   3.351   0.192  13.458 -0.5771 -0.0073 -0.3077
  258TMC3     C 3963   3.459   0.569  13.500  0.4683 -0.1484  0.5476
  258TMC3     O 3964   3.457   0.636  13.601 -0.2692 -0.0350 -0.4627
  258TMC3     H 3965   3.278   0.490  13.330 -0.4416  0.1913  0.6807
  258TMC3    H1 3966   3.512   0.387  13.674  1.6434  1.2320 -0.7632
  258TMC3    H2 3967   3.316   0.090  13.443 -0.3648  0.0890 -1.4708
  258TMC3    C7 3968   3.518   0.117  13.615 -0.0220  0.4166 -0.3510
  258TMC3    C8 3969   3.215   0.252  13.257  0.3725  0.6149  0.4367
  258TMC3    O1 3970   3.494   4.736  13.588 -0.0531 -0.4561 -0.0645
  258TMC3    O2 3971   3.139   0.337  13.210  0.7258  0.1372 -0.4793
  259MPD2     C 3972   2.496   2.414   0.907 -0.3869  0.0598  0.2268
  259MPD2    C1 3973   2.493   2.290   0.846  0.1480 -0.1701  0.2489
  259MPD2    C2 3974   2.444   2.282   0.717 -0.2592 -0.4596 -0.6303
  259MPD2    C3 3975   2.395   2.397   0.650 -0.1478 -0.0024 -0.2350
  259MPD2    C4 3976   2.399   2.520   0.713  0.0167  0.2829 -0.2528
  259MPD2    C5 3977   2.456   2.528   0.838  0.3226 -0.8395  0.2416
  259MPD2     H 3978   2.441   2.184   0.672 -1.6124 -1.6147  1.9421
  259MPD2    H1 3979   2.371   2.610   0.659  2.4953  1.5534  0.6308
  259MPD2    H2 3980   2.555   2.426   0.998 -0.1358 -1.5892  0.2808
  259MPD2    H3 3981   2.460   2.622   0.893  2.5188 -1.0047  0.3765
  259MPD2     N 3982   2.360   2.366   0.514 -0.3668  0.5898  0.1789
  259MPD2    H5 3983   2.358   2.271   0.481 -1.0671  1.2524 -1.6803
  259MPD2    N1 3984   2.557   2.189   0.915 -0.3296 -0.2767  0.3234
  259MPD2    H7 3985   2.616   2.227   0.987 -0.2185 -0.7342  0.4729
  260TMC3    C1 3986   2.272   2.421   0.295 -0.2676  0.1000  0.1633
  260TMC3    C2 3987   2.299   2.510   0.191  0.1792 -0.2690 -0.5409
  260TMC3    C3 3988   2.276   2.461   0.065  0.1614 -0.2408  0.1239
  260TMC3    C4 3989   2.220   2.297   0.284 -0.0624  0.0428 -0.1977
  260TMC3    C5 3990   2.184   2.266   0.158  0.6943  0.6201  0.0336
  260TMC3    C6 3991   2.205   2.342   0.051 -0.2002  0.6985 -0.7557
  260TMC3     C 3992   2.326   2.468   0.425  0.3680 -0.3923  0.5153
  260TMC3     O 3993   2.328   2.589   0.437 -0.0355 -0.2199  0.1603
  260TMC3     H 3994   2.343   2.609   0.200 -1.1955  0.4711 -1.8916
  260TMC3    H1 3995   2.206   2.234   0.371 -0.5809 -2.5902 -2.2194
  260TMC3    H2 3996   2.183   2.305  17.696  1.6611  1.1459 -1.3423
  260TMC3    C7 3997   2.171   2.126   0.122 -0.0829 -0.0998 -0.4507
  260TMC3    C8 3998   2.388   2.478  17.720  0.0739 -0.2538  0.2756
  260TMC3    O1 3999   2.098   2.115   0.024  0.6935 -0.2215 -0.0481
  260TMC3    O2 4000   2.458   2.577  17.737 -0.1354  0.5256 -0.1236
  261MPD2     C 4001   4.134   0.325  13.053 -0.7809  0.0815 -0.3099
  261MPD2    C1 4002   4.257   0.389  13.045 -0.6688 -0.2836  0.0545
  261MPD2    C2 4003   4.279   0.492  12.954  0.3185  0.2412 -0.7994
  261MPD2    C3 4004   4.190   0.525  12.866  0.0315  0.1287 -0.2188
  261MPD2    C4 4005   4.071   0.455  12.857  0.0038 -0.4312  0.4429
  261MPD2    C5 4006   4.049   0.353  12.949 -0.3293 -0.0363 -0.0895
  261MPD2     H 4007   4.372   0.549  12.953 -0.3655  1.4291  2.2923
  261MPD2    H1 4008   3.998   0.471  12.779  2.7549  0.5202 -1.8982
  261MPD2    H2 4009   4.108   0.250  13.126 -1.5825  1.2573  0.6144
  261MPD2    H3 4010   3.955   0.299  12.937 -1.0003  0.6208  2.1832
  261MPD2     N 4011   4.230   0.616  12.766 -0.1190  0.4575  0.0567
  261MPD2    H5 4012   4.326   0.648  12.759 -0.0222  0.2788  0.5297
  261MPD2    N1 4013   4.360   0.372  13.133 -0.3610 -0.1071 -0.0590
  261MPD2    H7 4014   4.447   0.417  13.106  0.1799 -1.8979 -1.3542
  262TMC3    C1 4015   4.203   0.722  12.561 -0.0047  0.3482  1.0112
  262TMC3    C2 4016   4.120   0.782  12.469 -0.6500 -0.0497 -0.5815
  262TMC3    C3 4017   4.160   0.795  12.338  0.8478 -0.0824 -0.4923
  262TMC3    C4 4018   4.323   0.667  12.517  0.0083  0.3265  0.1735
  262TMC3    C5 4019   4.347   0.687  12.381 -0.3855 -0.5410 -0.3527
  262TMC3    C6 4020   4.266   0.736  12.285  0.1663  0.3915 -0.8865
  262TMC3     C 4021   4.141   0.672  12.680  0.4431 -0.6371  0.2076
  262TMC3     O 4022   4.015   0.674  12.678 -0.2471  0.0879  0.4658
  262TMC3     H 4023   4.026   0.822  12.505 -1.2428 -1.3401 -0.6855
  262TMC3    H1 4024   4.397   0.618  12.578 -2.7798 -3.7232  0.3038
  262TMC3    H2 4025   4.300   0.754  12.183  4.4690  2.4456  0.9070
  262TMC3    C7 4026   4.474   0.622  12.338 -0.0223  0.3996  0.5488
  262TMC3    C8 4027   4.077   0.886  12.259 -0.0475  0.8299 -0.1352
  262TMC3    O1 4028   4.516   0.533  12.411  0.7235 -0.1384 -0.3061
  262TMC3    O2 4029   4.016   0.975  12.323  0.0241  0.3265  0.6011
  263MPD2     C 4030   0.098   0.321  11.601 -0.2479 -0.7585 -0.1084
  263MPD2    C1 4031   0.208   0.259  11.548  0.0312  0.2636 -0.4329
  263MPD2    C2 4032   0.251   0.286  11.416  1.1105 -0.1394 -0.4225
  263MPD2    C3 4033   0.183   0.381  11.339 -0.1907 -0.7209 -0.2835
  263MPD2    C4 4034   0.068   0.446  11.398 -0.2361  0.9777  0.5440
  263MPD2    C5 4035   0.033   0.420  11.530 -0.2000 -0.2284  0.1030
  263MPD2     H 4036   0.347   0.247  11.386  1.8109  0.4205  1.1083
  263MPD2    H1 4037   0.007   0.513  11.339 -0.6113 -2.1463 -2.6403
  263MPD2    H2 4038   0.065   0.295  11.701 -1.5393  2.4226  0.3024
  263MPD2    H3 4039   4.685   0.473  11.573  0.0456  1.2662 -1.2253
  263MPD2     N 4040   0.230   0.417  11.209 -0.0835 -0.2542 -0.3101
  263MPD2    H5 4041   0.315   0.372  11.179  0.7407  1.2979 -0.3028
  263MPD2    N1 4042   0.279   0.173  11.635  0.3386 -0.1204 -0.2169
  263MPD2    H7 4043   0.256   0.173  11.734 -2.4083 -1.4866 -0.8441
  264TMC3    C1 4044   0.272   0.555  11.023  0.8249 -0.1447 -0.4402
  264TMC3    C2 4045   0.299   0.689  11.024  0.1785 -0.0397  0.2215
  264TMC3    C3 4046   0.303   0.753  10.898  0.5154  0.0650  0.5449
  264TMC3    C4 4047   0.279   0.474  10.916 -0.2650 -0.4987  0.3005
  264TMC3    C5 4048   0.296   0.540  10.795 -0.0928  0.0168  0.2376
  264TMC3    C6 4049   0.295   0.679  10.787 -0.4244  0.5419 -0.0004
  264TMC3     C 4050   0.182   0.525  11.136 -0.1466 -0.1888 -0.3607
  264TMC3     O 4051   0.087   0.597  11.154  0.0897  0.1238 -0.2755
  264TMC3     H 4052   0.281   0.743  11.116 -2.7248 -0.9986  0.2311
  264TMC3    H1 4053   0.260   0.367  10.922 -0.0614 -0.6252 -1.3546
  264TMC3    H2 4054   0.278   0.729  10.693  1.1069  1.4031  0.1700
  264TMC3    C7 4055   0.395   0.483  10.703 -0.0546 -0.3520 -0.6353
  264TMC3    C8 4056   0.419   0.840  10.880 -0.2341 -0.8430  0.0623
  264TMC3    O1 4057   0.387   0.364  10.664  0.2801  0.9580  0.3545
  264TMC3    O2 4058   0.484   0.842  10.777  0.4495 -0.5580  0.2854
  265MPD2     C 4059   1.790   0.618  15.372 -0.4268 -0.9914  0.2379
  265MPD2    C1 4060   1.906   0.689  15.371  0.9487 -0.6635  0.3142
  265MPD2    C2 4061   2.007   0.650  15.291 -0.1118  0.1986  0.1888
  265MPD2    C3 4062   1.998   0.537  15.211 -0.4541 -0.0181  0.9159
  265MPD2    C4 4063   1.880   0.470  15.208  1.0629 -0.3617  0.6670
  265MPD2    C5 4064   1.784   0.501  15.298 -0.2038  0.0201  0.0363
  265MPD2     H 4065   2.100   0.705  15.293  0.7047 -1.2064  1.2428
  265MPD2    H1 4066   1.860   0.390  15.138  1.0739 -0.3835  0.6887
  265MPD2    H2 4067   1.699   0.641  15.426 -0.5533 -0.6499 -0.1212
  265MPD2    H3 4068   1.696   0.440  15.311 -1.4900  1.4198 -1.9587
  265MPD2     N 4069   2.107   0.477  15.133  0.1203  0.5031  0.4657
  265MPD2    H5 4070   2.075   0.386  15.100  2.3878 -0.2880  0.4362
  265MPD2    N1 4071   1.921   0.809  15.438  0.2934  0.7496 -0.2276
  265MPD2    H7 4072   2.007   0.861  15.424  1.3679 -1.4648 -1.8357
  266TMC3    C1 4073   1.833   1.009  15.530 -1.4888 -0.0000 -0.0320
  266TMC3    C2 4074   1.938   1.055  15.606  0.3685 -0.1870  0.0363
  266TMC3    C3 4075   1.913   1.171  15.680 -0.4387 -0.1359  0.2783
  266TMC3    C4 4076   1.714   1.071  15.515  0.4477  0.1326 -0.9350
  266TMC3    C5 4077   1.693   1.187  15.591 -0.2147 -0.1271 -0.3366
  266TMC3    C6 4078   1.790   1.243  15.663 -0.5781 -0.5506 -0.4244
  266TMC3     C 4079   1.821   0.864  15.518  0.1065 -0.3273 -0.0667
  266TMC3     O 4080   1.728   0.806  15.579  0.6851  0.2558  0.4830
  266TMC3     H 4081   2.037   1.010  15.609 -1.0487 -3.3134 -0.2632
  266TMC3    H1 4082   1.632   1.013  15.474  0.2477 -0.2317 -0.0196
  266TMC3    H2 4083   1.762   1.330  15.723  0.0418  0.6954 -1.9349
  266TMC3    C7 4084   1.574   1.262  15.567  0.1798 -0.4131  0.6448
  266TMC3    C8 4085   2.026   1.230  15.744 -0.9088  0.6874 -0.0528
  266TMC3    O1 4086   1.523   1.323  15.662 -0.5889 -0.2747 -0.7130
  266TMC3    O2 4087   2.098   1.144  15.790  0.2462 -0.8383 -0.3881
  267MPD2     C 4088   4.144   2.235   0.316 -0.6723  0.3433 -0.1479
  267MPD2    C1 4089   4.214   2.305   0.222  0.2240  0.3820  0.9284
  267MPD2    C2 4090   4.153   2.381   0.126 -0.1385  0.0097 -0.0504
  267MPD2    C3 4091   4.015   2.367   0.097  0.0804 -0.0926  0.3571
  267MPD2    C4 4092   3.949   2.292   0.192 -0.1737  0.0830 -0.8062
  267MPD2    C5 4093   4.011   2.234   0.301 -0.2352  0.5932 -0.8438
  267MPD2     H 4094   4.212   2.455   0.073 -3.6352  1.5189 -1.8715
  267MPD2    H1 4095   3.841   2.288   0.188 -0.1424  0.2224 -1.8526
  267MPD2    H2 4096   4.189   2.176   0.394 -1.0851 -0.4542 -0.5133
  267MPD2    H3 4097   3.938   2.191   0.369 -0.5694 -0.0580 -1.6086
  267MPD2     N 4098   3.944   2.419  17.733 -0.0063 -0.2855 -0.5435
  267MPD2    H5 4099   3.853   2.384  17.707  0.4925 -0.1845 -2.4720
  267MPD2    N1 4100   4.352   2.309   0.241 -0.2315 -0.2784  0.2820
  267MPD2    H7 4101   4.392   2.264   0.323  0.5060  0.4954  0.3576
  268TMC3    C1 4102   4.580   2.340   0.208 -0.4748 -0.3760  0.9005
  268TMC3    C2 4103   4.674   2.429   0.169  0.2756 -0.5080 -0.1910
  268TMC3    C3 4104   0.070   2.397   0.206 -0.0419 -0.9918  0.1582
  268TMC3    C4 4105   4.606   2.217   0.255  0.4243  0.2923 -0.0148
  268TMC3    C5 4106   0.000   2.200   0.296  0.3222  0.0709 -0.1129
  268TMC3    C6 4107   0.105   2.290   0.277 -0.4857 -0.1174 -0.0341
  268TMC3     C 4108   4.443   2.370   0.161 -0.7269 -0.3122  0.3316
  268TMC3     O 4109   4.430   2.437   0.056 -0.5198 -0.2513  0.1957
  268TMC3     H 4110   4.643   2.520   0.119  1.0799  0.7969  1.6920
  268TMC3    H1 4111   4.531   2.141   0.272 -0.6464  1.0352 -1.4100
  268TMC3    H2 4112   0.204   2.269   0.316  0.2551  1.8815 -0.8309
  268TMC3    C7 4113   0.034   2.102   0.391 -0.0126  0.9552 -0.1332
  268TMC3    C8 4114   0.173   2.457   0.130  0.6505  0.2927 -0.1708
  268TMC3    O1 4115   0.154   2.076   0.398  0.5852 -0.3535  0.0153
  268TMC3    O2 4116   0.291   2.450   0.165 -0.7667 -0.1684  0.3730
  269MPD2     C 4117   0.468   1.373  15.226 -0.0953  0.3652 -0.9020
  269MPD2    C1 4118   0.351   1.390  15.298 -0.1093  0.0703 -0.3782
  269MPD2    C2 4119   0.302   1.517  15.306 -0.5558  0.3980 -0.0924
  269MPD2    C3 4120   0.362   1.625  15.240  0.2809 -1.5277  0.3942
  269MPD2    C4 4121   0.472   1.595  15.164  0.5050  0.0203 -0.1522
  269MPD2    C5 4122   0.530   1.473  15.165 -0.3707  0.7212 -0.7053
  269MPD2     H 4123   0.219   1.545  15.370 -0.2664 -0.3330  0.6125
  269MPD2    H1 4124   0.515   1.672  15.100 -1.3454  1.0977 -0.1152
  269MPD2    H2 4125   0.522   1.281  15.214  1.2623  1.3043 -1.9568
  269MPD2    H3 4126   0.616   1.448  15.103  0.5332  1.4329  0.2720
  269MPD2     N 4127   0.304   1.756  15.245 -0.5282 -0.5271  0.6562
  269MPD2    H5 4128   0.233   1.774  15.316 -1.2900  0.2829 -0.3075
  269MPD2    N1 4129   0.288   1.276  15.363  0.1138  0.1981  0.7649
  269MPD2    H7 4130   0.313   1.187  15.321 -0.4251 -0.4575  1.8223
  270TMC3    C1 4131   0.142   1.147  15.503 -0.5263  0.0072  0.0115
  270TMC3    C2 4132   0.003   1.141  15.520 -0.1472  0.0078 -0.1487
  270TMC3    C3 4133   4.678   1.019  15.488  0.1039  0.3711  0.3411
  270TMC3    C4 4134   0.222   1.038  15.476 -0.7999  0.3090  0.0633
  270TMC3    C5 4135   0.157   0.923  15.461  0.4393  0.2659  0.3696
  270TMC3    C6 4136   0.023   0.912  15.451  0.0721  0.3139 -1.1840
  270TMC3     C 4137   0.186   1.278  15.456  0.2897  0.1401 -0.5064
  270TMC3     O 4138   0.140   1.383  15.496 -0.4826 -0.1497 -0.0356
  270TMC3     H 4139   4.685   1.234  15.526  0.5906  0.6592 -3.1496
  270TMC3    H1 4140   0.330   1.039  15.463 -0.6379 -0.0750  1.3768
  270TMC3    H2 4141   4.718   0.812  15.458 -2.8969  1.8538  3.2087
  270TMC3    C7 4142   0.251   0.810  15.458 -0.8791  1.0455 -0.3999
  270TMC3    C8 4143   4.565   1.029  15.403 -0.0891  0.2275 -0.0965
  270TMC3    O1 4144   0.359   0.823  15.520 -0.2452  0.7661  0.0543
  270TMC3    O2 4145   4.463   1.072  15.450 -0.3882 -0.6762 -0.2889
  271MPD2     C 4146   4.212   1.011  13.563  0.5659  0.0934 -0.1819
  271MPD2    C1 4147   4.133   0.999  13.680  0.0121 -0.4731 -0.2530
  271MPD2    C2 4148   4.000   1.035  13.679  0.1925 -0.6078 -0.4591
  271MPD2    C3 4149   3.950   1.098  13.566 -0.9676  0.1079 -0.5605
  271MPD2    C4 4150   4.022   1.119  13.454 -0.0506  0.8291 -0.0939
  271MPD2    C5 4151   4.153   1.066  13.448 -0.5929 -0.3761  0.1430
  271MPD2     H 4152   3.939   1.008  13.764  0.9347  1.7062  0.8011
  271MPD2    H1 4153   3.982   1.169  13.367 -3.6730  1.2853  1.8352
  271MPD2    H2 4154   4.319   1.000  13.552  0.6073  1.9444 -1.7603
  271MPD2    H3 4155   4.203   1.072  13.352 -0.8957  2.3356  0.1681
  271MPD2     N 4156   3.813   1.136  13.558 -0.1028  0.2236  0.1825
  271MPD2    H5 4157   3.780   1.170  13.468 -1.2758  1.0023  0.9005
  271MPD2    N1 4158   4.179   0.927  13.794  0.3941 -1.0441 -0.2535
  271MPD2    H7 4159   4.116   0.896  13.867  0.4157 -0.1676  0.1364
  272TMC3    C1 4160   4.317   0.820  13.954  0.7029  0.6071  0.1038
  272TMC3    C2 4161   4.433   0.753  13.977  0.1612 -0.0960  0.5373
  272TMC3    C3 4162   4.457   0.714  14.103 -0.9163  0.4617 -0.0762
  272TMC3    C4 4163   4.231   0.865  14.051 -0.4052  0.5035  0.3388
  272TMC3    C5 4164   4.266   0.829  14.181 -0.4739  0.6943 -0.1118
  272TMC3    C6 4165   4.379   0.762  14.207 -0.1771  0.0516  0.0794
  272TMC3     C 4166   4.308   0.895  13.828  0.2079 -0.5981  0.7600
  272TMC3     O 4167   4.412   0.909  13.764 -0.2429 -0.7577  0.0736
  272TMC3     H 4168   4.486   0.731  13.885  0.0478 -0.1025  0.4736
  272TMC3    H1 4169   4.135   0.912  14.034 -1.9407 -2.2946  1.2560
  272TMC3    H2 4170   4.404   0.739  14.310 -2.1522  1.4661  0.8702
  272TMC3    C7 4171   4.195   0.894  14.288  0.2814 -0.0612  0.3211
  272TMC3    C8 4172   4.596   0.660  14.123  0.8304 -0.6546 -0.5075
  272TMC3    O1 4173   4.074   0.892  14.280 -0.0969 -0.1266  0.7892
  272TMC3    O2 4174   4.679   0.688  14.034 -0.6329 -0.4392  0.2936
  273MPD2     C 4175   0.795   3.332  12.139 -0.2628 -0.4245  0.1570
  273MPD2    C1 4176   0.907   3.394  12.082  0.2391  0.5422 -0.1569
  273MPD2    C2 4177   0.887   3.463  11.963 -0.1247  0.0984  0.4635
  273MPD2    C3 4178   0.765   3.461  11.898 -0.0865 -0.1606  0.2883
  273MPD2    C4 4179   0.661   3.401  11.960  0.5641  0.4109  0.1290
  273MPD2    C5 4180   0.673   3.336  12.079  0.2796 -0.5369 -0.0630
  273MPD2     H 4181   0.973   3.505  11.911 -0.1331 -0.7427 -0.2405
  273MPD2    H1 4182   0.561   3.407  11.920  0.4055  0.7602  0.5721
  273MPD2    H2 4183   0.810   3.284  12.235 -1.3700 -1.3640 -0.1408
  273MPD2    H3 4184   0.594   3.282  12.131 -0.8194  1.6503  0.5593
  273MPD2     N 4185   0.728   3.524  11.772 -0.7360  0.7995  0.2419
  273MPD2    H5 4186   0.633   3.505  11.740 -0.3623  0.1413 -0.4768
  273MPD2    N1 4187   1.027   3.395  12.155 -0.9852  0.1435 -0.3453
  273MPD2    H7 4188   1.034   3.345  12.244 -0.2764  2.7205  1.0580
  274TMC3    C1 4189   0.752   3.673  11.586  0.3577 -0.2792  0.1481
  274TMC3    C2 4190   0.644   3.616  11.527  0.2899 -0.7325 -0.2333
  274TMC3    C3 4191   0.602   3.673  11.410  0.7347  0.2966  0.0097
  274TMC3    C4 4192   0.817   3.780  11.543  0.6865  0.3872  0.2672
  274TMC3    C5 4193   0.756   3.847  11.438 -0.4873 -0.2175 -0.1821
  274TMC3    C6 4194   0.648   3.798  11.371 -0.0537 -0.1694  0.0562
  274TMC3     C 4195   0.816   3.607  11.699  0.4608  0.2525 -0.6280
  274TMC3     O 4196   0.932   3.634  11.725 -0.3715  0.1735  0.5753
  274TMC3     H 4197   0.607   3.519  11.558 -0.6854  0.1284  1.2603
  274TMC3    H1 4198   0.895   3.823  11.605 -0.7715  1.8776  1.0812
  274TMC3    H2 4199   0.619   3.849  11.280 -1.4587  0.4402  0.8374
  274TMC3    C7 4200   0.775   3.993  11.432 -0.1367  0.3492 -1.3394
  274TMC3    C8 4201   0.462   3.640  11.371 -1.1343  1.1230 -0.4701
  274TMC3    O1 4202   0.671   4.057  11.417 -0.2809 -0.2024 -0.0823
  274TMC3    O2 4203   0.405   3.740  11.333  0.0528 -0.0948 -0.6898
  275MPD2     C 4204   0.883   2.243  14.495 -0.0164  0.3123 -0.2829
  275MPD2    C1 4205   0.882   2.101  14.500  0.0551 -0.4160 -0.4145
  275MPD2    C2 4206   0.767   2.028  14.476 -0.6387  0.3294  0.2543
  275MPD2    C3 4207   0.653   2.095  14.437  0.1829 -0.6667  0.4134
  275MPD2    C4 4208   0.655   2.237  14.439 -0.4083 -0.2974 -0.2780
  275MPD2    C5 4209   0.769   2.308  14.463  0.0356 -0.6718 -0.4326
  275MPD2     H 4210   0.779   1.920  14.467  1.8578  0.5782  0.5524
  275MPD2    H1 4211   0.564   2.290  14.415 -0.7238 -0.7238 -0.0209
  275MPD2    H2 4212   0.969   2.305  14.519  1.1866 -0.9620 -1.3460
  275MPD2    H3 4213   0.760   2.416  14.465 -0.8201 -0.7622  0.7249
  275MPD2     N 4214   0.532   2.028  14.396  0.1423 -0.0807 -0.4206
  275MPD2    H5 4215   0.460   2.092  14.363 -1.6537 -1.2569  1.1748
  275MPD2    N1 4216   0.999   2.026  14.515 -0.3414  0.5103 -0.2291
  275MPD2    H7 4217   0.986   1.928  14.537  1.1236  0.2592 -0.4424
  276TMC3    C1 4218   1.216   1.958  14.516 -0.1966  1.1898 -0.0144
  276TMC3    C2 4219   1.166   1.856  14.441  0.2351 -0.2610  0.2616
  276TMC3    C3 4220   1.259   1.758  14.422  0.2149 -0.1510  0.4620
  276TMC3    C4 4221   1.341   1.969  14.576 -0.9228  0.0393 -0.2264
  276TMC3    C5 4222   1.417   1.858  14.555  0.4531  0.3552  0.1614
  276TMC3    C6 4223   1.379   1.755  14.480 -0.1308  0.3378  0.0805
  276TMC3     C 4224   1.130   2.077  14.520 -0.5754 -0.2131 -0.0754
  276TMC3     O 4225   1.169   2.197  14.529 -0.0204 -0.1403  0.6911
  276TMC3     H 4226   1.070   1.844  14.393  0.2874 -3.2489  0.8832
  276TMC3    H1 4227   1.387   2.055  14.624  1.7656 -2.4052  1.6291
  276TMC3    H2 4228   1.453   1.679  14.457  1.3159  1.0876  2.2115
  276TMC3    C7 4229   1.533   1.838  14.634 -0.3871  0.3143 -0.8048
  276TMC3    C8 4230   1.215   1.644  14.360  0.6813 -0.1392 -0.1386
  276TMC3    O1 4231   1.626   1.768  14.596  0.3321  0.2795 -0.6228
  276TMC3    O2 4232   1.147   1.648  14.254 -0.4707 -0.0622 -0.7664
  277MPD2     C 4233   3.123   0.867  13.219  0.0734 -0.2238 -0.0468
  277MPD2    C1 4234   2.984   0.896  13.225 -0.4826 -0.0794 -0.1168
  277MPD2    C2 4235   2.921   0.869  13.348 -0.0077 -0.0183 -0.3785
  277MPD2    C3 4236   2.977   0.798  13.449 -0.0577  0.3147 -0.5094
  277MPD2    C4 4237   3.108   0.764  13.443 -0.0859 -0.4983  0.0775
  277MPD2    C5 4238   3.179   0.804  13.327 -0.4677  0.1631  0.0949
  277MPD2     H 4239   2.814   0.888  13.351  0.3026  1.6966 -0.3221
  277MPD2    H1 4240   3.171   0.738  13.527 -1.1438 -0.6487  0.8322
  277MPD2    H2 4241   3.188   0.877  13.132 -1.4429  0.2148 -1.1451
  277MPD2    H3 4242   3.286   0.789  13.328 -0.0608  3.1644 -0.7671
  277MPD2     N 4243   2.897   0.785  13.559  0.1692  0.3338  0.0804
  277MPD2    H5 4244   2.807   0.829  13.540 -0.2680 -0.5715  0.0581
  277MPD2    N1 4245   2.917   0.948  13.112 -0.4674  0.1200 -0.4691
  277MPD2    H7 4246   2.964   0.991  13.034 -0.0972 -0.7802 -0.7422
  278TMC3    C1 4247   2.775   0.680  13.726 -0.3129  0.2192 -0.4124
  278TMC3    C2 4248   2.761   0.570  13.801 -0.2212  0.2063 -0.0267
  278TMC3    C3 4249   2.635   0.526  13.836 -0.2355 -0.2779  0.0497
  278TMC3    C4 4250   2.672   0.748  13.679 -0.3483  0.9436 -0.3400
  278TMC3    C5 4251   2.550   0.704  13.711 -0.1152  0.6866  0.1275
  278TMC3    C6 4252   2.527   0.590  13.784 -0.4619  0.0076 -0.0202
  278TMC3     C 4253   2.907   0.698  13.668  0.1675 -0.9149  0.7668
  278TMC3     O 4254   2.995   0.617  13.689  0.1087  0.0268  0.0096
  278TMC3     H 4255   2.855   0.525  13.829 -1.2305 -2.0092 -0.2086
  278TMC3    H1 4256   2.685   0.847  13.636  0.7455  0.5095 -1.0148
  278TMC3    H2 4257   2.425   0.565  13.813  0.1258 -3.8473 -1.2722
  278TMC3    C7 4258   2.430   0.781  13.667  0.1904  0.2169 -0.4973
  278TMC3    C8 4259   2.633   0.384  13.872 -0.1893  0.4428  0.1170
  278TMC3    O1 4260   2.445   0.832  13.556  0.4021  0.3558  0.1263
  278TMC3    O2 4261   2.724   0.334  13.932  0.0914 -0.4455  0.7060
  279MPD2     C 4262   1.595   0.646   0.401 -0.4697 -0.5013 -0.1109
  279MPD2    C1 4263   1.564   0.769   0.346  0.2259  0.4267 -0.2504
  279MPD2    C2 4264   1.548   0.782   0.205  0.6163 -0.2526 -0.8232
  279MPD2    C3 4265   1.557   0.663   0.123  0.1441  0.8946 -0.1423
  279MPD2    C4 4266   1.590   0.543   0.187 -0.7294  0.2366  0.1706
  279MPD2    C5 4267   1.599   0.530   0.323 -0.2362  0.0804 -0.7043
  279MPD2     H 4268   1.521   0.877   0.159 -1.8920 -0.3743  0.3783
  279MPD2    H1 4269   1.601   0.448   0.136  0.8293  0.5411 -0.0544
  279MPD2    H2 4270   1.621   0.631   0.505  0.5722  2.3035  0.0261
  279MPD2    H3 4271   1.636   0.437   0.365  0.5018  0.8135  0.2526
  279MPD2     N 4272   1.545   0.665  17.728 -0.1490  0.0027  0.0518
  279MPD2    H5 4273   1.574   0.576  17.688  0.3805  0.1327  0.1509
  279MPD2    N1 4274   1.563   0.871   0.443  0.0635 -0.0265 -0.3783
  279MPD2    H7 4275   1.630   0.852   0.517 -1.4556  0.9308  1.2461
  280TMC3    C1 4276   1.408   1.024   0.342  0.3097 -0.5811  0.2734
  280TMC3    C2 4277   1.312   0.934   0.313 -0.5425  1.0257  0.3321
  280TMC3    C3 4278   1.221   0.969   0.216  0.0768  0.4367  0.4856
  280TMC3    C4 4279   1.418   1.145   0.285 -0.4552 -0.3093  0.0480
  280TMC3    C5 4280   1.327   1.173   0.189 -0.3722  0.6222  0.0558
  280TMC3    C6 4281   1.224   1.091   0.157 -0.6012 -0.1027  0.0217
  280TMC3     C 4282   1.513   1.001   0.440 -0.1623  0.0974  0.6584
  280TMC3     O 4283   1.541   1.094   0.514 -0.8517 -0.0064  0.8123
  280TMC3     H 4284   1.293   0.839   0.361 -1.0304  1.0397  0.1643
  280TMC3    H1 4285   1.501   1.212   0.302 -0.3807 -0.2975 -0.3732
  280TMC3    H2 4286   1.155   1.111   0.077 -1.1927 -2.4125 -0.0469
  280TMC3    C7 4287   1.346   1.304   0.124  0.5878  0.4556 -0.1456
  280TMC3    C8 4288   1.181   0.859   0.135 -0.4965  0.0118  0.0138
  280TMC3    O1 4289   1.456   1.354   0.138  0.5596  0.0194 -0.9642
  280TMC3    O2 4290   1.132   0.764   0.194  0.0774 -0.1516  0.6058
  281TMC3    C1 4291   0.986   1.189  13.455  0.9530  0.2230 -0.5992
  281TMC3    C2 4292   1.090   1.236  13.382  0.3821  0.3027 -0.3070
  281TMC3    C3 4293   1.121   1.178  13.266 -0.0045 -0.4549  0.7423
  281TMC3    C4 4294   0.917   1.078  13.419 -0.0446 -0.0174  1.0719
  281TMC3    C5 4295   0.955   1.016  13.308  0.9307  0.2294  0.7149
  281TMC3    C6 4296   1.074   1.053  13.239 -0.2366 -0.4353 -0.7344
  281TMC3     C 4297   0.936   1.267  13.564  0.2823 -0.1712 -0.5392
  281TMC3     O 4298   0.863   1.209  13.645 -0.0469  0.6502 -0.2569
  281TMC3     H 4299   1.144   1.322  13.419 -1.7363  1.0226  1.1486
  281TMC3    H1 4300   0.822   1.059  13.467 -0.6407 -0.9055 -0.4514
  281TMC3    H2 4301   1.112   0.992  13.158  0.4492 -1.6104  0.4783
  281TMC3    C7 4302   0.906   0.878  13.290  0.2726 -0.3174 -0.2318
  281TMC3    C8 4303   1.223   1.242  13.179 -0.4280  0.9807  0.4225
  281TMC3    O1 4304   0.994   0.811  13.234  0.5648 -0.0169 -0.2778
  281TMC3    O2 4305   1.310   1.175  13.126  0.0289  0.0768 -0.1229
  282MPD2     C 4306   2.561   2.466  15.040 -0.0738  0.2168 -0.0930
  282MPD2    C1 4307   2.433   2.515  15.023  0.1583 -0.0143 -0.5223
  282MPD2    C2 4308   2.370   2.517  14.899 -0.2542 -0.7288  0.3002
  282MPD2    C3 4309   2.442   2.471  14.791  0.3016  0.3327 -0.8044
  282MPD2    C4 4310   2.571   2.426  14.811  0.1907  0.5910  0.0613
  282MPD2    C5 4311   2.630   2.424  14.934 -0.4445  0.4188  0.2788
  282MPD2     H 4312   2.265   2.545  14.897  0.3251  1.2112 -2.3683
  282MPD2    H1 4313   2.642   2.394  14.736 -2.2216  0.4696 -2.1969
  282MPD2    H2 4314   2.615   2.444  15.132 -0.1380  0.6212  0.0411
  282MPD2    H3 4315   2.732   2.389  14.945 -0.0812  0.9998 -1.1534
  282MPD2     N 4316   2.383   2.483  14.661  0.1766 -0.1302  0.3594
  282MPD2    H5 4317   2.298   2.539  14.657 -0.9679 -1.6721  3.0394
  282MPD2    N1 4318   2.358   2.545  15.139 -0.3004  0.3182  1.0059
  282MPD2    H7 4319   2.257   2.546  15.130 -0.3878 -0.7562  1.9098
  283TMC3    C1 4320   2.314   2.608  15.364  0.5321  0.4846 -0.3456
  283TMC3    C2 4321   2.334   2.724  15.424  0.3450  0.0818 -0.0158
  283TMC3    C3 4322   2.304   2.732  15.562 -0.0167 -0.0096  0.4048
  283TMC3    C4 4323   2.262   2.497  15.429  1.3124 -0.5812 -0.2802
  283TMC3    C5 4324   2.229   2.504  15.560  0.2455 -0.5847  0.5536
  283TMC3    C6 4325   2.241   2.630  15.628 -0.3028 -0.0317 -0.0605
  283TMC3     C 4326   2.415   2.573  15.261  0.9406  0.6544 -0.1351
  283TMC3     O 4327   2.527   2.620  15.282 -0.1729  0.0391 -0.5812
  283TMC3     H 4328   2.386   2.807  15.377  0.5612 -0.1307 -0.1560
  283TMC3    H1 4329   2.253   2.408  15.368  0.0950 -1.6380  1.4295
  283TMC3    H2 4330   2.228   2.643  15.735 -0.4181  0.1539 -0.0979
  283TMC3    C7 4331   2.158   2.392  15.620  0.6241  0.1941  0.1123
  283TMC3    C8 4332   2.292   2.858  15.619 -0.4379  0.0022 -0.8161
  283TMC3    O1 4333   2.101   2.422  15.724 -0.1636 -0.1580 -0.1071
  283TMC3    O2 4334   2.285   2.866  15.744 -0.7004 -0.0416 -0.0547
  284MPD2     C 4335   0.955   2.075  11.488 -0.3382  0.2492 -0.8651
  284MPD2    C1 4336   1.078   2.047  11.438 -0.3603  0.4281 -0.0428
  284MPD2    C2 4337   1.169   2.006  11.528  0.7374  0.1322  0.4252
  284MPD2    C3 4338   1.149   1.992  11.659  0.3166  0.8517  0.0981
  284MPD2    C4 4339   1.030   2.028  11.710 -0.0957 -0.0171 -0.5847
  284MPD2    C5 4340   0.937   2.072  11.622 -0.1832  0.0444 -0.2030
  284MPD2     H 4341   1.265   1.973  11.490  1.1971  1.9060  0.0313
  284MPD2    H1 4342   1.003   2.031  11.815  0.7334 -0.9128 -0.3439
  284MPD2    H2 4343   0.875   2.106  11.421  0.5331  0.5420 -1.7601
  284MPD2    H3 4344   0.839   2.103  11.654 -0.3794 -1.2308  0.4447
  284MPD2     N 4345   1.258   1.948  11.741  0.1471 -1.1454 -0.3824
  284MPD2    H5 4346   1.347   1.929  11.697  1.0520  1.7313  0.2317
  284MPD2    N1 4347   1.102   2.046  11.291 -0.8140 -0.1028  0.2018
  284MPD2    H7 4348   1.030   2.079  11.229 -2.0198 -3.1253 -0.0494
  285TMC3    C1 4349   1.208   2.011  11.088  0.0313  0.2217  0.9096
  285TMC3    C2 4350   1.300   1.941  11.014  0.1329 -0.4361 -0.9059
  285TMC3    C3 4351   1.265   1.932  10.883 -0.6923 -0.1360  0.3932
  285TMC3    C4 4352   1.099   2.080  11.029  0.6114  0.5084  0.3073
  285TMC3    C5 4353   1.077   2.072  10.899 -0.0490 -0.4811  0.2302
  285TMC3    C6 4354   1.159   1.998  10.828  0.8581 -0.3867 -0.8731
  285TMC3     C 4355   1.218   1.997  11.227  0.3661 -0.8652 -0.2374
  285TMC3     O 4356   1.325   1.953  11.274 -0.3815  0.5062  0.3738
  285TMC3     H 4357   1.374   1.882  11.067  1.8546  1.3123 -1.3420
  285TMC3    H1 4358   1.044   2.157  11.083  2.8580  2.5831 -0.3654
  285TMC3    H2 4359   1.138   1.997  10.722 -1.0612  0.9640 -0.4881
  285TMC3    C7 4360   1.002   2.179  10.830 -0.4162 -0.3385 -0.5522
  285TMC3    C8 4361   1.299   1.815  10.816 -0.4472 -0.6594  0.1920
  285TMC3    O1 4362   0.923   2.162  10.740 -0.0087 -0.0755 -0.3533
  285TMC3    O2 4363   1.220   1.752  10.745  0.4715  0.0598 -0.2833
  286MPD2     C 4364   0.722   0.348   1.424  0.1395  0.0007 -0.2001
  286MPD2    C1 4365   0.711   0.350   1.289  0.7277 -0.0205  0.0986
  286MPD2    C2 4366   0.765   0.257   1.208 -0.5331  0.7184 -0.5030
  286MPD2    C3 4367   0.850   0.157   1.252  0.3227 -0.6319  0.4306
  286MPD2    C4 4368   0.866   0.158   1.390 -0.3210 -0.2371  0.5327
  286MPD2    C5 4369   0.800   0.246   1.472 -0.6068 -0.3766  0.8008
  286MPD2     H 4370   0.735   0.264   1.104 -1.1819  0.0761 -0.3645
  286MPD2    H1 4371   0.935   0.088   1.436 -0.4589 -0.6336  0.1315
  286MPD2    H2 4372   0.666   0.414   1.490 -0.9299  0.3337 -1.4591
  286MPD2    H3 4373   0.822   0.253   1.578 -0.7873  0.2645  0.7986
  286MPD2     N 4374   0.898   0.052   1.171  0.3213 -0.2861 -0.3309
  286MPD2    H5 4375   0.957   4.723   1.221  1.0229  1.7233  1.4327
  286MPD2    N1 4376   0.629   0.446   1.226 -0.2733 -0.6232 -0.0352
  286MPD2    H7 4377   0.633   0.444   1.124 -2.3604  0.8647 -0.1451
  287TMC3    C1 4378   0.903   4.631   1.002 -0.1999 -0.1133 -0.0264
  287TMC3    C2 4379   0.817   4.560   0.928  0.1366 -0.0235  0.7946
  287TMC3    C3 4380   0.864   4.446   0.876  0.6865  0.9546 -0.1271
  287TMC3    C4 4381   1.030   4.594   1.025  0.2263 -0.2432  0.6625
  287TMC3    C5 4382   1.077   4.478   0.963  0.4153 -0.7677  0.4016
  287TMC3    C6 4383   0.995   4.401   0.890 -0.2392  0.1987 -0.0028
  287TMC3     C 4384   0.865   0.028   1.040 -0.4705  0.0192  1.2848
  287TMC3     O 4385   0.786   0.091   0.969  0.2544  0.5979 -0.1657
  287TMC3     H 4386   0.710   4.577   0.921 -0.2760 -2.5614  0.6283
  287TMC3    H1 4387   1.095   4.657   1.085 -0.7188 -0.3420  1.7691
  287TMC3    H2 4388   1.017   4.303   0.848 -0.1364  0.5138 -0.6901
  287TMC3    C7 4389   1.214   4.455   0.960 -0.3829 -0.0432 -0.0607
  287TMC3    C8 4390   0.779   4.356   0.787 -0.2639 -0.1768  0.4640
  287TMC3    O1 4391   1.283   4.519   1.045  0.3844  0.7636 -0.4752
  287TMC3    O2 4392   0.809   4.238   0.797  0.0106 -1.2472  0.0939
  288TMC3    C1 4393   2.784   0.293  14.281 -0.1757  0.2942  0.4513
  288TMC3    C2 4394   2.674   0.322  14.350 -0.1908  0.5234  0.2452
  288TMC3    C3 4395   2.629   0.456  14.363 -0.3916 -0.1374 -1.4058
  288TMC3    C4 4396   2.856   0.394  14.224  0.0717 -0.2290  0.2036
  288TMC3    C5 4397   2.815   0.518  14.236  0.2632 -0.2708  0.5168
  288TMC3    C6 4398   2.696   0.553  14.296  0.4405  0.3659  0.2006
  288TMC3     C 4399   2.802   0.154  14.237 -0.1273  0.3457  0.7437
  288TMC3     O 4400   2.784   0.061  14.316  0.2253 -0.1817  0.3835
  288TMC3     H 4401   2.617   0.239  14.390 -0.6681  0.8285  0.2050
  288TMC3    H1 4402   2.940   0.367  14.160 -0.5494 -1.6134 -0.0127
  288TMC3    H2 4403   2.672   0.659  14.304 -0.2186  0.2849 -0.6603
  288TMC3    C7 4404   2.878   0.622  14.150  0.1169 -0.4975  0.1939
  288TMC3    C8 4405   2.514   0.493  14.441 -0.4660  0.6102 -0.4638
  288TMC3    O1 4406   2.984   0.583  14.100  0.2017  0.2507  0.0260
  288TMC3    O2 4407   2.501   0.614  14.432 -0.2811 -0.8489 -0.5061
  289MPD2     C 4408   2.778   4.032  14.442 -0.3960  0.0812 -0.0228
  289MPD2    C1 4409   2.782   4.161  14.399 -0.0672 -0.2037 -0.1938
  289MPD2    C2 4410   2.694   4.188  14.292  0.6803 -0.2403 -0.1294
  289MPD2    C3 4411   2.599   4.092  14.251  0.2491 -0.8959  0.7903
  289MPD2    C4 4412   2.587   3.974  14.319 -0.4608 -0.2887  0.2359
  289MPD2    C5 4413   2.681   3.945  14.404  0.9994  0.0134  0.1762
  289MPD2     H 4414   2.700   4.283  14.241  0.4930  0.7050  1.6128
  289MPD2    H1 4415   2.520   3.898  14.280 -1.7633  1.6575 -1.3120
  289MPD2    H2 4416   2.851   3.993  14.512  0.4254  1.2390 -0.2339
  289MPD2    H3 4417   2.686   3.846  14.448 -0.2790 -0.4876 -0.7915
  289MPD2     N 4418   2.502   4.115  14.155 -0.0517 -0.7247  0.3666
  289MPD2    H5 4419   2.456   4.028  14.129 -1.0984  0.1606 -0.6925
  289MPD2    N1 4420   2.874   4.254  14.461 -0.0260  0.2238  0.0643
  289MPD2    H7 4421   2.930   4.226  14.540 -0.4554 -3.7783 -1.0508
  290TMC3    C1 4422   2.382   4.209  13.984 -0.4703 -0.0978  0.1561
  290TMC3    C2 4423   2.324   4.333  13.953  0.2703  0.2995 -0.3598
  290TMC3    C3 4424   2.287   4.344  13.817  0.0938 -0.3235  0.7349
  290TMC3    C4 4425   2.360   4.097  13.906  0.0443 -0.1047 -0.3147
  290TMC3    C5 4426   2.304   4.117  13.780  0.0883  1.0017  0.5101
  290TMC3    C6 4427   2.279   4.243  13.731  0.2690  0.6186  0.0212
  290TMC3     C 4428   2.489   4.229  14.082 -0.5657 -0.3530  0.5757
  290TMC3     O 4429   2.547   4.337  14.083  0.2781 -0.1376 -0.0687
  290TMC3     H 4430   2.340   4.422  14.011  1.1766 -0.8985  1.2257
  290TMC3    H1 4431   2.409   4.003  13.926 -0.9228 -0.2902  1.1993
  290TMC3    H2 4432   2.245   4.262  13.630  0.3175  0.1066 -0.0909
  290TMC3    C7 4433   2.269   4.003  13.702 -0.2935 -0.1810  0.5086
  290TMC3    C8 4434   2.198   4.460  13.783 -0.4623  0.2818  0.6450
  290TMC3    O1 4435   2.217   4.035  13.593 -0.3504  0.1572 -0.5856
  290TMC3    O2 4436   2.118   4.432  13.699  0.2821  0.0368  0.6358
  291MPD2     C 4437   1.846   4.184   0.553  0.9974  0.1376 -0.3973
  291MPD2    C1 4438   1.951   4.108   0.512  0.5098 -0.0403  0.1330
  291MPD2    C2 4439   2.058   4.178   0.457 -0.1660  0.1571 -0.2187
  291MPD2    C3 4440   2.068   4.316   0.453  0.9411 -0.2792  0.0227
  291MPD2    C4 4441   1.968   4.391   0.500  0.1028  0.1750  0.1713
  291MPD2    C5 4442   1.854   4.324   0.538 -0.0976  0.8692  0.0485
  291MPD2     H 4443   2.142   4.116   0.429 -0.3985 -0.6194  0.8449
  291MPD2    H1 4444   1.964   4.498   0.516 -0.5532  0.1388  0.2521
  291MPD2    H2 4445   1.752   4.145   0.591  1.9167 -1.9124 -0.2796
  291MPD2    H3 4446   1.769   4.387   0.563 -1.0071 -0.7664  1.1178
  291MPD2     N 4447   2.185   4.381   0.409 -0.5136  0.1528  0.0632
  291MPD2    H5 4448   2.183   4.480   0.431 -0.6038  0.5411 -1.6648
  291MPD2    N1 4449   1.948   3.962   0.513  0.6619 -0.1961  0.0086
  291MPD2    H7 4450   1.990   3.915   0.433 -2.0760 -3.7859  0.7147
  292TMC3    C1 4451   1.854   3.753   0.547  0.1596 -0.5952  0.4295
  292TMC3    C2 4452   1.872   3.655   0.637 -0.2717 -0.7058  0.2042
  292TMC3    C3 4453   1.921   3.537   0.584  0.2843  0.0912 -0.2924
  292TMC3    C4 4454   1.855   3.733   0.410 -0.3544  0.0604  0.1888
  292TMC3    C5 4455   1.889   3.614   0.366 -0.7137 -0.6387 -0.3690
  292TMC3    C6 4456   1.931   3.518   0.453  1.0319  0.0012 -0.2015
  292TMC3     C 4457   1.869   3.888   0.591  0.2625  0.3862  0.2779
  292TMC3     O 4458   1.829   3.922   0.707  0.0746 -0.4958  0.0235
  292TMC3     H 4459   1.884   3.685   0.741  0.7452 -0.0310 -0.1190
  292TMC3    H1 4460   1.822   3.816   0.349  0.3998  1.8000  2.1523
  292TMC3    H2 4461   1.961   3.423   0.409 -2.0687 -0.6349 -0.9330
  292TMC3    C7 4462   1.809   3.553   0.265  0.1944  0.3272  0.1878
  292TMC3    C8 4463   1.988   3.454   0.673  0.3487  0.3461  0.6692
  292TMC3    O1 4464   1.871   3.493   0.177 -0.2952 -0.0373 -0.0664
  292TMC3    O2 4465   2.097   3.414   0.644  0.5353  0.0679  0.2504
  293MPD2     C 4466   3.564   0.272  13.010  0.1817  0.2925  0.6836
  293MPD2    C1 4467   3.638   0.385  12.980 -0.1851  0.2423 -0.2792
  293MPD2    C2 4468   3.744   0.429  13.069  0.0753 -0.1409 -0.4228
  293MPD2    C3 4469   3.761   0.363  13.191 -0.1234  0.5884 -0.8739
  293MPD2    C4 4470   3.686   0.256  13.224  0.2369  0.6125  0.3223
  293MPD2    C5 4471   3.592   0.213  13.131  0.7010  0.8290 -0.1876
  293MPD2     H 4472   3.796   0.521  13.046  0.9915 -0.9161 -1.4522
  293MPD2    H1 4473   3.684   0.201  13.318  0.4220  0.5623  0.2956
  293MPD2    H2 4474   3.489   0.233  12.944 -0.0756 -0.8963  1.6714
  293MPD2    H3 4475   3.529   0.129  13.161 -2.2774  2.4457 -1.8941
  293MPD2     N 4476   3.852   0.422  13.281 -0.3786  0.2666  0.4240
  293MPD2    H5 4477   3.893   0.511  13.254  0.1617  0.2903  1.3139
  293MPD2    N1 4478   3.603   0.456  12.860 -0.7014 -0.1031 -0.4868
  293MPD2    H7 4479   3.537   0.412  12.796 -1.5774 -0.7946  0.8865
  294TMC3    C1 4480   3.612   0.621  12.695  0.6871  0.1673 -0.3225
  294TMC3    C2 4481   3.486   0.587  12.672  0.1276  0.6423 -0.0801
  294TMC3    C3 4482   3.442   0.552  12.547  0.5700 -0.7140  0.2969
  294TMC3    C4 4483   3.706   0.617  12.598  0.5642  0.5546 -0.3587
  294TMC3    C5 4484   3.661   0.590  12.472  0.1739 -0.4190 -0.2241
  294TMC3    C6 4485   3.535   0.554  12.446 -0.3308 -0.4904 -0.0410
  294TMC3     C 4486   3.662   0.571  12.823  0.3744 -0.8450  0.0236
  294TMC3     O 4487   3.747   0.640  12.880 -0.6756  0.3493  0.0220
  294TMC3     H 4488   3.411   0.573  12.749  0.4709  0.4624  0.2172
  294TMC3    H1 4489   3.805   0.655  12.619  0.6042 -0.6220  1.5705
  294TMC3    H2 4490   3.511   0.536  12.342 -2.4119  0.9005  0.1969
  294TMC3    C7 4491   3.747   0.545  12.371 -0.4498  0.5682  0.0463
  294TMC3    C8 4492   3.306   0.501  12.528 -0.1145  0.2052  0.5315
  294TMC3    O1 4493   3.717   0.568  12.254  0.3464 -0.5427  0.0860
  294TMC3    O2 4494   3.231   0.539  12.618 -0.2058  0.1223  0.1464
  295MPD2     C 4495   0.082   4.035   0.717  0.2622  0.1558  0.4484
  295MPD2    C1 4496   0.029   3.924   0.656  0.3567  0.4203  0.5317
  295MPD2    C2 4497   0.025   3.807   0.737  0.4526  0.7339  0.2712
  295MPD2    C3 4498   0.077   3.802   0.866 -0.3696 -0.6485 -0.6526
  295MPD2    C4 4499   0.120   3.918   0.924 -0.3377  0.5901 -0.3918
  295MPD2    C5 4500   0.120   4.032   0.847  0.4413 -0.3729  0.1948
  295MPD2     H 4501   4.715   3.727   0.680  0.5106  0.7919  0.1428
  295MPD2    H1 4502   0.166   3.924   1.022 -0.2099 -2.0894 -0.2865
  295MPD2    H2 4503   0.089   4.131   0.668 -0.2630 -0.0424 -0.0107
  295MPD2    H3 4504   0.164   4.121   0.890  2.2091 -2.4309  2.6754
  295MPD2     N 4505   0.075   3.679   0.936  0.8605 -0.4029  0.4019
  295MPD2    H5 4506   0.123   3.676   1.025  2.2653 -1.0161 -0.3668
  295MPD2    N1 4507   4.732   3.925   0.519 -0.2372  0.3232 -0.2415
  295MPD2    H7 4508   4.697   3.836   0.484 -1.3351 -0.5394  3.1355
  296TMC3    C1 4509   0.045   3.450   0.981 -0.2252 -1.9248 -0.0090
  296TMC3    C2 4510   0.070   3.470   1.117 -0.1430  0.3609  0.4974
  296TMC3    C3 4511   0.053   3.369   1.200  0.7884 -0.0430 -0.5816
  296TMC3    C4 4512   0.005   3.326   0.938 -0.0296  0.2869 -0.5419
  296TMC3    C5 4513   0.005   3.218   1.028 -0.5768  0.0261  0.5873
  296TMC3    C6 4514   0.028   3.240   1.162 -0.4886  0.1850  0.9678
  296TMC3     C 4515   0.046   3.559   0.881  0.1319  0.2234 -1.0958
  296TMC3     O 4516   0.028   3.525   0.766  0.5517 -0.2877  0.4376
  296TMC3     H 4517   0.116   3.561   1.152  0.6401  0.5591 -1.0902
  296TMC3    H1 4518   4.712   3.309   0.835 -1.3874  1.4967 -0.3461
  296TMC3    H2 4519   0.031   3.162   1.237 -0.9335 -0.7174  0.0442
  296TMC3    C7 4520   4.714   3.084   0.977  0.1561 -0.5165  0.7204
  296TMC3    C8 4521   0.121   3.378   1.334  0.9828  0.3955 -0.3242
  296TMC3    O1 4522   0.003   3.068   0.855  0.3295  0.5585  0.1988
  296TMC3    O2 4523   0.163   3.274   1.387 -0.1248  0.4458  0.1393
  297MPD2     C 4524   0.988   1.213  15.841 -0.1767 -0.1724 -0.1024
  297MPD2    C1 4525   0.984   1.330  15.776  0.4172 -0.0454 -0.2565
  297MPD2    C2 4526   1.088   1.423  15.796  0.0427 -0.3028 -0.5442
  297MPD2    C3 4527   1.192   1.403  15.881 -0.5160  0.0911 -0.2060
  297MPD2    C4 4528   1.197   1.286  15.951  0.0073 -0.3978 -0.2859
  297MPD2    C5 4529   1.093   1.195  15.929  0.0855  0.6523 -0.2022
  297MPD2     H 4530   1.068   1.516  15.745  0.2596 -0.2292 -0.4944
  297MPD2    H1 4531   1.271   1.272  16.029 -1.3869 -0.5250  1.0157
  297MPD2    H2 4532   0.921   1.128  15.830 -0.6749  0.0106  1.5767
  297MPD2    H3 4533   1.101   1.106  15.990 -0.9908  0.2394 -0.6496
  297MPD2     N 4534   1.293   1.498  15.882  0.5228  0.1390  0.0672
  297MPD2    H5 4535   1.374   1.476  15.939  0.5234  0.2509  0.1106
  297MPD2    N1 4536   0.875   1.377  15.702  0.3584  0.5017  0.6071
  297MPD2    H7 4537   0.875   1.471  15.663 -0.9216 -0.1329 -0.9011
  298TMC3    C1 4538   0.640   1.387  15.656  0.7856 -0.1254 -0.0466
  298TMC3    C2 4539   0.660   1.495  15.569 -0.4060 -0.1203 -0.2132
  298TMC3    C3 4540   0.565   1.585  15.540 -0.5390  0.3777  0.0861
  298TMC3    C4 4541   0.524   1.378  15.721  0.4330 -0.1030  0.6209
  298TMC3    C5 4542   0.426   1.469  15.684 -0.1834  0.0296 -0.7445
  298TMC3    C6 4543   0.441   1.576  15.601 -0.3992 -0.8446  0.2212
  298TMC3     C 4544   0.754   1.311  15.706  0.2091 -0.5137 -0.1513
  298TMC3     O 4545   0.715   1.215  15.772  0.8012  1.0215  0.0578
  298TMC3     H 4546   0.743   1.501  15.500 -1.1156  1.7111 -0.8979
  298TMC3    H1 4547   0.503   1.303  15.797 -1.6325  0.5343  0.6782
  298TMC3    H2 4548   0.367   1.655  15.601  0.5927  0.0869  2.4515
  298TMC3    C7 4549   0.334   1.491  15.792  0.7652  0.1691  0.3329
  298TMC3    C8 4550   0.602   1.716  15.478 -0.0432 -0.6015  0.1813
  298TMC3    O1 4551   0.371   1.464  15.908 -0.4651 -0.9478  0.0701
  298TMC3    O2 4552   0.717   1.731  15.445 -0.4849  0.5094  0.0598
  299MPD2     C 4553   1.965   0.189  10.385 -0.2564 -0.6218 -0.6622
  299MPD2    C1 4554   2.016   0.288  10.303  0.0919  0.3388 -0.4842
  299MPD2    C2 4555   1.934   0.340  10.209 -0.2228 -0.0054 -0.0572
  299MPD2    C3 4556   1.810   0.285  10.179  0.0188 -0.3749  0.2049
  299MPD2    C4 4557   1.756   0.190  10.264 -0.2141 -0.0955  0.2685
  299MPD2    C5 4558   1.837   0.147  10.365  0.3289  0.3383  0.5229
  299MPD2     H 4559   1.971   0.422  10.147 -0.0632 -0.1268 -0.1238
  299MPD2    H1 4560   1.654   0.153  10.256  0.7226 -2.8099  0.8899
  299MPD2    H2 4561   2.031   0.142  10.457 -0.5564  0.6221  0.4263
  299MPD2    H3 4562   1.803   0.069  10.432  1.7411 -1.5847 -0.9828
  299MPD2     N 4563   1.727   0.347  10.083  0.6613 -0.1451  0.2928
  299MPD2    H5 4564   1.627   0.336  10.098  0.2458  1.3949 -1.3487
  299MPD2    N1 4565   2.148   0.344  10.318  0.0206 -0.2094  0.4752
  299MPD2    H7 4566   2.190   0.320  10.407  0.0263  0.6333  0.7058
  300TMC3    C1 4567   1.677   0.462   9.868 -0.3212 -0.3003 -0.4336
  300TMC3    C2 4568   1.723   0.521   9.754  0.0861 -0.7805 -0.0291
  300TMC3    C3 4569   1.648   0.610   9.685 -0.3653  0.2162 -0.1135
  300TMC3    C4 4570   1.556   0.497   9.916 -0.4713  0.4201  0.4432
  300TMC3    C5 4571   1.488   0.595   9.854  0.2848  0.8300  0.2945
  300TMC3    C6 4572   1.526   0.649   9.735 -0.1557  0.6008  0.5207
  300TMC3     C 4573   1.774   0.399   9.964  0.5845  0.1212 -0.6045
  300TMC3     O 4574   1.890   0.391   9.918 -0.1859 -0.3381  0.0766
  300TMC3     H 4575   1.825   0.499   9.725 -0.7425  1.2206 -4.4319
  300TMC3    H1 4576   1.519   0.471  10.014  0.1308  2.6215  1.2585
  300TMC3    H2 4577   1.476   0.730   9.683 -1.2014 -0.8063 -0.6702
  300TMC3    C7 4578   1.353   0.614   9.898  0.5798 -0.3930 -0.0218
  300TMC3    C8 4579   1.715   0.727   9.622  0.1533 -0.1812 -0.8759
  300TMC3    O1 4580   1.268   0.605   9.811 -0.1409 -0.4455 -0.4580
  300TMC3    O2 4581   1.675   0.758   9.508  0.1004 -0.5330 -0.0421
  301MPD2     C 4582   3.710   1.672   1.078  0.0920 -0.8045  0.7617
  301MPD2    C1 4583   3.609   1.682   0.984  0.0167  0.8222  0.2851
  301MPD2    C2 4584   3.598   1.596   0.883 -0.4159 -0.5888 -0.5757
  301MPD2    C3 4585   3.674   1.481   0.885  0.3282  0.0107 -0.3729
  301MPD2    C4 4586   3.767   1.460   0.983  0.8752  0.1013 -0.4806
  301MPD2    C5 4587   3.785   1.559   1.076 -0.0172 -0.1992  0.2679
  301MPD2     H 4588   3.516   1.601   0.812  0.2635  3.4663 -1.0488
  301MPD2    H1 4589   3.823   1.368   0.989  0.8257  0.3494  3.8399
  301MPD2    H2 4590   3.730   1.747   1.154 -0.6091  0.4148 -0.2415
  301MPD2    H3 4591   3.859   1.534   1.152 -1.5376  1.4044  2.2955
  301MPD2     N 4592   3.654   1.368   0.794  0.1333 -0.3879  0.0833
  301MPD2    H5 4593   3.689   1.275   0.818 -2.0710 -1.8125 -2.2284
  301MPD2    N1 4594   3.518   1.790   0.980  0.8172  0.4418 -0.2049
  301MPD2    H7 4595   3.446   1.802   0.910  0.6410  1.2012  0.1009
  302TMC3    C1 4596   3.585   1.246   0.600  0.3142 -0.3880  0.7208
  302TMC3    C2 4597   3.659   1.139   0.647 -0.0229  0.5965  0.6524
  302TMC3    C3 4598   3.672   1.040   0.555  1.2712  0.1567  0.6296
  302TMC3    C4 4599   3.525   1.255   0.476 -0.2118 -0.3967  0.0023
  302TMC3    C5 4600   3.561   1.159   0.383 -0.5147  0.4880 -0.2015
  302TMC3    C6 4601   3.629   1.050   0.423  0.1149  0.5495  0.1409
  302TMC3     C 4602   3.588   1.376   0.671 -0.1788 -0.8934 -0.3586
  302TMC3     O 4603   3.542   1.470   0.614  0.1884 -0.1343  0.2268
  302TMC3     H 4604   3.692   1.129   0.750 -1.2562  1.4387  1.1306
  302TMC3    H1 4605   3.481   1.348   0.443 -1.3751 -1.0972 -0.4173
  302TMC3    H2 4606   3.665   0.978   0.351 -0.3155 -1.4347  1.9019
  302TMC3    C7 4607   3.515   1.168   0.250  0.4231  0.1136 -0.0482
  302TMC3    C8 4608   3.745   0.922   0.596  0.3111  0.1871 -0.1067
  302TMC3    O1 4609   3.595   1.128   0.162  0.2129  0.0905 -0.5734
  302TMC3    O2 4610   3.764   0.912   0.717  0.1021  0.2657 -0.1236
  303MPD2     C 4611   4.462   0.435  10.566  0.6427  0.4734  0.2159
  303MPD2    C1 4612   4.323   0.428  10.613 -0.3905 -0.5334 -0.0069
  303MPD2    C2 4613   4.238   0.525  10.555  0.1392 -0.1921  0.7330
  303MPD2    C3 4614   4.267   0.586  10.434  0.2823  0.2091  0.6926
  303MPD2    C4 4615   4.399   0.589  10.394 -0.0093  0.0151  0.0347
  303MPD2    C5 4616   4.490   0.519  10.461  0.3586  0.0484 -0.8007
  303MPD2     H 4617   4.133   0.514  10.583  0.0251 -0.6304  0.1358
  303MPD2    H1 4618   4.431   0.650  10.310  3.2796 -1.4262  0.2524
  303MPD2    H2 4619   4.544   0.375  10.606 -0.5610 -2.0465 -1.0854
  303MPD2    H3 4620   4.596   0.524  10.440  0.7575 -1.4128  0.8805
  303MPD2     N 4621   4.171   0.672  10.380 -0.3188  0.0452 -0.1807
  303MPD2    H5 4622   4.202   0.740  10.311  1.8011  0.5917  1.2957
  303MPD2    N1 4623   4.274   0.330  10.706 -0.0602 -0.5745 -0.4987
  303MPD2    H7 4624   4.339   0.254  10.720  1.6839  1.0333  0.1466
  304TMC3    C1 4625   4.139   0.201  10.849  0.5075  0.2799 -0.6509
  304TMC3    C2 4626   4.020   0.201  10.924 -0.3859 -0.1534 -0.0740
  304TMC3    C3 4627   3.965   0.082  10.968  0.9211 -0.7628  0.0157
  304TMC3    C4 4628   4.191   0.083  10.799 -0.0066  0.0652  0.1635
  304TMC3    C5 4629   4.127   4.704  10.834  0.0863  0.7021  0.2934
  304TMC3    C6 4630   4.031   4.702  10.926  0.5046  0.5040 -0.1169
  304TMC3     C 4631   4.160   0.329  10.777 -0.4918  0.3098  0.4067
  304TMC3     O 4632   4.072   0.417  10.788  0.6808 -0.8197 -0.6685
  304TMC3     H 4633   3.983   0.292  10.968 -1.0969 -0.9938  1.0711
  304TMC3    H1 4634   4.278   0.074  10.735 -0.7720  1.9428 -1.1227
  304TMC3    H2 4635   3.987   4.608  10.958 -1.0364  1.1625 -0.2937
  304TMC3    C7 4636   4.105   4.617  10.716 -0.4474 -0.2077 -0.5446
  304TMC3    C8 4637   3.822   0.063  10.966 -0.3808  0.0496  0.6771
  304TMC3    O1 4638   4.182   4.615  10.620 -0.2065 -0.4233 -0.6062
  304TMC3    O2 4639   3.785   4.698  10.905  0.0598 -0.5944  0.4687
  305MPD2     C 4640   2.356   2.690  14.061  0.2031 -0.2678 -0.3115
  305MPD2    C1 4641   2.492   2.670  14.072  0.5147  0.1505  0.1968
  305MPD2    C2 4642   2.566   2.645  13.953 -0.5443  0.3561  0.3895
  305MPD2    C3 4643   2.505   2.637  13.828  0.0370  0.3727  0.2273
  305MPD2    C4 4644   2.371   2.670  13.826  0.0091 -0.0617  0.0585
  305MPD2    C5 4645   2.300   2.692  13.940 -0.9669  0.3989 -0.1860
  305MPD2     H 4646   2.670   2.616  13.957 -0.1802  1.4924 -0.8175
  305MPD2    H1 4647   2.308   2.692  13.741  1.0397 -0.3110 -0.7611
  305MPD2    H2 4648   2.299   2.714  14.149 -0.8242 -2.3570 -0.4140
  305MPD2    H3 4649   2.194   2.711  13.939 -0.4670  3.1687  0.7022
  305MPD2     N 4650   2.571   2.629  13.710 -0.1122  0.1634  0.4912
  305MPD2    H5 4651   2.520   2.660  13.628  2.0121  3.2920  0.3374
  305MPD2    N1 4652   2.546   2.671  14.204  0.3635  0.4442 -0.2370
  305MPD2    H7 4653   2.479   2.695  14.277  0.2899  2.6635 -1.0327
  306TMC3    C1 4654   2.689   2.636  14.390  0.3803 -0.2547 -0.4522
  306TMC3    C2 4655   2.782   2.556  14.451 -0.7405 -0.6703 -0.0412
  306TMC3    C3 4656   2.798   2.562  14.589  0.4817  0.2711 -0.0388
  306TMC3    C4 4657   2.623   2.733  14.465  0.4028  0.5083 -0.4743
  306TMC3    C5 4658   2.628   2.733  14.601 -0.3513 -0.0310 -0.1161
  306TMC3    C6 4659   2.720   2.649  14.663  0.3525 -0.1085 -0.2779
  306TMC3     C 4660   2.672   2.624  14.244 -0.4171  0.5672 -0.6766
  306TMC3     O 4661   2.748   2.558  14.175 -0.5679 -0.0312 -0.0988
  306TMC3     H 4662   2.832   2.481  14.390 -3.6988 -1.0200 -2.0899
  306TMC3    H1 4663   2.558   2.805  14.416  0.4644  0.9323  0.0644
  306TMC3    H2 4664   2.717   2.637  14.771  1.2157 -0.1456 -0.2592
  306TMC3    C7 4665   2.526   2.800  14.680  0.1976  0.0843  0.1737
  306TMC3    C8 4666   2.889   2.467  14.645  0.5558 -0.5208  0.3041
  306TMC3    O1 4667   2.417   2.804  14.626  0.1079  1.2500  0.3870
  306TMC3    O2 4668   2.921   2.374  14.572 -0.1206 -0.4342  0.1516
  307MPD2     C 4669   0.304   1.007   0.328  0.1654  0.1257 -0.2061
  307MPD2    C1 4670   0.184   1.063   0.347 -0.1596 -0.4259  0.0079
  307MPD2    C2 4671   0.071   0.995   0.391  0.0023 -0.3245 -0.1802
  307MPD2    C3 4672   0.068   0.859   0.393  0.3018 -0.6172 -0.0781
  307MPD2    C4 4673   0.188   0.795   0.359 -0.2749  0.6064 -0.1733
  307MPD2    C5 4674   0.303   0.871   0.338 -0.2165 -0.0011  0.3862
  307MPD2     H 4675   4.722   1.045   0.436 -0.1360 -0.9767  0.2857
  307MPD2    H1 4676   0.187   0.687   0.360 -0.5528  0.6133  0.8594
  307MPD2    H2 4677   0.394   1.067   0.318 -0.1205  0.5904  0.0207
  307MPD2    H3 4678   0.398   0.819   0.327 -0.1699  0.0563  0.5156
  307MPD2     N 4679   4.691   0.790   0.443  0.4299  0.0816 -0.4218
  307MPD2    H5 4680   4.609   0.845   0.466 -1.4317 -2.9840  0.1885
  307MPD2    N1 4681   0.175   1.205   0.329 -0.2722 -0.0159 -0.4336
  307MPD2    H7 4682   0.259   1.256   0.304  1.1077 -2.7375 -1.3176
  308TMC3    C1 4683   4.350   0.580   0.339  1.0220 -0.3551  0.7722
  308TMC3    C2 4684   4.277   0.672   0.412  0.3246  0.5733  0.3635
  308TMC3    C3 4685   4.333   0.727   0.528  0.7213 -0.5819  0.5328
  308TMC3    C4 4686   4.474   0.551   0.388  0.6413  0.0011  0.1195
  308TMC3    C5 4687   4.531   0.627   0.487 -0.4696 -0.0407  0.2249
  308TMC3    C6 4688   4.465   0.719   0.562 -0.3821 -0.2097  0.8497
  308TMC3     C 4689   4.304   0.528   0.211 -0.8589 -0.2098  0.5358
  308TMC3     O 4690   4.350   0.423   0.171  0.6040  0.3699  0.7640
  308TMC3     H 4691   4.171   0.690   0.399  0.1617 -0.4869  0.2234
  308TMC3    H1 4692   4.537   0.473   0.347 -1.9380 -1.8878 -0.2669
  308TMC3    H2 4693   4.510   0.760   0.652 -0.0436  1.0560  0.1029
  308TMC3    C7 4694   4.671   0.654   0.460 -0.0828  0.2149 -0.3301
  308TMC3    C8 4695   4.254   0.808   0.616 -0.2944 -0.1339  0.1146
  308TMC3    O1 4696   4.734   0.558   0.420 -0.3674 -0.4128  0.4799
  308TMC3    O2 4697   4.267   0.790   0.733 -0.6339  0.1960  0.5250
  309MPD2     C 4698   3.901   1.296  16.862 -0.2866 -0.0604  0.5189
  309MPD2    C1 4699   3.841   1.301  16.735 -0.2964 -0.2830  0.9013
  309MPD2    C2 4700   3.704   1.306  16.727 -0.2889  0.4709  0.1382
  309MPD2    C3 4701   3.628   1.314  16.838 -0.4575  0.2825 -0.3656
  309MPD2    C4 4702   3.689   1.306  16.965 -0.5874  0.3817 -0.5381
  309MPD2    C5 4703   3.824   1.296  16.975  0.2679 -0.0367 -0.5692
  309MPD2     H 4704   3.658   1.303  16.628 -0.0675  3.1100 -0.0458
  309MPD2    H1 4705   3.643   1.319  17.063  1.2708  1.3572  0.2097
  309MPD2    H2 4706   4.008   1.312  16.874 -0.0084 -0.8849 -0.8096
  309MPD2    H3 4707   3.864   1.298  17.076  0.6582  0.4629 -0.7305
  309MPD2     N 4708   3.488   1.317  16.831  0.5264 -0.3265  0.6850
  309MPD2    H5 4709   3.446   1.322  16.923  0.8702 -4.5671  1.1075
  309MPD2    N1 4710   3.915   1.305  16.616 -0.0815  0.1061  0.7413
  309MPD2    H7 4711   3.861   1.335  16.535  3.3797  2.5080 -0.6494
  310TMC3    C1 4712   4.089   1.292  16.459  0.1825  0.2980  0.5285
  310TMC3    C2 4713   4.020   1.387  16.376 -0.4437 -0.3662  0.3796
  310TMC3    C3 4714   4.043   1.391  16.245 -0.2127  0.1497  0.5814
  310TMC3    C4 4715   4.194   1.221  16.408 -0.3726 -0.9050 -0.3168
  310TMC3    C5 4716   4.214   1.235  16.275 -0.0955  0.7452 -0.2624
  310TMC3    C6 4717   4.142   1.314  16.189 -0.0260 -0.0493 -0.6366
  310TMC3     C 4718   4.043   1.269  16.599  0.1426  0.7788 -0.0035
  310TMC3     O 4719   4.123   1.211  16.673  0.1088 -0.1323  0.1066
  310TMC3     H 4720   3.945   1.460  16.402  0.9410  1.5448 -0.9081
  310TMC3    H1 4721   4.234   1.134  16.460 -1.7996  0.4254  2.9583
  310TMC3    H2 4722   4.146   1.313  16.080  1.5667  0.8680 -0.5859
  310TMC3    C7 4723   4.296   1.139  16.207  0.2562 -0.1257 -0.0233
  310TMC3    C8 4724   3.962   1.483  16.165 -0.3504 -0.4737 -0.1905
  310TMC3    O1 4725   4.252   1.123  16.095 -0.2497  0.0345 -0.1765
  310TMC3    O2 4726   3.853   1.510  16.215  0.1477 -0.2283  0.7954
  311MPD2     C 4727   1.887   2.365  12.382  0.0421 -0.9098  0.7482
  311MPD2    C1 4728   1.894   2.500  12.408  0.4924 -0.5673 -0.8275
  311MPD2    C2 4729   1.792   2.570  12.471 -0.2117 -0.1825  0.0874
  311MPD2    C3 4730   1.685   2.494  12.517  0.5663 -0.0244  0.0172
  311MPD2    C4 4731   1.678   2.365  12.474  0.6711 -0.1740  0.3038
  311MPD2    C5 4732   1.770   2.301  12.399  0.1540  0.7088  0.2618
  311MPD2     H 4733   1.793   2.676  12.491 -0.7539  0.0695 -1.2767
  311MPD2    H1 4734   1.596   2.304  12.508  0.2567  0.0523 -0.2919
  311MPD2    H2 4735   1.971   2.306  12.347 -0.4932 -1.5806  0.5966
  311MPD2    H3 4736   1.750   2.197  12.377  1.0500  0.3847  1.0101
  311MPD2     N 4737   1.584   2.556  12.589  0.1552  0.1667 -0.6890
  311MPD2    H5 4738   1.609   2.637  12.644 -0.7597 -1.5697  2.2589
  311MPD2    N1 4739   2.006   2.571  12.358  0.0359  1.0113 -0.2309
  311MPD2    H7 4740   1.994   2.672  12.355 -0.5419  0.9319 -0.7658
  312TMC3    C1 4741   1.367   2.557  12.690  0.3055 -0.5520 -0.1553
  312TMC3    C2 4742   1.235   2.534  12.687 -0.3224 -0.0333 -0.6511
  312TMC3    C3 4743   1.153   2.567  12.791  0.4249 -0.1905  0.6248
  312TMC3    C4 4744   1.417   2.627  12.798 -0.6610  0.4336 -0.7934
  312TMC3    C5 4745   1.329   2.657  12.900 -0.1036  0.2129  0.1143
  312TMC3    C6 4746   1.197   2.622  12.904  0.2056  0.2894 -0.2475
  312TMC3     C 4747   1.453   2.507  12.588 -0.0508  0.1971  0.5376
  312TMC3     O 4748   1.399   2.436  12.509  0.0475 -0.7411 -0.0312
  312TMC3     H 4749   1.195   2.521  12.586  0.3841 -0.0513 -0.9298
  312TMC3    H1 4750   1.523   2.646  12.811 -0.7176 -0.2798  0.8098
  312TMC3    H2 4751   1.144   2.634  12.998  0.8949  1.3001  0.0195
  312TMC3    C7 4752   1.393   2.700  13.020 -0.2726 -0.2931  0.3686
  312TMC3    C8 4753   1.033   2.491  12.790 -0.9166 -0.6771  1.1118
  312TMC3    O1 4754   1.495   2.770  13.002  0.0017 -0.3153 -0.0323
  312TMC3    O2 4755   1.032   2.395  12.719  0.8500 -0.0059 -0.0579
  313MPD2     C 4756   1.525   1.120  10.057 -1.1579  0.4367 -0.3439
  313MPD2    C1 4757   1.395   1.144  10.092 -0.3709  0.1722 -0.2294
  313MPD2    C2 4758   1.294   1.093  10.011 -1.0223  0.1575  0.1341
  313MPD2    C3 4759   1.321   1.030   9.892 -0.0683  0.1107  0.4560
  313MPD2    C4 4760   1.452   1.020   9.847  0.1240 -0.0840 -0.1787
  313MPD2    C5 4761   1.553   1.065   9.935 -0.0128 -0.0076  0.3294
  313MPD2     H 4762   1.192   1.118  10.036 -0.0593  1.6055  2.7161
  313MPD2    H1 4763   1.476   0.985   9.747  2.9750 -0.5114  0.6598
  313MPD2    H2 4764   1.608   1.158  10.116 -1.0638 -0.0795 -0.1490
  313MPD2    H3 4765   1.657   1.058   9.907 -0.6819 -2.0066 -1.6644
  313MPD2     N 4766   1.214   0.992   9.813 -0.0245 -0.0481  0.2414
  313MPD2    H5 4767   1.123   1.000   9.858  0.1492  0.9868  0.4114
  313MPD2    N1 4768   1.354   1.217  10.205  0.1476 -0.0015  0.5617
  313MPD2    H7 4769   1.255   1.238  10.193  0.2912  0.5318  0.3142
  314TMC3    C1 4770   1.350   1.359  10.379  0.1588 -0.1757  0.2514
  314TMC3    C2 4771   1.405   1.481  10.415 -0.7733 -0.1467 -0.6963
  314TMC3    C3 4772   1.317   1.572  10.482  0.5458 -1.0461 -0.2513
  314TMC3    C4 4773   1.229   1.314  10.418  0.7511  0.5348  0.4321
  314TMC3    C5 4774   1.151   1.400  10.490  0.2449 -0.1760  0.4347
  314TMC3    C6 4775   1.190   1.527  10.520 -0.2474 -0.2967 -0.3521
  314TMC3     C 4776   1.437   1.276  10.301 -0.0096 -0.3212  0.1448
  314TMC3     O 4777   1.562   1.285  10.308  0.5366 -0.6712 -0.1257
  314TMC3     H 4778   1.498   1.512  10.369 -0.8498  1.9501  0.5623
  314TMC3    H1 4779   1.193   1.213  10.402 -1.8195  1.2387  1.8232
  314TMC3    H2 4780   1.125   1.597  10.571  0.1259  1.1166 -1.8424
  314TMC3    C7 4781   1.016   1.388  10.432 -0.1241  0.3874 -1.1760
  314TMC3    C8 4782   1.335   1.710  10.452 -0.3082  0.1389  0.9913
  314TMC3    O1 4783   0.970   1.299  10.367  0.0274  0.1002  0.0363
  314TMC3    O2 4784   1.445   1.762  10.451  0.2215 -0.0169  0.2002
  315MPD2     C 4785   0.157   1.238  17.628  0.1207 -0.0944 -0.6446
  315MPD2    C1 4786   0.283   1.187  17.605  0.0419  0.2875 -0.4166
  315MPD2    C2 4787   0.378   1.264  17.545  0.3971 -0.4657  0.0257
  315MPD2    C3 4788   0.361   1.395  17.512 -0.2098 -0.1868 -0.6401
  315MPD2    C4 4789   0.234   1.444  17.532  0.5844  0.2173 -0.0130
  315MPD2    C5 4790   0.133   1.368  17.591  0.0496  0.5552  0.2516
  315MPD2     H 4791   0.479   1.226  17.542  0.7624  0.4501  0.5939
  315MPD2    H1 4792   0.207   1.546  17.508 -0.3028  0.3628  1.6363
  315MPD2    H2 4793   0.072   1.187  17.672  0.2051  2.3532  2.3228
  315MPD2    H3 4794   0.033   1.408  17.591 -0.4803 -0.7935  0.9214
  315MPD2     N 4795   0.464   1.466  17.450 -0.7373  0.3737  0.5739
  315MPD2    H5 4796   0.560   1.434  17.455 -0.9488 -0.2773  0.4231
  315MPD2    N1 4797   0.320   1.051  17.637  0.1019 -0.0432 -0.8703
  315MPD2    H7 4798   0.401   1.013  17.588  0.3256  0.8668 -1.1962
  316TMC3    C1 4799   0.560   1.644  17.333 -0.0499  0.4504  0.1796
  316TMC3    C2 4800   0.676   1.621  17.396  0.2374 -0.8635  0.3009
  316TMC3    C3 4801   0.789   1.654  17.330  0.2235  0.1928 -0.0846
  316TMC3    C4 4802   0.552   1.710  17.210  0.4627  0.3643 -0.9750
  316TMC3    C5 4803   0.672   1.741  17.147  0.1195  0.0752  0.5547
  316TMC3    C6 4804   0.786   1.719  17.206  0.7215 -0.8074  0.5272
  316TMC3     C 4805   0.442   1.583  17.375  0.5504  0.3630  0.2663
  316TMC3     O 4806   0.341   1.646  17.349  0.5612 -0.0269  0.3550
  316TMC3     H 4807   0.678   1.597  17.502  0.7787 -2.7116 -0.1225
  316TMC3    H1 4808   0.457   1.718  17.158  0.2941  0.6571 -0.6195
  316TMC3    H2 4809   0.874   1.746  17.150  0.4073  0.7369  0.7898
  316TMC3    C7 4810   0.666   1.788  17.015  0.4951  0.2738 -0.7580
  316TMC3    C8 4811   0.918   1.678  17.395 -0.1115  0.3476  0.0774
  316TMC3    O1 4812   0.771   1.831  16.972 -0.5488 -0.1267  0.3559
  316TMC3    O2 4813   0.989   1.756  17.332 -0.1598  0.1341  0.8618
  317MPD2     C 4814   2.758   4.378  13.361 -0.2777  0.6462 -0.0872
  317MPD2    C1 4815   2.797   4.263  13.300  0.4895 -0.0808 -0.6834
  317MPD2    C2 4816   2.855   4.165  13.377 -0.6361  0.3578  0.7836
  317MPD2    C3 4817   2.884   4.179  13.513  0.4988 -0.5455 -0.6134
  317MPD2    C4 4818   2.849   4.299  13.565  0.4396  0.0487  0.1980
  317MPD2    C5 4819   2.783   4.390  13.488 -0.6719 -0.8279 -0.6067
  317MPD2     H 4820   2.879   4.072  13.327  0.3361  0.2024  1.5348
  317MPD2    H1 4821   2.870   4.323  13.669 -1.5150  2.5248  0.0157
  317MPD2    H2 4822   2.719   4.462  13.304 -3.1341 -0.5477  0.0819
  317MPD2    H3 4823   2.763   4.488  13.529  0.9639 -1.2071  1.0944
  317MPD2     N 4824   2.938   4.068  13.584 -0.0237 -0.0459 -0.1244
  317MPD2    H5 4825   2.963   3.982  13.536  2.8906  0.5905  0.2308
  317MPD2    N1 4826   2.790   4.236  13.158 -0.1651  0.4391 -0.0119
  317MPD2    H7 4827   2.843   4.155  13.126  0.4176 -0.1113  2.2941
  318TMC3    C1 4828   3.036   3.929  13.749  0.4888  0.0878 -0.3219
  318TMC3    C2 4829   2.966   3.816  13.700  0.4334  0.2196  0.2367
  318TMC3    C3 4830   3.010   3.699  13.749  0.1453 -0.1469  0.0014
  318TMC3    C4 4831   3.135   3.925  13.842  1.4213 -0.3135  0.3792
  318TMC3    C5 4832   3.175   3.804  13.883 -0.3837  0.2899  0.0099
  318TMC3    C6 4833   3.112   3.691  13.838 -0.0826 -0.7590  0.5762
  318TMC3     C 4834   2.990   4.066  13.712 -0.6664 -0.1485 -0.1518
  318TMC3     O 4835   3.022   4.154  13.793 -0.4633  0.2728  0.4930
  318TMC3     H 4836   2.873   3.838  13.649 -0.6123 -1.5799  1.3792
  318TMC3    H1 4837   3.197   4.013  13.856  0.3424  0.0271  2.8431
  318TMC3    H2 4838   3.150   3.597  13.876 -0.5627 -0.2068  2.4354
  318TMC3    C7 4839   3.267   3.799  13.995 -0.1862 -0.8357 -0.2887
  318TMC3    C8 4840   2.941   3.579  13.708 -0.2526  0.0626 -0.9924
  318TMC3    O1 4841   3.288   3.907  14.049  0.0020  0.4428  0.1001
  318TMC3    O2 4842   2.956   3.469  13.762  0.0309 -0.3221  0.3360
  319MPD2     C 4843   3.549   0.954  16.535  0.1953 -0.6950 -0.1294
  319MPD2    C1 4844   3.530   0.814  16.541 -0.4076 -0.4565 -0.0559
  319MPD2    C2 4845   3.411   0.757  16.493  0.2755  0.3302  0.0062
  319MPD2    C3 4846   3.304   0.842  16.456 -0.1265 -0.1196 -0.6903
  319MPD2    C4 4847   3.323   0.977  16.452 -0.2522 -0.0252 -1.1223
  319MPD2    C5 4848   3.445   1.031  16.490 -0.4146 -0.1304 -0.9207
  319MPD2     H 4849   3.403   0.649  16.486 -0.1328  0.2793  1.2177
  319MPD2    H1 4850   3.247   1.038  16.406  0.8706  1.4775 -0.9911
  319MPD2    H2 4851   3.634   1.011  16.570 -0.2728  0.4737 -0.8569
  319MPD2    H3 4852   3.465   1.137  16.482 -1.2931  0.0226 -1.0800
  319MPD2     N 4853   3.182   0.788  16.401 -0.4434 -0.0927 -0.2508
  319MPD2    H5 4854   3.112   0.852  16.365 -0.6667 -1.3324 -2.0050
  319MPD2    N1 4855   3.637   0.726  16.579  0.0138  0.4408  0.2491
  319MPD2    H7 4856   3.615   0.627  16.585 -0.8035  0.5056 -1.7285
  320TMC3    C1 4857   2.996   0.633  16.388  0.5607  0.1682 -0.6210
  320TMC3    C2 4858   2.968   0.672  16.261  0.4489 -0.0263  0.0471
  320TMC3    C3 4859   2.863   0.617  16.195 -0.5132 -0.6690  0.5161
  320TMC3    C4 4860   2.928   0.531  16.450  0.1277 -0.6518 -0.6944
  320TMC3    C5 4861   2.819   0.482  16.383  1.1133 -0.5054 -0.6500
  320TMC3    C6 4862   2.781   0.518  16.253  0.1819 -0.0611 -0.4390
  320TMC3     C 4863   3.135   0.661  16.435 -0.2165  0.4512  0.8952
  320TMC3     O 4864   3.180   0.578  16.512 -0.0795 -0.3260 -0.0701
  320TMC3     H 4865   3.030   0.741  16.205 -1.8489  1.4298 -0.6679
  320TMC3    H1 4866   2.967   0.504  16.548  1.3868 -0.0007 -1.0136
  320TMC3    H2 4867   2.693   0.483  16.199 -1.4039  1.5325  1.0965
  320TMC3    C7 4868   2.745   0.368  16.430 -0.6393 -0.5778 -0.4536
  320TMC3    C8 4869   2.821   0.681  16.069 -0.4039 -0.5442 -0.1684
  320TMC3    O1 4870   2.656   0.318  16.362  0.4813  0.2115 -0.1369
  320TMC3    O2 4871   2.860   0.797  16.054 -0.1091 -0.1736 -0.3486
  321TMC3    C1 4872   3.849   0.645  16.621  0.0247  0.5956  0.2747
  321TMC3    C2 4873   3.807   0.513  16.618  0.7270 -0.6632 -0.4509
  321TMC3    C3 4874   3.902   0.421  16.600 -0.0753  0.6023 -0.2780
  321TMC3    C4 4875   3.982   0.682  16.618  0.6415  0.5185 -0.0096
  321TMC3    C5 4876   4.074   0.583  16.598  0.2220 -0.0816 -0.0626
  321TMC3    C6 4877   4.034   0.453  16.569  0.0373 -0.7058  0.3230
  321TMC3     C 4878   3.759   0.769  16.608 -0.1752  0.6577  0.0635
  321TMC3     O 4879   3.816   0.876  16.617 -0.0454  0.1674  0.1535
  321TMC3     H 4880   3.709   0.475  16.644  1.5814 -1.7710  1.1715
  321TMC3    H1 4881   4.021   0.783  16.628 -0.0861  0.7998 -0.0173
  321TMC3    H2 4882   4.107   0.380  16.535 -0.1380 -1.9847  2.6326
  321TMC3    C7 4883   4.181   0.565  16.696  0.0125 -0.0145  0.1866
  321TMC3    C8 4884   3.884   0.295  16.674 -0.1094 -0.7741  0.5021
  321TMC3    O1 4885   4.211   0.453  16.727 -0.1500  0.3199  0.3561
  321TMC3    O2 4886   3.771   0.246  16.681 -0.0057  0.2412  0.1439
  322MPD2     C 4887   2.308   2.092  13.458  0.4794  0.9467  0.2728
  322MPD2    C1 4888   2.360   2.016  13.558 -0.5002 -0.7731  0.2506
  322MPD2    C2 4889   2.371   1.882  13.541  0.0649  0.0452 -0.8171
  322MPD2    C3 4890   2.344   1.829  13.414  0.5137 -0.1796 -0.1818
  322MPD2    C4 4891   2.285   1.906  13.313  0.4810  0.0828  0.2959
  322MPD2    C5 4892   2.269   2.041  13.336  0.2898 -0.6408  0.2699
  322MPD2     H 4893   2.416   1.816  13.614  2.3363  0.9118 -1.4248
  322MPD2    H1 4894   2.233   1.861  13.229  1.7392  0.8368 -0.8915
  322MPD2    H2 4895   2.298   2.200  13.465 -3.7144  0.7367 -2.2060
  322MPD2    H3 4896   2.228   2.113  13.266 -2.1954 -0.4077  1.9479
  322MPD2     N 4897   2.370   1.690  13.395 -0.8134 -0.1391  0.0297
  322MPD2    H5 4898   2.413   1.639  13.471  0.0311  0.6822  0.1177
  322MPD2    N1 4899   2.396   2.082  13.678 -0.2271 -0.5004 -0.1018
  322MPD2    H7 4900   2.381   2.182  13.685  0.4883 -0.3654 -0.3927
  323TMC3    C1 4901   2.497   2.130  13.888 -0.5078  0.1916  0.8222
  323TMC3    C2 4902   2.599   2.212  13.851 -0.2271 -0.3152  0.2546
  323TMC3    C3 4903   2.674   2.269  13.950 -0.1098 -0.1878  0.4262
  323TMC3    C4 4904   2.475   2.102  14.021  0.3527 -0.9384 -0.1564
  323TMC3    C5 4905   2.557   2.152  14.112  0.2623 -0.4144 -0.4081
  323TMC3    C6 4906   2.652   2.246  14.079  0.3676 -0.8533 -0.0376
  323TMC3     C 4907   2.450   2.026  13.791 -0.1060  0.3086 -0.1950
  323TMC3     O 4908   2.472   1.907  13.817 -0.0889  0.2478  0.2410
  323TMC3     H 4909   2.608   2.248  13.749 -1.5403  0.0887  0.2796
  323TMC3    H1 4910   2.389   2.039  14.045  0.8296 -1.5919 -0.1699
  323TMC3    H2 4911   2.739   2.261  14.141 -0.6034  1.1044  0.8427
  323TMC3    C7 4912   2.599   2.041  14.202 -0.0370  0.3033  0.0624
  323TMC3    C8 4913   2.809   2.302  13.905 -0.9117 -0.2947 -0.4075
  323TMC3    O1 4914   2.587   1.926  14.156  0.1170  0.1881 -0.6314
  323TMC3    O2 4915   2.852   2.232  13.812 -0.2427  0.2762  0.5198
  324MPD2     C 4916   4.483   2.802  14.307 -0.4500 -0.1233  0.2716
  324MPD2    C1 4917   4.467   2.933  14.349  0.4291  0.1967 -0.6003
  324MPD2    C2 4918   4.349   2.980  14.399  0.3588 -0.2752 -0.1879
  324MPD2    C3 4919   4.234   2.899  14.398 -0.3216  0.2001 -0.2831
  324MPD2    C4 4920   4.247   2.768  14.360  0.7996  0.2290 -0.0556
  324MPD2    C5 4921   4.371   2.725  14.314  0.6920  0.0996  0.0100
  324MPD2     H 4922   4.340   3.085  14.421  2.5771 -0.2752  0.8015
  324MPD2    H1 4923   4.154   2.714  14.362  1.6756 -1.3489 -1.2921
  324MPD2    H2 4924   4.575   2.761  14.268 -0.3223  2.0712 -1.7262
  324MPD2    H3 4925   4.380   2.620  14.291  1.3821 -0.1006  1.2246
  324MPD2     N 4926   4.111   2.951  14.438 -0.0022 -0.0088  0.1839
  324MPD2    H5 4927   4.035   2.885  14.442 -0.4563  0.4357 -0.9497
  324MPD2    N1 4928   4.578   3.018  14.357  0.0982 -0.5163  0.6128
  324MPD2    H7 4929   4.574   3.092  14.426 -2.2087 -0.5539  0.5081
  325TMC3    C1 4930   3.935   3.112  14.466  0.1378 -0.2526  0.1580
  325TMC3    C2 4931   3.845   3.024  14.414  0.5474 -0.8122 -0.0932
  325TMC3    C3 4932   3.715   3.069  14.393 -0.0927  0.2331 -0.1031
  325TMC3    C4 4933   3.903   3.235  14.514  0.9635  0.1774 -0.0787
  325TMC3    C5 4934   3.770   3.276  14.502  0.3764  0.0539 -0.4688
  325TMC3    C6 4935   3.678   3.186  14.448 -0.0660 -0.6334 -0.1661
  325TMC3     C 4936   4.079   3.084  14.472 -0.2078 -0.0542  0.5185
  325TMC3     O 4937   4.152   3.181  14.499 -0.5649 -0.1783  0.0190
  325TMC3     H 4938   3.875   2.932  14.366 -3.0735 -2.3511  0.5857
  325TMC3    H1 4939   3.977   3.298  14.561 -0.5729  1.3279  0.7639
  325TMC3    H2 4940   3.574   3.216  14.434  0.5511  0.8863 -1.4980
  325TMC3    C7 4941   3.734   3.398  14.574 -0.7681  0.2893 -0.5764
  325TMC3    C8 4942   3.639   2.991  14.294 -0.3211  0.1780  0.0134
  325TMC3    O1 4943   3.813   3.487  14.575 -0.0903 -0.0028  0.0930
  325TMC3    O2 4944   3.679   2.878  14.255 -0.4756  0.0399  0.6047
  326MPD2     C 4945   0.058   4.283  11.532 -0.1414  0.3106  0.2337
  326MPD2    C1 4946   4.710   4.288  11.422  0.2419  0.6947 -0.5389
  326MPD2    C2 4947   4.723   4.387  11.330  0.2934  0.4337  0.6636
  326MPD2    C3 4948   0.079   4.490  11.349  0.3188  0.1808 -0.0803
  326MPD2    C4 4949   0.159   4.490  11.465 -0.0723 -0.0261  0.2206
  326MPD2    C5 4950   0.149   4.385  11.552  0.7338  0.3646 -0.3411
  326MPD2     H 4951   4.658   4.386  11.244 -0.5624  1.7717  1.2915
  326MPD2    H1 4952   0.217   4.574  11.502 -0.0134  1.6594 -3.6546
  326MPD2    H2 4953   0.062   4.212  11.614 -1.3209 -0.3308 -0.2666
  326MPD2    H3 4954   0.209   4.386  11.643 -0.0512  1.4587  0.1576
  326MPD2     N 4955   0.108   4.587  11.259 -0.2324  0.1102 -0.1284
  326MPD2    H5 4956   0.192   4.639  11.283 -0.2767  0.3863 -0.5561
  326MPD2    N1 4957   4.609   4.185  11.403 -0.7115  0.1535  0.0997
  326MPD2    H7 4958   4.568   4.177  11.311 -0.5356 -1.4943  0.1618
  327TMC3    C1 4959   4.510   3.972  11.422 -0.4106 -0.0242  0.2797
  327TMC3    C2 4960   4.425   4.007  11.321  0.0212 -0.4299  0.5680
  327TMC3    C3 4961   4.368   3.900  11.247  0.7176 -0.1203  0.0706
  327TMC3    C4 4962   4.540   3.842  11.448 -1.0369 -0.2597  0.0411
  327TMC3    C5 4963   4.479   3.743  11.378  0.5455  0.0867 -0.0666
  327TMC3    C6 4964   4.388   3.772  11.276 -0.1963  0.1262 -0.1925
  327TMC3     C 4965   4.582   4.078  11.485 -0.5134  0.4454  0.2764
  327TMC3     O 4966   4.652   4.041  11.579  0.0678  0.3772 -0.2209
  327TMC3     H 4967   4.394   4.108  11.298  1.1923  0.0094  0.9501
  327TMC3    H1 4968   4.596   3.811  11.535  1.0401  0.8116 -0.9220
  327TMC3    H2 4969   4.349   3.690  11.217 -1.5133  0.3705  0.3512
  327TMC3    C7 4970   4.543   3.615  11.365  0.9687  0.4373  0.3746
  327TMC3    C8 4971   4.287   3.929  11.120 -0.1558  0.5298 -0.3324
  327TMC3    O1 4972   4.473   3.514  11.346 -0.2418 -0.5098  0.3895
  327TMC3    O2 4973   4.196   3.850  11.086 -0.1299  0.2721  0.1699
  328MPD2     C 4974   2.853   4.280  17.073  0.1216 -0.6500  0.4944
  328MPD2    C1 4975   2.770   4.174  17.064 -1.5184  0.2764 -0.6828
  328MPD2    C2 4976   2.637   4.194  17.029 -0.4767 -0.0748 -0.8501
  328MPD2    C3 4977   2.597   4.322  16.998  0.3449 -0.1855  0.0971
  328MPD2    C4 4978   2.688   4.428  17.004  0.3465  0.2978 -0.1289
  328MPD2    C5 4979   2.818   4.408  17.043 -0.2972 -0.5107  0.2935
  328MPD2     H 4980   2.570   4.110  17.020 -1.8232  0.8296  0.7117
  328MPD2    H1 4981   2.654   4.524  16.966 -2.1964 -1.2767 -1.7271
  328MPD2    H2 4982   2.957   4.265  17.100  0.2947 -1.5987 -0.7041
  328MPD2    H3 4983   2.892   4.487  17.052  0.0170 -0.7603 -0.1061
  328MPD2     N 4984   2.471   4.357  16.951 -0.1510 -0.1021  0.4279
  328MPD2    H5 4985   2.465   4.447  16.906 -0.0575 -0.9188 -1.2226
  328MPD2    N1 4986   2.812   4.045  17.103 -0.3587  0.0764 -0.0263
  328MPD2    H7 4987   2.889   4.043  17.170 -1.1247  0.3534  0.8662
  329TMC3    C1 4988   2.758   3.820  17.158  0.0690 -1.0970  0.0995
  329TMC3    C2 4989   2.810   3.838  17.280  0.7959  0.5519  0.5236
  329TMC3    C3 4990   2.803   3.725  17.362 -0.3025  0.7843 -0.4333
  329TMC3    C4 4991   2.712   3.698  17.109 -0.2908  0.5518  0.7905
  329TMC3    C5 4992   2.714   3.588  17.191  0.2594 -0.3758  0.6179
  329TMC3    C6 4993   2.751   3.603  17.325 -0.8146 -0.5840 -0.1940
  329TMC3     C 4994   2.740   3.936  17.070  0.1776 -0.2163  0.1443
  329TMC3     O 4995   2.679   3.916  16.965  0.4096  0.5107  0.1117
  329TMC3     H 4996   2.856   3.932  17.311  2.3605 -1.0364  3.0184
  329TMC3    H1 4997   2.679   3.693  17.006 -0.2261  0.1891  0.7881
  329TMC3    H2 4998   2.737   3.518  17.391 -0.3293 -0.3001  0.2814
  329TMC3    C7 4999   2.648   3.461  17.153  0.6104  0.8385 -0.3721
  329TMC3    C8 5000   2.825   3.734  17.505  0.4994  0.5835 -0.4689
  329TMC3    O1 5001   2.642   3.377  17.241  0.5108 -0.4410  0.4101
  329TMC3    O2 5002   2.863   3.630  17.561  0.3358  0.0380  0.1993
  330TMC3    C1 5003   0.950   2.929   9.072  0.1618 -0.3180  0.6427
  330TMC3    C2 5004   0.940   2.810   9.018  0.2103  0.4168  0.2622
  330TMC3    C3 5005   0.935   2.704   9.108  0.4460 -0.0899 -0.3235
  330TMC3    C4 5006   0.950   2.954   9.200 -0.0838  0.3539 -0.5802
  330TMC3    C5 5007   0.951   2.844   9.285  0.1951  0.0369  0.0855
  330TMC3    C6 5008   0.944   2.718   9.242 -0.7189 -0.4799 -0.3577
  330TMC3     C 5009   0.943   3.042   8.974  0.1635  0.1963  0.3158
  330TMC3     O 5010   0.996   3.026   8.863 -0.8561 -0.2697 -0.2388
  330TMC3     H 5011   0.936   2.806   8.910  0.9773  2.2194  0.1636
  330TMC3    H1 5012   0.943   3.058   9.230 -2.3143 -0.0814  0.3270
  330TMC3    H2 5013   0.922   2.633   9.305 -0.1951 -1.4258 -1.4618
  330TMC3    C7 5014   0.944   2.862   9.425  0.2693  0.2314  0.4353
  330TMC3    C8 5015   0.893   2.578   9.047 -0.3473  0.5305  0.2701
  330TMC3    O1 5016   0.904   2.763   9.484  0.2974  0.1336 -0.0534
  330TMC3    O2 5017   0.871   2.578   8.922  0.3895 -0.4956 -0.1882
  331MPD2     C 5018   4.237   2.741  12.297  0.4810  0.6127  0.4855
  331MPD2    C1 5019   4.104   2.738  12.313  0.8607 -0.5533 -0.1705
  331MPD2    C2 5020   4.049   2.647  12.407 -0.5892 -0.4679 -0.4602
  331MPD2    C3 5021   4.131   2.539  12.453  0.5685 -0.4614  0.0841
  331MPD2    C4 5022   4.265   2.546  12.425  0.3187  0.1417  0.3725
  331MPD2    C5 5023   4.316   2.643  12.346  0.0764 -0.1841 -0.0017
  331MPD2     H 5024   3.942   2.634  12.409 -0.6370 -0.1899 -1.1754
  331MPD2    H1 5025   4.332   2.469  12.461  0.0649 -1.0280 -1.6218
  331MPD2    H2 5026   4.273   2.816  12.229 -0.8274 -0.3991 -1.3226
  331MPD2    H3 5027   4.424   2.638  12.339 -0.0496 -2.5396 -0.2277
  331MPD2     N 5028   4.073   2.432  12.527  0.3003  0.6022  0.2932
  331MPD2    H5 5029   3.972   2.423  12.529  0.3974 -0.1846  1.1394
  331MPD2    N1 5030   4.026   2.833  12.247  0.0308  0.9635  0.0361
  331MPD2    H7 5031   4.054   2.864  12.155  2.9578 -1.7258  0.0353
  332TMC3    C1 5032   4.065   2.214  12.600  0.0960  0.3162 -0.0125
  332TMC3    C2 5033   3.954   2.193  12.518 -0.5757 -0.7940  0.1027
  332TMC3    C3 5034   3.925   2.061  12.481 -0.2013 -0.2817 -0.5462
  332TMC3    C4 5035   4.141   2.106  12.636 -0.4476  0.2822  0.1083
  332TMC3    C5 5036   4.103   1.980  12.594 -0.1440 -0.1027  0.1994
  332TMC3    C6 5037   3.999   1.953  12.516  0.4153  0.1330 -0.3201
  332TMC3     C 5038   4.145   2.335  12.590  0.8847 -0.1132 -0.6405
  332TMC3     O 5039   4.261   2.326  12.622  0.5036 -0.0418 -0.5629
  332TMC3     H 5040   3.890   2.267  12.470 -0.6796 -1.1546 -0.3134
  332TMC3    H1 5041   4.204   2.137  12.718 -1.6893 -1.1095  1.5793
  332TMC3    H2 5042   3.973   1.854  12.480 -1.3272  0.4314  0.1298
  332TMC3    C7 5043   4.180   1.855  12.612  0.1712  0.2116  0.2903
  332TMC3    C8 5044   3.830   2.053  12.371 -0.3451  0.1295  0.2686
  332TMC3    O1 5045   4.112   1.753  12.607  0.4312  1.0608  0.4104
  332TMC3    O2 5046   3.795   2.154  12.311  0.2401  0.2347  0.2401
  333MPD2     C 5047   3.645   2.065  11.198  0.2267 -0.1190  0.1334
  333MPD2    C1 5048   3.728   1.974  11.140  0.0002 -0.5506  0.6357
  333MPD2    C2 5049   3.724   1.846  11.190 -0.3610  0.0565 -0.5829
  333MPD2    C3 5050   3.634   1.806  11.288 -0.0053 -0.0215  0.3372
  333MPD2    C4 5051   3.554   1.898  11.347 -0.3032 -0.0644 -0.7722
  333MPD2    C5 5052   3.562   2.033  11.301 -0.6865 -0.8078 -0.0265
  333MPD2     H 5053   3.800   1.776  11.155  1.0571  1.3394 -0.0498
  333MPD2    H1 5054   3.486   1.876  11.428  0.6347  0.5294  0.1733
  333MPD2    H2 5055   3.643   2.164  11.155 -0.7812 -0.3556 -0.3592
  333MPD2    H3 5056   3.494   2.104  11.348 -0.7663 -1.8641  1.4545
  333MPD2     N 5057   3.641   1.674  11.325 -0.0750 -0.9861  0.3058
  333MPD2    H5 5058   3.721   1.624  11.289  1.0254  0.8396  0.2201
  333MPD2    N1 5059   3.799   2.017  11.029  0.0381 -0.3364 -0.1472
  333MPD2    H7 5060   3.804   2.115  11.005 -0.2245 -0.5782 -1.1983
  334TMC3    C1 5061   3.914   2.018  10.822 -0.0519 -0.9853  0.3046
  334TMC3    C2 5062   4.040   1.976  10.776 -0.1013 -0.7228 -0.6185
  334TMC3    C3 5063   4.122   2.062  10.713  0.1575 -0.6430  0.5359
  334TMC3    C4 5064   3.869   2.145  10.794 -0.1012  0.4792 -0.3697
  334TMC3    C5 5065   3.946   2.227  10.724  0.6361 -0.8799 -0.0554
  334TMC3    C6 5066   4.071   2.184  10.677  0.0290  0.5695  0.2036
  334TMC3     C 5067   3.865   1.938  10.936 -0.2381  0.0475 -0.2527
  334TMC3     O 5068   3.896   1.821  10.944 -0.3126 -0.8926 -0.2925
  334TMC3     H 5069   4.083   1.884  10.815  1.4284  0.7143  1.0923
  334TMC3    H1 5070   3.767   2.171  10.820  0.0418  0.2000  0.4871
  334TMC3    H2 5071   4.133   2.255  10.624 -1.5545  2.5059  0.9501
  334TMC3    C7 5072   3.913   2.372  10.723  0.8946  0.5964 -0.4537
  334TMC3    C8 5073   4.267   2.031  10.691  0.1078  1.0017 -0.1262
  334TMC3    O1 5074   4.009   2.448  10.732  0.4835  0.4374 -0.0192
  334TMC3    O2 5075   4.290   1.913  10.696 -0.2630  0.8945  0.4674
  335TMC3    C1 5076   3.610   3.810  17.524 -0.4317 -0.1544  0.4309
  335TMC3    C2 5077   3.501   3.815  17.445 -0.2674  0.0780  1.0133
  335TMC3    C3 5078   3.519   3.868  17.321  0.1995  0.4292  0.9332
  335TMC3    C4 5079   3.737   3.853  17.488 -0.1280  0.7834 -0.0616
  335TMC3    C5 5080   3.741   3.927  17.372 -0.4832  0.4708  0.3289
  335TMC3    C6 5081   3.641   3.925  17.288  0.1197 -0.3675  0.1934
  335TMC3     C 5082   3.589   3.737  17.645  0.2764 -0.6026  0.0334
  335TMC3     O 5083   3.489   3.671  17.665  0.2576  0.2763 -0.2099
  335TMC3     H 5084   3.406   3.766  17.466  0.9303 -1.6143  2.4770
  335TMC3    H1 5085   3.828   3.838  17.544 -0.8806 -0.0502  0.9586
  335TMC3    H2 5086   3.655   3.984  17.198  0.9774 -1.2029 -0.2155
  335TMC3    C7 5087   3.870   3.990  17.336 -0.5945  0.1669 -0.3255
  335TMC3    C8 5088   3.408   3.874  17.233 -0.3281 -0.2640  0.0738
  335TMC3    O1 5089   3.889   4.039  17.226  0.6537 -0.2659  0.3558
  335TMC3    O2 5090   3.431   3.949  17.137 -0.1856  0.4415  0.6814
  336MPD2     C 5091   3.254   1.949  16.020  0.8410 -0.7337  0.6439
  336MPD2    C1 5092   3.158   1.868  15.972 -0.0965  0.6918 -0.3988
  336MPD2    C2 5093   3.155   1.736  16.021  1.0820 -0.5311 -0.5857
  336MPD2    C3 5094   3.235   1.694  16.127  0.0253  0.5230 -0.0205
  336MPD2    C4 5095   3.320   1.785  16.181  0.7226 -0.0993 -0.5273
  336MPD2    C5 5096   3.332   1.909  16.123  0.6639  0.5116 -0.6301
  336MPD2     H 5097   3.079   1.675  15.973 -0.8415  0.1414  1.6585
  336MPD2    H1 5098   3.388   1.752  16.259  0.0346  0.2231  0.2078
  336MPD2    H2 5099   3.260   2.051  15.985  0.5757 -0.8376  0.2985
  336MPD2    H3 5100   3.403   1.980  16.163  0.3862  0.5233 -0.1618
  336MPD2     N 5101   3.223   1.566  16.189  0.0784 -0.1683 -0.1134
  336MPD2    H5 5102   3.283   1.553  16.270 -0.7206  0.0136  0.5055
  336MPD2    N1 5103   3.065   1.905  15.872 -0.4163 -0.8600  0.0455
  336MPD2    H7 5104   3.007   1.826  15.844 -1.6068  0.0697 -0.1219
  337TMC3    C1 5105   2.957   2.033  15.693 -0.1330 -0.8339  0.0421
  337TMC3    C2 5106   2.917   1.914  15.645 -0.0882 -0.5112  0.1351
  337TMC3    C3 5107   2.843   1.907  15.532  0.2614 -0.8001 -0.1264
  337TMC3    C4 5108   2.940   2.147  15.624 -0.8034 -0.4344  0.3547
  337TMC3    C5 5109   2.867   2.138  15.506 -0.2548 -0.3708  0.4124
  337TMC3    C6 5110   2.812   2.022  15.457  0.3390  0.6316  0.2357
  337TMC3     C 5111   3.042   2.032  15.813  0.2806  0.1273 -0.0934
  337TMC3     O 5112   3.098   2.134  15.845 -0.1666 -1.0061  0.1557
  337TMC3     H 5113   2.946   1.817  15.684  0.9943  0.9273  2.9346
  337TMC3    H1 5114   2.965   2.241  15.670  0.6104 -1.6581  2.0809
  337TMC3    H2 5115   2.753   2.024  15.366 -2.2529 -0.3012  1.8922
  337TMC3    C7 5116   2.844   2.257  15.436  0.6237  0.0543  0.3653
  337TMC3    C8 5117   2.818   1.777  15.468  0.3647  0.5619  0.5991
  337TMC3    O1 5118   2.733   2.277  15.386 -0.0003  0.3228 -0.0038
  337TMC3    O2 5119   2.887   1.687  15.512  0.2120  0.1798  0.5258
  338MPD2     C 5120   3.303   0.827   0.436 -0.0102 -0.3928  0.1775
  338MPD2    C1 5121   3.245   0.879   0.324 -0.6544  0.2770  0.8639
  338MPD2    C2 5122   3.113   0.919   0.339 -0.2962 -0.3412 -0.4165
  338MPD2    C3 5123   3.043   0.892   0.454  0.1476 -0.2393 -0.3308
  338MPD2    C4 5124   3.105   0.838   0.566 -0.5057 -0.0955  0.0193
  338MPD2    C5 5125   3.231   0.804   0.547  0.4095  0.3325 -0.2963
  338MPD2     H 5126   3.072   0.967   0.251 -0.2091  1.9313  0.7627
  338MPD2    H1 5127   3.060   0.822   0.664  0.0649 -1.3284  0.0842
  338MPD2    H2 5128   3.405   0.792   0.444  0.0868  0.1692  1.4485
  338MPD2    H3 5129   3.281   0.751   0.627 -1.2593  1.1207  1.2810
  338MPD2     N 5130   2.910   0.935   0.452  0.0651 -0.3427 -0.2081
  338MPD2    H5 5131   2.868   0.960   0.363 -1.3871 -0.9091  0.3092
  338MPD2    N1 5132   3.302   0.884   0.200 -0.0301 -0.0684 -0.2282
  338MPD2    H7 5133   3.236   0.921   0.133  2.3850  3.0844 -0.8422
  339TMC3    C1 5134   2.695   0.998   0.535 -0.3888 -0.2224  0.0910
  339TMC3    C2 5135   2.583   0.964   0.604 -0.3330  0.1411 -0.0130
  339TMC3    C3 5136   2.460   1.016   0.569  0.5742  0.0942  0.0873
  339TMC3    C4 5137   2.685   1.075   0.421 -0.2505 -0.2233 -0.2638
  339TMC3    C5 5138   2.561   1.100   0.374  0.1072  0.1089  0.1520
  339TMC3    C6 5139   2.444   1.082   0.446  0.1021 -0.9049  0.3912
  339TMC3     C 5140   2.822   0.929   0.559  1.1225  0.1403  0.1832
  339TMC3     O 5141   2.836   0.886   0.674 -0.7569  0.1481  0.2850
  339TMC3     H 5142   2.600   0.906   0.694 -2.0219  0.0154  0.2150
  339TMC3    H1 5143   2.771   1.127   0.381  1.1661  0.2310  3.3899
  339TMC3    H2 5144   2.344   1.111   0.417  0.0259 -1.8508 -0.3008
  339TMC3    C7 5145   2.561   1.166   0.244 -1.2504  0.6001  0.4920
  339TMC3    C8 5146   2.339   0.982   0.649  0.8099  0.4905  0.2512
  339TMC3    O1 5147   2.667   1.200   0.195  0.4582 -0.0311  0.4154
  339TMC3    O2 5148   2.229   0.976   0.590  0.0185  0.3602 -0.0456
  340MPD2     C 5149   3.863   3.737  10.669  0.5888  0.0277  0.5531
  340MPD2    C1 5150   3.827   3.604  10.667  0.1650 -0.0095  0.6062
  340MPD2    C2 5151   3.931   3.515  10.645  0.0843 -0.0852  0.0802
  340MPD2    C3 5152   4.063   3.549  10.623  0.1829 -0.6969  1.2526
  340MPD2    C4 5153   4.094   3.683  10.622  0.7602 -0.1164  0.5027
  340MPD2    C5 5154   3.995   3.772  10.660 -0.0093  0.3428 -0.4670
  340MPD2     H 5155   3.914   3.408  10.650 -2.4749  0.2899 -0.6494
  340MPD2    H1 5156   4.192   3.724  10.600  1.1471 -1.1346  0.3315
  340MPD2    H2 5157   3.793   3.819  10.678  0.1397 -0.3258  0.2982
  340MPD2    H3 5158   4.019   3.878  10.655 -1.5608  0.6944 -0.6279
  340MPD2     N 5159   4.167   3.456  10.579  0.2450 -0.3718  0.4974
  340MPD2    H5 5160   4.265   3.484  10.570  0.2020 -0.4601 -0.2002
  340MPD2    N1 5161   3.688   3.572  10.685 -0.0928 -0.3889  0.6394
  340MPD2    H7 5162   3.623   3.645  10.713  1.0861 -0.1266  2.6514
  341TMC3    C1 5163   3.670   3.348  10.597 -0.3252  0.6300 -0.0126
  341TMC3    C2 5164   3.637   3.214  10.610 -0.2448  0.2959  0.1909
  341TMC3    C3 5165   3.666   3.132  10.501 -0.0038  0.1576 -0.1204
  341TMC3    C4 5166   3.715   3.401  10.476 -0.2634  0.4691 -0.3045
  341TMC3    C5 5167   3.744   3.316  10.369 -0.4519  0.7345 -0.2442
  341TMC3    C6 5168   3.730   3.180  10.381  0.1846 -0.4383 -0.2073
  341TMC3     C 5169   3.639   3.448  10.697  0.0888 -0.6971 -0.0954
  341TMC3     O 5170   3.533   3.417  10.753  0.0236 -0.4373  0.3667
  341TMC3     H 5171   3.569   3.181  10.689 -0.1482  0.3047  0.2781
  341TMC3    H1 5172   3.715   3.509  10.464 -1.2754  0.3241 -1.6269
  341TMC3    H2 5173   3.741   3.110  10.298 -2.0379 -1.2871  0.2323
  341TMC3    C7 5174   3.826   3.356  10.260  0.5368  0.1594 -0.1666
  341TMC3    C8 5175   3.613   2.999  10.503  0.4259 -0.0182 -0.7009
  341TMC3    O1 5176   3.830   3.284  10.162  0.4878  0.5909 -0.3529
  341TMC3    O2 5177   3.505   2.974  10.550  0.2202 -0.4398 -0.0165
  342MPD2     C 5178   1.246   2.244  17.418  0.4269 -0.0002 -0.1117
  342MPD2    C1 5179   1.338   2.279  17.325 -0.0373 -0.2204  0.2844
  342MPD2    C2 5180   1.409   2.393  17.355  0.8484 -0.3497  0.3238
  342MPD2    C3 5181   1.389   2.463  17.476  0.1866  0.9969 -0.7758
  342MPD2    C4 5182   1.286   2.426  17.561 -0.5516  0.1443  0.0098
  342MPD2    C5 5183   1.216   2.317  17.531  0.0557  0.4301  0.0322
  342MPD2     H 5184   1.478   2.432  17.281  0.0731  1.6549  0.6814
  342MPD2    H1 5185   1.271   2.487  17.650  0.1266  0.4794 -0.1067
  342MPD2    H2 5186   1.184   2.155  17.405 -1.4922  1.5393 -1.4453
  342MPD2    H3 5187   1.134   2.293  17.597 -0.7875 -0.2748 -1.2516
  342MPD2     N 5188   1.472   2.570  17.515 -0.4176 -0.1045 -0.4863
  342MPD2    H5 5189   1.448   2.618  17.601 -2.3405 -1.3421 -0.3223
  342MPD2    N1 5190   1.369   2.211  17.206 -0.0749  0.6407 -0.3557
  342MPD2    H7 5191   1.437   2.255  17.144 -1.6437  1.3131 -1.5908
  343TMC3    C1 5192   1.409   2.007  17.079  0.8015  0.7084  0.1347
  343TMC3    C2 5193   1.496   2.069  16.985 -0.1939  0.1572 -0.0306
  343TMC3    C3 5194   1.536   1.997  16.875 -0.0625 -0.0614 -0.2131
  343TMC3    C4 5195   1.361   1.885  17.065  0.0555 -0.2933 -0.9655
  343TMC3    C5 5196   1.411   1.812  16.961 -0.3344 -0.0807 -0.3543
  343TMC3    C6 5197   1.493   1.864  16.867 -0.3714 -0.1588 -0.3996
  343TMC3     C 5198   1.353   2.075  17.194  0.4286 -0.2463  0.5346
  343TMC3     O 5199   1.292   2.007  17.276 -0.5923  0.2131  0.0133
  343TMC3     H 5200   1.541   2.164  17.010 -0.4199  0.7796 -1.9388
  343TMC3    H1 5201   1.301   1.832  17.137 -0.4539  2.3578  0.5820
  343TMC3    H2 5202   1.522   1.801  16.783  0.3853 -1.5575  0.9226
  343TMC3    C7 5203   1.396   1.670  16.955  0.0378  0.5948  0.0444
  343TMC3    C8 5204   1.641   2.046  16.791  0.2152 -0.2977  0.0363
  343TMC3    O1 5205   1.374   1.613  16.845  0.6496 -0.2174 -0.7240
  343TMC3    O2 5206   1.680   2.154  16.825 -0.3017 -0.2521 -0.7866
  344MPD2     C 5207   2.611   1.034  10.018 -0.3717  0.2166 -0.0086
  344MPD2    C1 5208   2.548   1.058  10.133  0.6540 -0.6376  0.0897
  344MPD2    C2 5209   2.550   1.183  10.188 -0.1493 -0.7460 -0.2773
  344MPD2    C3 5210   2.615   1.293  10.123 -0.0035 -0.1780 -0.1698
  344MPD2    C4 5211   2.678   1.261  10.000  0.5478 -0.0897  0.3875
  344MPD2    C5 5212   2.678   1.136   9.951  0.7148  0.7872  0.5334
  344MPD2     H 5213   2.499   1.209  10.280 -2.3161 -0.1260 -1.6341
  344MPD2    H1 5214   2.714   1.337   9.932 -0.2196  1.7845  2.0865
  344MPD2    H2 5215   2.612   0.940   9.965 -0.2564  1.3379 -2.0410
  344MPD2    H3 5216   2.728   1.107   9.859 -0.8722  2.8214 -0.9680
  344MPD2     N 5217   2.616   1.430  10.166 -0.3920  0.6142 -0.5493
  344MPD2    H5 5218   2.665   1.496  10.108  1.8801  1.3042  2.1614
  344MPD2    N1 5219   2.478   0.958  10.212 -0.2226  0.1486  0.8021
  344MPD2    H7 5220   2.441   0.982  10.303  0.2809 -2.0093  1.5644
  345TMC3    C1 5221   2.608   1.613  10.324 -0.4717  0.3956 -0.5485
  345TMC3    C2 5222   2.598   1.640  10.455 -0.4797  0.0734  0.4676
  345TMC3    C3 5223   2.544   1.761  10.491  0.2506  0.7541  0.7432
  345TMC3    C4 5224   2.596   1.706  10.224 -0.5791  0.0147 -0.3947
  345TMC3    C5 5225   2.531   1.823  10.262  0.0050  1.1340 -0.1590
  345TMC3    C6 5226   2.506   1.851  10.393 -0.5743 -0.0546 -0.0769
  345TMC3     C 5227   2.595   1.468  10.297  0.3986 -0.0300  0.7196
  345TMC3     O 5228   2.553   1.403  10.395 -0.1976  0.1951 -0.1349
  345TMC3     H 5229   2.615   1.566  10.533  2.0714  0.7964  0.6144
  345TMC3    H1 5230   2.590   1.671  10.121 -0.7638 -0.9488 -0.0539
  345TMC3    H2 5231   2.432   1.923  10.425 -0.7785 -0.1897 -0.2514
  345TMC3    C7 5232   2.493   1.918  10.162  0.0095  1.0123  0.4449
  345TMC3    C8 5233   2.530   1.786  10.634 -0.2029  0.0434 -0.1194
  345TMC3    O1 5234   2.504   1.892  10.042 -0.0874 -0.6289 -0.6845
  345TMC3    O2 5235   2.542   1.692  10.711  0.0243 -0.2776 -0.1046
  346MPD2     C 5236   2.369   3.156  14.515  0.3272  0.5944  0.3458
  346MPD2    C1 5237   2.469   3.239  14.460  0.1425 -0.2806  0.0060
  346MPD2    C2 5238   2.551   3.304  14.552 -0.3722  0.4553 -0.2947
  346MPD2    C3 5239   2.545   3.284  14.693  0.3460  0.5666  0.6927
  346MPD2    C4 5240   2.445   3.195  14.735  0.8617  0.3623 -0.5126
  346MPD2    C5 5241   2.361   3.140  14.650  0.0361  0.5684 -0.2989
  346MPD2     H 5242   2.625   3.373  14.513 -0.2886  1.1886  1.1687
  346MPD2    H1 5243   2.444   3.167  14.840 -0.4833  0.6678 -0.4521
  346MPD2    H2 5244   2.290   3.119  14.451  2.0724 -1.5772 -0.5819
  346MPD2    H3 5245   2.291   3.069  14.691  0.2014 -0.7060 -2.2342
  346MPD2     N 5246   2.650   3.324  14.775  0.6802 -0.2394  0.2494
  346MPD2    H5 5247   2.728   3.371  14.730 -1.1869  3.0898  0.4565
  346MPD2    N1 5248   2.484   3.254  14.322  0.5363 -0.5295 -0.0421
  346MPD2    H7 5249   2.564   3.310  14.297 -1.0826  2.3760  1.2261
  347TMC3    C1 5250   2.808   3.322  14.952  0.1127  0.1912  0.3002
  347TMC3    C2 5251   2.895   3.369  14.860 -0.0018 -0.1625 -0.1179
  347TMC3    C3 5252   3.012   3.426  14.919  0.1508 -0.5908 -0.4018
  347TMC3    C4 5253   2.831   3.330  15.090  1.2368 -0.0008 -0.2544
  347TMC3    C5 5254   2.948   3.386  15.132 -0.3697  0.3320  0.1449
  347TMC3    C6 5255   3.049   3.425  15.050 -0.1455  0.0268 -0.1764
  347TMC3     C 5256   2.672   3.299  14.909 -0.2820 -0.0434 -0.4290
  347TMC3     O 5257   2.583   3.279  14.995  0.5200 -0.3737  0.0840
  347TMC3     H 5258   2.886   3.376  14.753  0.6950 -0.0341 -0.1689
  347TMC3    H1 5259   2.755   3.289  15.157 -0.3345  2.3549 -0.5762
  347TMC3    H2 5260   3.145   3.463  15.084 -1.2705  0.3940  2.5387
  347TMC3    C7 5261   2.975   3.373  15.269  0.5172  0.0682  0.2099
  347TMC3    C8 5262   3.126   3.416  14.828 -0.2473  0.2413  0.3755
  347TMC3    O1 5263   2.880   3.359  15.345 -0.3417  0.1515  0.3758
  347TMC3    O2 5264   3.123   3.333  14.738  0.5728 -0.1758  0.6645
  348MPD2     C 5265   1.151   2.501  11.902 -0.0997 -0.6704 -0.3434
  348MPD2    C1 5266   1.228   2.615  11.880 -0.4293  0.2407 -0.5885
  348MPD2    C2 5267   1.153   2.726  11.844  1.0154 -0.5344  0.2836
  348MPD2    C3 5268   1.020   2.742  11.847 -0.8649 -0.3146 -0.3315
  348MPD2    C4 5269   0.948   2.631  11.876 -0.0592  0.1805 -0.4553
  348MPD2    C5 5270   1.014   2.510  11.900 -0.3349 -0.7898 -0.6104
  348MPD2     H 5271   1.214   2.813  11.819 -0.6201  0.3287 -0.7145
  348MPD2    H1 5272   0.840   2.625  11.873 -0.0309 -0.7846  0.4623
  348MPD2    H2 5273   1.195   2.407  11.932 -1.6870 -0.9627  1.0331
  348MPD2    H3 5274   0.961   2.421  11.931  0.7953 -1.4063 -0.4665
  348MPD2     N 5275   0.960   2.855  11.787 -0.7913 -0.2709  0.2226
  348MPD2    H5 5276   1.022   2.932  11.765 -1.7205  0.6118  0.6839
  348MPD2    N1 5277   1.372   2.627  11.878 -0.7006  0.1322 -0.1668
  348MPD2    H7 5278   1.412   2.712  11.840  1.7421 -1.8122 -1.9387
  349TMC3    C1 5279   1.588   2.533  11.859  0.9839 -0.0205  0.5918
  349TMC3    C2 5280   1.658   2.414  11.840  0.1001 -0.2005 -0.2575
  349TMC3    C3 5281   1.744   2.399  11.737 -0.2719  1.4497 -0.5093
  349TMC3    C4 5282   1.623   2.638  11.782  0.2631 -0.2705  0.0589
  349TMC3    C5 5283   1.714   2.625  11.679  0.2391 -0.1683 -0.4002
  349TMC3    C6 5284   1.776   2.502  11.654 -0.6276 -0.8476 -0.3274
  349TMC3     C 5285   1.454   2.523  11.907  0.4077  0.8367 -1.1517
  349TMC3     O 5286   1.434   2.417  11.968 -0.2235  0.2146 -1.2558
  349TMC3     H 5287   1.615   2.329  11.893 -0.6782 -0.6961 -1.6815
  349TMC3    H1 5288   1.572   2.732  11.801  0.5075 -0.5019  1.8299
  349TMC3    H2 5289   1.855   2.498  11.580  0.5418  1.9250  0.7786
  349TMC3    C7 5290   1.717   2.728  11.573  0.2265  0.0813  0.2533
  349TMC3    C8 5291   1.836   2.290  11.743  0.0103 -0.0352  0.3487
  349TMC3    O1 5292   1.707   2.690  11.456 -0.0726  0.1425  0.4437
  349TMC3    O2 5293   1.878   2.234  11.643 -0.1216  0.2214 -0.0580
  350MPD2     C 5294   0.318   1.001   9.989  0.1288 -0.6954  0.0510
  350MPD2    C1 5295   0.341   0.894   9.911 -0.1494  0.2088 -1.0349
  350MPD2    C2 5296   0.445   0.898   9.820 -0.7875  0.3391 -0.4696
  350MPD2    C3 5297   0.531   1.002   9.801 -0.2363 -0.2264  0.7544
  350MPD2    C4 5298   0.510   1.113   9.883  0.5280  0.0028 -0.0244
  350MPD2    C5 5299   0.403   1.110   9.971 -0.0063 -0.5638 -0.0220
  350MPD2     H 5300   0.452   0.816   9.750  0.6276  0.2089 -0.1876
  350MPD2    H1 5301   0.566   1.206   9.873 -1.3217  1.4332  2.9268
  350MPD2    H2 5302   0.238   1.012  10.061  1.8042 -2.9141  2.2344
  350MPD2    H3 5303   0.371   1.202  10.020  1.6441  0.3965 -0.7827
  350MPD2     N 5304   0.637   0.978   9.712  0.3872  0.1798  0.5366
  350MPD2    H5 5305   0.623   0.906   9.642 -0.8333  0.0363  0.9199
  350MPD2    N1 5306   0.263   0.781   9.922  0.0156  0.1376 -0.2521
  350MPD2    H7 5307   0.284   0.701   9.865  0.5772 -1.2559  1.9015
  351TMC3    C1 5308   0.110   0.623  10.000 -0.2266 -1.1489 -0.4089
  351TMC3    C2 5309   0.190   0.526   9.955  0.0070 -0.0392 -0.4923
  351TMC3    C3 5310   0.142   0.397   9.952  0.5178  0.5960 -0.4021
  351TMC3    C4 5311   4.718   0.604  10.034  0.0105  0.2209 -0.1431
  351TMC3    C5 5312   4.672   0.472  10.032  0.5242  0.0618  0.9630
  351TMC3    C6 5313   0.015   0.370   9.993  0.2257  0.1572 -0.4308
  351TMC3     C 5314   0.166   0.755  10.017 -0.3771 -0.9398  0.4925
  351TMC3     O 5315   0.114   0.829  10.101  0.5761  0.1350  0.0162
  351TMC3     H 5316   0.297   0.544   9.958  0.4126 -2.6293  0.5700
  351TMC3    H1 5317   4.662   0.688  10.072 -0.9373 -1.0248  1.2059
  351TMC3    H2 5318   4.719   0.267  10.008 -2.0660  0.8424 -0.5985
  351TMC3    C7 5319   4.524   0.454  10.043 -0.7718  0.4076 -0.3801
  351TMC3    C8 5320   0.226   0.282   9.922  0.5290  0.4007  0.0460
  351TMC3    O1 5321   4.460   0.558  10.057  0.1760  0.0221  0.1437
  351TMC3    O2 5322   0.292   0.289   9.819  0.3439 -0.5573  0.5805
  352MPD2     C 5323   3.539   2.779   1.155 -0.6509 -0.0439  0.2580
  352MPD2    C1 5324   3.404   2.745   1.160 -0.4092  0.8565 -1.1498
  352MPD2    C2 5325   3.360   2.618   1.138  0.1895 -0.2953  0.2472
  352MPD2    C3 5326   3.454   2.522   1.134 -0.3132 -0.3283 -0.0485
  352MPD2    C4 5327   3.588   2.552   1.157  0.1947 -0.0953 -0.5469
  352MPD2    C5 5328   3.622   2.684   1.144 -0.5269 -0.3445  0.7859
  352MPD2     H 5329   3.254   2.599   1.123  0.0727  0.6457 -0.1305
  352MPD2    H1 5330   3.653   2.467   1.166  0.8204  0.3417 -0.9328
  352MPD2    H2 5331   3.577   2.880   1.169  0.2826 -0.4264  0.4472
  352MPD2    H3 5332   3.727   2.709   1.158 -0.8108  1.9958 -1.2191
  352MPD2     N 5333   3.423   2.387   1.120  0.1440  0.6219  0.3819
  352MPD2    H5 5334   3.502   2.323   1.112  0.1777  0.4035  2.6606
  352MPD2    N1 5335   3.311   2.854   1.179 -0.2906  0.2791 -0.7803
  352MPD2    H7 5336   3.357   2.943   1.189 -0.2505  0.0801  0.7319
  353TMC3    C1 5337   3.290   2.180   1.079  0.2091 -0.2077  0.4399
  353TMC3    C2 5338   3.404   2.102   1.097  0.9565  0.4608 -0.4121
  353TMC3    C3 5339   3.399   1.968   1.067  0.1866  0.4763 -0.3344
  353TMC3    C4 5340   3.181   2.123   1.025 -0.0333  0.6313  0.0685
  353TMC3    C5 5341   3.179   1.985   1.014 -0.6581  0.4812 -0.1376
  353TMC3    C6 5342   3.286   1.905   1.022 -0.3742 -0.7268 -1.2051
  353TMC3     C 5343   3.290   2.325   1.097 -0.1565 -0.2693  0.3718
  353TMC3     O 5344   3.182   2.377   1.101  0.1620  0.5798 -0.2070
  353TMC3     H 5345   3.490   2.143   1.149 -1.0243  2.0629  1.6253
  353TMC3    H1 5346   3.100   2.192   1.005  0.8476  1.4006 -0.8015
  353TMC3    H2 5347   3.296   1.799   1.002  1.9557 -1.3148  2.9679
  353TMC3    C7 5348   3.074   1.926   0.933  0.6046  0.5784  0.0017
  353TMC3    C8 5349   3.515   1.888   1.082 -0.6663 -0.7504  0.4569
  353TMC3    O1 5350   3.007   2.003   0.863  0.1800  0.0568 -0.2537
  353TMC3    O2 5351   3.597   1.915   1.168 -0.0791 -0.7617 -0.5849
  354TMC3    C1 5352   1.091   4.344  13.326  0.1975  0.0797  0.1424
  354TMC3    C2 5353   1.075   4.479  13.303  0.2902  0.3236 -0.1158
  354TMC3    C3 5354   1.118   4.527  13.183  1.5655  0.2390 -0.5100
  354TMC3    C4 5355   1.157   4.264  13.238 -0.3886 -0.5416 -0.2085
  354TMC3    C5 5356   1.187   4.316  13.112  0.0605 -0.4063  0.0190
  354TMC3    C6 5357   1.178   4.450  13.085  0.4702 -0.6582  0.0507
  354TMC3     C 5358   1.028   4.284  13.447  0.4909  0.5000  0.0379
  354TMC3     O 5359   0.938   4.346  13.503 -0.4652 -0.5465 -0.1586
  354TMC3     H 5360   1.006   4.533  13.367 -0.5868  0.2009 -0.9645
  354TMC3    H1 5361   1.160   4.157  13.255  1.0960 -0.6251 -0.9844
  354TMC3    H2 5362   1.225   4.486  12.995  1.5335 -1.0023  0.4682
  354TMC3    C7 5363   1.181   4.229  12.993  0.2966 -0.0892 -0.3048
  354TMC3    C8 5364   1.074   4.652  13.132 -0.6968  0.2455  0.1759
  354TMC3    O1 5365   1.171   4.106  13.010 -0.2591  0.1931 -0.5006
  354TMC3    O2 5366   1.045   4.661  13.014  0.0494 -0.1202 -0.3462
  355MPD2     C 5367   0.653   1.047  11.792 -0.3630 -0.6114 -0.2847
  355MPD2    C1 5368   0.677   0.930  11.726 -0.1311  0.5006 -0.0314
  355MPD2    C2 5369   0.720   0.822  11.801  0.3016  0.1440 -0.4254
  355MPD2    C3 5370   0.748   0.836  11.936  0.4078  1.4234  0.4320
  355MPD2    C4 5371   0.727   0.959  11.996 -0.6584 -0.6466  0.3064
  355MPD2    C5 5372   0.681   1.064  11.923 -0.5969  0.0793  0.5538
  355MPD2     H 5373   0.743   0.733  11.743  1.4486 -0.0981  0.4107
  355MPD2    H1 5374   0.759   0.985  12.096  0.9076  1.4610 -0.7425
  355MPD2    H2 5375   0.627   1.133  11.732  1.4024 -0.0755 -0.2595
  355MPD2    H3 5376   0.670   1.158  11.977  2.2411  0.6869  0.0459
  355MPD2     N 5377   0.817   0.738  12.016 -0.9740 -0.2463 -0.0449
  355MPD2    H5 5378   0.852   0.768  12.107 -0.1400  2.1575 -1.1695
  355MPD2    N1 5379   0.663   0.928  11.592  0.5182  0.4080 -0.2070
  355MPD2    H7 5380   0.644   1.016  11.544  1.0322 -0.6492 -2.3445
  356TMC3    C1 5381   0.969   0.562  12.048 -0.4909  0.5524 -0.2751
  356TMC3    C2 5382   1.043   0.489  11.968 -0.8479  0.1002 -0.5528
  356TMC3    C3 5383   1.179   0.490  11.978 -0.1623 -0.1309 -0.4989
  356TMC3    C4 5384   1.020   0.643  12.149 -0.4420  0.5157 -0.5855
  356TMC3    C5 5385   1.160   0.639  12.162  0.2672 -0.5540 -0.0687
  356TMC3    C6 5386   1.242   0.576  12.071  0.1779  0.0371 -0.0189
  356TMC3     C 5387   0.864   0.617  11.963  0.5784 -0.1931  0.5935
  356TMC3     O 5388   0.840   0.565  11.853 -0.5886  0.4586  0.2733
  356TMC3     H 5389   0.996   0.412  11.907  0.0511  0.0632 -1.1974
  356TMC3    H1 5390   0.953   0.687  12.221 -0.7431 -0.4614 -0.2743
  356TMC3    H2 5391   1.349   0.568  12.087  0.3486  1.2144 -0.5509
  356TMC3    C7 5392   1.207   0.671  12.290  0.3148  0.4636  0.2566
  356TMC3    C8 5393   1.236   0.488  11.850 -0.4974 -0.1365 -0.6185
  356TMC3    O1 5394   1.154   0.622  12.391  0.0807  0.1588  0.3230
  356TMC3    O2 5395   1.210   0.389  11.778 -0.2233 -0.2579 -0.8498
  357MPD2     C 5396   0.152   0.567   1.554  0.6020 -0.4779  0.7302
  357MPD2    C1 5397   0.160   0.438   1.598  0.7503  0.3575  0.1166
  357MPD2    C2 5398   0.062   0.403   1.692 -0.0569  0.6972  0.6628
  357MPD2    C3 5399   4.682   0.478   1.702 -0.2933 -0.1414 -0.4601
  357MPD2    C4 5400   4.672   0.605   1.651 -0.0689 -0.2569  0.4179
  357MPD2    C5 5401   0.043   0.649   1.581 -0.7532 -0.1094  0.0598
  357MPD2     H 5402   0.074   0.310   1.746  0.0464  0.9946  1.1582
  357MPD2    H1 5403   4.584   0.666   1.670 -0.3789  0.2292 -2.6619
  357MPD2    H2 5404   0.228   0.611   1.490 -0.1731  1.4150  1.1277
  357MPD2    H3 5405   0.054   0.744   1.530  1.0300  0.6080  1.8205
  357MPD2     N 5406   4.561   0.421   1.754  0.6942 -0.3551 -0.0088
  357MPD2    H5 5407   4.495   0.493   1.781  0.9662  0.0571 -0.4349
  357MPD2    N1 5408   0.273   0.354   1.550 -0.2585  0.3443  0.1583
  357MPD2    H7 5409   0.330   0.395   1.477 -0.3724  4.4555  2.4204
  358TMC3    C1 5410   0.412   0.176   1.527  0.3332  0.5221  0.4052
  358TMC3    C2 5411   0.401   0.177   1.392  0.9348  0.3882 -0.1951
  358TMC3    C3 5412   0.488   0.088   1.326 -0.1963  0.4581  0.2592
  358TMC3    C4 5413   0.492   0.094   1.598 -0.7824 -0.3413 -0.5875
  358TMC3    C5 5414   0.571   0.004   1.536  1.1057 -0.0709 -0.1032
  358TMC3    C6 5415   0.568   0.001   1.398 -0.0291  0.2033  0.2013
  358TMC3     C 5416   0.310   0.237   1.604 -0.7760 -0.1742  0.3232
  358TMC3     O 5417   0.273   0.178   1.708 -0.4212 -0.2122  0.3438
  358TMC3     H 5418   0.318   0.225   1.341  1.5764  2.1802  0.4819
  358TMC3    H1 5419   0.499   0.108   1.705  1.3600 -0.0760 -0.7630
  358TMC3    H2 5420   0.652   4.691   1.348  0.2189 -1.7103  2.3779
  358TMC3    C7 5421   0.658   4.654   1.613 -0.6000 -0.3446  0.3827
  358TMC3    C8 5422   0.454   0.061   1.186 -0.1093  0.1578 -0.5269
  358TMC3    O1 5423   0.701   4.701   1.715 -0.1486  0.1304  0.2344
  358TMC3    O2 5424   0.379   0.138   1.121  0.0199 -0.3117 -0.3531
  359MPD2     C 5425   1.051   3.655  12.823 -0.3298 -0.0879  0.2051
  359MPD2    C1 5426   0.989   3.641  12.700 -0.4793  0.0219 -0.1171
  359MPD2    C2 5427   0.852   3.640  12.687 -0.5640 -0.7046  0.2655
  359MPD2    C3 5428   0.772   3.659  12.797  0.4288 -0.7135 -0.4400
  359MPD2    C4 5429   0.834   3.662  12.919 -0.2102  0.3971  0.6055
  359MPD2    C5 5430   0.969   3.656  12.932 -0.3387 -0.4485  0.1913
  359MPD2     H 5431   0.802   3.636  12.591 -2.2376  0.6588  1.0757
  359MPD2    H1 5432   0.780   3.658  13.013 -1.3335 -2.3402 -0.1634
  359MPD2    H2 5433   1.158   3.660  12.841 -0.5910  0.3454  1.6301
  359MPD2    H3 5434   1.016   3.664  13.030  1.2555 -2.2979 -0.4152
  359MPD2     N 5435   0.632   3.659  12.802 -0.2093 -0.5004 -0.4033
  359MPD2    H5 5436   0.592   3.644  12.894 -1.1549  0.5265 -0.6566
  359MPD2    N1 5437   1.057   3.636  12.578 -0.0309  0.4848 -0.5908
  359MPD2    H7 5438   0.995   3.619  12.500 -1.1140 -1.2084  0.6556
  360TMC3    C1 5439   1.245   3.625  12.426  0.0645 -0.1855  0.0222
  360TMC3    C2 5440   1.361   3.675  12.383 -0.3275  0.6656 -1.1609
  360TMC3    C3 5441   1.414   3.619  12.273  0.1784  0.4410 -0.7766
  360TMC3    C4 5442   1.183   3.520  12.361 -0.2617 -0.6434 -0.3507
  360TMC3    C5 5443   1.232   3.487  12.238 -0.7139  0.3325  0.0636
  360TMC3    C6 5444   1.347   3.540  12.194  0.8457  0.0421 -0.4378
  360TMC3     C 5445   1.190   3.670  12.556  0.1030  0.1439 -0.2005
  360TMC3     O 5446   1.267   3.717  12.639 -0.1890  0.0077 -0.2248
  360TMC3     H 5447   1.430   3.726  12.449 -0.9834 -5.0555  3.9078
  360TMC3    H1 5448   1.095   3.469  12.399 -0.1535 -1.0593 -0.6490
  360TMC3    H2 5449   1.375   3.526  12.090  0.7184  1.8196 -0.7132
  360TMC3    C7 5450   1.133   3.473  12.134 -0.1122 -0.2351 -0.3290
  360TMC3    C8 5451   1.517   3.691  12.204  1.2286 -0.4871 -0.0243
  360TMC3    O1 5452   1.143   3.561  12.047  0.4628 -0.4799 -0.1373
  360TMC3    O2 5453   1.525   3.811  12.234  0.0565  0.2007  0.1046
  361MPD2     C 5454   2.333   2.961  17.217 -0.2492 -0.3322  0.3081
  361MPD2    C1 5455   2.320   2.879  17.105  0.1628 -0.9649  0.3835
  361MPD2    C2 5456   2.429   2.798  17.073 -0.0970 -0.1308 -0.0192
  361MPD2    C3 5457   2.550   2.809  17.143 -0.1377 -0.0125 -0.0544
  361MPD2    C4 5458   2.564   2.902  17.242  0.2356 -0.0271  0.0382
  361MPD2    C5 5459   2.455   2.974  17.280 -0.0394 -0.6802  0.1966
  361MPD2     H 5460   2.402   2.707  17.020 -1.1081 -0.4081  0.9681
  361MPD2    H1 5461   2.653   2.910  17.304  0.8109 -1.3611 -0.6143
  361MPD2    H2 5462   2.253   3.022  17.257  0.8198  1.0392  0.3693
  361MPD2    H3 5463   2.462   3.051  17.356 -1.8290  0.3825 -0.7042
  361MPD2     N 5464   2.661   2.727  17.117 -0.0852  0.6137 -0.7499
  361MPD2    H5 5465   2.741   2.739  17.179 -0.3680 -1.6064  0.0747
  361MPD2    N1 5466   2.196   2.855  17.036  0.5011  0.4135  0.4447
  361MPD2    H7 5467   2.194   2.796  16.953 -1.5120 -1.3050  1.6995
  362TMC3    C1 5468   1.961   2.829  17.026  0.0533  0.3117 -0.3014
  362TMC3    C2 5469   1.853   2.804  17.108  0.0326 -0.3481  0.3839
  362TMC3    C3 5470   1.733   2.783  17.047  0.5487  0.3965 -0.1810
  362TMC3    C4 5471   1.953   2.825  16.886 -0.2314  0.1684 -0.1259
  362TMC3    C5 5472   1.832   2.784  16.831 -0.3830  0.0567 -0.4306
  362TMC3    C6 5473   1.723   2.757  16.912 -0.0207 -0.6670 -0.0691
  362TMC3     C 5474   2.072   2.889  17.090 -0.5299  0.2786  0.8690
  362TMC3     O 5475   2.047   2.941  17.197  0.4678  0.3550  0.2697
  362TMC3     H 5476   1.863   2.812  17.215  1.1051  1.3708  0.1710
  362TMC3    H1 5477   2.036   2.858  16.825  0.4304  0.2860  0.8385
  362TMC3    H2 5478   1.642   2.712  16.856 -2.7858  1.7920  2.0066
  362TMC3    C7 5479   1.792   2.865  16.716 -0.3120 -0.5096 -0.1027
  362TMC3    C8 5480   1.606   2.781  17.118 -0.4977  0.2552 -0.8062
  362TMC3    O1 5481   1.725   2.967  16.736 -0.3795 -0.0124 -0.6910
  362TMC3    O2 5482   1.517   2.715  17.070  0.7202 -0.1023 -0.0278
  363TMC3    C1 5483   1.191   0.436   9.327 -0.2270  0.1149 -1.0103
  363TMC3    C2 5484   1.140   0.322   9.379  0.0027  1.1253 -0.8288
  363TMC3    C3 5485   1.001   0.317   9.395 -0.5980  0.0571 -0.1190
  363TMC3    C4 5486   1.114   0.540   9.289  0.2660  0.1435 -0.2808
  363TMC3    C5 5487   0.978   0.529   9.292  0.9614  0.0771 -0.6445
  363TMC3    C6 5488   0.920   0.418   9.349  0.1418 -0.4505  0.2230
  363TMC3     C 5489   1.335   0.455   9.318  0.0917 -0.2472 -0.6491
  363TMC3     O 5490   1.375   0.563   9.338 -0.5146 -0.3640  0.2551
  363TMC3     H 5491   1.204   0.242   9.414 -1.0847  0.8518  0.5195
  363TMC3    H1 5492   1.164   0.625   9.244  1.2218 -0.0923  0.3203
  363TMC3    H2 5493   0.813   0.404   9.354 -0.5015  3.5709 -1.8530
  363TMC3    C7 5494   0.896   0.643   9.279 -0.7736  0.8238 -0.0331
  363TMC3    C8 5495   0.947   0.234   9.500  0.0357 -0.5053  0.3179
  363TMC3    O1 5496   0.777   0.616   9.284  0.0751  0.3144  0.9129
  363TMC3    O2 5497   0.826   0.254   9.519  0.3794  0.0914  0.3111
  364MPD2     C 5498   4.174   4.198  10.691  0.1654  0.0859  0.0635
  364MPD2    C1 5499   4.290   4.243  10.744 -0.0811 -0.2473 -0.2057
  364MPD2    C2 5500   4.335   4.193  10.867  1.0668 -0.0721  0.3609
  364MPD2    C3 5501   4.272   4.089  10.933 -0.6699  1.2517 -0.4374
  364MPD2    C4 5502   4.145   4.056  10.884  0.0938 -0.4556  0.4147
  364MPD2    C5 5503   4.095   4.113  10.764 -0.3248  0.4461  0.1099
  364MPD2     H 5504   4.436   4.225  10.892  0.4736  3.0387 -1.2269
  364MPD2    H1 5505   4.089   3.969  10.915 -0.6250  0.8311  2.7899
  364MPD2    H2 5506   4.135   4.226  10.594  0.7981  1.3189  0.1671
  364MPD2    H3 5507   4.004   4.080  10.714  0.8446 -1.8651 -0.4993
  364MPD2     N 5508   4.335   4.037  11.049  0.5755 -0.4605 -0.4584
  364MPD2    H5 5509   4.420   4.087  11.075 -0.7833  1.1821  0.7479
  364MPD2    N1 5510   4.379   4.339  10.679 -0.0050 -0.1002 -0.3320
  364MPD2    H7 5511   4.461   4.372  10.730 -0.6646  1.1956 -0.1163
  365TMC3    C1 5512   4.479   4.481  10.520  0.8313  0.2565 -0.6967
  365TMC3    C2 5513   4.566   4.444  10.424 -0.9000  0.8967  0.0306
  365TMC3    C3 5514   4.692   4.491  10.412 -0.5970 -0.3474 -0.9198
  365TMC3    C4 5515   4.507   4.577  10.612 -0.4167 -0.1423  0.2291
  365TMC3    C5 5516   4.626   4.642  10.586  0.4506  0.0059  0.5145
  365TMC3    C6 5517   4.718   4.604  10.485 -0.3304  0.3711  0.3232
  365TMC3     C 5518   4.371   4.387  10.549 -0.0554  0.7760  0.8475
  365TMC3     O 5519   4.307   4.343  10.454 -0.1016 -0.0742  0.3130
  365TMC3     H 5520   4.524   4.373  10.354 -0.2346  0.5413 -0.0044
  365TMC3    H1 5521   4.428   4.608  10.679 -0.6499 -0.7681  0.2362
  365TMC3    H2 5522   0.073   4.659  10.463  1.1587 -3.0358 -1.9520
  365TMC3    C7 5523   4.646   0.024  10.670 -0.2094 -0.0878 -0.3081
  365TMC3    C8 5524   0.011   4.465  10.285 -0.0363 -0.5877 -0.6106
  365TMC3    O1 5525   4.727   0.110  10.643  0.2901 -0.3202 -0.2451
  365TMC3    O2 5526   0.009   4.553  10.199 -0.1341 -0.0761 -0.6864
  366MPD2     C 5527   2.510   1.061  15.010 -0.2890 -0.5207  0.2940
  366MPD2    C1 5528   2.635   1.090  14.984 -0.2600 -0.1235  0.2364
  366MPD2    C2 5529   2.738   0.998  15.020  0.1721  0.6194  0.4981
  366MPD2    C3 5530   2.699   0.890  15.095 -0.0157 -0.0472 -0.1142
  366MPD2    C4 5531   2.566   0.867  15.125  0.5109 -0.0179 -0.4898
  366MPD2    C5 5532   2.472   0.954  15.079  0.1216  1.0185  0.0846
  366MPD2     H 5533   2.842   1.018  14.999  0.2774 -0.9346 -0.4786
  366MPD2    H1 5534   2.539   0.782  15.186  0.3227 -0.4310 -1.1613
  366MPD2    H2 5535   2.428   1.129  14.990  0.6050  1.0701  2.0664
  366MPD2    H3 5536   2.367   0.933  15.095  0.0345  0.9802 -0.5462
  366MPD2     N 5537   2.798   0.793  15.140 -0.7946  0.0912 -0.0938
  366MPD2    H5 5538   2.888   0.823  15.104 -0.0766  1.9380  3.2659
  366MPD2    N1 5539   2.671   1.217  14.930  0.1676  0.5470  0.8046
  366MPD2    H7 5540   2.767   1.244  14.944 -0.4376  3.1386 -0.1160
  367TMC3    C1 5541   2.632   1.422  14.819 -0.2783 -1.4498 -0.7001
  367TMC3    C2 5542   2.754   1.462  14.865 -0.1202  0.9304 -0.2257
  367TMC3    C3 5543   2.780   1.590  14.891 -0.8853 -0.4973  0.6438
  367TMC3    C4 5544   2.535   1.513  14.801 -0.9744  0.8950  0.4214
  367TMC3    C5 5545   2.560   1.644  14.836 -0.0965  0.8410  0.2969
  367TMC3    C6 5546   2.676   1.681  14.892 -1.1327 -0.5522  0.3325
  367TMC3     C 5547   2.588   1.287  14.853 -0.1821  0.0210  0.3268
  367TMC3     O 5548   2.483   1.261  14.795 -0.4609  0.0199 -0.1942
  367TMC3     H 5549   2.830   1.385  14.866  2.1038  3.1366  0.7014
  367TMC3    H1 5550   2.434   1.482  14.778 -1.3225  1.6975  0.8695
  367TMC3    H2 5551   2.688   1.781  14.931 -1.2863 -0.2558 -0.3816
  367TMC3    C7 5552   2.439   1.723  14.851 -0.1629 -0.0082  0.5091
  367TMC3    C8 5553   2.887   1.609  14.985 -0.1072  0.5372 -0.9762
  367TMC3    O1 5554   2.333   1.667  14.834  0.2461  0.2615  0.5746
  367TMC3    O2 5555   2.939   1.506  15.033 -0.0337  0.1410  0.3563
  368MPD2     C 5556   4.624   2.285  12.645  0.0069 -0.4131 -0.7395
  368MPD2    C1 5557   4.613   2.404  12.706 -0.3064  0.9682  0.3298
  368MPD2    C2 5558   4.733   2.461  12.757  0.0912 -0.0277  0.2830
  368MPD2    C3 5559   0.115   2.402  12.746 -0.8672 -0.0189  0.5036
  368MPD2    C4 5560   0.121   2.287  12.674  0.5879 -0.5461 -0.5096
  368MPD2    C5 5561   0.004   2.223  12.636 -0.1551 -0.2745  0.5501
  368MPD2     H 5562   4.726   2.550  12.819  1.1044 -0.4965  1.0751
  368MPD2    H1 5563   0.213   2.231  12.659 -0.0476 -2.2386  1.7618
  368MPD2    H2 5564   4.537   2.233  12.607 -0.9234  0.7871 -0.2653
  368MPD2    H3 5565   0.006   2.122  12.596  1.8078 -0.4021  0.9499
  368MPD2     N 5566   0.238   2.449  12.804  0.1388 -0.2412  0.0105
  368MPD2    H5 5567   0.317   2.387  12.816  0.4540 -0.3478 -2.7966
  368MPD2    N1 5568   4.487   2.474  12.708 -0.2347 -0.5857  0.5123
  368MPD2    H7 5569   4.407   2.419  12.679  1.0227 -3.0999  1.7961
  369TMC3    C1 5570   4.343   2.658  12.742 -0.1794 -0.7662  0.5786
  369TMC3    C2 5571   4.323   2.782  12.688  0.5065  0.2434 -0.3204
  369TMC3    C3 5572   4.218   2.851  12.741 -0.0774 -0.5865  0.3978
  369TMC3    C4 5573   4.271   2.600  12.842 -0.6900 -0.3911  0.1328
  369TMC3    C5 5574   4.165   2.677  12.872 -0.5638 -0.4167  0.0136
  369TMC3    C6 5575   4.135   2.801  12.837  0.5311  0.9325  0.4388
  369TMC3     C 5576   4.475   2.609  12.730  0.9884  0.5540 -0.6505
  369TMC3     O 5577   4.562   2.696  12.739  0.1271 -0.0290 -0.1528
  369TMC3     H 5578   4.402   2.837  12.638  0.0891  0.3132 -0.8965
  369TMC3    H1 5579   4.283   2.498  12.878 -1.5103 -0.6495 -0.3163
  369TMC3    H2 5580   4.050   2.861  12.868 -1.1698 -1.0459 -0.3967
  369TMC3    C7 5581   4.064   2.622  12.962  0.1841  0.0610 -0.2217
  369TMC3    C8 5582   4.223   2.990  12.716 -0.2064  0.5146  0.5017
  369TMC3    O1 5583   4.092   2.567  13.068  0.2916 -0.4895  0.1528
  369TMC3    O2 5584   4.273   3.024  12.610 -0.0899 -0.5905  0.3571
  370TMC3    C1 5585   3.632   3.501  16.183  0.6005 -0.4388 -1.5528
  370TMC3    C2 5586   3.569   3.417  16.263  0.2225  0.0823  0.4441
  370TMC3    C3 5587   3.517   3.297  16.217  0.0572  0.4661 -0.4833
  370TMC3    C4 5588   3.646   3.482  16.045  0.0166 -0.0896 -0.0542
  370TMC3    C5 5589   3.595   3.361  16.001 -1.0030 -0.2168  0.4268
  370TMC3    C6 5590   3.543   3.266  16.086  0.2914  0.1134 -0.8818
  370TMC3     C 5591   3.719   3.603  16.243 -0.1677 -0.0847 -0.5077
  370TMC3     O 5592   3.752   3.582  16.360 -0.2737  1.0770  0.2688
  370TMC3     H 5593   3.547   3.440  16.366  0.4743 -0.9521  0.7269
  370TMC3    H1 5594   3.713   3.542  15.984 -0.8415 -0.4719 -1.3773
  370TMC3    H2 5595   3.488   3.191  16.030  0.8632  0.7418 -2.2745
  370TMC3    C7 5596   3.655   3.315  15.877  0.0004 -0.2224  0.0302
  370TMC3    C8 5597   3.453   3.207  16.305  0.6436  0.3716 -0.1862
  370TMC3    O1 5598   3.685   3.407  15.804 -0.5573 -0.3219 -0.6042
  370TMC3    O2 5599   3.434   3.095  16.270 -0.2207  0.0876 -0.0572
  371TMC3    C1 5600   0.252   1.983  15.196  0.4402  0.1867 -0.2718
  371TMC3    C2 5601   0.135   1.969  15.267 -0.3772 -0.2258 -0.0461
  371TMC3    C3 5602   0.056   2.072  15.308 -1.1515 -0.3087  0.4806
  371TMC3    C4 5603   0.304   2.112  15.178  0.3079 -0.3816 -0.7054
  371TMC3    C5 5604   0.227   2.219  15.220 -0.1736  0.4854 -0.5679
  371TMC3    C6 5605   0.096   2.202  15.273 -0.7385  0.1871  0.7437
  371TMC3     C 5606   0.339   1.869  15.171  0.8043  0.1522  0.4627
  371TMC3     O 5607   0.431   1.888  15.097 -0.2631  0.1328 -0.0864
  371TMC3     H 5608   0.091   1.871  15.278  1.2926 -0.9752 -0.0600
  371TMC3    H1 5609   0.409   2.125  15.158  0.0457  3.1928  0.2567
  371TMC3    H2 5610   0.039   2.292  15.291  1.9818  1.3810  3.4939
  371TMC3    C7 5611   0.279   2.356  15.209 -0.7828 -0.3022  0.6549
  371TMC3    C8 5612   4.688   2.035  15.404  0.6127  0.3793  0.1178
  371TMC3    O1 5613   0.215   2.444  15.261 -0.0276 -0.0170 -0.1361
  371TMC3    O2 5614   4.657   1.915  15.407  0.3849 -0.4589 -0.4083
  372MPD2     C 5615   0.260   3.227  13.526  1.2385  0.4770  0.2828
  372MPD2    C1 5616   0.292   3.142  13.625  0.9872 -0.4603  0.4186
  372MPD2    C2 5617   0.207   3.035  13.651  0.4434  1.0580  0.6366
  372MPD2    C3 5618   0.095   3.008  13.575 -0.2398  0.2769 -0.2586
  372MPD2    C4 5619   0.066   3.098  13.468 -0.6302  1.0537  0.6584
  372MPD2    C5 5620   0.148   3.203  13.448  0.1787 -0.0593  0.2320
  372MPD2     H 5621   0.225   2.972  13.737 -0.3368  1.4698  1.1060
  372MPD2    H1 5622   4.717   3.094  13.403 -0.7991 -0.0092  0.9419
  372MPD2    H2 5623   0.322   3.315  13.516  1.8513  0.3190  2.7471
  372MPD2    H3 5624   0.125   3.273  13.369  1.6107  1.5382  1.2276
  372MPD2     N 5625   0.034   2.877  13.591  0.6304  0.3641 -0.1237
  372MPD2    H5 5626   0.086   2.808  13.645  3.5947  1.1329 -1.9662
  372MPD2    N1 5627   0.403   3.165  13.717 -0.1300 -0.1626 -0.5166
  372MPD2    H7 5628   0.406   3.090  13.786  2.1906 -1.2316 -1.7971
  373TMC3    C1 5629   4.621   2.715  13.535 -0.2428 -0.6997  0.4539
  373TMC3    C2 5630   4.487   2.678  13.515 -0.0541  0.0301 -0.3408
  373TMC3    C3 5631   4.461   2.549  13.511  0.2092  0.2611 -0.3752
  373TMC3    C4 5632   4.719   2.620  13.538  0.3152  0.7724 -0.3240
  373TMC3    C5 5633   4.683   2.487  13.515 -0.5353 -0.5901  0.0396
  373TMC3    C6 5634   4.553   2.449  13.501  0.8643  0.1535 -0.9668
  373TMC3     C 5635   4.658   2.854  13.523 -0.6837  0.6204  0.2911
  373TMC3     O 5636   4.576   2.935  13.479 -0.8229 -0.2503  0.7110
  373TMC3     H 5637   4.404   2.744  13.537  0.2765  0.6099 -0.8425
  373TMC3    H1 5638   0.084   2.658  13.530  0.0708  1.3198 -0.8039
  373TMC3    H2 5639   4.524   2.345  13.508 -0.7984  0.7115  0.2197
  373TMC3    C7 5640   0.050   2.398  13.491 -0.0947  0.1010  0.2299
  373TMC3    C8 5641   4.319   2.523  13.493  0.8394  0.6498  0.4640
  373TMC3    O1 5642   0.153   2.432  13.546 -0.3814 -0.0115  0.1217
  373TMC3    O2 5643   4.255   2.622  13.448  0.3833  1.0129 -0.0462
  374TMC3    C1 5644   0.578   2.940   9.628  0.1294 -0.2963 -0.5692
  374TMC3    C2 5645   0.608   3.056   9.695 -0.2228  0.3245 -0.0569
  374TMC3    C3 5646   0.631   3.164   9.618 -0.5322 -0.4042  0.3937
  374TMC3    C4 5647   0.547   2.930   9.485 -0.4828  0.1653 -0.2665
  374TMC3    C5 5648   0.570   3.043   9.425  0.3651  0.2323  0.2531
  374TMC3    C6 5649   0.617   3.156   9.484  0.1669 -0.1753 -0.3827
  374TMC3     C 5650   0.595   2.813   9.696  0.1017 -0.3598  0.4441
  374TMC3     O 5651   0.589   2.817   9.820 -0.0060  0.4050  0.1402
  374TMC3     H 5652   0.606   3.054   9.803  1.1304 -0.4991 -0.0546
  374TMC3    H1 5653   0.547   2.835   9.433  0.6836  0.5279 -0.9298
  374TMC3    H2 5654   0.629   3.245   9.423  0.6658 -1.5037 -2.1865
  374TMC3    C7 5655   0.586   3.043   9.283  0.4650 -0.6463  0.4139
  374TMC3    C8 5656   0.691   3.283   9.677 -0.1695 -0.0137  1.0050
  374TMC3    O1 5657   0.663   3.114   9.220 -0.3836 -0.4752 -0.6358
  374TMC3    O2 5658   0.745   3.367   9.608 -0.4430 -0.2307  0.2900
  375MPD2     C 5659   0.305   3.559  17.047  0.3634 -0.3088 -0.3522
  375MPD2    C1 5660   0.235   3.593  16.931 -0.8985 -0.0664  0.5236
  375MPD2    C2 5661   0.264   3.527  16.814  0.5546  0.7197 -0.8728
  375MPD2    C3 5662   0.349   3.421  16.820  1.0166 -0.3904  0.0966
  375MPD2    C4 5663   0.413   3.384  16.937 -0.2421  0.0283  0.2494
  375MPD2    C5 5664   0.392   3.455  17.049  0.2462 -1.1830 -0.0334
  375MPD2     H 5665   0.211   3.560  16.725 -0.0494  1.6072 -0.1821
  375MPD2    H1 5666   0.491   3.308  16.937 -0.9377 -0.6767  2.3139
  375MPD2    H2 5667   0.301   3.608  17.143 -2.5143 -0.4231 -0.4307
  375MPD2    H3 5668   0.439   3.442  17.146 -1.0683 -0.4053  0.7074
  375MPD2     N 5669   0.386   3.349  16.712 -0.0192 -0.1765  0.2958
  375MPD2    H5 5670   0.456   3.279  16.733  0.6228  0.5879  0.6745
  375MPD2    N1 5671   0.143   3.701  16.921  0.1627 -0.4305  0.2931
  375MPD2    H7 5672   0.094   3.700  16.832  0.8044 -0.5265 -0.0551
  376TMC3    C1 5673   0.441   3.302  16.490  0.2462  0.3873 -0.3170
  376TMC3    C2 5674   0.572   3.320  16.525 -0.3212  0.6657 -0.5407
  376TMC3    C3 5675   0.658   3.292  16.425 -0.0701 -0.9866  0.6329
  376TMC3    C4 5676   0.397   3.270  16.371 -0.0900  0.1804 -0.0958
  376TMC3    C5 5677   0.486   3.249  16.278  0.6097  0.1283 -0.2821
  376TMC3    C6 5678   0.621   3.258  16.297 -0.1818  0.1744  0.2090
  376TMC3     C 5679   0.354   3.379  16.583  0.2007  0.1100 -0.5679
  376TMC3     O 5680   0.280   3.462  16.531 -0.1850  0.0728 -0.0848
  376TMC3     H 5681   0.597   3.382  16.610 -1.3607  0.1113  0.1627
  376TMC3    H1 5682   0.289   3.261  16.367 -0.0461 -0.0393 -0.6937
  376TMC3    H2 5683   0.689   3.246  16.214 -1.3918  0.2835 -0.7969
  376TMC3    C7 5684   0.440   3.314  16.163 -0.6255 -0.0394  1.0869
  376TMC3    C8 5685   0.776   3.371  16.448 -0.5546  0.4804 -0.4268
  376TMC3    O1 5686   0.327   3.368  16.164  0.3019 -0.2856 -0.2625
  376TMC3    O2 5687   0.809   3.442  16.353  0.2875 -0.2410  0.4116
  377MPD2     C 5688   3.971   3.670  13.005  0.5879  0.6476 -0.4598
  377MPD2    C1 5689   3.863   3.585  12.984  0.3741 -0.9844 -0.4212
  377MPD2    C2 5690   3.817   3.507  13.090  0.0585 -0.2933 -0.5126
  377MPD2    C3 5691   3.869   3.518  13.219  0.5841 -0.0037  0.0034
  377MPD2    C4 5692   3.993   3.587  13.227  0.3934  0.1079 -0.7844
  377MPD2    C5 5693   4.039   3.665  13.126  0.5258 -0.4379  0.2519
  377MPD2     H 5694   3.751   3.427  13.061 -0.7390  0.2067 -0.0963
  377MPD2    H1 5695   4.055   3.583  13.316 -0.0167  1.1248 -0.4570
  377MPD2    H2 5696   4.010   3.736  12.927  1.0099 -0.1257 -0.8984
  377MPD2    H3 5697   4.135   3.714  13.132 -0.6318  1.7104  1.3559
  377MPD2     N 5698   3.829   3.436  13.328  0.3272 -0.9423  0.2195
  377MPD2    H5 5699   3.892   3.428  13.408  0.6802  0.3212  0.0726
  377MPD2    N1 5700   3.813   3.591  12.852 -0.0786  0.2955 -0.0528
  377MPD2    H7 5701   3.863   3.644  12.782  0.2821 -1.3541 -1.0522
  378TMC3    C1 5702   3.531   3.552  12.492 -0.1857  0.5570 -0.3714
  378TMC3    C2 5703   3.552   3.570  12.624 -0.3554  0.1263  0.1106
  378TMC3    C3 5704   3.676   3.549  12.670  0.0178  0.1449 -0.0826
  378TMC3    C4 5705   3.630   3.506  12.405 -0.0516  0.4777 -0.0665
  378TMC3    C5 5706   3.755   3.493  12.454  0.0271  0.6799 -0.0988
  378TMC3    C6 5707   3.784   3.523  12.586 -0.5190  0.9195  1.2418
  378TMC3     C 5708   3.395   3.541  12.452 -0.4020  0.1946  0.9133
  378TMC3     O 5709   3.315   3.495  12.534 -0.0878 -0.1607 -0.5306
  378TMC3     H 5710   3.466   3.581  12.689 -0.9783 -0.0113 -0.6863
  378TMC3    H1 5711   3.599   3.465  12.310 -1.1175 -1.7821  1.2750
  378TMC3    H2 5712   3.880   3.501  12.632 -0.3640  1.0234  0.9660
  378TMC3    C7 5713   3.848   3.401  12.388 -0.5822  0.2620  0.0933
  378TMC3    C8 5714   3.695   3.537  12.811  0.4308  0.6045  0.2834
  378TMC3    O1 5715   3.934   3.360  12.460  0.3630  0.0659  0.2414
  378TMC3    O2 5716   3.603   3.484  12.871 -0.0127 -0.2603 -0.0997
  379MPD2     C 5717   3.849   1.678  15.710  0.8274  0.7684  0.1620
  379MPD2    C1 5718   3.761   1.626  15.803 -0.5683 -0.6944  0.4250
  379MPD2    C2 5719   3.810   1.576  15.922  0.4858 -0.7389  0.4159
  379MPD2    C3 5720   3.949   1.579  15.944 -0.3801  0.6855 -0.1220
  379MPD2    C4 5721   4.036   1.628  15.851 -0.2605 -0.2343 -0.3466
  379MPD2    C5 5722   3.986   1.683  15.733  0.2527 -0.8304  0.2248
  379MPD2     H 5723   3.747   1.539  16.001 -0.7879 -0.4800 -0.4839
  379MPD2    H1 5724   4.143   1.629  15.868 -0.0887  0.1000 -1.5057
  379MPD2    H2 5725   3.826   1.717  15.611  2.7943 -0.3366 -0.7171
  379MPD2    H3 5726   4.046   1.718  15.650  0.2234 -0.8084  0.2133
  379MPD2     N 5727   4.020   1.521  16.050 -0.1539 -0.6009  0.3703
  379MPD2    H5 5728   4.121   1.515  16.049 -0.2133 -0.8494 -3.3385
  379MPD2    N1 5729   3.625   1.617  15.784  0.8866  0.6527 -0.1054
  379MPD2    H7 5730   3.594   1.654  15.695 -0.8653  1.2946  0.7877
  380TMC3    C1 5731   3.409   1.543  15.783  0.2173 -0.0144 -0.0790
  380TMC3    C2 5732   3.389   1.409  15.755  0.2332 -0.0395  0.6950
  380TMC3    C3 5733   3.353   1.367  15.628  0.3446 -0.3336  0.3720
  380TMC3    C4 5734   3.371   1.640  15.699 -0.2622 -0.5100 -0.1442
  380TMC3    C5 5735   3.315   1.597  15.580 -0.2337 -0.2030 -0.1682
  380TMC3    C6 5736   3.296   1.465  15.544  0.4703  0.0383 -0.6703
  380TMC3     C 5737   3.526   1.559  15.861  0.0512  0.0217 -1.0189
  380TMC3     O 5738   3.536   1.501  15.969 -0.3169 -0.6730 -0.3200
  380TMC3     H 5739   3.428   1.344  15.833  0.4048 -0.1794  0.4915
  380TMC3    H1 5740   3.379   1.742  15.734  1.9637 -0.7735  0.1354
  380TMC3    H2 5741   3.289   1.434  15.440 -3.6174 -0.0046 -0.3726
  380TMC3    C7 5742   3.251   1.702  15.514 -0.3098 -0.1786  0.1786
  380TMC3    C8 5743   3.457   1.287  15.562 -0.2344  0.4611 -0.2906
  380TMC3    O1 5744   3.263   1.815  15.566  0.8583  0.2627 -0.3939
  380TMC3    O2 5745   3.453   1.277  15.442 -0.5079  0.1465 -0.3337
  381TMC3    C1 5746   3.440   2.568  16.087 -0.0044 -0.5819 -0.4121
  381TMC3    C2 5747   3.563   2.635  16.104 -0.2132 -0.1653  0.1885
  381TMC3    C3 5748   3.575   2.729  16.202  0.3010  0.2814 -0.7166
  381TMC3    C4 5749   3.333   2.604  16.167  0.4117  0.8521  0.1147
  381TMC3    C5 5750   3.348   2.694  16.265  0.3011  0.4184 -1.0106
  381TMC3    C6 5751   3.469   2.762  16.286 -0.5031  0.4234 -0.9571
  381TMC3     C 5752   3.421   2.473  15.981 -0.4335  0.7635 -0.4754
  381TMC3     O 5753   3.303   2.449  15.954 -0.3626  0.1725  0.3763
  381TMC3     H 5754   3.652   2.624  16.043  0.3381  1.4512  0.6880
  381TMC3    H1 5755   3.235   2.558  16.166 -0.2605  2.2854 -0.1929
  381TMC3    H2 5756   3.477   2.829  16.370  0.2608 -0.1974 -0.5318
  381TMC3    C7 5757   3.299   2.627  16.387 -0.9565  0.4117 -0.1534
  381TMC3    C8 5758   3.699   2.817  16.196 -0.9679  0.0135  0.0722
  381TMC3    O1 5759   3.314   2.504  16.388  0.2297  0.0512  0.5732
  381TMC3    O2 5760   3.783   2.791  16.109  0.6454 -0.5966 -0.0107
  382MPD2     C 5761   2.448   0.484  16.639 -0.4860  0.0277  0.5202
  382MPD2    C1 5762   2.546   0.498  16.733  0.8523  0.4810 -0.3945
  382MPD2    C2 5763   2.564   0.393  16.827 -1.0289  0.2443  0.3179
  382MPD2    C3 5764   2.471   0.288  16.829 -0.7192 -0.4401 -0.5694
  382MPD2    C4 5765   2.374   0.278  16.729  0.1479 -0.1103 -0.0732
  382MPD2    C5 5766   2.361   0.380  16.646  0.0355  0.0118  0.3050
  382MPD2     H 5767   2.616   0.415  16.920 -3.9019 -0.6257  2.1369
  382MPD2    H1 5768   2.301   0.198  16.738 -0.5036  0.6446  1.3373
  382MPD2    H2 5769   2.427   0.561  16.566  2.2466 -0.1846 -0.4919
  382MPD2    H3 5770   2.280   0.374  16.574 -0.2253 -0.6516  0.6512
  382MPD2     N 5771   2.471   0.180  16.922  0.4319  0.2228  0.0908
  382MPD2    H5 5772   2.389   0.120  16.921 -0.6279  1.6765 -0.5592
  382MPD2    N1 5773   2.621   0.615  16.754 -0.2503  0.3956  0.2897
  382MPD2    H7 5774   2.683   0.608  16.834 -3.2932 -3.0108  2.3553
  383TMC3    C1 5775   2.557   0.064  17.115 -0.6490 -0.5423  0.1882
  383TMC3    C2 5776   2.438   0.009  17.164 -0.8224 -0.8750  0.2773
  383TMC3    C3 5777   2.447   4.646  17.259  0.2746  0.6814  0.7156
  383TMC3    C4 5778   2.679   0.020  17.155  0.2241 -0.0030  0.2254
  383TMC3    C5 5779   2.689   4.643  17.234  0.2003 -0.5336  0.5337
  383TMC3    C6 5780   2.569   4.591  17.288 -0.1672 -0.4215 -0.5144
  383TMC3     C 5781   2.566   0.178  17.021  0.2172  0.2092  0.2716
  383TMC3     O 5782   2.680   0.225  17.018  0.3876 -0.1391 -0.1046
  383TMC3     H 5783   2.338   0.048  17.148 -0.4329 -0.2685 -0.7069
  383TMC3    H1 5784   2.771   0.052  17.108 -1.1535 -0.2392 -2.6282
  383TMC3    H2 5785   2.583   4.534  17.379 -2.2066 -0.0302  0.0419
  383TMC3    C7 5786   2.813   4.614  17.293 -0.4139 -0.1351 -0.2060
  383TMC3    C8 5787   2.323   4.564  17.270  0.3618 -0.6728 -0.5842
  383TMC3    O1 5788   2.899   4.701  17.292  0.5867  0.6740 -0.3893
  383TMC3    O2 5789   2.219   4.618  17.235  0.0734  0.4277  0.5067
  384MPD2     C 5790   0.277   1.079  11.915  0.4292  0.6922  0.8384
  384MPD2    C1 5791   0.291   1.030  12.042 -0.9286 -0.0313 -0.7266
  384MPD2    C2 5792   0.306   0.896  12.050 -0.1266  0.5515  0.5522
  384MPD2    C3 5793   0.347   0.818  11.940 -0.3760  0.3826  0.4959
  384MPD2    C4 5794   0.346   0.877  11.814 -0.1885  0.4809 -0.0049
  384MPD2    C5 5795   0.295   1.001  11.800 -0.0652  0.1028  0.3696
  384MPD2     H 5796   0.286   0.858  12.150  0.3110 -1.7851 -0.2374
  384MPD2    H1 5797   0.380   0.827  11.724 -1.8954 -1.3268  0.3839
  384MPD2    H2 5798   0.246   1.181  11.899  4.1653  1.9701  1.7665
  384MPD2    H3 5799   0.286   1.049  11.703  0.8003  0.8796  0.6693
  384MPD2     N 5800   0.390   0.680  11.942 -0.1980  0.1315 -0.6709
  384MPD2    H5 5801   0.395   0.630  11.854 -1.7667  1.1838 -1.3521
  384MPD2    N1 5802   0.267   1.109  12.157  0.0539  0.9353 -0.2778
  384MPD2    H7 5803   0.233   1.205  12.148 -1.4836  0.5547  1.3836
  385TMC3    C1 5804   0.465   0.480  12.052 -0.1292 -0.2998  0.2270
  385TMC3    C2 5805   0.380   0.388  11.999 -0.4250  0.5825  0.2709
  385TMC3    C3 5806   0.367   0.266  12.054 -0.1848  0.2999  0.0888
  385TMC3    C4 5807   0.531   0.456  12.171  0.2561  0.1789 -0.1522
  385TMC3    C5 5808   0.499   0.338  12.238  0.2380  0.1742 -0.0508
  385TMC3    C6 5809   0.432   0.235  12.169 -0.1021  0.5727  0.0813
  385TMC3     C 5810   0.428   0.618  12.059 -0.5050 -0.0650 -0.4015
  385TMC3     O 5811   0.447   0.669  12.167  0.7403  0.4280 -0.2010
  385TMC3     H 5812   0.324   0.426  11.914 -0.7182  0.1939  0.2941
  385TMC3    H1 5813   0.600   0.527  12.215 -0.3004  1.1058 -0.7708
  385TMC3    H2 5814   0.402   0.150  12.229  4.1093 -0.3856  0.7871
  385TMC3    C7 5815   0.465   0.357  12.371  0.1674 -0.3203 -0.5080
  385TMC3    C8 5816   0.264   0.172  12.004  0.4654  0.4893  0.0729
  385TMC3    O1 5817   0.388   0.271  12.420 -0.0214  0.2299 -0.3496
  385TMC3    O2 5818   0.213   0.212  11.901  0.3276 -0.1472 -0.4129
  386TMC3    C1 5819   0.056   3.175  11.693 -0.1419  0.5844 -0.4693
  386TMC3    C2 5820   0.012   3.073  11.608  0.2986  0.1076 -0.5452
  386TMC3    C3 5821   4.614   3.074  11.573 -0.4207  0.6964 -0.8480
  386TMC3    C4 5822   4.720   3.287  11.720  0.0775 -0.4730  0.3193
  386TMC3    C5 5823   4.587   3.288  11.683 -0.2302 -0.4485  0.5990
  386TMC3    C6 5824   4.531   3.180  11.616 -0.0187 -0.6624 -0.4396
  386TMC3     C 5825   0.178   3.158  11.765 -0.5132  0.1572 -0.1428
  386TMC3     O 5826   0.234   3.265  11.784  0.9309  0.2007 -0.1506
  386TMC3     H 5827   0.074   2.989  11.579  2.2465  1.0601  0.8819
  386TMC3    H1 5828   0.019   3.369  11.782  1.4054 -1.5594  0.9968
  386TMC3    H2 5829   4.431   3.190  11.574  0.3736 -2.8550 -1.8888
  386TMC3    C7 5830   4.497   3.377  11.749  0.1346 -0.0407  0.0649
  386TMC3    C8 5831   4.556   3.002  11.456 -0.3915 -0.1178  0.4874
  386TMC3    O1 5832   4.481   3.354  11.867 -0.9299 -0.0798  0.4052
  386TMC3    O2 5833   4.431   2.995  11.457 -0.4365  0.2047 -0.4072
  387MPD2     C 5834   2.230   3.588  10.302  0.0630 -0.9933  0.7297
  387MPD2    C1 5835   2.330   3.549  10.393  0.0800  0.2366 -0.2281
  387MPD2    C2 5836   2.346   3.412  10.420 -0.0928 -0.0165  0.1334
  387MPD2    C3 5837   2.266   3.317  10.362 -0.6549 -0.2860 -0.5720
  387MPD2    C4 5838   2.156   3.362  10.280  0.0946  0.0506  0.0726
  387MPD2    C5 5839   2.135   3.496  10.257 -0.1790  0.5486 -1.1887
  387MPD2     H 5840   2.426   3.370  10.481  0.0104 -0.3379 -0.2237
  387MPD2    H1 5841   2.088   3.289  10.237  1.3487 -2.1318  1.8177
  387MPD2    H2 5842   2.211   3.691  10.273  0.9140 -1.2559 -0.7518
  387MPD2    H3 5843   2.051   3.526  10.195 -0.9162  1.4415  0.2525
  387MPD2     N 5844   2.296   3.183  10.381 -0.1883  0.4787  0.0567
  387MPD2    H5 5845   2.373   3.161  10.443  0.6548  0.3310 -1.0451
  387MPD2    N1 5846   2.420   3.639  10.454  0.0901 -0.3287 -0.2295
  387MPD2    H7 5847   2.475   3.590  10.524 -0.4520  1.5245  1.4628
  388TMC3    C1 5848   2.600   3.780  10.443  0.3738  0.0352  0.0194
  388TMC3    C2 5849   2.641   3.894  10.377  0.2647  0.0582  0.2118
  388TMC3    C3 5850   2.772   3.918  10.349 -0.2630  0.0587 -0.3113
  388TMC3    C4 5851   2.684   3.672  10.457  0.3230  0.3211 -0.2153
  388TMC3    C5 5852   2.816   3.687  10.414  0.0645  0.3491 -0.3383
  388TMC3    C6 5853   2.857   3.813  10.363 -0.7256  0.0972  0.2727
  388TMC3     C 5854   2.464   3.758  10.406  0.3374 -0.1718  0.0140
  388TMC3     O 5855   2.406   3.828  10.318 -0.7582 -0.5973  0.0362
  388TMC3     H 5856   2.571   3.974  10.357 -0.2126 -0.4192 -0.0054
  388TMC3    H1 5857   2.651   3.584  10.511 -0.9170  1.1511  0.3589
  388TMC3    H2 5858   2.951   3.825  10.311 -1.7358  3.3922 -0.7800
  388TMC3    C7 5859   2.911   3.577  10.410  0.1096 -0.1047 -0.0925
  388TMC3    C8 5860   2.814   4.053  10.309  0.0744 -0.1268  1.2196
  388TMC3    O1 5861   3.024   3.600  10.372  0.1187 -0.2584  0.1342
  388TMC3    O2 5862   2.723   4.131  10.294 -0.2628 -0.3882 -0.2648
  389MPD2     C 5863   2.018   0.887  10.394 -0.0160 -0.0788 -0.6880
  389MPD2    C1 5864   2.057   1.016  10.430 -0.0627 -0.2546  0.0027
  389MPD2    C2 5865   2.051   1.050  10.564 -0.0148  0.2433 -0.9023
  389MPD2    C3 5866   1.982   0.966  10.654  0.4310  0.4234 -0.6078
  389MPD2    C4 5867   1.929   0.844  10.614 -0.2053  0.6683  0.3500
  389MPD2    C5 5868   1.957   0.804  10.482 -0.1586  0.0286  0.1178
  389MPD2     H 5869   2.075   1.151  10.595  0.1254  0.5209 -1.9355
  389MPD2    H1 5870   1.879   0.772  10.677 -1.3474  0.8103 -0.3830
  389MPD2    H2 5871   2.024   0.845  10.294  1.0212 -1.4607 -0.0493
  389MPD2    H3 5872   1.925   0.705  10.450  1.1495 -0.1770 -0.5434
  389MPD2     N 5873   1.960   0.999  10.796  0.4395  0.0627  0.5286
  389MPD2    H5 5874   1.904   0.933  10.849 -0.7560  0.9084  0.3052
  389MPD2    N1 5875   2.102   1.096  10.321  0.2049  1.0403 -0.1503
  389MPD2    H7 5876   2.099   1.066  10.224  0.1909  1.0516 -0.1533
  390TMC3    C1 5877   1.956   1.111  11.000 -0.3419 -0.6293 -0.6498
  390TMC3    C2 5878   1.833   1.057  11.024 -0.2757  0.3296  0.6703
  390TMC3    C3 5879   1.776   1.086  11.139  0.1057  0.0129  0.1046
  390TMC3    C4 5880   2.010   1.207  11.090  0.0416 -0.5928 -0.3650
  390TMC3    C5 5881   1.941   1.242  11.205  0.1274 -0.1357 -0.2576
  390TMC3    C6 5882   1.824   1.176  11.233 -0.2843 -0.2746 -0.0173
  390TMC3     C 5883   2.000   1.110  10.866  0.0456 -0.4769  0.4893
  390TMC3     O 5884   2.080   1.196  10.836  0.4955  0.2278  0.3136
  390TMC3     H 5885   1.783   0.991  10.954  1.0649  0.5548 -0.4792
  390TMC3    H1 5886   2.101   1.262  11.071 -0.6862  0.0367 -1.9494
  390TMC3    H2 5887   1.774   1.197  11.327  0.8120 -2.0845  0.9567
  390TMC3    C7 5888   1.989   1.349  11.286 -0.7961 -0.5475 -0.3142
  390TMC3    C8 5889   1.635   1.067  11.135 -0.4625 -0.4929  0.8572
  390TMC3    O1 5890   2.107   1.378  11.260  0.1449  0.2302 -0.6001
  390TMC3    O2 5891   1.593   0.959  11.180  0.1254  0.7116  0.4547
  391MPD2     C 5892   0.613   2.853  11.202  0.4563 -0.0732 -0.4043
  391MPD2    C1 5893   0.600   2.984  11.241 -0.0041 -0.3206  0.2379
  391MPD2    C2 5894   0.597   3.075  11.133 -0.0556 -0.7364  0.1122
  391MPD2    C3 5895   0.586   3.035  10.999  0.4344 -0.1043 -0.0648
  391MPD2    C4 5896   0.588   2.899  10.972  1.0133 -0.3439  0.1403
  391MPD2    C5 5897   0.609   2.815  11.076 -0.1956  0.0008  0.6645
  391MPD2     H 5898   0.609   3.179  11.163 -0.3044 -0.4387 -0.8124
  391MPD2    H1 5899   0.589   2.858  10.871 -0.6036 -0.2146  0.0714
  391MPD2    H2 5900   0.626   2.781  11.282  0.8396  1.6970  1.1057
  391MPD2    H3 5901   0.624   2.710  11.053 -0.4419  0.4509 -1.5531
  391MPD2     N 5902   0.586   3.135  10.899 -0.4001  0.2721  0.4175
  391MPD2    H5 5903   0.599   3.229  10.935  1.6576  0.4481 -0.7848
  391MPD2    N1 5904   0.621   3.020  11.377  0.2023 -0.3201  0.4202
  391MPD2    H7 5905   0.654   2.948  11.441 -0.4867 -0.9971  0.0240
  392TMC3    C1 5906   0.652   3.224  10.691  0.1604 -0.5963 -0.3601
  392TMC3    C2 5907   0.651   3.219  10.552 -0.0232  0.5815  0.2180
  392TMC3    C3 5908   0.712   3.323  10.485 -0.5001 -0.0408 -0.2434
  392TMC3    C4 5909   0.714   3.326  10.754 -1.0153 -0.1818  0.9262
  392TMC3    C5 5910   0.780   3.427  10.682  0.6781 -0.0673 -0.0945
  392TMC3    C6 5911   0.776   3.428  10.548 -0.2054 -0.1210  0.1931
  392TMC3     C 5912   0.603   3.111  10.770  0.4523 -0.5022 -0.0182
  392TMC3     O 5913   0.618   3.006  10.710 -0.6034 -0.0967 -0.1315
  392TMC3     H 5914   0.602   3.133  10.506  1.6728 -0.4815  0.4168
  392TMC3    H1 5915   0.725   3.331  10.862 -0.6942  2.0481  0.7970
  392TMC3    H2 5916   0.849   3.483  10.490  1.1508 -1.6417  0.4696
  392TMC3    C7 5917   0.869   3.509  10.758 -0.1692  0.5174 -0.0035
  392TMC3    C8 5918   0.697   3.322  10.341  0.3636  1.0949  0.2128
  392TMC3    O1 5919   0.910   3.465  10.865 -0.2770  0.1192  0.0875
  392TMC3    O2 5920   0.646   3.220  10.294 -0.7603  0.0361 -0.3663
  393TMC3    C1 5921   0.421   0.928  10.366 -0.3365  0.2313  0.2419
  393TMC3    C2 5922   0.294   0.926  10.410  0.0537  0.5898  0.2381
  393TMC3    C3 5923   0.221   0.803  10.413  0.1679 -0.3422  0.0194
  393TMC3    C4 5924   0.472   0.820  10.311 -0.3990  0.1103  0.8667
  393TMC3    C5 5925   0.400   0.702  10.308 -0.1114 -0.6817  0.3571
  393TMC3    C6 5926   0.269   0.689  10.361 -0.1715  0.0459  0.3050
  393TMC3     C 5927   0.512   1.025  10.426  0.2530  0.6755 -0.1262
  393TMC3     O 5928   0.631   0.995  10.434  0.0146 -0.3887 -0.3322
  393TMC3     H 5929   0.248   1.009  10.463 -0.0522 -0.4151  1.7096
  393TMC3    H1 5930   0.579   0.823  10.292 -1.0238  3.2006 -2.1487
  393TMC3    H2 5931   0.216   0.596  10.381 -0.1723  0.1006  0.5596
  393TMC3    C7 5932   0.445   0.588  10.227  0.3559  0.3198 -0.3600
  393TMC3    C8 5933   0.081   0.801  10.470 -0.1853  0.0524 -0.6744
  393TMC3    O1 5934   0.388   0.482  10.242  0.0006 -0.5208 -0.4794
  393TMC3    O2 5935   0.040   0.696  10.519 -0.2769  0.5323  0.0579
  394TMC3    C1 5936   2.227   1.276  10.211  0.4467 -0.0676 -0.1561
  394TMC3    C2 5937   2.217   1.210  10.093  0.2707 -0.1418 -1.7140
  394TMC3    C3 5938   2.238   1.271   9.972 -0.4427  0.3910 -0.4330
  394TMC3    C4 5939   2.239   1.413  10.214  0.4668 -0.7654  0.6493
  394TMC3    C5 5940   2.262   1.479  10.093 -0.2597  0.7275 -0.2437
  394TMC3    C6 5941   2.272   1.408   9.975  0.3533 -0.1631  0.0639
  394TMC3     C 5942   2.166   1.217  10.331  0.0652  0.2916 -0.1956
  394TMC3     O 5943   2.203   1.269  10.439  0.0297  0.0487 -0.3442
  394TMC3     H 5944   2.209   1.102  10.098  1.5097 -0.0954  1.1178
  394TMC3    H1 5945   2.224   1.478  10.299 -1.7595 -1.4355  0.7839
  394TMC3    H2 5946   2.280   1.459   9.880 -0.3313 -1.1483 -0.5205
  394TMC3    C7 5947   2.219   1.621  10.106  0.7615  0.2624 -0.2520
  394TMC3    C8 5948   2.193   1.227   9.845  0.5072 -0.0322  0.4420
  394TMC3    O1 5949   2.170   1.656  10.213 -0.2450  0.1025 -0.6297
  394TMC3    O2 5950   2.236   1.280   9.748  0.3527  0.5649 -0.3073
  395TMC3    C1 5951   1.484   3.562  14.981  0.1768  0.2473  0.4525
  395TMC3    C2 5952   1.403   3.507  14.884  0.5507 -0.1979  0.3615
  395TMC3    C3 5953   1.389   3.579  14.762  0.0015  0.9744 -0.0659
  395TMC3    C4 5954   1.538   3.693  14.969 -0.4455 -0.1918  0.0267
  395TMC3    C5 5955   1.526   3.756  14.848  0.8854 -0.3600 -0.5321
  395TMC3    C6 5956   1.452   3.702  14.749  0.3882 -0.0856  0.1922
  395TMC3     C 5957   1.496   3.480  15.095 -0.3488 -0.0353  0.0228
  395TMC3     O 5958   1.526   3.360  15.087 -0.8272 -0.8892 -0.2572
  395TMC3     H 5959   1.351   3.412  14.897 -1.2718  0.9505  1.4717
  395TMC3    H1 5960   1.604   3.731  15.046 -0.3483  1.0011 -0.6414
  395TMC3    H2 5961   1.433   3.751  14.654  1.3864  0.3764  0.2277
  395TMC3    C7 5962   1.599   3.877  14.826  0.2465  0.3662 -0.2431
  395TMC3    C8 5963   1.261   3.576  14.700  0.9276  0.0544 -0.5096
  395TMC3    O1 5964   1.633   3.937  14.927 -0.0228  0.0669 -0.0499
  395TMC3    O2 5965   1.192   3.677  14.725  0.3309  0.0773  0.5047
  396MPD2     C 5966   0.668   4.179  17.198  0.2675  0.4555  0.0132
  396MPD2    C1 5967   0.748   4.276  17.255 -0.2706  0.1957  0.2342
  396MPD2    C2 5968   0.779   4.392  17.181 -0.1882  0.0777  0.0857
  396MPD2    C3 5969   0.732   4.413  17.055  0.0206  0.3439 -0.0279
  396MPD2    C4 5970   0.659   4.309  16.997 -0.2558  0.1244 -0.4800
  396MPD2    C5 5971   0.623   4.197  17.075  0.7500 -0.0744 -0.2938
  396MPD2     H 5972   0.836   4.470  17.230  1.6556  1.1759 -3.7792
  396MPD2    H1 5973   0.622   4.312  16.895 -0.4413  0.4958 -0.4040
  396MPD2    H2 5974   0.638   4.090  17.253  0.9605  1.2044  1.6076
  396MPD2    H3 5975   0.571   4.113  17.031 -0.0756 -0.4142  1.3524
  396MPD2     N 5976   0.771   4.535  16.992 -0.0689  0.0683  0.8173
  396MPD2    H5 5977   0.799   4.609  17.055 -2.0243  0.4090  1.3088
  396MPD2    N1 5978   0.805   4.242  17.381 -0.3020 -0.7780  0.3692
  396MPD2    H7 5979   0.777   4.152  17.420 -3.8492  0.7533  1.3376
  397TMC3    C1 5980   0.953   4.267  17.578 -0.4308  0.7584  0.0411
  397TMC3    C2 5981   1.047   4.347  17.643 -0.9656  0.0431 -0.2845
  397TMC3    C3 5982   1.172   4.302  17.678  0.0119  0.2250  0.1508
  397TMC3    C4 5983   0.981   4.129  17.583  1.0232 -0.4238  0.0883
  397TMC3    C5 5984   1.097   4.084  17.634  0.1707  0.2276 -0.5265
  397TMC3    C6 5985   1.192   4.166  17.685 -1.0193 -0.2104  0.4832
  397TMC3     C 5986   0.896   4.317  17.448  1.2430  0.6796 -0.1642
  397TMC3     O 5987   0.962   4.411  17.407 -0.5025 -0.3257 -0.2733
  397TMC3     H 5988   1.041   4.454  17.627 -1.2812 -0.1317 -1.2839
  397TMC3    H1 5989   0.929   4.060  17.517  1.3799  0.6344 -1.2957
  397TMC3    H2 5990   1.286   4.129  17.723 -0.2052  0.7864 -0.5428
  397TMC3    C7 5991   1.105   3.941  17.665 -0.1748  0.2717  0.1699
  397TMC3    C8 5992   1.285   4.369  17.610 -0.2225  0.4413  0.0800
  397TMC3    O1 5993   1.206   3.910  17.726 -0.1860  0.0257 -0.1167
  397TMC3    O2 5994   1.396   4.366  17.657 -0.0765  0.0011  0.5740
  398MPD2     C 5995   3.678   1.212  17.375  0.2216  0.2377  0.2687
  398MPD2    C1 5996   3.785   1.173  17.449  0.2440 -0.3301  0.1548
  398MPD2    C2 5997   3.807   1.244  17.562  0.4595  0.3313  0.4191
  398MPD2    C3 5998   3.725   1.349  17.609 -0.2401 -0.0603  0.1707
  398MPD2    C4 5999   3.622   1.386  17.532  0.2176 -0.5231  0.1394
  398MPD2    C5 6000   3.604   1.323  17.414 -0.5289 -0.4597 -0.3283
  398MPD2     H 6001   3.892   1.221  17.624  1.5355  0.7033 -0.9305
  398MPD2    H1 6002   3.547   1.463  17.550  1.1911 -0.1193  2.3250
  398MPD2    H2 6003   3.662   1.170  17.277 -0.3820 -3.2503  1.8516
  398MPD2    H3 6004   3.516   1.345  17.356 -0.4649 -0.6115 -0.4840
  398MPD2     N 6005   3.764   1.407  17.730 -0.0477  0.3184 -0.1028
  398MPD2    H5 6006   3.847   1.372   0.033 -0.9832  1.7050  2.5141
  398MPD2    N1 6007   3.868   1.060  17.419  0.2010  0.1129 -0.0313
  398MPD2    H7 6008   3.931   1.024  17.490  2.5066 -0.4016 -2.3371
  399TMC3    C1 6009   3.988   0.915  17.283  0.0202  0.1515 -0.6638
  399TMC3    C2 6010   4.096   0.938  17.366 -0.2889  0.1521  0.3019
  399TMC3    C3 6011   4.190   0.838  17.392  0.6618  0.3312 -0.0436
  399TMC3    C4 6012   3.973   0.798  17.225  0.5205  0.8083  0.0892
  399TMC3    C5 6013   4.072   0.698  17.241 -0.6187  0.2965 -0.1961
  399TMC3    C6 6014   4.179   0.719  17.323 -0.2931  0.0206 -0.5532
  399TMC3     C 6015   3.872   1.000  17.297 -0.0675  0.2244 -0.1848
  399TMC3     O 6016   3.795   1.000  17.202 -0.1921 -0.0401  0.5413
  399TMC3     H 6017   4.098   1.024  17.433 -1.6189  0.9362 -0.6552
  399TMC3    H1 6018   3.880   0.775  17.175  0.0594  1.1773  0.7819
  399TMC3    H2 6019   4.247   0.638  17.344  0.8511  1.4728  1.2938
  399TMC3    C7 6020   4.046   0.554  17.217  0.3042  0.1132  0.3756
  399TMC3    C8 6021   4.288   0.844  17.507  0.2443 -0.8537 -0.2422
  399TMC3    O1 6022   4.133   0.476  17.245  0.1937 -0.0514 -0.2770
  399TMC3    O2 6023   4.272   0.950  17.567 -0.0971 -0.2747  0.5023
  400TMC3    C1 6024   2.248   4.352  16.910 -0.3349 -0.3728  1.2842
  400TMC3    C2 6025   2.166   4.281  16.832  0.1920 -0.0576 -0.0796
  400TMC3    C3 6026   2.059   4.359  16.792  0.7577  0.9821 -0.5748
  400TMC3    C4 6027   2.249   4.490  16.926 -0.5804  0.2484 -0.2151
  400TMC3    C5 6028   2.150   4.561  16.861  0.1245 -0.5767 -0.5961
  400TMC3    C6 6029   2.045   4.496  16.798  0.3520  0.0827 -0.5197
  400TMC3     C 6030   2.357   4.278  16.963  0.0989 -0.0810  0.4488
  400TMC3     O 6031   2.331   4.162  16.994  0.2942  0.2277  0.2374
  400TMC3     H 6032   2.165   4.172  16.827 -2.0306 -0.1213  1.3313
  400TMC3    H1 6033   2.334   4.541  16.971  0.1267 -0.0499 -1.1985
  400TMC3    H2 6034   1.963   4.537  16.740  0.4946 -0.4853 -1.1222
  400TMC3    C7 6035   2.151   4.704  16.875  0.0253  0.4914  0.1707
  400TMC3    C8 6036   1.934   4.291  16.748 -0.0881  0.4659  0.8595
  400TMC3    O1 6037   2.249   0.023  16.928  0.4937 -0.0566  0.8367
  400TMC3    O2 6038   1.832   4.366  16.742 -0.0252 -0.1592 -0.2775
  401MPD2     C 6039   1.085   2.780   1.079  0.4370  0.0013  0.2225
  401MPD2    C1 6040   1.206   2.723   1.106  0.2508 -0.1428  0.9898
  401MPD2    C2 6041   1.212   2.590   1.065  0.0145 -0.1672  0.2601
  401MPD2    C3 6042   1.117   2.536   0.984  0.6091 -0.2941 -0.3152
  401MPD2    C4 6043   1.010   2.611   0.943 -0.2892 -0.7537 -0.5411
  401MPD2    C5 6044   0.987   2.737   0.996  0.2708 -0.7344 -0.3870
  401MPD2     H 6045   1.308   2.542   1.081  0.4578  0.9337  0.9393
  401MPD2    H1 6046   0.942   2.571   0.869 -2.0174 -0.8400  1.1022
  401MPD2    H2 6047   1.076   2.886   1.097  2.0500 -0.0507  1.2896
  401MPD2    H3 6048   0.898   2.796   0.978  0.5236 -0.5065 -0.8746
  401MPD2     N 6049   1.130   2.405   0.931 -0.2760  0.7505  0.0549
  401MPD2    H5 6050   1.083   2.378   0.846  0.2874 -0.2776  0.0620
  401MPD2    N1 6051   1.315   2.788   1.174 -0.1871 -0.3118 -0.2448
  401MPD2    H7 6052   1.398   2.730   1.185  0.7728  1.4973  1.9421
  402TMC3    C1 6053   1.202   2.182   0.907  0.1654  0.7811  0.0718
  402TMC3    C2 6054   1.199   2.070   0.984  0.0621  0.7313  0.1223
  402TMC3    C3 6055   1.211   1.951   0.927  0.1438 -0.0694  0.3607
  402TMC3    C4 6056   1.217   2.177   0.776  0.4050 -0.0898  0.3334
  402TMC3    C5 6057   1.218   2.055   0.713 -0.4474 -0.1001 -0.0344
  402TMC3    C6 6058   1.220   1.942   0.790  0.5100  0.1565 -1.2284
  402TMC3     C 6059   1.216   2.309   0.981 -0.2689 -0.5733  0.3976
  402TMC3     O 6060   1.272   2.300   1.091 -0.3049  0.3379 -0.3076
  402TMC3     H 6061   1.200   2.080   1.092 -2.0921 -0.6203  0.2666
  402TMC3    H1 6062   1.201   2.266   0.715  0.8681  0.2406  0.6891
  402TMC3    H2 6063   1.245   1.856   0.730  1.7952  0.2502 -0.8441
  402TMC3    C7 6064   1.258   2.053   0.574  0.0570  0.0773 -0.0927
  402TMC3    C8 6065   1.274   1.838   1.004  0.7004 -0.9356  1.0934
  402TMC3    O1 6066   1.294   2.162   0.524  0.4689 -0.5291 -0.0918
  402TMC3    O2 6067   1.367   1.782   0.955 -0.6103  0.1037 -0.1343
  403MPD2     C 6068   4.249   0.820  13.107  0.8666  0.1862  0.2951
  403MPD2    C1 6069   4.290   0.793  13.232 -0.7066 -0.2063  0.4229
  403MPD2    C2 6070   4.394   0.864  13.283  0.4742 -0.3308  0.4814
  403MPD2    C3 6071   4.461   0.960  13.208 -0.2794  0.6550  0.3082
  403MPD2    C4 6072   4.419   0.990  13.084 -0.5718 -0.7334 -0.3742
  403MPD2    C5 6073   4.316   0.913  13.031 -0.3284  0.5402 -0.4174
  403MPD2     H 6074   4.418   0.852  13.388  1.5574 -2.2771  0.0028
  403MPD2    H1 6075   4.468   1.066  13.025 -0.0832 -1.1734 -0.5368
  403MPD2    H2 6076   4.159   0.780  13.062  1.6463 -1.3310  0.1060
  403MPD2    H3 6077   4.280   0.929  12.930  0.1356 -0.1045 -0.6772
  403MPD2     N 6078   4.557   1.028  13.276  0.3597  0.4418 -0.0103
  403MPD2    H5 6079   4.573   0.998  13.372 -1.7478 -0.9531 -0.0816
  403MPD2    N1 6080   4.207   0.702  13.309 -0.3452 -0.2508  0.0285
  403MPD2    H7 6081   4.119   0.679  13.265  0.2664 -2.0200 -0.2453
  404TMC3    C1 6082   4.151   0.582  13.501 -0.3441 -0.0917 -0.0335
  404TMC3    C2 6083   4.137   0.611  13.634  0.1394  0.4314  0.2218
  404TMC3    C3 6084   4.023   0.570  13.693 -0.0650 -0.4488 -0.9600
  404TMC3    C4 6085   4.051   0.528  13.424  0.0108 -0.0311  0.3049
  404TMC3    C5 6086   3.940   0.482  13.490 -0.3654 -0.0056 -0.1549
  404TMC3    C6 6087   3.922   0.503  13.623  0.1502 -0.1376  0.0571
  404TMC3     C 6088   4.253   0.645  13.425 -0.4289  0.0887 -0.2710
  404TMC3     O 6089   4.371   0.647  13.470 -0.3167 -0.7164 -0.0018
  404TMC3     H 6090   4.225   0.641  13.689  1.0543  0.6283 -1.3489
  404TMC3    H1 6091   4.083   0.478  13.334 -0.0462  0.3041  0.0997
  404TMC3    H2 6092   3.837   0.456  13.672 -0.1321 -0.8266 -1.1000
  404TMC3    C7 6093   3.843   0.399  13.416 -0.3743 -0.2353 -0.1920
  404TMC3    C8 6094   4.029   0.588  13.846 -0.0761  0.4317 -0.2696
  404TMC3    O1 6095   3.759   0.345  13.488  0.4287  0.5275  0.0488
  404TMC3    O2 6096   4.142   0.619  13.884 -0.2221 -0.4054 -0.4799
  405MPD2     C 6097   4.206   1.478  13.371  0.1976 -0.5422  0.5120
  405MPD2    C1 6098   4.196   1.423  13.492  0.3361 -0.3038  0.2637
  405MPD2    C2 6099   4.080   1.445  13.570 -0.0686  0.1367  0.3226
  405MPD2    C3 6100   3.970   1.502  13.515  0.2981 -0.0844 -0.4282
  405MPD2    C4 6101   3.977   1.547  13.387  0.4047  0.5175  0.5105
  405MPD2    C5 6102   4.100   1.543  13.319  0.6434  0.7086  0.5443
  405MPD2     H 6103   4.074   1.403  13.670  0.3502 -0.5843  0.0458
  405MPD2    H1 6104   3.891   1.585  13.334  0.6725 -2.4675 -2.0892
  405MPD2    H2 6105   4.295   1.466  13.312 -0.5849  2.8653 -1.3913
  405MPD2    H3 6106   4.100   1.590  13.222 -0.9085  0.4157  0.3984
  405MPD2     N 6107   3.861   1.513  13.600  0.7297  0.3903 -0.5502
  405MPD2    H5 6108   3.878   1.483  13.695 -0.5975 -1.6025 -0.9351
  405MPD2    N1 6109   4.304   1.352  13.555 -0.2082  0.0636  0.5358
  405MPD2    H7 6110   4.283   1.316  13.647 -1.6366 -1.4298 -0.3920
  406TMC3    C1 6111   3.485   1.604  13.831  0.7721 -0.6459 -0.2775
  406TMC3    C2 6112   3.516   1.518  13.932  0.3376 -0.6753 -0.4982
  406TMC3    C3 6113   3.623   1.426  13.918 -0.2928 -0.3954  0.1196
  406TMC3    C4 6114   3.546   1.605  13.714  0.6930 -0.7187  0.3697
  406TMC3    C5 6115   3.651   1.518  13.698 -0.2491 -0.1130 -0.0643
  406TMC3    C6 6116   3.696   1.433  13.796  0.1399 -0.3843  0.1990
  406TMC3     C 6117   3.397   1.711  13.854  0.4746  0.3108 -0.1069
  406TMC3     O 6118   3.350   1.770  13.758  0.0742 -0.1060 -0.5680
  406TMC3     H 6119   3.462   1.517  14.026 -1.2726 -1.0704 -1.4311
  406TMC3    H1 6120   3.512   1.663  13.629 -0.7675 -0.9097  0.8327
  406TMC3    H2 6121   3.779   1.365  13.777  0.9055  1.0905 -1.7598
  406TMC3    C7 6122   3.732   1.544  13.576  0.0792 -0.2525 -0.6041
  406TMC3    C8 6123   3.665   1.348  14.038 -0.1445  0.0187  0.3609
  406TMC3    O1 6124   3.685   1.618  13.494  0.2176 -0.1872 -0.5014
  406TMC3    O2 6125   3.620   1.377  14.147  0.7542  1.0121  0.4805
  407MPD2     C 6126   1.785   2.922   9.957 -0.0374  0.0657  0.3013
  407MPD2    C1 6127   1.893   2.964  10.035 -0.1585  0.4601 -0.2090
  407MPD2    C2 6128   1.857   3.041  10.141 -0.1000  0.1252  0.0579
  407MPD2    C3 6129   1.722   3.077  10.162 -0.6793  0.2986  0.5887
  407MPD2    C4 6130   1.626   3.051  10.072 -0.0263  0.3001  0.6780
  407MPD2    C5 6131   1.656   2.962   9.973 -0.7128  0.9292 -0.0358
  407MPD2     H 6132   1.937   3.085  10.200  0.0328  1.2861 -0.9867
  407MPD2    H1 6133   1.521   3.077  10.082  0.0895  0.8881  0.3829
  407MPD2    H2 6134   1.797   2.847   9.880  2.0554  0.9920 -0.2681
  407MPD2    H3 6135   1.577   2.929   9.906 -0.2884  0.6183 -0.3847
  407MPD2     N 6136   1.681   3.156  10.273  0.0473 -0.0369 -0.4986
  407MPD2    H5 6137   1.594   3.206  10.258  0.8217  1.2120 -0.7406
  407MPD2    N1 6138   2.030   2.957  10.003  0.0163  0.3097  0.2489
  407MPD2    H7 6139   2.093   3.003  10.068 -0.1747 -1.6413  1.8397
  408TMC3    C1 6140   2.212   2.903   9.870  0.2782 -0.7611 -0.2773
  408TMC3    C2 6141   2.265   2.803   9.798 -0.3149  0.4130 -1.3808
  408TMC3    C3 6142   2.401   2.811   9.768  0.4493  0.0791 -0.5109
  408TMC3    C4 6143   2.287   3.010   9.917  0.3460 -0.2028 -0.1243
  408TMC3    C5 6144   2.418   3.011   9.881  0.5102 -0.2925 -0.0443
  408TMC3    C6 6145   2.478   2.918   9.801 -0.0137 -0.6497  0.1613
  408TMC3     C 6146   2.070   2.893   9.896  0.4989 -0.0074 -0.5998
  408TMC3     O 6147   2.010   2.822   9.816 -0.3449  0.0465 -0.2748
  408TMC3     H 6148   2.222   2.705   9.775 -2.0423  0.5924  1.0344
  408TMC3    H1 6149   2.246   3.082   9.986 -0.3053 -0.9114  0.2263
  408TMC3    H2 6150   2.583   2.931   9.776  0.3314 -1.7046  1.0325
  408TMC3    C7 6151   2.508   3.114   9.943  0.1813  0.0541 -0.7885
  408TMC3    C8 6152   2.464   2.676   9.763 -0.1699  0.1422  0.4148
  408TMC3    O1 6153   2.626   3.079   9.957  0.0524  0.1190  0.3127
  408TMC3    O2 6154   2.390   2.581   9.744  0.9105  0.1530 -0.3376
  409MPD2     C 6155   1.041   3.832  17.295  0.0749  0.3641  0.4471
  409MPD2    C1 6156   1.176   3.834  17.317 -0.2263  0.4305 -0.0413
  409MPD2    C2 6157   1.251   3.934  17.268 -0.2598 -0.4416  0.1896
  409MPD2    C3 6158   1.202   4.044  17.214 -0.7156 -0.5604  0.5599
  409MPD2    C4 6159   1.068   4.043  17.177 -0.6713 -1.2523 -0.8578
  409MPD2    C5 6160   0.991   3.931  17.218 -0.2076  0.0799 -0.2836
  409MPD2     H 6161   1.352   3.927  17.307  0.1823 -1.2187 -1.1118
  409MPD2    H1 6162   1.026   4.131  17.130 -1.1576  0.0975  2.1257
  409MPD2    H2 6163   0.977   3.750  17.327  0.3634  0.3179  0.9009
  409MPD2    H3 6164   0.883   3.942  17.216 -0.4256 -2.0263  0.1795
  409MPD2     N 6165   1.285   4.146  17.176  0.3228  0.4558 -0.9019
  409MPD2    H5 6166   1.243   4.221  17.121  0.4257  2.2925  1.5330
  409MPD2    N1 6167   1.242   3.737  17.405 -0.2263 -0.7227 -0.0519
  409MPD2    H7 6168   1.342   3.752  17.420 -0.1674  0.7855 -1.8357
  410TMC3    C1 6169   1.489   4.260  17.151 -0.9790  0.4858 -0.3739
  410TMC3    C2 6170   1.612   4.296  17.208  0.6592 -0.3331  0.7482
  410TMC3    C3 6171   1.696   4.370  17.132 -0.3903  0.2785 -0.4973
  410TMC3    C4 6172   1.457   4.282  17.018  0.2795  0.3667 -0.0291
  410TMC3    C5 6173   1.548   4.363  16.948 -0.4190  0.1694  0.4851
  410TMC3    C6 6174   1.657   4.421  17.008  0.4730  0.7231  1.0310
  410TMC3     C 6175   1.412   4.164  17.229  0.0819 -0.2595 -0.2747
  410TMC3     O 6176   1.486   4.101  17.306  0.1872  0.2522  0.3192
  410TMC3     H 6177   1.648   4.268  17.307 -0.3769 -0.9389  0.9530
  410TMC3    H1 6178   1.373   4.234  16.968  1.3876 -2.7170  1.0238
  410TMC3    H2 6179   1.730   4.472  16.946  1.4363  1.1598  2.5198
  410TMC3    C7 6180   1.493   4.397  16.813  0.0630 -0.1021  0.3699
  410TMC3    C8 6181   1.837   4.391  17.166  0.6330  0.3978 -0.0455
  410TMC3    O1 6182   1.389   4.348  16.767  1.1548 -0.3244 -0.5736
  410TMC3    O2 6183   1.883   4.496  17.132 -0.4705  0.0158 -0.0694
  411MPD2     C 6184   1.877   0.207  14.522  0.3143 -0.0163  0.1244
  411MPD2    C1 6185   1.768   0.185  14.603 -0.9317 -0.4975  0.3207
  411MPD2    C2 6186   1.673   0.088  14.571  0.7342  0.9900  0.7686
  411MPD2    C3 6187   1.693   0.007  14.459  0.1080  0.3072 -0.3783
  411MPD2    C4 6188   1.803   0.031  14.380  0.0737  0.1543  0.1581
  411MPD2    C5 6189   1.888   0.131  14.410 -0.5418  0.2967 -0.5003
  411MPD2     H 6190   1.584   0.080  14.632 -0.8299  0.5670 -1.5736
  411MPD2    H1 6191   1.810   4.730  14.279  1.0224 -1.7977  0.9698
  411MPD2    H2 6192   1.949   0.287  14.534  0.5893  0.2245 -3.1551
  411MPD2    H3 6193   1.960   0.158  14.334 -0.0263  0.4498  0.0452
  411MPD2     N 6194   1.603   4.641  14.421 -0.5970  0.1775  0.6697
  411MPD2    H5 6195   1.622   4.593  14.334 -0.3161 -2.7956  2.3627
  411MPD2    N1 6196   1.751   0.279  14.705 -1.1477  0.6020 -0.0556
  411MPD2    H7 6197   1.795   0.368  14.684 -0.8695 -0.0890 -2.5012
  412TMC3    C1 6198   1.433   4.485  14.421 -0.3381  0.3128  0.3386
  412TMC3    C2 6199   1.300   4.508  14.386 -0.2996 -0.4769  0.0515
  412TMC3    C3 6200   1.233   4.406  14.319 -0.4847 -0.5326 -0.2896
  412TMC3    C4 6201   1.499   4.372  14.386  0.3848  0.4455  0.6391
  412TMC3    C5 6202   1.433   4.281  14.306  0.0829  0.2990 -0.1819
  412TMC3    C6 6203   1.300   4.298  14.271  0.7075 -0.1834 -0.2021
  412TMC3     C 6204   1.500   4.593  14.492 -0.7681 -0.3212  0.2444
  412TMC3     O 6205   1.449   4.622  14.598  0.2500 -0.1795  0.1325
  412TMC3     H 6206   1.250   4.602  14.404 -1.1761 -1.0006  0.3732
  412TMC3    H1 6207   1.603   4.366  14.417  1.1787 -1.9134 -2.5512
  412TMC3    H2 6208   1.257   4.230  14.199  0.0658 -1.0650  1.0219
  412TMC3    C7 6209   1.503   4.264  14.184 -0.3083 -0.1649  0.0277
  412TMC3    C8 6210   1.149   4.477  14.224 -0.1583 -0.1681  0.3533
  412TMC3    O1 6211   1.437   4.294  14.085 -0.5454 -0.3622  0.1823
  412TMC3    O2 6212   1.051   4.545  14.250  0.4044  0.2473 -0.4405
  413MPD2     C 6213   3.172   2.957  15.922  0.4177 -0.1978  0.1588
  413MPD2    C1 6214   3.177   2.996  15.791 -1.3824 -0.6228 -0.1056
  413MPD2    C2 6215   3.299   3.001  15.725 -0.3929  0.3525 -0.3996
  413MPD2    C3 6216   3.412   2.953  15.774  0.0230 -0.2381  0.8061
  413MPD2    C4 6217   3.408   2.932  15.912 -0.6194 -0.2923  0.5404
  413MPD2    C5 6218   3.289   2.927  15.988  0.4552  0.3081  0.7827
  413MPD2     H 6219   3.283   3.023  15.620 -1.1555  0.8854 -0.1728
  413MPD2    H1 6220   3.503   2.911  15.958  0.1273  1.1225 -0.3609
  413MPD2    H2 6221   3.077   2.947  15.973  0.3990 -0.8522  0.0016
  413MPD2    H3 6222   3.294   2.897  16.092  0.6831  1.3268  1.0660
  413MPD2     N 6223   3.519   2.925  15.690 -0.2572  0.8445 -0.3414
  413MPD2    H5 6224   3.519   2.962  15.596  0.4159 -1.3726 -1.2019
  413MPD2    N1 6225   3.049   3.026  15.728  0.2151 -0.6626 -0.0720
  413MPD2    H7 6226   2.971   3.028  15.793 -0.4819  0.9675 -0.9619
  414TMC3    C1 6227   3.725   2.833  15.614 -0.2957 -0.3067 -0.2091
  414TMC3    C2 6228   3.787   2.706  15.605  0.3055  0.2209 -0.0799
  414TMC3    C3 6229   3.852   2.673  15.490 -0.7577 -0.0329  0.4000
  414TMC3    C4 6230   3.736   2.930  15.509 -0.1659  0.7837 -0.5819
  414TMC3    C5 6231   3.809   2.889  15.402 -0.5495 -0.5711 -0.0417
  414TMC3    C6 6232   3.861   2.761  15.391 -0.4832  0.0072 -0.1940
  414TMC3     C 6233   3.637   2.861  15.723  0.6192  0.3972 -0.1754
  414TMC3     O 6234   3.664   2.796  15.822 -0.5502 -0.2746 -0.2018
  414TMC3     H 6235   3.763   2.625  15.672 -2.3443  0.9521 -0.1483
  414TMC3    H1 6236   3.710   3.034  15.524 -1.1011  0.2773  1.3782
  414TMC3    H2 6237   3.913   2.723  15.304  0.7634 -0.8262  0.9062
  414TMC3    C7 6238   3.882   3.001  15.335  0.1672  0.1370  0.0221
  414TMC3    C8 6239   3.903   2.538  15.474  0.2315  0.4722 -0.5449
  414TMC3    O1 6240   3.825   3.111  15.322  0.4450  0.0096  1.0328
  414TMC3    O2 6241   3.914   2.492  15.357  0.2268  0.3603  0.2336
  415TMC3    C1 6242   3.950   0.728  10.304 -0.4688  0.7151  0.6369
  415TMC3    C2 6243   3.968   0.858  10.272 -0.3176  0.1731 -0.2056
  415TMC3    C3 6244   3.865   0.932  10.210  0.2634 -0.0649  0.1699
  415TMC3    C4 6245   3.835   0.668  10.263  0.3696 -0.0117  0.3316
  415TMC3    C5 6246   3.738   0.736  10.198 -0.3948  0.3214  0.0026
  415TMC3    C6 6247   3.752   0.873  10.164 -0.3049 -0.1755  0.0793
  415TMC3     C 6248   4.034   0.661  10.403 -0.2305 -0.3714 -0.9140
  415TMC3     O 6249   3.962   0.584  10.473 -0.0990  0.5248  0.0692
  415TMC3     H 6250   4.059   0.908  10.305 -0.8879  0.6931  0.5602
  415TMC3    H1 6251   3.825   0.563  10.287 -0.5549 -0.2786 -1.2707
  415TMC3    H2 6252   3.658   0.918  10.133  0.4878  1.3170 -0.1380
  415TMC3    C7 6253   3.626   0.662  10.141 -0.6891 -0.5763 -0.3629
  415TMC3    C8 6254   3.866   1.081  10.193  0.3294 -0.1656 -0.6118
  415TMC3    O1 6255   3.561   0.719  10.054  0.1575 -0.1955  0.0928
  415TMC3    O2 6256   3.763   1.128  10.145  0.2433 -0.2781 -0.1625
  416MPD2     C 6257   1.028   4.400  11.648  0.7686 -0.4391  0.4181
  416MPD2    C1 6258   0.899   4.363  11.637 -0.2327  0.4378  0.9852
  416MPD2    C2 6259   0.854   4.251  11.565 -0.0462  0.8722 -0.4060
  416MPD2    C3 6260   0.945   4.158  11.523  0.3156  0.0148 -0.1232
  416MPD2    C4 6261   1.080   4.184  11.535 -0.4248 -0.3288 -0.0724
  416MPD2    C5 6262   1.118   4.306  11.592  0.4112  0.0363  0.3384
  416MPD2     H 6263   0.748   4.233  11.546 -0.1875 -0.9628  2.1827
  416MPD2    H1 6264   1.161   4.139  11.479 -1.2501  0.1133 -1.6504
  416MPD2    H2 6265   1.063   4.492  11.694 -1.8486  0.2071  1.0935
  416MPD2    H3 6266   1.224   4.325  11.594 -0.3560  4.0933  2.4349
  416MPD2     N 6267   0.902   4.033  11.466 -0.3003 -0.5610  0.0742
  416MPD2    H5 6268   0.981   3.973  11.449  1.0931  0.9915  1.1043
  416MPD2    N1 6269   0.806   4.462  11.675  0.6126 -0.1509  0.0478
  416MPD2    H7 6270   0.848   4.550  11.703 -0.8898  0.1700  1.2977
  417TMC3    C1 6271   0.615   4.594  11.700 -0.1761  0.2778  0.5975
  417TMC3    C2 6272   0.682   4.671  11.793  0.0685  0.0654  0.0292
  417TMC3    C3 6273   0.633   0.059  11.831 -0.2040  0.2041  0.1967
  417TMC3    C4 6274   0.495   4.633  11.656 -0.4999 -0.0161 -0.3228
  417TMC3    C5 6275   0.436   0.017  11.697  0.4264  0.2812 -1.1620
  417TMC3    C6 6276   0.508   0.104  11.780 -0.2927  0.9030 -0.3865
  417TMC3     C 6277   0.671   4.464  11.664 -0.5673  0.3198 -0.3005
  417TMC3     O 6278   0.595   4.383  11.614  0.4556  0.2298  0.5532
  417TMC3     H 6279   0.759   4.626  11.854 -1.7712 -2.2548  0.6482
  417TMC3    H1 6280   0.437   4.557  11.606  0.4691  0.1998 -1.7880
  417TMC3    H2 6281   0.466   0.199  11.811  0.0714  1.2663 -1.0030
  417TMC3    C7 6282   0.364   0.078  11.587 -0.2478 -0.0399  0.6653
  417TMC3    C8 6283   0.711   0.149  11.915  0.7625  0.5594 -1.2510
  417TMC3    O1 6284   0.390   0.028  11.474 -0.3278  0.6544  0.0591
  417TMC3    O2 6285   0.657   0.258  11.942 -0.0643 -0.1399  0.3964
  418TMC3    C1 6286   3.861   1.670   0.309 -0.3149 -0.1744 -0.6655
  418TMC3    C2 6287   3.760   1.658   0.216  0.3478  0.4200 -0.0712
  418TMC3    C3 6288   3.737   1.530   0.178  0.1641 -0.1165  0.4068
  418TMC3    C4 6289   3.920   1.569   0.374 -0.2252 -0.1112 -0.3875
  418TMC3    C5 6290   3.869   1.446   0.346 -0.5413  0.7279  0.4112
  418TMC3    C6 6291   3.785   1.426   0.246  0.4925  0.0358 -0.4568
  418TMC3     C 6292   3.950   1.778   0.278 -0.8990 -0.0271 -0.2108
  418TMC3     O 6293   3.905   1.874   0.224  0.2692  0.2508 -1.1729
  418TMC3     H 6294   3.722   1.733   0.147  2.2548  1.6793  0.2332
  418TMC3    H1 6295   3.989   1.581   0.457  0.8254  0.8226 -1.3779
  418TMC3    H2 6296   3.733   1.334   0.221 -0.4529  1.0159 -2.0665
  418TMC3    C7 6297   3.913   1.323   0.404  0.0103  0.3859 -0.4787
  418TMC3    C8 6298   3.694   1.507   0.042 -0.2361  0.0833 -0.8037
  418TMC3    O1 6299   3.902   1.223   0.335 -0.0723  0.2372  0.4751
  418TMC3    O2 6300   3.622   1.591  17.743  0.4384 -0.0294 -0.4850
  419MPD2     C 6301   3.214   4.182  12.500  0.0705  0.0740 -0.1735
  419MPD2    C1 6302   3.209   4.323  12.496  0.4100 -0.8227 -0.0910
  419MPD2    C2 6303   3.187   4.390  12.613  0.4809  0.4818  0.3199
  419MPD2    C3 6304   3.157   4.322  12.726  0.2537  0.4339 -0.0762
  419MPD2    C4 6305   3.156   4.188  12.735  0.1907 -0.7846  0.2415
  419MPD2    C5 6306   3.189   4.118  12.620 -0.0512 -0.4031 -0.8942
  419MPD2     H 6307   3.178   4.498  12.615 -1.3721  0.3233  0.2101
  419MPD2    H1 6308   3.135   4.130  12.825 -0.3633  0.7279  1.0797
  419MPD2    H2 6309   3.228   4.119  12.413 -1.5031  1.1833 -1.2248
  419MPD2    H3 6310   3.193   4.009  12.625 -1.6663 -0.3849  1.0410
  419MPD2     N 6311   3.123   4.401  12.834  0.2781 -0.0423  0.5139
  419MPD2    H5 6312   3.118   4.501  12.814 -2.4616 -0.2850  0.0372
  419MPD2    N1 6313   3.222   4.398  12.380  0.5279 -0.4505  0.0834
  419MPD2    H7 6314   3.208   4.497  12.398 -1.0156 -0.8003  0.8421
  420TMC3    C1 6315   3.095   4.460  13.067  0.4624  0.2007 -0.6139
  420TMC3    C2 6316   3.022   4.567  13.037 -0.0073  0.0915 -0.4651
  420TMC3    C3 6317   2.972   4.655  13.134 -0.0197  0.3991  0.3818
  420TMC3    C4 6318   3.119   4.430  13.201 -0.5248  0.3226  0.4238
  420TMC3    C5 6319   3.079   4.520  13.296 -0.5205  0.7282  0.0853
  420TMC3    C6 6320   3.007   4.634  13.265  0.2438 -0.3073 -0.1548
  420TMC3     C 6321   3.144   4.363  12.970  0.2927  0.5258 -0.2548
  420TMC3     O 6322   3.188   4.255  13.013 -0.0540  0.1999  0.3656
  420TMC3     H 6323   3.024   4.607  12.936  0.2125  0.4078 -0.3331
  420TMC3    H1 6324   3.193   4.354  13.222 -1.5457 -0.6200  0.5915
  420TMC3    H2 6325   2.964   4.690  13.347 -0.2200 -1.9914  0.7647
  420TMC3    C7 6326   3.117   4.482  13.432 -0.2238  0.2223  0.8272
  420TMC3    C8 6327   2.892   0.033  13.099  0.4935  0.3112 -0.2505
  420TMC3    O1 6328   3.163   4.369  13.440  0.0340  0.4734  0.1215
  420TMC3    O2 6329   2.843   0.031  12.985 -0.2067  0.1484 -0.2996
  421TMC3    C1 6330   4.713   1.203  13.329 -0.7296 -0.6192  0.1100
  421TMC3    C2 6331   0.006   1.333  13.314 -0.0809  0.0076 -0.5746
  421TMC3    C3 6332   0.127   1.379  13.356 -0.5028  0.2981 -0.1151
  421TMC3    C4 6333   0.056   1.113  13.394  0.3693 -0.4591 -0.4566
  421TMC3    C5 6334   0.180   1.158  13.429  1.0485  0.0878 -0.3201
  421TMC3    C6 6335   0.219   1.291  13.407  0.0792  0.3516 -0.4103
  421TMC3     C 6336   4.617   1.148  13.229  0.4069 -0.1629  0.7156
  421TMC3     O 6337   4.591   1.221  13.134 -0.2258  0.2661  0.2772
  421TMC3     H 6338   4.672   1.397  13.263 -0.5389  0.7214  0.9730
  421TMC3    H1 6339   0.034   1.006  13.389 -0.5659 -0.2752 -0.3066
  421TMC3    H2 6340   0.318   1.323  13.436  0.1633 -0.1920 -0.1095
  421TMC3    C7 6341   0.246   1.102  13.539  0.5066  0.0323 -0.2055
  421TMC3    C8 6342   0.141   1.520  13.402 -0.1332 -0.4274 -0.1387
  421TMC3    O1 6343   0.347   1.158  13.582 -0.3813 -0.8609 -0.1199
  421TMC3    O2 6344   0.248   1.569  13.441 -0.3426 -0.1613  0.0551
  422TMC3    C1 6345   2.447   2.649  12.222  0.4370 -0.2839  0.4935
  422TMC3    C2 6346   2.459   2.751  12.310 -0.3748 -0.3831  0.6821
  422TMC3    C3 6347   2.348   2.780  12.384  0.1090  0.4786 -0.3470
  422TMC3    C4 6348   2.335   2.573  12.213  0.4586  0.4856 -0.1924
  422TMC3    C5 6349   2.221   2.611  12.282 -0.0351  0.2372  0.2998
  422TMC3    C6 6350   2.235   2.716  12.367 -0.1197 -0.5879  0.4540
  422TMC3     C 6351   2.559   2.607  12.145  0.1339  0.1557  0.4912
  422TMC3     O 6352   2.644   2.689  12.112  0.0468  0.0020  0.4503
  422TMC3     H 6353   2.543   2.819  12.309  0.1157 -0.9715  2.5733
  422TMC3    H1 6354   2.328   2.503  12.130  0.9374 -1.4899  1.4348
  422TMC3    H2 6355   2.154   2.737  12.436  0.2115  2.9382 -0.2613
  422TMC3    C7 6356   2.117   2.514  12.301 -0.7429 -0.2311 -0.4945
  422TMC3    C8 6357   2.339   2.916  12.442 -0.2379 -0.2058 -0.1167
  422TMC3    O1 6358   2.149   2.401  12.269  0.1492  0.0436  0.4260
  422TMC3    O2 6359   2.436   2.951  12.506 -0.7526  0.1460  0.0905
  423MPD2     C 6360   3.147   3.438   0.800  0.0103  0.1616 -0.2842
  423MPD2    C1 6361   3.151   3.302   0.807 -0.0718  0.3880  0.0864
  423MPD2    C2 6362   3.197   3.227   0.697 -0.6074 -0.5433 -0.4462
  423MPD2    C3 6363   3.243   3.292   0.581  0.3737  0.4244  0.8258
  423MPD2    C4 6364   3.240   3.435   0.584  0.0094 -0.4045  0.4515
  423MPD2    C5 6365   3.195   3.512   0.691 -0.8127 -1.2559 -0.0803
  423MPD2     H 6366   3.191   3.119   0.699  1.4780 -0.6691 -0.2852
  423MPD2    H1 6367   3.272   3.485   0.493 -3.2986  0.1464 -0.4118
  423MPD2    H2 6368   3.102   3.500   0.877 -1.0887 -1.7368  0.6278
  423MPD2    H3 6369   3.193   3.620   0.687  0.1368 -1.2337  0.1270
  423MPD2     N 6370   3.269   3.220   0.463 -0.3147  0.3369 -0.2754
  423MPD2    H5 6371   3.276   3.276   0.378 -0.6358  0.0100 -0.5159
  423MPD2    N1 6372   3.118   3.230   0.919 -0.0672 -0.6733 -0.0715
  423MPD2    H7 6373   3.132   3.130   0.915 -1.5045 -0.9475  2.0183
  424TMC3    C1 6374   3.047   3.173   1.141 -0.1173  1.0810 -0.1957
  424TMC3    C2 6375   3.131   3.067   1.142 -0.6453 -0.5395 -0.0820
  424TMC3    C3 6376   3.107   2.975   1.239 -0.1856 -0.3387 -0.1162
  424TMC3    C4 6377   2.947   3.195   1.228  0.6262 -0.5475 -0.1826
  424TMC3    C5 6378   2.916   3.087   1.301 -0.1199 -0.5962  0.1926
  424TMC3    C6 6379   2.991   2.973   1.308  0.4969 -0.1137 -0.6086
  424TMC3     C 6380   3.073   3.275   1.040  0.8355 -0.0065  0.2364
  424TMC3     O 6381   3.045   3.386   1.079  0.0177  0.2500 -0.1345
  424TMC3     H 6382   3.206   3.056   1.064 -1.4614  0.7975 -1.0566
  424TMC3    H1 6383   2.875   3.276   1.218  0.2875 -0.7571  0.5789
  424TMC3    H2 6384   2.974   2.884   1.367 -0.1609  0.6298  0.3204
  424TMC3    C7 6385   2.796   3.085   1.384  0.0788 -0.0945 -0.3289
  424TMC3    C8 6386   3.174   2.846   1.221 -0.0996 -0.3687  0.5241
  424TMC3    O1 6387   2.773   2.994   1.461 -0.4116 -1.0152  0.2092
  424TMC3    O2 6388   3.109   2.743   1.223  0.0147  0.3986 -0.7071
  425MPD2     C 6389   2.339   2.551  17.314 -0.4218  0.1284  0.4585
  425MPD2    C1 6390   2.215   2.503  17.294  0.6801 -0.2101  0.2302
  425MPD2    C2 6391   2.116   2.539  17.381  0.0969  0.1256  0.1132
  425MPD2    C3 6392   2.135   2.651  17.469  0.1372  0.1694 -0.2851
  425MPD2    C4 6393   2.262   2.713  17.470 -0.5244  0.8584 -0.0865
  425MPD2    C5 6394   2.353   2.662  17.391 -0.5285  0.6375 -0.0880
  425MPD2     H 6395   2.014   2.505  17.376  0.5856 -1.3324  0.1807
  425MPD2    H1 6396   2.288   2.797  17.534  0.8478 -1.8459  2.9308
  425MPD2    H2 6397   2.418   2.533  17.242 -0.2307 -0.4920  0.8232
  425MPD2    H3 6398   2.447   2.713  17.372 -1.3321  2.8178  1.8721
  425MPD2     N 6399   2.020   2.703  17.519 -0.0225  0.7175 -0.0668
  425MPD2    H5 6400   1.944   2.636  17.507  1.3857 -0.8686 -0.1657
  425MPD2    N1 6401   2.185   2.418  17.185 -0.0410 -0.7663  0.0348
  425MPD2    H7 6402   2.266   2.388  17.131  0.1992 -0.3574  0.1649
  426TMC3    C1 6403   2.081   2.249  17.063  0.0131  0.0221 -0.2360
  426TMC3    C2 6404   2.148   2.270  16.942  0.4063  0.0645  0.3596
  426TMC3    C3 6405   2.157   2.162  16.853  0.5169  0.3650  0.5363
  426TMC3    C4 6406   2.006   2.140  17.077  0.0871  0.1193 -0.2379
  426TMC3    C5 6407   2.013   2.039  16.985  1.0781  0.6818 -0.1140
  426TMC3    C6 6408   2.087   2.047  16.872 -1.0101  0.2213 -0.0995
  426TMC3     C 6409   2.067   2.358  17.159 -0.0873 -0.3373 -0.0078
  426TMC3     O 6410   1.956   2.368  17.214  0.6450  0.6884 -0.1069
  426TMC3     H 6411   2.185   2.369  16.918  1.6481 -0.6552 -0.7085
  426TMC3    H1 6412   1.934   2.137  17.158  0.1191 -0.9143 -0.2531
  426TMC3    H2 6413   2.083   1.966  16.800 -0.5820  0.4481 -0.3789
  426TMC3    C7 6414   1.930   1.925  17.006  0.0366 -0.0999  0.1477
  426TMC3    C8 6415   2.225   2.176  16.729 -0.1166 -0.7829  0.4047
  426TMC3    O1 6416   1.912   1.842  16.920  0.0225  0.2321 -0.2582
  426TMC3    O2 6417   2.225   2.078  16.652 -0.4456 -0.2135 -1.1180
  427MPD2     C 6418   0.927   0.239  14.836 -0.4402  0.1160 -0.5270
  427MPD2    C1 6419   0.863   0.126  14.869  0.4764 -0.6287 -0.0432
  427MPD2    C2 6420   0.727   0.112  14.878  0.0057  1.3702 -0.0957
  427MPD2    C3 6421   0.649   0.218  14.847 -0.2295  0.8903 -0.0853
  427MPD2    C4 6422   0.706   0.334  14.806 -0.0780  0.2093 -0.0908
  427MPD2    C5 6423   0.846   0.345  14.801  0.2386  0.4657  0.0574
  427MPD2     H 6424   0.685   0.017  14.909  1.3483  0.7648 -0.1548
  427MPD2    H1 6425   0.651   0.422  14.776  0.1016  0.4485  0.2882
  427MPD2    H2 6426   1.034   0.253  14.826  0.1139 -2.1036  2.0745
  427MPD2    H3 6427   0.895   0.440  14.784  1.1905 -0.0485 -0.1122
  427MPD2     N 6428   0.506   0.208  14.849 -0.2020 -0.2972  1.2377
  427MPD2    H5 6429   0.451   0.288  14.821  1.8239  0.7904  0.4257
  427MPD2    N1 6430   0.936   0.011  14.918  0.0394  0.4722  0.2452
  427MPD2    H7 6431   0.881   4.663  14.932 -0.2315  0.9173  1.9003
  428TMC3    C1 6432   1.106   4.618  14.998 -0.1969  0.1368  0.4400
  428TMC3    C2 6433   1.004   4.536  15.044  0.0800  0.4828 -0.7196
  428TMC3    C3 6434   1.024   4.488  15.167  0.0019  0.4123  0.1494
  428TMC3    C4 6435   1.230   4.621  15.050 -0.6334  0.2647 -0.4134
  428TMC3    C5 6436   1.254   4.549  15.165 -0.3486  0.4404 -0.1694
  428TMC3    C6 6437   1.149   4.485  15.227 -0.9545  0.4224  0.9050
  428TMC3     C 6438   1.071   0.012  14.937  0.3271 -0.1234 -0.2441
  428TMC3     O 6439   1.155   0.103  14.929 -0.1045 -0.8340  0.2269
  428TMC3     H 6440   0.912   4.528  14.987 -0.5677 -1.2436  0.5786
  428TMC3    H1 6441   1.305   4.691  15.015  0.3084 -0.2439  0.6228
  428TMC3    H2 6442   1.164   4.446  15.327  2.4715 -0.6251  0.0058
  428TMC3    C7 6443   1.350   4.596  15.259  0.1812 -0.5160  0.2700
  428TMC3    C8 6444   0.904   4.430  15.231  0.0826  1.0841 -0.2475
  428TMC3    O1 6445   1.346   4.562  15.378 -0.0629  0.2587 -0.2763
  428TMC3    O2 6446   0.807   4.481  15.177  0.3844  0.6882  0.3273
  429MPD2     C 6447   1.844   0.150   0.160  0.4066 -0.8921 -0.2921
  429MPD2    C1 6448   1.912   0.090   0.057  0.2849  0.0259 -0.4754
  429MPD2    C2 6449   1.956   0.167  17.693 -0.1504  0.0488 -0.2708
  429MPD2    C3 6450   1.916   0.295  17.675 -0.5451  0.9459 -0.2112
  429MPD2    C4 6451   1.845   0.357   0.032  0.1656  0.8484  0.0332
  429MPD2    C5 6452   1.812   0.281   0.146 -0.2171 -0.5932  0.3672
  429MPD2     H 6453   2.009   0.103  17.624 -3.2130 -3.1404  0.3468
  429MPD2    H1 6454   1.809   0.459   0.028 -1.8513  0.1193 -0.7677
  429MPD2    H2 6455   1.813   0.098   0.250 -1.2560  1.0974  0.2619
  429MPD2    H3 6456   1.765   0.327   0.232 -2.0115 -2.4300  0.3859
  429MPD2     N 6457   1.962   0.368  17.556 -0.0820  0.4911 -0.0243
  429MPD2    H5 6458   2.027   0.318  17.496  0.4130  1.5909 -0.4013
  429MPD2    N1 6459   1.941   4.685   0.056  0.7698  0.9343 -0.3482
  429MPD2    H7 6460   1.999   4.649  17.725  0.6253  2.7694 -1.3227
  430TMC3    C1 6461   1.963   0.544  17.389  0.2541 -0.1219 -1.0825
  430TMC3    C2 6462   1.898   0.656  17.338  0.4183  0.3813 -0.1865
  430TMC3    C3 6463   1.946   0.717  17.227  0.1551 -0.0475 -0.2170
  430TMC3    C4 6464   2.083   0.499  17.332  0.1581  0.4607 -0.3371
  430TMC3    C5 6465   2.117   0.559  17.213 -0.0145 -0.0934  0.1523
  430TMC3    C6 6466   2.049   0.662  17.159  0.1512  0.0412 -0.3652
  430TMC3     C 6467   1.914   0.491  17.518 -0.2435 -0.3386 -0.5829
  430TMC3     O 6468   1.821   0.556  17.559  0.2218  0.3209  0.5660
  430TMC3     H 6469   1.814   0.706  17.384  0.7464  1.7970 -1.1270
  430TMC3    H1 6470   2.141   0.419  17.377  0.4917  1.2065  0.5482
  430TMC3    H2 6471   2.088   0.715  17.073 -0.0162 -1.5187 -1.3882
  430TMC3    C7 6472   2.146   0.457  17.110 -0.1801 -0.5651 -0.3124
  430TMC3    C8 6473   1.842   0.746  17.137  0.1914  0.2328 -0.3034
  430TMC3    O1 6474   2.144   0.346  17.158  0.4874 -0.4077 -0.2289
  430TMC3    O2 6475   1.752   0.659  17.122 -0.3021  0.0773 -0.1479
  431MPD2     C 6476   3.033   0.364  12.471  0.3063  0.2287  0.5293
  431MPD2    C1 6477   3.152   0.341  12.398  0.2555  0.4553 -0.1488
  431MPD2    C2 6478   3.155   0.249  12.303  0.1219  0.6190  0.2553
  431MPD2    C3 6479   3.046   0.169  12.279  0.2180  0.1014  0.6375
  431MPD2    C4 6480   2.932   0.183  12.356  0.4560  0.1395 -0.0157
  431MPD2    C5 6481   2.928   0.280  12.450 -0.3486 -0.2617 -0.4886
  431MPD2     H 6482   3.248   0.245  12.248  1.4044 -1.4206  2.5895
  431MPD2    H1 6483   2.841   0.124  12.358  0.3458  0.2605 -1.2039
  431MPD2    H2 6484   3.030   0.441  12.547  2.4112  0.9441 -0.1044
  431MPD2    H3 6485   2.842   0.294  12.514  0.9120 -0.2188  1.2126
  431MPD2     N 6486   3.052   0.059  12.182 -0.4193 -0.3191 -0.2320
  431MPD2    H5 6487   2.973   4.733  12.192 -0.6883  0.1612  0.6924
  431MPD2    N1 6488   3.272   0.420  12.420 -0.0270 -0.6932 -0.2956
  431MPD2    H7 6489   3.344   0.393  12.353 -0.1572 -0.6697 -0.4460
  432TMC3    C1 6490   3.162   4.635  12.038 -0.1201  0.3774  0.8773
  432TMC3    C2 6491   3.247   4.613  11.933 -0.2379 -0.2089  0.3889
  432TMC3    C3 6492   3.330   4.504  11.925  0.4389  0.5537  0.1192
  432TMC3    C4 6493   3.151   4.537  12.138 -0.3669  0.2436 -0.0932
  432TMC3    C5 6494   3.245   4.437  12.135  0.5700 -0.1220  0.3687
  432TMC3    C6 6495   3.332   4.418  12.032 -0.2327 -0.6223 -0.4643
  432TMC3     C 6496   3.165   0.029  12.102 -0.0316 -0.0015  0.1201
  432TMC3     O 6497   3.258   0.102  12.061 -0.3057 -0.2671  0.1640
  432TMC3     H 6498   3.248   4.686  11.853 -0.0789  0.3536  0.8980
  432TMC3    H1 6499   3.085   4.550  12.223  1.1567 -0.7945  1.2500
  432TMC3    H2 6500   3.403   4.336  12.040 -0.6198 -0.5361  3.9828
  432TMC3    C7 6501   3.250   4.345  12.253  0.8375 -0.1626  0.3761
  432TMC3    C8 6502   3.434   4.508  11.826 -0.5189 -0.4038 -0.4716
  432TMC3    O1 6503   3.283   4.228  12.224  0.1780  0.3593 -0.3165
  432TMC3    O2 6504   3.410   4.552  11.714 -0.4852  0.1019 -1.2899
  433MPD2     C 6505   1.698   3.152  10.797 -0.1547  0.1470  0.2166
  433MPD2    C1 6506   1.773   3.055  10.854 -0.0265 -0.3789  0.4286
  433MPD2    C2 6507   1.826   3.088  10.981  0.1864  0.4329  0.3793
  433MPD2    C3 6508   1.812   3.210  11.046  0.2842 -0.2602  0.0115
  433MPD2    C4 6509   1.733   3.304  10.986  0.0675  0.3245  0.2866
  433MPD2    C5 6510   1.674   3.265  10.865  0.1725  0.1858 -0.2359
  433MPD2     H 6511   1.863   3.008  11.045  0.6971 -0.0498 -0.5193
  433MPD2    H1 6512   1.705   3.400  11.029 -0.1439  0.8343 -0.9846
  433MPD2    H2 6513   1.655   3.146  10.698  0.0856  0.2934  0.1033
  433MPD2    H3 6514   1.618   3.344  10.817 -0.0800  1.4639  2.1812
  433MPD2     N 6515   1.875   3.215  11.170  0.3542 -0.0333  0.0298
  433MPD2    H5 6516   1.935   3.135  11.189  0.2709 -0.0091  0.3964
  433MPD2    N1 6517   1.800   2.936  10.781 -0.1379 -0.3279  0.2481
  433MPD2    H7 6518   1.750   2.928  10.693 -0.6769  2.6619  0.2821
  434TMC3    C1 6519   1.878   2.719  10.747 -0.4907  0.0912 -0.2127
  434TMC3    C2 6520   1.966   2.625  10.794  0.9917 -0.5327 -0.3752
  434TMC3    C3 6521   1.966   2.499  10.743 -0.2539  0.6893 -0.0912
  434TMC3    C4 6522   1.786   2.681  10.650  0.3345  0.3258  0.3355
  434TMC3    C5 6523   1.783   2.549  10.608 -0.2924  0.9604  0.1451
  434TMC3    C6 6524   1.875   2.460  10.655  0.2862  0.0131  0.4224
  434TMC3     C 6525   1.861   2.828  10.841 -0.1422 -0.0680  0.3859
  434TMC3     O 6526   1.883   2.793  10.958 -0.1194 -0.7522  0.5232
  434TMC3     H 6527   2.041   2.656  10.866 -0.9288  1.0578  0.9396
  434TMC3    H1 6528   1.713   2.742  10.597  0.9928  0.3011 -0.5947
  434TMC3    H2 6529   1.864   2.358  10.620  1.5316 -0.0995  0.3881
  434TMC3    C7 6530   1.688   2.513  10.503 -0.0372  0.2159  0.4709
  434TMC3    C8 6531   2.032   2.407  10.838  0.2183 -0.0889  0.0604
  434TMC3    O1 6532   1.620   2.603  10.451  0.5151 -0.0290 -0.0338
  434TMC3    O2 6533   2.117   2.458  10.904 -0.0192  0.4809  0.2732
  435MPD2     C 6534   3.931   3.592  15.428 -0.2175  0.1416  0.4146
  435MPD2    C1 6535   3.884   3.570  15.554  0.7179  0.6841  0.2947
  435MPD2    C2 6536   3.970   3.517  15.647  0.4871  0.3813 -0.3933
  435MPD2    C3 6537   4.106   3.483  15.615 -0.0245 -0.1690  0.5753
  435MPD2    C4 6538   4.151   3.507  15.487 -0.5497  0.3662  0.1520
  435MPD2    C5 6539   4.068   3.568  15.399 -0.2652  0.0793 -0.5463
  435MPD2     H 6540   3.933   3.493  15.745  1.8178  0.7798  0.2151
  435MPD2    H1 6541   4.254   3.490  15.455 -0.2464  0.2359  1.2028
  435MPD2    H2 6542   3.863   3.626  15.351 -2.2875  2.0597  3.0716
  435MPD2    H3 6543   4.099   3.589  15.298  0.0740  2.3058  0.0071
  435MPD2     N 6544   4.173   3.410  15.712  0.2274  0.2075 -0.0462
  435MPD2    H5 6545   4.122   3.392  15.797  0.0853 -1.7925 -0.5474
  435MPD2    N1 6546   3.751   3.580  15.594 -0.3790 -0.3326 -0.1802
  435MPD2    H7 6547   3.735   3.535  15.683 -1.6705 -0.3917 -0.4443
  436TMC3    C1 6548   3.423   3.740  15.800  0.2749 -0.9204 -0.0557
  436TMC3    C2 6549   3.534   3.680  15.737 -0.5199  0.6886  0.4948
  436TMC3    C3 6550   3.527   3.652  15.603 -0.2931 -0.5234  0.4682
  436TMC3    C4 6551   3.307   3.762  15.731  0.0586 -0.1473  0.3651
  436TMC3    C5 6552   3.306   3.741  15.599  0.1007 -0.2460  0.9735
  436TMC3    C6 6553   3.411   3.682  15.531  0.7588  0.1404  0.0078
  436TMC3     C 6554   3.438   3.776  15.947  0.1107  0.1899  0.6243
  436TMC3     O 6555   3.553   3.767  15.992  0.3512  0.0647 -0.0018
  436TMC3     H 6556   3.630   3.674  15.787 -0.5877 -1.8869  0.3419
  436TMC3    H1 6557   3.216   3.800  15.775  0.7075  0.2541  1.3695
  436TMC3    H2 6558   3.414   3.657  15.426  0.8860 -2.1767  0.5634
  436TMC3    C7 6559   3.183   3.761  15.523 -0.0316  0.2076 -0.8151
  436TMC3    C8 6560   3.646   3.641  15.525  0.3896 -0.3742  0.5084
  436TMC3    O1 6561   3.082   3.792  15.588 -0.0542 -0.1326 -0.1685
  436TMC3    O2 6562   3.640   3.688  15.416 -0.4006 -0.2701  0.3988
  437TMC3    C1 6563   2.908   0.876  12.287  0.7726  0.3062  1.1967
  437TMC3    C2 6564   2.869   0.972  12.199 -0.6531 -0.2110  0.2291
  437TMC3    C3 6565   2.928   0.983  12.076 -0.1190 -0.3584 -0.4476
  437TMC3    C4 6566   3.022   0.808  12.258 -0.0649  0.2867  0.3953
  437TMC3    C5 6567   3.089   0.826  12.141 -0.3091  0.4275 -0.3176
  437TMC3    C6 6568   3.043   0.913  12.049 -1.0873 -0.1620 -0.2503
  437TMC3     C 6569   2.846   0.835  12.414 -0.6055 -0.3389 -0.1411
  437TMC3     O 6570   2.898   0.742  12.477 -0.5061 -0.7328 -0.2353
  437TMC3     H 6571   2.775   1.021  12.217 -1.4747 -1.1732 -1.4560
  437TMC3    H1 6572   3.055   0.729  12.324  0.4015  0.6790  0.6338
  437TMC3    H2 6573   3.104   0.918  11.959  0.9098 -0.4651  1.0806
  437TMC3    C7 6574   3.219   0.779  12.125  0.3571 -0.1556 -0.0491
  437TMC3    C8 6575   2.843   1.038  11.968 -0.6635  0.7198  0.4472
  437TMC3    O1 6576   3.249   0.724  12.020  0.4375  0.8192  0.1829
  437TMC3    O2 6577   2.738   1.079  12.000 -0.2400  0.5374 -0.2575
  438MPD2     C 6578   4.404   1.522  16.331  0.0714 -0.0742 -1.0732
  438MPD2    C1 6579   4.511   1.464  16.397  0.0539 -0.2485  1.0891
  438MPD2    C2 6580   4.521   1.479  16.537  0.7194  0.1338 -0.6163
  438MPD2    C3 6581   4.423   1.548  16.609  0.5088  0.3213  0.2882
  438MPD2    C4 6582   4.316   1.599  16.539  0.6299  0.3290  0.3516
  438MPD2    C5 6583   4.307   1.588  16.402  0.0810  0.1973  0.1815
  438MPD2     H 6584   4.606   1.432  16.586 -0.6355 -2.7806 -1.0908
  438MPD2    H1 6585   4.234   1.653  16.586  0.5622  0.0911  0.5089
  438MPD2    H2 6586   4.392   1.514  16.224  0.4017 -1.7701 -0.9758
  438MPD2    H3 6587   4.220   1.627  16.350  1.1721 -0.5969 -2.2500
  438MPD2     N 6588   4.440   1.548  16.745  0.5365 -0.0047 -0.1093
  438MPD2    H5 6589   4.528   1.511  16.778 -0.1963 -1.3787  0.3097
  438MPD2    N1 6590   4.605   1.382  16.326 -0.4687  1.0096 -0.3379
  438MPD2    H7 6591   4.680   1.340  16.380 -0.6632 -0.9161 -1.5895
  439TMC3    C1 6592   4.726   1.289  16.143  0.0136 -0.4139 -0.6349
  439TMC3    C2 6593   4.723   1.217  16.024 -0.1377 -0.0736  0.2901
  439TMC3    C3 6594   0.101   1.165  15.971  0.3535  0.3022 -0.5920
  439TMC3    C4 6595   0.111   1.314  16.205  0.3816  0.0977  0.5106
  439TMC3    C5 6596   0.220   1.275  16.140 -0.5665 -0.2677 -0.1435
  439TMC3    C6 6597   0.220   1.199  16.026  0.2593  0.2365  0.9574
  439TMC3     C 6598   4.608   1.359  16.193  0.1376  0.6190 -0.1409
  439TMC3     O 6599   4.518   1.376  16.111  0.3141  0.3003  0.2106
  439TMC3     H 6600   4.627   1.208  15.974 -0.8405  0.9731  1.4334
  439TMC3    H1 6601   0.124   1.396  16.275 -0.0608  0.3820  0.2555
  439TMC3    H2 6602   0.315   1.169  15.982 -0.5342 -0.5641 -0.2250
  439TMC3    C7 6603   0.343   1.276  16.217 -0.0831 -0.4564 -0.3574
  439TMC3    C8 6604   0.101   1.065  15.869  0.1917 -0.6985  0.8092
  439TMC3    O1 6605   0.336   1.252  16.337 -0.3836  0.2621  0.2944
  439TMC3    O2 6606   0.207   1.048  15.810  0.6020 -0.1621  0.0121
  440MPD2     C 6607   3.549   2.050  14.569 -1.0441 -0.1009  0.3576
  440MPD2    C1 6608   3.572   2.122  14.687  0.6081  0.0311  0.2107
  440MPD2    C2 6609   3.666   2.072  14.780  0.9924 -0.1834  0.2913
  440MPD2    C3 6610   3.714   1.947  14.765 -0.3953  0.3635  0.3831
  440MPD2    C4 6611   3.682   1.876  14.655 -0.2867 -0.1953  0.0362
  440MPD2    C5 6612   3.602   1.930  14.553  0.0141 -0.6339 -0.1379
  440MPD2     H 6613   3.657   2.118  14.878  2.8067  1.7864 -0.4847
  440MPD2    H1 6614   3.718   1.774  14.653 -1.3383 -0.5436 -0.7663
  440MPD2    H2 6615   3.485   2.075  14.486 -1.9991  0.1104  1.1552
  440MPD2    H3 6616   3.582   1.869  14.466 -1.0402 -1.9318  1.0166
  440MPD2     N 6617   3.771   1.880  14.876  0.3952  0.0116  0.6453
  440MPD2    H5 6618   3.800   1.782  14.870  1.6411  0.4102  0.2471
  440MPD2    N1 6619   3.509   2.242  14.711  0.1781 -0.1339 -0.2676
  440MPD2    H7 6620   3.524   2.281  14.804 -0.8159  0.0036 -0.1645
  441TMC3    C1 6621   3.897   1.861  15.086  0.2455 -0.0185  0.6735
  441TMC3    C2 6622   3.992   1.928  15.166  0.0415 -0.7198 -0.8744
  441TMC3    C3 6623   4.040   1.860  15.271 -0.1632  0.3735 -0.1876
  441TMC3    C4 6624   3.834   1.744  15.118 -0.4618  0.7218 -1.0434
  441TMC3    C5 6625   3.894   1.684  15.225  0.1095 -0.3390 -0.1159
  441TMC3    C6 6626   4.000   1.732  15.295 -1.0521  0.5601  0.9079
  441TMC3     C 6627   3.835   1.948  14.980  0.2080  0.1640  0.1671
  441TMC3     O 6628   3.839   2.067  15.008 -0.0702 -0.1001  0.0707
  441TMC3     H 6629   4.035   2.019  15.125  0.2844  0.2700  1.5640
  441TMC3    H1 6630   3.751   1.691  15.074  0.8210 -0.2717 -2.2485
  441TMC3    H2 6631   4.041   1.690  15.387 -1.0252  1.9696  1.5400
  441TMC3    C7 6632   3.833   1.559  15.283 -0.3760 -0.2804 -0.7134
  441TMC3    C8 6633   4.100   1.928  15.386 -0.4005  0.2442  1.1281
  441TMC3    O1 6634   3.723   1.528  15.235  0.1126 -0.2154 -0.2540
  441TMC3    O2 6635   4.154   1.856  15.464 -0.9800  0.3094 -0.3142
  442MPD2     C 6636   1.858   2.290  16.141  0.1361  0.1423  0.5424
  442MPD2    C1 6637   1.754   2.223  16.195  0.4808 -0.2962 -0.3856
  442MPD2    C2 6638   1.721   2.098  16.152  0.1628  0.1795 -0.2108
  442MPD2    C3 6639   1.790   2.048  16.041  0.1571 -0.1042  0.8577
  442MPD2    C4 6640   1.884   2.125  15.983 -0.1321  0.2128  0.1541
  442MPD2    C5 6641   1.927   2.243  16.038 -0.1876 -0.1619  0.4330
  442MPD2     H 6642   1.646   2.052  16.215 -1.4388  1.4190 -1.2110
  442MPD2    H1 6643   1.926   2.100  15.886 -0.3931  2.3951 -0.5210
  442MPD2    H2 6644   1.891   2.390  16.167  0.8680  0.1617 -0.4390
  442MPD2    H3 6645   2.005   2.303  15.993  0.0857  0.1819  1.3647
  442MPD2     N 6646   1.756   1.924  15.982  0.1643  0.1307  0.4178
  442MPD2    H5 6647   1.807   1.917  15.894 -2.3992  1.7851 -1.2013
  442MPD2    N1 6648   1.692   2.270  16.311 -0.2212  0.3618 -0.3110
  442MPD2    H7 6649   1.600   2.233  16.330  0.1217 -0.5684 -0.4609
  443TMC3    C1 6650   1.627   2.409  16.495 -0.3606  0.2192 -0.8761
  443TMC3    C2 6651   1.620   2.535  16.546  0.4140 -0.0553  0.4338
  443TMC3    C3 6652   1.501   2.568  16.612  0.6102  0.2508  0.0033
  443TMC3    C4 6653   1.537   2.314  16.528  0.1271 -0.1114 -0.6468
  443TMC3    C5 6654   1.440   2.342  16.613  0.2627 -0.6577  0.6964
  443TMC3    C6 6655   1.418   2.470  16.652 -0.3946 -0.3466 -0.0939
  443TMC3     C 6656   1.718   2.385  16.384  0.4288 -0.9671 -0.2723
  443TMC3     O 6657   1.817   2.458  16.380 -0.6171 -0.0708 -0.1772
  443TMC3     H 6658   1.690   2.615  16.530  1.2879 -0.4960  2.0928
  443TMC3    H1 6659   1.553   2.208  16.511  0.5867  0.0861 -1.4348
  443TMC3    H2 6660   1.328   2.504  16.702 -0.0998 -1.5421  1.2355
  443TMC3    C7 6661   1.348   2.240  16.643 -0.4641 -0.4234  0.5833
  443TMC3    C8 6662   1.455   2.703  16.632  0.2617 -0.3961 -0.1747
  443TMC3    O1 6663   1.370   2.126  16.599 -0.1982 -0.0552  0.3004
  443TMC3    O2 6664   1.414   2.727  16.747  0.9335 -0.2087 -0.0988
  444MPD2     C 6665   1.860   2.098  16.586 -0.0531  0.7752 -0.6246
  444MPD2    C1 6666   1.784   1.980  16.597 -0.2503  0.1766 -0.6979
  444MPD2    C2 6667   1.808   1.884  16.500 -0.0171  0.0011  0.2239
  444MPD2    C3 6668   1.914   1.885  16.411 -0.0766  0.2149 -0.3311
  444MPD2    C4 6669   1.979   2.005  16.400  0.2143 -0.2918 -0.1436
  444MPD2    C5 6670   1.948   2.105  16.486  0.4660  1.1220 -0.7245
  444MPD2     H 6671   1.746   1.795  16.492  1.1520 -0.9608  1.7412
  444MPD2    H1 6672   2.057   2.036  16.332 -0.1566  1.3638  0.1834
  444MPD2    H2 6673   1.845   2.186  16.648 -1.2006  0.5573 -0.5827
  444MPD2    H3 6674   1.991   2.204  16.473  0.9335  1.2016  1.5201
  444MPD2     N 6675   1.948   1.777  16.326  0.7334 -0.0809 -0.2713
  444MPD2    H5 6676   1.881   1.701  16.335  1.8471 -1.3157 -2.4605
  444MPD2    N1 6677   1.686   1.961  16.694  0.0771 -0.4305  0.1457
  444MPD2    H7 6678   1.629   1.877  16.687 -0.4149  0.0165 -1.3476
  445TMC3    C1 6679   2.085   1.616  16.223  0.2935  0.8565 -0.5183
  445TMC3    C2 6680   1.973   1.556  16.173  0.0916 -0.0817 -0.3140
  445TMC3    C3 6681   1.979   1.422  16.158  0.0080 -0.4052 -0.0395
  445TMC3    C4 6682   2.205   1.554  16.248 -0.5103 -0.6669 -0.0532
  445TMC3    C5 6683   2.205   1.420  16.228  0.9157 -0.2863  0.1775
  445TMC3    C6 6684   2.094   1.349  16.192 -0.0173  0.0322  1.0791
  445TMC3     C 6685   2.070   1.751  16.280 -0.4664  0.0260  0.5761
  445TMC3     O 6686   2.173   1.811  16.300 -0.1804 -0.7334 -0.0616
  445TMC3     H 6687   1.883   1.613  16.155 -0.7067 -1.2404  0.0295
  445TMC3    H1 6688   2.291   1.586  16.306  0.1184  0.7957 -1.7998
  445TMC3    H2 6689   2.093   1.242  16.172  1.5736  0.3403 -0.5705
  445TMC3    C7 6690   2.333   1.343  16.249 -0.5799 -0.7002 -0.1335
  445TMC3    C8 6691   1.873   1.361  16.080  0.0043  0.5080 -0.4904
  445TMC3    O1 6692   2.436   1.405  16.272  0.1494  0.4589  0.3112
  445TMC3    O2 6693   1.775   1.426  16.046  0.6180  0.0432 -0.6363
  446MPD2     C 6694   1.629   2.312  11.165  0.7375 -1.0418 -0.1833
  446MPD2    C1 6695   1.639   2.418  11.077  0.0553  0.5509 -0.4000
  446MPD2    C2 6696   1.758   2.483  11.077  0.1528  0.4974  0.4067
  446MPD2    C3 6697   1.853   2.467  11.173 -0.3283  0.1478  0.6910
  446MPD2    C4 6698   1.843   2.363  11.265  0.2085 -0.2432  0.1417
  446MPD2    C5 6699   1.725   2.283  11.255  0.3515  0.2436  0.1688
  446MPD2     H 6700   1.780   2.554  10.998 -0.7530  0.6765  0.3194
  446MPD2    H1 6701   1.918   2.349  11.342 -0.2172 -1.3455  0.3590
  446MPD2    H2 6702   1.542   2.248  11.161 -1.3424  1.7631  0.1263
  446MPD2    H3 6703   1.698   2.200  11.319 -2.7378  0.8252 -0.3891
  446MPD2     N 6704   1.965   2.557  11.170 -0.1127 -0.1195  0.2896
  446MPD2    H5 6705   1.959   2.614  11.086  0.1058  1.3410  1.2589
  446MPD2    N1 6706   1.544   2.433  10.975  0.3601  0.2629  0.4735
  446MPD2    H7 6707   1.470   2.363  10.969  1.7429 -1.3250  1.6992
  447TMC3    C1 6708   2.167   2.665  11.234 -0.4427 -0.6894  0.0187
  447TMC3    C2 6709   2.135   2.780  11.175 -0.1920  0.5662 -0.0562
  447TMC3    C3 6710   2.229   2.877  11.161 -0.1070  0.1579  0.3529
  447TMC3    C4 6711   2.288   2.654  11.304 -0.2492 -0.3117  0.4836
  447TMC3    C5 6712   2.375   2.760  11.293  0.8092  1.1939 -0.4008
  447TMC3    C6 6713   2.351   2.873  11.225  0.2886  0.5032  0.3386
  447TMC3     C 6714   2.067   2.561  11.263  0.5513 -1.3458 -0.4995
  447TMC3     O 6715   2.081   2.494  11.365 -0.1368  0.1005  0.2716
  447TMC3     H 6716   2.037   2.799  11.135  0.5762  0.1169 -2.1372
  447TMC3    H1 6717   2.331   2.561  11.340 -0.0297  1.2753  4.3194
  447TMC3    H2 6718   2.413   2.962  11.229  1.2206 -0.1547  0.5451
  447TMC3    C7 6719   2.509   2.739  11.354 -0.3301 -0.2928  0.4172
  447TMC3    C8 6720   2.192   2.995  11.087 -0.5569 -0.5411 -0.8844
  447TMC3    O1 6721   2.603   2.798  11.308  0.1954  0.4859 -0.9022
  447TMC3    O2 6722   2.099   3.055  11.132 -0.8041  0.7284 -0.4561
  448TMC3    C1 6723   4.583   2.835  16.982  0.3551  0.5213 -0.0243
  448TMC3    C2 6724   4.534   2.720  16.926 -0.3683  1.3077  0.0811
  448TMC3    C3 6725   4.597   2.603  16.958 -0.2743 -0.7736 -0.3202
  448TMC3    C4 6726   4.686   2.834  17.071 -0.5917  0.2624  0.1836
  448TMC3    C5 6727   0.009   2.718  17.095  0.1461  0.5326 -0.9588
  448TMC3    C6 6728   4.700   2.597  17.047 -0.1119  0.3256 -0.1766
  448TMC3     C 6729   4.531   2.962  16.937  0.1907 -0.1726 -0.5267
  448TMC3     O 6730   4.512   2.975  16.818 -0.5822 -0.1132  0.3262
  448TMC3     H 6731   4.442   2.725  16.868  0.2310  2.1895 -0.7789
  448TMC3    H1 6732   4.726   2.925  17.115 -1.5270  1.4532 -1.4070
  448TMC3    H2 6733   0.013   2.503  17.069 -1.7655 -0.1247  1.6977
  448TMC3    C7 6734   0.119   2.717  17.192  0.1532 -0.2249  0.3582
  448TMC3    C8 6735   4.572   2.489  16.872 -0.6743  0.3461 -0.1930
  448TMC3    O1 6736   0.194   2.813  17.189 -0.3422  0.6194  0.3333
  448TMC3    O2 6737   4.608   2.381  16.916  0.4644  0.0802 -0.1294
  449MPD2     C 6738   1.920   1.454  13.687  0.2652 -0.2483  0.5317
  449MPD2    C1 6739   1.846   1.550  13.618 -0.1602 -0.0444  0.0462
  449MPD2    C2 6740   1.712   1.563  13.650  0.2490  0.4942  0.1958
  449MPD2    C3 6741   1.640   1.479  13.726 -0.2234  0.2037  0.1142
  449MPD2    C4 6742   1.716   1.385  13.794 -0.8848 -0.1979 -0.0077
  449MPD2    C5 6743   1.855   1.380  13.780 -0.3258 -1.5032  0.1928
  449MPD2     H 6744   1.659   1.646  13.605  1.1878 -1.7002 -4.8793
  449MPD2    H1 6745   1.666   1.315  13.860 -4.2320  0.1490 -2.2030
  449MPD2    H2 6746   2.028   1.453  13.674 -0.0427 -0.2382 -2.2185
  449MPD2    H3 6747   1.910   1.303  13.832 -0.0638 -0.3875  1.5640
  449MPD2     N 6748   1.500   1.498  13.729 -0.0102  0.2865 -0.0264
  449MPD2    H5 6749   1.477   1.589  13.690 -0.0018  0.2619 -0.0881
  449MPD2    N1 6750   1.898   1.638  13.519  0.4021 -0.4749 -0.3093
  449MPD2    H7 6751   1.840   1.708  13.474  2.6941  1.0417 -0.8813
  450TMC3    C1 6752   2.019   1.712  13.344 -0.0072 -0.4125 -0.0600
  450TMC3    C2 6753   2.019   1.635  13.232 -0.4249  0.3271 -0.7540
  450TMC3    C3 6754   1.941   1.692  13.135  0.1703  0.0621 -0.5174
  450TMC3    C4 6755   1.944   1.823  13.361 -0.2158  0.0385  0.3855
  450TMC3    C5 6756   1.864   1.868  13.257 -1.0084  0.1852 -0.3359
  450TMC3    C6 6757   1.868   1.800  13.137  0.0520  0.1137  0.8124
  450TMC3     C 6758   2.025   1.631  13.461 -0.4197  0.0218 -0.7919
  450TMC3     O 6759   2.096   1.534  13.462  0.3662  0.0182 -0.5242
  450TMC3     H 6760   2.069   1.539  13.230 -0.6075  0.1909  0.9539
  450TMC3    H1 6761   1.954   1.873  13.457  1.3901  2.3920 -1.0117
  450TMC3    H2 6762   1.824   1.840  13.047  1.1536 -0.1896  0.1423
  450TMC3    C7 6763   1.735   1.889  13.313  0.7336 -0.4749 -0.3720
  450TMC3    C8 6764   1.939   1.622  13.007 -0.2292  0.2038 -0.3268
  450TMC3    O1 6765   1.711   1.833  13.420  0.2469 -0.3644  0.1214
  450TMC3    O2 6766   1.852   1.658  12.928  0.2745  0.4132  0.1550
  451MPD2     C 6767   2.890   4.068   0.863  0.7538 -0.2104 -1.0724
  451MPD2    C1 6768   2.910   4.149   0.750 -0.4725  1.3381  0.7725
  451MPD2    C2 6769   3.023   4.131   0.676 -0.0370 -0.1716  0.6618
  451MPD2    C3 6770   3.126   4.042   0.723 -0.2063  0.1942  0.5375
  451MPD2    C4 6771   3.108   3.968   0.836  0.3988 -0.4575 -0.3134
  451MPD2    C5 6772   2.986   3.976   0.903 -0.2813  0.3837  0.2958
  451MPD2     H 6773   3.036   4.172   0.576 -1.2728  0.3556  0.7215
  451MPD2    H1 6774   3.175   3.893   0.876  1.9406  0.8021 -0.5411
  451MPD2    H2 6775   2.795   4.059   0.915  0.4074  0.6944 -1.5514
  451MPD2    H3 6776   2.973   3.912   0.989  0.6777  1.5196  1.2856
  451MPD2     N 6777   3.241   4.007   0.649  0.2292 -0.3388  0.3832
  451MPD2    H5 6778   3.306   3.949   0.701  0.7530 -0.1498 -0.0715
  451MPD2    N1 6779   2.805   4.230   0.706  0.5585 -0.8635  0.3418
  451MPD2    H7 6780   2.718   4.238   0.758  0.6043 -0.0778  0.2958
  452TMC3    C1 6781   3.399   3.998   0.474 -0.2535 -0.0345 -0.0544
  452TMC3    C2 6782   3.371   3.863   0.456 -0.0885 -0.3927 -0.0204
  452TMC3    C3 6783   3.382   3.810   0.335  0.5553 -1.1040  0.3161
  452TMC3    C4 6784   3.449   4.075   0.367  1.1026 -0.5633  0.3449
  452TMC3    C5 6785   3.454   4.013   0.249 -0.2269  0.1748 -0.4214
  452TMC3    C6 6786   3.424   3.881   0.225 -0.1360 -1.0055  0.2446
  452TMC3     C 6787   3.284   4.069   0.530  0.0662  0.0957 -0.5233
  452TMC3     O 6788   3.235   4.170   0.483  0.2114  0.4182 -0.1012
  452TMC3     H 6789   3.328   3.804   0.536 -0.8627  2.0590  1.3609
  452TMC3    H1 6790   3.475   4.180   0.375  0.3324 -0.4405  1.3234
  452TMC3    H2 6791   3.431   3.834   0.128 -1.7600  0.9439 -0.8231
  452TMC3    C7 6792   3.515   4.086   0.143 -0.4422 -0.0719  0.4594
  452TMC3    C8 6793   3.274   3.714   0.310  0.4615  0.1610 -0.2998
  452TMC3    O1 6794   3.630   4.127   0.164 -0.2312 -0.5476  0.0686
  452TMC3    O2 6795   3.182   3.715   0.392 -0.3594 -0.3505  0.0029
  453TMC3    C1 6796   3.973   1.675  11.996  0.6157 -0.5386 -1.0358
  453TMC3    C2 6797   3.949   1.544  11.995 -0.1174  0.8156  0.4367
  453TMC3    C3 6798   3.872   1.492  11.900 -0.2140  0.5281 -0.3479
  453TMC3    C4 6799   3.922   1.757  11.904  0.3518 -0.2079 -0.4859
  453TMC3    C5 6800   3.848   1.700  11.804 -1.2758 -0.2482 -0.1214
  453TMC3    C6 6801   3.825   1.565  11.800 -0.3662 -0.3188  0.8407
  453TMC3     C 6802   4.080   1.726  12.088 -0.4336 -0.0428 -0.5632
  453TMC3     O 6803   4.140   1.643  12.154 -0.4153 -0.5092 -0.0669
  453TMC3     H 6804   3.998   1.472  12.060  0.0638 -0.1633 -0.7776
  453TMC3    H1 6805   3.941   1.864  11.897 -1.2768  0.0407 -1.0069
  453TMC3    H2 6806   3.783   1.532  11.706 -2.5123  0.2219  1.5963
  453TMC3    C7 6807   3.849   1.766  11.677  0.2652  0.9077  0.1936
  453TMC3    C8 6808   3.901   1.355  11.862 -0.3968  0.3772 -0.2168
  453TMC3    O1 6809   3.827   1.696  11.580  0.2586 -0.1272 -0.1132
  453TMC3    O2 6810   3.919   1.340  11.743  0.4480 -0.0744  1.0804
  454MPD2     C 6811   2.766   1.610  15.884  0.6947  0.1956 -0.5670
  454MPD2    C1 6812   2.680   1.635  15.782 -0.0439  0.8980  0.8717
  454MPD2    C2 6813   2.618   1.762  15.784 -0.6940 -0.1252  0.3105
  454MPD2    C3 6814   2.654   1.861  15.876  0.6104  0.7458 -0.2700
  454MPD2    C4 6815   2.747   1.833  15.974  0.2194 -0.7504  0.4940
  454MPD2    C5 6816   2.798   1.705  15.978  0.0908 -0.1871 -0.0492
  454MPD2     H 6817   2.534   1.776  15.716 -0.6576  0.0842  0.3110
  454MPD2    H1 6818   2.785   1.899  16.051 -1.0050  0.2636  0.2513
  454MPD2    H2 6819   2.813   1.512  15.889 -1.6147 -1.0718 -3.7047
  454MPD2    H3 6820   2.863   1.670  16.057 -0.9911  1.6727  1.6621
  454MPD2     N 6821   2.593   1.988  15.880  0.1858 -0.2148  0.2241
  454MPD2    H5 6822   2.600   2.037  15.969 -0.7689 -0.9850  0.7366
  454MPD2    N1 6823   2.628   1.540  15.691  0.1752  0.9520  0.3219
  454MPD2    H7 6824   2.543   1.564  15.641 -0.3591 -0.1180  0.7062
  455TMC3    C1 6825   2.398   2.120  15.841  0.4854 -0.4969  0.3858
  455TMC3    C2 6826   2.410   2.185  15.959  0.0066 -0.0810 -0.2906
  455TMC3    C3 6827   2.307   2.161  16.049  0.8361  0.5961 -0.2401
  455TMC3    C4 6828   2.288   2.049  15.795 -0.3299 -0.4037  0.5088
  455TMC3    C5 6829   2.191   2.025  15.889  0.5183  0.2477  0.3094
  455TMC3    C6 6830   2.204   2.075  16.018  0.0331 -0.3798 -0.4436
  455TMC3     C 6831   2.516   2.048  15.784 -0.6773  0.9844 -0.3096
  455TMC3     O 6832   2.510   2.013  15.667 -0.1822 -0.2395 -0.0045
  455TMC3     H 6833   2.501   2.244  15.970  0.1665 -0.1200 -1.3810
  455TMC3    H1 6834   2.289   1.997  15.700 -0.0280 -0.7956  0.7245
  455TMC3    H2 6835   2.143   2.035  16.098 -1.0354  1.0601 -0.5143
  455TMC3    C7 6836   2.140   1.884  15.889 -0.9919 -0.1333 -0.6677
  455TMC3    C8 6837   2.290   2.219  16.178  0.6366  1.3091 -0.6087
  455TMC3    O1 6838   2.029   1.854  15.841  0.5278 -0.4836  0.1301
  455TMC3    O2 6839   2.177   2.210  16.232  0.0835  0.1513  0.1237
  456MPD2     C 6840   4.715   1.571  15.744 -0.0967  0.6090  0.4579
  456MPD2    C1 6841   0.099   1.561  15.814 -0.0281 -0.1719  0.0941
  456MPD2    C2 6842   0.105   1.600  15.948  0.4402  0.4290 -0.3238
  456MPD2    C3 6843   4.729   1.656  16.006 -0.2406  0.3165 -0.4716
  456MPD2    C4 6844   4.605   1.653  15.941  0.0253  0.5850  0.7286
  456MPD2    C5 6845   4.603   1.610  15.816  0.3010 -0.0514  0.5405
  456MPD2     H 6846   0.199   1.607  16.000  0.3201  3.8081 -0.5640
  456MPD2    H1 6847   4.518   1.690  15.993 -0.4938 -0.7350  0.7954
  456MPD2    H2 6848   4.708   1.551  15.637 -3.7818  1.0917  0.6093
  456MPD2    H3 6849   4.508   1.600  15.764  1.5955 -0.0168 -1.8426
  456MPD2     N 6850   0.008   1.694  16.149 -0.4323  0.1031  0.4434
  456MPD2    H5 6851   0.096   1.673  16.196 -0.8434 -0.9839  0.7221
  456MPD2    N1 6852   0.211   1.520  15.737  0.1327 -0.3802 -0.0305
  456MPD2    H7 6853   0.190   1.493  15.641  0.3586  1.1902 -0.5318
  457TMC3    C1 6854   4.675   1.783  16.358  0.3186 -0.2232 -0.1319
  457TMC3    C2 6855   4.581   1.866  16.411  0.0579  0.1725  0.5025
  457TMC3    C3 6856   4.568   1.876  16.546  0.1412  0.5203  0.4585
  457TMC3    C4 6857   0.027   1.712  16.433  0.4143 -0.5567 -0.0302
  457TMC3    C5 6858   0.007   1.717  16.568  0.5768  0.2901  0.0031
  457TMC3    C6 6859   4.651   1.799  16.620  0.1829  0.4997 -0.6944
  457TMC3     C 6860   4.652   1.765  16.219  0.1836 -0.1403  0.1719
  457TMC3     O 6861   4.547   1.811  16.179  0.3770  0.3672 -0.7318
  457TMC3     H 6862   4.514   1.927  16.352  1.1061 -0.0688 -0.9476
  457TMC3    H1 6863   0.097   1.646  16.381  0.2561  0.2935 -1.3294
  457TMC3    H2 6864   4.649   1.803  16.728 -1.3748  1.7694 -0.7622
  457TMC3    C7 6865   0.123   1.701  16.652  0.3740  0.1685 -0.0465
  457TMC3    C8 6866   4.529   2.000  16.602 -0.7065  0.0313 -0.1699
  457TMC3    O1 6867   0.118   1.743  16.767 -0.0861 -0.1009 -0.4133
  457TMC3    O2 6868   4.567   2.018  16.717 -0.0135 -0.2944 -0.0882
  458MPD2     C 6869   3.708   0.895  12.208  0.1581 -0.1308 -0.0757
  458MPD2    C1 6870   3.648   0.901  12.329  0.4299  0.9397  0.2933
  458MPD2    C2 6871   3.515   0.870  12.336 -0.4075  0.2118  0.5020
  458MPD2    C3 6872   3.444   0.835  12.225 -0.2442 -0.4607  0.7291
  458MPD2    C4 6873   3.503   0.833  12.100  0.3393  0.5443 -0.3113
  458MPD2    C5 6874   3.635   0.867  12.094  0.4997 -0.5477 -0.5716
  458MPD2     H 6875   3.464   0.874  12.431  1.6633  0.0433  1.6145
  458MPD2    H1 6876   3.455   0.798  12.010 -1.3242 -1.5259  1.3851
  458MPD2    H2 6877   3.814   0.917  12.204 -0.2018  1.5867 -0.0764
  458MPD2    H3 6878   3.688   0.861  12.000  0.1943 -1.4079 -0.6861
  458MPD2     N 6879   3.303   0.820  12.229 -0.0281 -0.4060 -0.3985
  458MPD2    H5 6880   3.256   0.859  12.309  3.2421  2.4896  0.1110
  458MPD2    N1 6881   3.726   0.940  12.446 -0.1464  0.2600 -0.1274
  458MPD2    H7 6882   3.823   0.962  12.425  0.2688 -1.3941  0.0597
  459TMC3    C1 6883   3.790   0.984  12.666 -0.3489  0.1651 -0.0020
  459TMC3    C2 6884   3.902   1.046  12.617 -0.2984 -0.2616 -0.0855
  459TMC3    C3 6885   4.015   1.049  12.704  0.1292 -0.5816 -0.5000
  459TMC3    C4 6886   3.783   0.932  12.791 -0.1206  0.2858 -0.0770
  459TMC3    C5 6887   3.893   0.932  12.866  0.2787  0.0227  0.6673
  459TMC3    C6 6888   4.010   0.989  12.824 -0.1041  0.8497 -0.0088
  459TMC3     C 6889   3.685   0.936  12.575 -0.0706 -0.2747 -0.4520
  459TMC3     O 6890   3.576   0.912  12.621  0.0717  0.6513 -0.4062
  459TMC3     H 6891   3.902   1.088  12.517  0.4006 -1.7685 -0.7187
  459TMC3    H1 6892   3.685   0.908  12.830  0.4367  0.5350  1.4911
  459TMC3    H2 6893   4.091   1.009  12.893  0.6167  0.8069 -0.8412
  459TMC3    C7 6894   3.881   0.925  13.008 -0.2406  0.2153  0.3016
  459TMC3    C8 6895   4.147   1.092  12.663  0.2199 -0.2216  0.4231
  459TMC3    O1 6896   3.959   0.999  13.068 -0.5548 -0.6095 -0.4329
  459TMC3    O2 6897   4.246   1.093  12.738  0.0218  0.3655  1.1867
  460MPD2     C 6898   2.390   3.228  10.891  0.1787  0.4147  0.2318
  460MPD2    C1 6899   2.273   3.184  10.945  0.0373 -0.5279  0.5027
  460MPD2    C2 6900   2.152   3.239  10.914 -0.2106 -0.2286 -0.4860
  460MPD2    C3 6901   2.147   3.342  10.817  0.6428  0.7967 -0.0664
  460MPD2    C4 6902   2.267   3.389  10.765 -0.4390 -0.1391  0.4306
  460MPD2    C5 6903   2.382   3.335  10.806  0.0464  0.7324 -0.4738
  460MPD2     H 6904   2.057   3.202  10.951  0.7798  1.1338  3.4677
  460MPD2    H1 6905   2.274   3.470  10.694  1.4410 -0.8783 -0.2258
  460MPD2    H2 6906   2.482   3.174  10.909  0.4356  0.5173 -0.7639
  460MPD2    H3 6907   2.477   3.371  10.768  0.5925  0.8336  0.9960
  460MPD2     N 6908   2.023   3.366  10.753  0.3824  0.3206 -0.5819
  460MPD2    H5 6909   1.949   3.314  10.798 -1.1650  1.7946 -1.4177
  460MPD2    N1 6910   2.285   3.054  11.010  0.9012 -0.6360  0.3441
  460MPD2    H7 6911   2.378   3.014  11.001  1.2056  0.0253  0.5292
  461TMC3    C1 6912   1.872   3.448  10.583 -0.0620 -0.3594  0.1751
  461TMC3    C2 6913   1.836   3.321  10.549  0.1309  0.7846  0.0622
  461TMC3    C3 6914   1.745   3.303  10.454  0.2806  0.0507  0.5219
  461TMC3    C4 6915   1.825   3.555  10.507 -0.8403  0.0114  0.0497
  461TMC3    C5 6916   1.722   3.535  10.417  0.5545  0.2483 -0.3313
  461TMC3    C6 6917   1.682   3.409  10.388 -0.7441  0.6149 -0.1048
  461TMC3     C 6918   2.002   3.464  10.656  0.4553  0.2963  0.3858
  461TMC3     O 6919   2.062   3.564  10.617  0.3079 -0.5043 -0.5524
  461TMC3     H 6920   1.884   3.240  10.602  0.1517  0.2044 -0.8495
  461TMC3    H1 6921   1.864   3.654  10.526 -1.3404 -0.1780  1.9729
  461TMC3    H2 6922   1.608   3.395  10.310 -0.1288 -0.3755 -0.5258
  461TMC3    C7 6923   1.689   3.645  10.325  0.1863  0.5241 -0.1317
  461TMC3    C8 6924   1.765   3.180  10.381  0.3408  0.2495 -0.0118
  461TMC3    O1 6925   1.620   3.624  10.225 -0.9909  0.2086 -0.1225
  461TMC3    O2 6926   1.838   3.096  10.424 -0.5018 -0.0036  0.2172
  462TMC3    C1 6927   2.468   4.566   0.149  0.2597 -0.4943 -0.1925
  462TMC3    C2 6928   2.572   4.492   0.108  0.1117  0.7071  0.4248
  462TMC3    C3 6929   2.597   4.375   0.177  0.1782  0.9827  1.0431
  462TMC3    C4 6930   2.379   4.529   0.246 -0.4797 -1.0746 -0.1424
  462TMC3    C5 6931   2.399   4.406   0.310 -0.5397  0.5878  0.4868
  462TMC3    C6 6932   2.518   4.340   0.287 -0.3567  1.4426  0.6228
  462TMC3     C 6933   2.416   4.672   0.062  0.2932 -0.2230 -0.5844
  462TMC3     O 6934   2.306   4.712   0.088 -0.6040  0.1373 -0.3462
  462TMC3     H 6935   2.639   4.525   0.030 -1.1506 -0.4267 -1.1352
  462TMC3    H1 6936   2.279   4.569   0.255 -0.8673 -2.2672  0.9393
  462TMC3    H2 6937   2.519   4.232   0.299  0.3689  1.3459 -0.2577
  462TMC3    C7 6938   2.286   4.318   0.342  0.7237  0.3105 -0.1516
  462TMC3    C8 6939   2.685   4.280   0.111 -0.2448 -0.0807 -0.7363
  462TMC3    O1 6940   2.290   4.199   0.301 -0.5024 -0.1424  0.0029
  462TMC3    O2 6941   2.709   4.309  17.739  0.3283 -0.4211  0.2732
  463MPD2     C 6942   3.851   2.906   1.417  0.6461  0.5224 -0.3850
  463MPD2    C1 6943   3.821   2.785   1.478  0.2389  0.2153  0.4487
  463MPD2    C2 6944   3.928   2.708   1.514 -0.2042  0.4022  0.0678
  463MPD2    C3 6945   4.056   2.725   1.455  0.4727  0.1530 -0.3457
  463MPD2    C4 6946   4.077   2.841   1.396  0.5402  0.4152  0.3036
  463MPD2    C5 6947   3.977   2.933   1.379 -0.2495 -0.0408 -0.0271
  463MPD2     H 6948   3.902   2.618   1.568 -1.3557 -0.8901 -2.6128
  463MPD2    H1 6949   4.176   2.872   1.364 -0.7195  0.4056 -3.6767
  463MPD2    H2 6950   3.777   2.978   1.385  1.7210  1.8109  0.0228
  463MPD2    H3 6951   4.006   3.009   1.307  1.2695 -2.1833 -1.7029
  463MPD2     N 6952   4.164   2.633   1.478 -0.1693  0.8151  0.2504
  463MPD2    H5 6953   4.257   2.662   1.450  0.0191  0.3249  0.3756
  463MPD2    N1 6954   3.688   2.740   1.511  0.0335  0.0983 -0.8109
  463MPD2    H7 6955   3.686   2.649   1.556 -1.7599 -0.4123 -1.9426
  464TMC3    C1 6956   3.452   2.731   1.523 -0.3413 -0.4539 -1.0566
  464TMC3    C2 6957   3.346   2.806   1.554  0.4628 -0.3892 -0.2540
  464TMC3    C3 6958   3.247   2.723   1.599 -0.7697 -0.2644  0.6117
  464TMC3    C4 6959   3.458   2.601   1.506  0.2743 -0.2766 -0.2946
  464TMC3    C5 6960   3.346   2.531   1.517 -0.5745 -0.4534  0.2060
  464TMC3    C6 6961   3.236   2.591   1.564 -0.5455  0.4085 -0.2716
  464TMC3     C 6962   3.576   2.814   1.497  0.2783 -0.0541  0.5195
  464TMC3     O 6963   3.570   2.935   1.478  0.3492  0.5205 -0.2835
  464TMC3     H 6964   3.346   2.914   1.567 -2.4418 -0.5689  1.1312
  464TMC3    H1 6965   3.544   2.553   1.461  0.8868 -0.0383  0.6516
  464TMC3    H2 6966   3.147   2.533   1.587  0.3314 -0.3811  1.1464
  464TMC3    C7 6967   3.358   2.384   1.532  0.0608 -0.2063  0.3176
  464TMC3    C8 6968   3.133   2.789   1.651 -0.6953 -0.4149 -0.2146
  464TMC3    O1 6969   3.467   2.343   1.569 -0.7688  0.1136  0.0679
  464TMC3    O2 6970   3.100   2.898   1.607 -0.1924 -0.5399  0.4074
  465MPD2     C 6971   4.198   2.239  17.071 -1.2563  0.4080 -0.1592
  465MPD2    C1 6972   4.170   2.104  17.099  0.4598  0.5186  0.6479
  465MPD2    C2 6973   4.168   2.015  16.993 -0.7711  0.2503 -0.4291
  465MPD2    C3 6974   4.186   2.055  16.862 -0.3393 -0.0822 -0.1634
  465MPD2    C4 6975   4.202   2.188  16.835 -0.1260  0.7863  0.5864
  465MPD2    C5 6976   4.223   2.269  16.939  0.0097 -0.0421 -0.0008
  465MPD2     H 6977   4.151   1.913  17.025 -0.1168  0.7655  1.5563
  465MPD2    H1 6978   4.209   2.235  16.737  2.5953  1.6451  1.2100
  465MPD2    H2 6979   4.217   2.308  17.153  0.8552  0.6926 -0.8866
  465MPD2    H3 6980   4.257   2.369  16.916 -2.4345  0.8718  0.2742
  465MPD2     N 6981   4.175   1.959  16.759  0.1657  0.2318 -0.2588
  465MPD2    H5 6982   4.177   1.862  16.787 -0.4007  0.5266  0.7990
  465MPD2    N1 6983   4.143   2.055  17.228  0.5547 -0.4372  0.1003
  465MPD2    H7 6984   4.116   1.958  17.238  1.6747 -0.8596 -1.0964
  466TMC3    C1 6985   3.922   1.710  16.585 -0.4073 -0.2817 -0.4058
  466TMC3    C2 6986   3.891   1.722  16.449 -0.5971 -0.5054  0.2537
  466TMC3    C3 6987   3.968   1.802  16.370 -0.0787  0.0228 -0.0037
  466TMC3    C4 6988   4.021   1.777  16.651 -0.8184  0.2001 -0.0373
  466TMC3    C5 6989   4.094   1.859  16.567  0.2700 -0.7819  0.3473
  466TMC3    C6 6990   4.076   1.861  16.432  0.6608 -0.5670  0.0612
  466TMC3     C 6991   3.810   1.675  16.668  0.7845  0.4065 -0.4252
  466TMC3     O 6992   3.830   1.667  16.788  0.0647  0.4184 -0.1312
  466TMC3     H 6993   3.814   1.667  16.396 -0.2739 -1.7051  1.0355
  466TMC3    H1 6994   4.010   1.765  16.758 -1.3499  0.4035 -0.0707
  466TMC3    H2 6995   4.139   1.932  16.380  0.9689 -0.2528  0.8545
  466TMC3    C7 6996   4.150   1.983  16.623  0.1658  0.1790 -0.0746
  466TMC3    C8 6997   3.892   1.896  16.295 -0.8490 -1.3896  0.9170
  466TMC3    O1 6998   4.151   2.082  16.559  0.4100 -0.1118 -0.2764
  466TMC3    O2 6999   3.872   1.868  16.176 -0.2682 -0.4392  0.1749
  467TMC3    C1 7000   0.637   0.622  14.117 -0.0633  0.1158 -0.4821
  467TMC3    C2 7001   0.577   0.691  14.010 -0.4428 -0.4630 -0.6159
  467TMC3    C3 7002   0.508   0.623  13.911 -0.6278  0.6988 -0.4994
  467TMC3    C4 7003   0.621   0.489  14.125  0.8456  0.4610 -0.3409
  467TMC3    C5 7004   0.539   0.432  14.036 -0.9146  0.7558 -0.2675
  467TMC3    C6 7005   0.478   0.486  13.928 -0.3433 -0.2769  0.4154
  467TMC3     C 7006   0.780   0.655  14.110  0.0801  0.3493 -0.2260
  467TMC3     O 7007   0.849   0.617  14.204  0.5365 -0.2647  0.8146
  467TMC3     H 7008   0.577   0.799  14.015 -2.6335 -0.3483 -3.1426
  467TMC3    H1 7009   0.660   0.435  14.210 -1.5062 -0.0714  0.3946
  467TMC3    H2 7010   0.418   0.429  13.858 -1.9486 -0.6240  2.0785
  467TMC3    C7 7011   0.474   0.311  14.086 -0.0373 -0.0079  0.3128
  467TMC3    C8 7012   0.550   0.679  13.783  0.1891 -0.0057 -0.2683
  467TMC3    O1 7013   0.545   0.246  14.161  0.5388 -0.1061 -0.2165
  467TMC3    O2 7014   0.584   0.794  13.786 -0.0763  0.2432 -0.3554
  468MPD2     C 7015   3.586   2.755  10.788  0.4458 -0.3350 -0.1453
  468MPD2    C1 7016   3.724   2.756  10.775 -0.1698 -0.0942  0.2787
  468MPD2    C2 7017   3.788   2.636  10.747  0.1183  1.1212  0.1805
  468MPD2    C3 7018   3.719   2.521  10.731  0.2842 -0.2504  0.3298
  468MPD2    C4 7019   3.582   2.528  10.729 -0.2765  0.5978  0.0162
  468MPD2    C5 7020   3.517   2.641  10.758  0.7229 -0.2962  0.3466
  468MPD2     H 7021   3.895   2.641  10.731 -0.2400  0.1265 -2.5780
  468MPD2    H1 7022   3.518   2.448  10.693 -1.4610  0.3524  2.6960
  468MPD2    H2 7023   3.524   2.841  10.812 -1.2316 -1.6980  0.4183
  468MPD2    H3 7024   3.411   2.637  10.738  1.2391  1.8363 -2.8045
  468MPD2     N 7025   3.777   2.398  10.706  0.3667 -0.4481 -0.6752
  468MPD2    H5 7026   3.728   2.317  10.670 -1.4514  0.3553 -0.0547
  468MPD2    N1 7027   3.802   2.870  10.800  0.6165  0.2306 -0.5260
  468MPD2    H7 7028   3.903   2.868  10.791  0.5469  0.9292 -1.3746
  469TMC3    C1 7029   3.868   3.097  10.854  0.4170  0.1238 -0.6181
  469TMC3    C2 7030   3.998   3.062  10.828  0.5285  0.0494  0.3356
  469TMC3    C3 7031   4.098   3.129  10.884  1.0157  0.1006  0.0268
  469TMC3    C4 7032   3.837   3.221  10.911  0.2936 -0.0273 -0.1349
  469TMC3    C5 7033   3.946   3.290  10.959  0.2043  0.5213 -0.4135
  469TMC3    C6 7034   4.076   3.247  10.948  0.9011 -0.6121  0.5879
  469TMC3     C 7035   3.761   2.993  10.841  0.3920  0.8679 -0.2108
  469TMC3     O 7036   3.647   3.017  10.880 -0.6094 -0.3206  0.1095
  469TMC3     H 7037   4.015   2.965  10.784  0.4106  0.4283 -0.5412
  469TMC3    H1 7038   3.733   3.250  10.917  0.7786  1.6476  0.2309
  469TMC3    H2 7039   4.160   3.304  10.987  0.3927 -0.9322  2.1701
  469TMC3    C7 7040   3.929   3.423  11.006  0.4969  0.4470 -0.3445
  469TMC3    C8 7041   4.233   3.071  10.885 -0.4338  0.3362 -0.0793
  469TMC3    O1 7042   4.025   3.501  11.018  0.0977  0.2008  0.3868
  469TMC3    O2 7043   4.264   3.000  10.785 -0.2030  0.1337  0.0621
  470TMC3    C1 7044   0.826   4.066   0.333  0.0490 -0.2640 -0.8142
  470TMC3    C2 7045   0.917   4.165   0.353 -0.5953  0.0967 -0.0404
  470TMC3    C3 7046   0.975   4.164   0.481  0.2895  0.2552 -0.0371
  470TMC3    C4 7047   0.798   3.970   0.428  0.3080  0.9005  0.0323
  470TMC3    C5 7048   0.855   3.977   0.550  0.3877  0.0805 -0.3258
  470TMC3    C6 7049   0.940   4.078   0.576 -0.3077  0.3293  0.0046
  470TMC3     C 7050   0.740   4.077   0.214  0.3154 -0.3985  0.4841
  470TMC3     O 7051   0.681   3.972   0.192  0.4413 -0.0968 -0.3386
  470TMC3     H 7052   0.954   4.226   0.271  1.0562  1.0176  1.3972
  470TMC3    H1 7053   0.739   3.882   0.408 -0.3555  0.7948  2.4714
  470TMC3    H2 7054   0.971   4.096   0.678  0.2996 -0.0961 -0.1084
  470TMC3    C7 7055   0.817   3.883   0.653 -0.8560 -0.2798 -0.4149
  470TMC3    C8 7056   1.080   4.262   0.499 -0.2924 -0.5699  0.0869
  470TMC3    O1 7057   0.705   3.832   0.646 -0.8411  0.3191 -0.3403
  470TMC3    O2 7058   1.080   4.335   0.597  0.1869  0.1926  0.3216
  471MPD2     C 7059   1.676   0.958  16.704  0.8576  0.9361 -0.6485
  471MPD2    C1 7060   1.654   0.834  16.757  0.5150 -0.0099 -0.1294
  471MPD2    C2 7061   1.713   0.799  16.878 -0.0992  0.7413  0.0762
  471MPD2    C3 7062   1.803   0.887  16.944  0.0501  0.3140 -0.9112
  471MPD2    C4 7063   1.833   1.002  16.882  0.1999 -0.7347  0.2416
  471MPD2    C5 7064   1.768   1.036  16.766  0.2500  0.1761  0.5639
  471MPD2     H 7065   1.692   0.697  16.906  1.5357  0.3843 -0.0138
  471MPD2    H1 7066   1.903   1.073  16.925 -0.5220 -0.4467  0.9253
  471MPD2    H2 7067   1.639   0.990  16.608  0.5043 -1.0352 -1.1790
  471MPD2    H3 7068   1.780   1.134  16.721 -1.1614 -1.3807 -3.2116
  471MPD2     N 7069   1.875   0.850  17.060  0.2068  0.2511  0.1025
  471MPD2    H5 7070   1.950   0.908  17.096  0.2103  0.6446 -0.5295
  471MPD2    N1 7071   1.565   0.741  16.688 -0.1148 -0.1359  0.1114
  471MPD2    H7 7072   1.559   0.653  16.739 -1.2899 -0.5797 -0.8019
  472TMC3    C1 7073   1.504   0.621  16.496  0.0301  0.3737 -0.2246
  472TMC3    C2 7074   1.441   0.616  16.371 -0.3228 -1.2251 -0.2685
  472TMC3    C3 7075   1.457   0.513  16.283  0.1688  0.3007  0.4761
  472TMC3    C4 7076   1.573   0.511  16.537  0.1939 -0.5734 -0.1358
  472TMC3    C5 7077   1.585   0.405  16.457 -0.9936  0.0639  0.1829
  472TMC3    C6 7078   1.531   0.404  16.333 -0.7453  0.4295 -0.0654
  472TMC3     C 7079   1.515   0.750  16.562 -0.8190 -0.0503  0.3368
  472TMC3     O 7080   1.485   0.851  16.500 -1.1030  0.1593 -0.0299
  472TMC3     H 7081   1.380   0.702  16.347  0.8054 -0.6835 -1.1822
  472TMC3    H1 7082   1.614   0.515  16.637 -0.9541 -0.2290  0.3217
  472TMC3    H2 7083   1.536   0.324  16.260 -0.2400 -2.0190  2.6513
  472TMC3    C7 7084   1.584   0.274  16.522 -0.6854 -0.1569 -0.0848
  472TMC3    C8 7085   1.334   0.463  16.230  0.1600  0.0657 -0.2836
  472TMC3    O1 7086   1.570   0.278  16.644  0.0813 -1.1210  0.3382
  472TMC3    O2 7087   1.296   0.498  16.119  0.1981 -0.3155  0.4661
  473MPD2     C 7088   1.860   2.455  13.721  0.2161  0.1547  0.2234
  473MPD2    C1 7089   1.913   2.554  13.638  0.3652  0.3985 -0.0528
  473MPD2    C2 7090   1.957   2.677  13.701 -0.0240 -0.3608 -0.3417
  473MPD2    C3 7091   1.943   2.683  13.840 -0.1443 -0.6557 -0.1410
  473MPD2    C4 7092   1.909   2.577  13.914 -0.2888 -0.5388  0.2895
  473MPD2    C5 7093   1.863   2.464  13.857 -0.4110 -0.3261 -0.0821
  473MPD2     H 7094   1.978   2.768  13.646  1.2994  0.5002  1.5866
  473MPD2    H1 7095   1.898   2.589  14.021 -2.0647  1.0430 -0.0838
  473MPD2    H2 7096   1.807   2.369  13.681 -0.6478  0.4592  0.7168
  473MPD2    H3 7097   1.804   2.392  13.913  0.7777 -0.7574  0.6116
  473MPD2     N 7098   1.966   2.803  13.915 -0.0072 -0.2691  0.4997
  473MPD2    H5 7099   1.952   2.793  14.015  0.1726 -2.7515  0.2779
  473MPD2    N1 7100   1.911   2.555  13.494  0.8141 -0.0907 -0.9579
  473MPD2    H7 7101   1.933   2.641  13.445 -0.8033  0.7383 -0.2239
  474TMC3    C1 7102   2.014   3.029  13.965  0.4671 -0.4901 -0.0251
  474TMC3    C2 7103   2.053   3.142  13.909 -0.8059  0.6865 -0.1618
  474TMC3    C3 7104   2.062   3.248  13.997 -0.3336  0.0978 -0.1199
  474TMC3    C4 7105   1.984   3.007  14.097 -0.1814 -0.7453  0.1686
  474TMC3    C5 7106   2.010   3.114  14.177 -0.3179  0.2960 -0.6540
  474TMC3    C6 7107   2.053   3.236  14.132 -0.0707  0.5741  0.3643
  474TMC3     C 7108   1.990   2.932  13.868  0.0326  0.3579  0.5129
  474TMC3     O 7109   2.022   2.959  13.755 -0.4056  0.1124  0.5983
  474TMC3     H 7110   2.074   3.163  13.805 -2.3214 -0.4943 -0.7101
  474TMC3    H1 7111   1.961   2.910  14.139 -0.0871  0.1186  2.2366
  474TMC3    H2 7112   2.063   3.325  14.193 -1.3567  0.0275  1.3618
  474TMC3    C7 7113   1.966   3.086  14.311 -0.1992 -0.6414 -1.2973
  474TMC3    C8 7114   2.120   3.378  13.949  1.2076 -0.4077 -0.6265
  474TMC3    O1 7115   1.871   3.008  14.324 -0.0456 -0.0192  0.1427
  474TMC3    O2 7116   2.161   3.449  14.042 -0.4215 -0.0764  0.5257
  475MPD2     C 7117   0.722   0.441   9.819  0.6625  0.5772 -0.6715
  475MPD2    C1 7118   0.732   0.582   9.830  0.3715 -0.5006  0.7395
  475MPD2    C2 7119   0.663   0.640   9.931  0.3084 -0.3134  0.0659
  475MPD2    C3 7120   0.582   0.566  10.015  0.0903  0.2265 -0.0782
  475MPD2    C4 7121   0.575   0.428  10.007 -0.5201  0.0012  0.4386
  475MPD2    C5 7122   0.649   0.371   9.908  0.1048 -1.1403 -1.0242
  475MPD2     H 7123   0.679   0.746   9.946  1.2407 -0.4696  0.1851
  475MPD2    H1 7124   0.518   0.368  10.077 -1.2386  0.3604  0.1552
  475MPD2    H2 7125   0.771   0.396   9.734 -0.0542  0.3633 -0.9751
  475MPD2    H3 7126   0.634   0.264   9.901  2.2790 -1.5406  0.5735
  475MPD2     N 7127   0.519   0.637  10.118 -0.0125  0.6802 -0.0385
  475MPD2    H5 7128   0.537   0.736  10.121 -0.0941  0.6624  1.0743
  475MPD2    N1 7129   0.788   0.669   9.736  0.9708  0.5343 -0.4008
  475MPD2    H7 7130   0.761   0.765   9.753 -0.0187  0.1450  0.2314
  476TMC3    C1 7131   0.922   0.772   9.577 -0.5795 -0.2415 -0.2107
  476TMC3    C2 7132   0.825   0.869   9.592 -0.4224  0.1848 -0.0556
  476TMC3    C3 7133   0.856   0.993   9.621 -0.3064  0.1776 -0.4422
  476TMC3    C4 7134   1.053   0.797   9.592  0.4886 -0.1148 -0.8377
  476TMC3    C5 7135   1.080   0.925   9.640  0.2085  0.2150 -0.3628
  476TMC3    C6 7136   0.987   1.025   9.645  0.9625 -0.4445 -0.1846
  476TMC3     C 7137   0.880   0.647   9.637  1.0860 -0.0327 -0.1727
  476TMC3     O 7138   0.953   0.553   9.625  0.0038  0.2181  0.0411
  476TMC3     H 7139   0.731   0.852   9.542  0.2512 -1.9789 -0.5970
  476TMC3    H1 7140   1.128   0.719   9.592  0.8535  0.2225  3.4409
  476TMC3    H2 7141   1.019   1.122   9.682 -1.2901  0.6434 -1.0779
  476TMC3    C7 7142   1.218   0.957   9.683  0.0247  0.1668 -0.1390
  476TMC3    C8 7143   0.754   1.055   9.706 -1.3850  0.2907 -0.0191
  476TMC3    O1 7144   1.310   0.916   9.617 -0.0951 -0.4490 -0.7202
  476TMC3    O2 7145   0.794   1.143   9.785 -0.3974  0.4992  0.0094
  477MPD2     C 7146   2.793   1.840  11.553  0.5405 -0.2145 -0.1009
  477MPD2    C1 7147   2.719   1.879  11.660  0.8733  0.6726  0.5348
  477MPD2    C2 7148   2.774   1.868  11.783 -0.2243 -0.0542  0.2306
  477MPD2    C3 7149   2.900   1.819  11.805  0.0810  0.1125  0.1159
  477MPD2    C4 7150   2.980   1.803  11.695  0.1173  0.0491  0.3257
  477MPD2    C5 7151   2.924   1.814  11.569 -0.1969  0.4015 -0.9526
  477MPD2     H 7152   2.717   1.896  11.870 -0.9380 -1.5953  0.2598
  477MPD2    H1 7153   3.084   1.775  11.689 -0.3939 -1.8677  0.4724
  477MPD2    H2 7154   2.765   1.843  11.448 -0.7758 -0.0159  0.2580
  477MPD2    H3 7155   2.981   1.797  11.479 -0.8805 -2.0534 -0.9277
  477MPD2     N 7156   2.957   1.811  11.932 -0.3294 -0.7141 -0.0397
  477MPD2    H5 7157   3.055   1.788  11.928 -0.7194 -2.4294  0.2964
  477MPD2    N1 7158   2.593   1.932  11.633 -0.2735  0.4400 -0.0648
  477MPD2    H7 7159   2.572   1.947  11.534  1.7311 -1.0704 -0.7106
  478TMC3    C1 7160   2.409   2.062  11.660 -0.0726 -0.2432  0.3264
  478TMC3    C2 7161   2.371   2.182  11.715 -0.3208 -0.4019  0.7023
  478TMC3    C3 7162   2.278   2.260  11.656 -0.4262 -0.8334  0.3463
  478TMC3    C4 7163   2.351   2.019  11.546  0.4376 -0.0814 -0.0795
  478TMC3    C5 7164   2.252   2.103  11.488  0.1468  0.2161 -0.1831
  478TMC3    C6 7165   2.211   2.226  11.547 -0.7001  0.5711 -0.0786
  478TMC3     C 7166   2.506   1.984  11.728 -0.2946  0.4192 -0.2952
  478TMC3     O 7167   2.507   1.979  11.850 -0.0016  0.4734  0.5366
  478TMC3     H 7168   2.422   2.207  11.807 -3.6534  2.3415  1.8171
  478TMC3    H1 7169   2.370   1.927  11.492 -1.1292 -0.1380 -0.5279
  478TMC3    H2 7170   2.122   2.274  11.507 -2.0257  0.3986  2.7154
  478TMC3    C7 7171   2.173   2.048  11.376  0.4884 -0.6169  0.2365
  478TMC3    C8 7172   2.231   2.368  11.741  0.3391 -0.7373 -0.4511
  478TMC3    O1 7173   2.149   1.927  11.390  0.1239  0.6724  1.1081
  478TMC3    O2 7174   2.283   2.379  11.850  0.3362 -0.6211 -0.6224
  479MPD2     C 7175   1.652   0.062  15.216 -0.2997  0.5175  0.0017
  479MPD2    C1 7176   1.554   4.734  15.280 -0.3265 -0.4821 -0.0261
  479MPD2    C2 7177   1.549   0.010  15.419 -0.1605 -0.4687  0.3829
  479MPD2    C3 7178   1.640   0.093  15.483  0.1236 -0.1846 -0.1622
  479MPD2    C4 7179   1.738   0.156  15.417  0.1505  0.1276  0.2443
  479MPD2    C5 7180   1.740   0.145  15.278  0.0878 -0.1011 -0.1996
  479MPD2     H 7181   1.479   4.693  15.483 -0.7919  0.8679  0.7898
  479MPD2    H1 7182   1.808   0.221  15.470  0.5602 -0.7981  0.8384
  479MPD2    H2 7183   1.662   0.048  15.109 -1.0166  0.5477 -0.0674
  479MPD2    H3 7184   1.811   0.193  15.212 -0.0549  0.8970  0.3713
  479MPD2     N 7185   1.636   0.118  15.619  0.5557 -0.8640 -0.5115
  479MPD2    H5 7186   1.670   0.210  15.646  0.1858 -1.3489  1.6444
  479MPD2    N1 7187   1.458   4.670  15.201  0.4798 -0.5869 -0.2063
  479MPD2    H7 7188   1.458   4.686  15.101  1.1465  0.0675 -0.1019
  480TMC3    C1 7189   1.403   0.033  15.993  0.5615  0.2589  0.6385
  480TMC3    C2 7190   1.291   0.107  15.958 -0.2405 -0.2796  0.0868
  480TMC3    C3 7191   1.319   0.191  15.853  0.1019  0.2753 -0.3602
  480TMC3    C4 7192   1.524   0.032  15.933 -0.5867  0.2676  0.3582
  480TMC3    C5 7193   1.546   0.120  15.842  0.6423  0.1892 -0.1545
  480TMC3    C6 7194   1.446   0.205  15.811 -0.2392  0.4889 -0.3492
  480TMC3     C 7195   1.375   4.642  16.064  0.1893 -0.1081 -0.3156
  480TMC3     O 7196   1.469   4.566  16.081  0.4135 -0.3174  0.4340
  480TMC3     H 7197   1.198   0.088  16.010 -0.3335 -2.5345 -0.9359
  480TMC3    H1 7198   1.590   4.686  15.959 -1.7170 -0.5778  0.5344
  480TMC3    H2 7199   1.474   0.298  15.762 -2.1937  0.5058 -1.4346
  480TMC3    C7 7200   1.569   0.045  15.717 -0.4931 -0.3667 -1.0248
  480TMC3    C8 7201   1.215   0.186  15.754  0.3743 -0.1890  0.3571
  480TMC3    O1 7202   1.525   4.667  15.716 -0.2068 -0.0169 -0.2077
  480TMC3    O2 7203   1.108   0.139  15.788  0.6211  0.5620 -1.0444
  481MPD2     C 7204   3.588   4.090  14.596  0.7141 -0.4731 -0.4538
  481MPD2    C1 7205   3.454   4.064  14.590  0.2519 -0.7325  0.0961
  481MPD2    C2 7206   3.376   4.054  14.704 -0.2584 -0.1946  0.0025
  481MPD2    C3 7207   3.438   4.098  14.823 -0.1837 -0.5145 -0.1586
  481MPD2    C4 7208   3.570   4.142  14.824  0.2311  0.0018  0.3011
  481MPD2    C5 7209   3.645   4.119  14.714  0.0525  0.1619 -0.3044
  481MPD2     H 7210   3.274   4.017  14.699  0.3060 -1.8757  0.8131
  481MPD2    H1 7211   3.615   4.171  14.918  0.8586 -0.7993  0.2413
  481MPD2    H2 7212   3.657   4.079  14.513 -0.3751 -0.2488 -1.4077
  481MPD2    H3 7213   3.749   4.148  14.718  0.5575 -1.4463 -1.7260
  481MPD2     N 7214   3.370   4.109  14.943 -0.3052 -0.3231  0.6559
  481MPD2    H5 7215   3.420   4.149  15.021 -2.3422  2.5703  0.4905
  481MPD2    N1 7216   3.398   4.058  14.461 -0.2220 -0.0339  0.4418
  481MPD2    H7 7217   3.441   4.108  14.383  2.2520 -0.6005  1.4366
  482TMC3    C1 7218   3.215   4.049  14.305  0.3788 -0.4558  0.0175
  482TMC3    C2 7219   3.096   3.992  14.270 -0.2794 -0.7341 -0.5750
  482TMC3    C3 7220   3.016   4.033  14.167  0.4022  0.3329 -0.2233
  482TMC3    C4 7221   3.253   4.160  14.233 -0.2300 -0.5568  0.3002
  482TMC3    C5 7222   3.164   4.202  14.134 -0.5838  0.1050 -0.2520
  482TMC3    C6 7223   3.051   4.139  14.092  0.2903 -0.1679 -0.2512
  482TMC3     C 7224   3.274   4.012  14.434  0.2493  0.3637 -0.1440
  482TMC3     O 7225   3.205   3.939  14.499 -0.2095  0.7565 -0.0914
  482TMC3     H 7226   3.047   3.929  14.344  0.4238 -2.5114 -1.6332
  482TMC3    H1 7227   3.346   4.210  14.259  0.7698 -2.1211 -0.2973
  482TMC3    H2 7228   2.990   4.180  14.013  1.4300 -1.3907 -1.7519
  482TMC3    C7 7229   3.203   4.332  14.085  0.3675  0.7462 -0.1623
  482TMC3    C8 7230   2.907   3.946  14.134  0.3375  0.4190 -0.6791
  482TMC3    O1 7231   3.287   4.401  14.147 -0.1400  0.0335 -0.5661
  482TMC3    O2 7232   2.905   3.829  14.181  0.0939 -0.3534  0.0255
  483TMC3    C1 7233   1.441   2.942   1.277  0.0685 -0.5998  0.0677
  483TMC3    C2 7234   1.498   3.063   1.248  0.8705  1.0858 -0.9594
  483TMC3    C3 7235   1.634   3.070   1.276 -0.5434  0.3357 -0.4565
  483TMC3    C4 7236   1.512   2.836   1.337 -0.5126 -0.7602  0.7871
  483TMC3    C5 7237   1.645   2.854   1.365  0.5403 -0.0829 -0.3453
  483TMC3    C6 7238   1.713   2.968   1.325 -0.8773 -0.6851 -0.3357
  483TMC3     C 7239   1.315   2.914   1.217 -0.5824  0.3548  0.1063
  483TMC3     O 7240   1.231   3.007   1.199  0.5147  0.1980 -0.4950
  483TMC3     H 7241   1.438   3.142   1.205  0.7321  0.8810 -1.1437
  483TMC3    H1 7242   1.474   2.735   1.345  1.1817 -1.2043  3.3688
  483TMC3    H2 7243   1.821   2.973   1.321 -0.8138 -0.9434  1.0974
  483TMC3    C7 7244   1.730   2.737   1.366  0.3458  0.0370 -0.2914
  483TMC3    C8 7245   1.688   3.157   1.170  0.7019  0.7213 -0.0267
  483TMC3    O1 7246   1.692   2.630   1.317  0.0746 -0.4473 -0.1484
  483TMC3    O2 7247   1.613   3.212   1.089  0.0554  0.1459 -0.0268
  484MPD2     C 7248   4.213   1.232  12.326 -0.1460 -0.5536 -0.1027
  484MPD2    C1 7249   4.249   1.199  12.456 -0.9862  0.9257 -0.4695
  484MPD2    C2 7250   4.380   1.219  12.494  0.1111 -0.2257 -0.1804
  484MPD2    C3 7251   4.481   1.265  12.405 -0.0092 -0.9038 -0.0926
  484MPD2    C4 7252   4.435   1.298  12.280 -0.0899  0.1355 -0.1145
  484MPD2    C5 7253   4.305   1.284  12.244  0.8425  0.0691 -0.2160
  484MPD2     H 7254   4.404   1.191  12.596  1.3837 -0.4089 -0.5283
  484MPD2    H1 7255   4.507   1.330  12.205  1.8915 -3.5065  0.2258
  484MPD2    H2 7256   4.108   1.241  12.300  0.7823 -0.5774 -3.8615
  484MPD2    H3 7257   4.270   1.324  12.150  0.4955 -1.1071 -0.5888
  484MPD2     N 7258   4.621   1.264  12.420  0.2096  0.8106 -0.2773
  484MPD2    H5 7259   4.678   1.283  12.338 -2.0454 -1.2661 -2.2901
  484MPD2    N1 7260   4.149   1.142  12.532 -0.0685  0.4310 -0.1129
  484MPD2    H7 7261   4.058   1.150  12.487  0.7986  1.0380 -1.7470
  485TMC3    C1 7262   0.088   1.214  12.523  0.1140  0.2983 -0.3903
  485TMC3    C2 7263   0.157   1.159  12.624 -0.4064 -0.5831  0.0492
  485TMC3    C3 7264   0.289   1.122  12.613 -0.0130 -0.2804 -0.3988
  485TMC3    C4 7265   0.151   1.216  12.400 -0.0504 -0.3257 -0.3525
  485TMC3    C5 7266   0.286   1.178  12.386  0.1233 -0.3533  0.4848
  485TMC3    C6 7267   0.356   1.144  12.497 -0.4918  0.8634 -0.2465
  485TMC3     C 7268   4.688   1.235  12.537  0.6592  0.4608 -0.7105
  485TMC3     O 7269   4.634   1.203  12.640 -0.3542  0.0070 -0.3359
  485TMC3     H 7270   0.120   1.159  12.726  2.6550 -2.4338  1.1658
  485TMC3    H1 7271   0.102   1.243  12.307 -3.9011  0.4846  1.8690
  485TMC3    H2 7272   0.460   1.115  12.490 -0.4908  0.4497  1.3584
  485TMC3    C7 7273   0.307   1.072  12.281  0.3749  0.2236  0.6008
  485TMC3    C8 7274   0.313   1.000  12.680  0.0410 -0.0300 -0.1971
  485TMC3    O1 7275   0.376   0.977  12.314  0.4893 -0.2923 -0.1405
  485TMC3    O2 7276   0.252   0.976  12.786  0.1420  0.0630 -0.4353
  486MPD2     C 7277   1.338   0.337  12.913  0.6885  0.6743 -0.1876
  486MPD2    C1 7278   1.296   0.336  12.784 -0.1505  0.5666  0.2510
  486MPD2    C2 7279   1.231   0.452  12.738  0.1985  0.4032  0.1481
  486MPD2    C3 7280   1.228   0.567  12.810  0.3175  0.7145 -0.4245
  486MPD2    C4 7281   1.271   0.561  12.947 -0.4732 -0.7418  0.2509
  486MPD2    C5 7282   1.328   0.445  12.996  0.0217 -0.6913  0.6170
  486MPD2     H 7283   1.194   0.460  12.636  1.0408  2.1222 -0.0228
  486MPD2    H1 7284   1.275   0.646  13.013  0.0359  0.2881 -1.1101
  486MPD2    H2 7285   1.388   0.249  12.953  0.1978  0.6295  0.3353
  486MPD2    H3 7286   1.369   0.440  13.096 -0.2797  0.1534  0.7780
  486MPD2     N 7287   1.191   0.694  12.748  0.6233 -0.2482  0.3039
  486MPD2    H5 7288   1.180   0.705  12.648  0.0764  0.4977  0.4445
  486MPD2    N1 7289   1.298   0.210  12.720  0.0414  0.2094 -0.4645
  486MPD2    H7 7290   1.338   0.129  12.767  1.3653  2.5803  2.4368
  487TMC3    C1 7291   1.266   0.053  12.535 -0.5246 -0.1955  0.4491
  487TMC3    C2 7292   1.165   4.716  12.468  0.4514 -0.6762  0.0208
  487TMC3    C3 7293   1.198   4.585  12.455 -0.2533 -0.0232  0.3630
  487TMC3    C4 7294   1.384   4.729  12.570  0.6758 -0.2355 -0.1350
  487TMC3    C5 7295   1.414   4.596  12.556  0.8374  0.6096 -0.2951
  487TMC3    C6 7296   1.309   4.526  12.499  0.1841 -0.9067 -0.0954
  487TMC3     C 7297   1.233   0.183  12.597 -0.0897  0.1631  0.3337
  487TMC3     O 7298   1.171   0.259  12.522  0.2228  0.3275 -0.1353
  487TMC3     H 7299   1.071   0.020  12.433  1.6229  0.7743 -1.4346
  487TMC3    H1 7300   1.462   0.053  12.614 -1.7551  0.9789  2.5547
  487TMC3    H2 7301   1.311   4.421  12.475 -0.1904 -1.4625  2.3742
  487TMC3    C7 7302   1.450   4.541  12.683  0.0952  0.7570 -0.2153
  487TMC3    C8 7303   1.112   4.503  12.362  0.0754  0.3899 -0.1026
  487TMC3    O1 7304   1.436   4.627  12.771  0.0287 -0.3708  0.2256
  487TMC3    O2 7305   1.065   4.575  12.274  0.1433  0.3834  0.1315
  488MPD2     C 7306   1.085   1.789  15.958 -0.2152 -0.9037  0.0298
  488MPD2    C1 7307   1.136   1.858  16.062  0.4738 -0.0500  0.3076
  488MPD2    C2 7308   1.092   1.828  16.196  0.0681 -1.0714 -0.4356
  488MPD2    C3 7309   1.003   1.727  16.219  0.0356 -0.4060 -0.9699
  488MPD2    C4 7310   0.948   1.658  16.110 -0.0258 -0.4270  0.3868
  488MPD2    C5 7311   0.990   1.695  15.985  0.1390 -0.3994 -1.1387
  488MPD2     H 7312   1.126   1.878  16.285 -0.0487  1.3773 -1.7689
  488MPD2    H1 7313   0.865   1.590  16.119 -2.2197  2.0608 -1.0666
  488MPD2    H2 7314   1.120   1.793  15.856 -1.0966  2.9995 -0.1038
  488MPD2    H3 7315   0.946   1.657  15.893  0.3833 -0.7628 -1.1052
  488MPD2     N 7316   0.976   1.698  16.352  0.1900  0.1224 -0.6220
  488MPD2    H5 7317   1.040   1.742  16.417  1.0253 -0.2754 -1.1735
  488MPD2    N1 7318   1.237   1.960  16.048 -0.4370  0.2125 -0.2504
  488MPD2    H7 7319   1.274   2.006  16.131 -0.8871  0.5877 -0.2579
  489TMC3    C1 7320   0.916   1.580  16.539  0.1031  0.2618  0.1279
  489TMC3    C2 7321   1.037   1.611  16.591 -0.9077 -0.2313 -0.0426
  489TMC3    C3 7322   1.034   1.650  16.725  0.4758  0.9416  0.4337
  489TMC3    C4 7323   0.816   1.546  16.626  0.1495 -0.3042  0.2012
  489TMC3    C5 7324   0.837   1.544  16.758 -0.9130  0.0226  0.7756
  489TMC3    C6 7325   0.943   1.607  16.814  0.0142 -0.0248  0.5767
  489TMC3     C 7326   0.886   1.614  16.401 -0.1291  0.6130 -0.6044
  489TMC3     O 7327   0.790   1.567  16.343 -0.3100  0.2079  0.1641
  489TMC3     H 7328   1.123   1.630  16.528 -0.1255  1.4054  1.4892
  489TMC3    H1 7329   0.718   1.519  16.588  1.2559 -1.1726 -2.0398
  489TMC3    H2 7330   0.943   1.625  16.921 -1.0678  3.3061  0.0336
  489TMC3    C7 7331   0.751   1.458  16.835 -0.2725  0.7041 -0.5992
  489TMC3    C8 7332   1.091   1.784  16.747  1.0228 -0.2554 -0.2520
  489TMC3    O1 7333   0.639   1.439  16.785  0.0243  0.0370  0.5881
  489TMC3    O2 7334   1.158   1.819  16.650 -0.9950 -0.0545  0.1876
  490MPD2     C 7335   1.589   1.189  17.047 -0.3492  1.1846  1.0670
  490MPD2    C1 7336   1.664   1.143  17.157 -0.1974  0.5014  0.2431
  490MPD2    C2 7337   1.780   1.204  17.187 -0.6786  0.0313 -0.1565
  490MPD2    C3 7338   1.833   1.311  17.108 -0.2971 -0.8643 -0.3067
  490MPD2    C4 7339   1.766   1.343  16.997  0.6631 -1.0005 -0.3789
  490MPD2    C5 7340   1.645   1.286  16.968  0.4291  0.5186  0.2141
  490MPD2     H 7341   1.827   1.174  17.280  0.7380 -0.5472 -1.0671
  490MPD2    H1 7342   1.817   1.410  16.929  0.7184  0.8227  1.4695
  490MPD2    H2 7343   1.495   1.145  17.014  1.1309  0.5459 -2.3367
  490MPD2    H3 7344   1.593   1.311  16.876  0.7140 -0.9411 -0.3564
  490MPD2     N 7345   1.947   1.389  17.131 -0.3898  0.1050 -0.2468
  490MPD2    H5 7346   1.975   1.449  17.054 -0.5436 -1.4075 -1.4785
  490MPD2    N1 7347   1.630   1.027  17.229  0.0514  0.0565  0.2646
  490MPD2    H7 7348   1.694   0.994  17.301  0.6909 -0.5221 -0.5629
  491TMC3    C1 7349   1.531   0.830  17.283  0.0315  0.0097  0.2423
  491TMC3    C2 7350   1.548   0.845  17.417  0.2159 -0.0735  0.0744
  491TMC3    C3 7351   1.536   0.739  17.500 -0.1505 -0.0192 -0.1248
  491TMC3    C4 7352   1.484   0.712  17.235 -0.1845 -0.1054 -0.1281
  491TMC3    C5 7353   1.462   0.606  17.326 -0.0718  0.4356  0.0885
  491TMC3    C6 7354   1.481   0.625  17.463 -0.2854 -0.0988  0.1037
  491TMC3     C 7355   1.527   0.948  17.198  0.1763  0.4748  0.4579
  491TMC3     O 7356   1.458   0.930  17.093  0.5543  0.7582 -0.4387
  491TMC3     H 7357   1.591   0.932  17.465  0.8501 -0.6742  0.5815
  491TMC3    H1 7358   1.473   0.696  17.128 -0.2411  0.3055 -0.1850
  491TMC3    H2 7359   1.447   0.545  17.528 -0.9418  0.6860  0.7279
  491TMC3    C7 7360   1.390   0.492  17.271 -0.2232  0.0286  0.0927
  491TMC3    C8 7361   1.527   0.774  17.641 -0.5655 -0.5238 -0.7336
  491TMC3    O1 7362   1.342   0.518  17.158  0.2006  0.5936  0.1317
  491TMC3    O2 7363   1.502   0.893  17.668  0.2470 -0.1172  0.5550
  492MPD2     C 7364   2.708   0.781  10.782 -0.5129  0.5739 -0.1898
  492MPD2    C1 7365   2.581   0.728  10.774 -0.2028 -0.5331  0.0013
  492MPD2    C2 7366   2.523   0.676  10.890 -0.1966  0.0966  0.0840
  492MPD2    C3 7367   2.588   0.682  11.015 -0.4331  0.0965 -0.0693
  492MPD2    C4 7368   2.712   0.746  11.014  0.1103  0.5477 -0.2750
  492MPD2    C5 7369   2.770   0.806  10.901  0.0912  0.3679  0.0756
  492MPD2     H 7370   2.421   0.638  10.887 -0.0714 -0.2059 -0.4555
  492MPD2    H1 7371   2.766   0.766  11.106  0.5275  0.3087 -0.4676
  492MPD2    H2 7372   2.760   0.814  10.693 -0.3134  0.7721  0.0024
  492MPD2    H3 7373   2.864   0.859  10.901  0.7052 -0.7277 -0.5445
  492MPD2     N 7374   2.528   0.639  11.138 -0.6426  0.2835  0.2422
  492MPD2    H5 7375   2.572   0.662  11.227 -2.5323  2.6128  0.5794
  492MPD2    N1 7376   2.514   0.725  10.644  0.3557  0.0198  0.2073
  492MPD2    H7 7377   2.563   0.749  10.559 -1.9779 -0.4848 -1.2541
  493TMC3    C1 7378   2.362   0.658  10.483 -0.3109 -0.7621 -0.3315
  493TMC3    C2 7379   2.414   0.758  10.410  0.7040  0.2043  1.0062
  493TMC3    C3 7380   2.412   0.737  10.273 -0.9474 -0.4102  0.3858
  493TMC3    C4 7381   2.293   0.550  10.442 -0.0510  0.0091  0.5349
  493TMC3    C5 7382   2.292   0.535  10.306  0.0277  0.5840  0.0187
  493TMC3    C6 7383   2.356   0.625  10.227 -0.3212 -0.0779 -0.4727
  493TMC3     C 7384   2.391   0.660  10.625 -0.7086  0.4541  0.0692
  493TMC3     O 7385   2.321   0.589  10.697  0.5393 -0.3309 -0.1624
  493TMC3     H 7386   2.455   0.849  10.455  0.0262  0.0736  1.8843
  493TMC3    H1 7387   2.235   0.492  10.513  2.6745 -1.8998  1.1826
  493TMC3    H2 7388   2.354   0.608  10.120 -4.5594  0.6734 -0.5192
  493TMC3    C7 7389   2.204   0.439  10.232 -0.4161  0.1339 -0.0634
  493TMC3    C8 7390   2.457   0.831  10.171 -1.0068  0.7399 -0.4936
  493TMC3    O1 7391   2.179   0.458  10.114 -0.9961  0.1434  0.4399
  493TMC3    O2 7392   2.479   0.787  10.060 -0.0809 -0.2280 -0.1629
  494TMC3    C1 7393   2.619   2.778   0.465  0.2171 -0.1318  0.4196
  494TMC3    C2 7394   2.628   2.642   0.439 -0.4644  1.1009  0.4569
  494TMC3    C3 7395   2.642   2.596   0.303 -0.2972  0.2870  0.4402
  494TMC3    C4 7396   2.614   2.871   0.372 -0.3252 -0.7985  0.8847
  494TMC3    C5 7397   2.639   2.827   0.243  0.4372  0.8582 -0.3493
  494TMC3    C6 7398   2.646   2.696   0.204  0.6349  0.0891 -0.0463
  494TMC3     C 7399   2.638   2.821   0.598 -0.6364  1.1785 -0.5474
  494TMC3     O 7400   2.599   2.931   0.634  0.1087 -0.2245 -0.1309
  494TMC3     H 7401   2.605   2.573   0.519 -1.0005  1.2534  0.4336
  494TMC3    H1 7402   2.629   2.977   0.391  1.3542 -1.0538  1.0023
  494TMC3    H2 7403   2.677   2.664   0.105 -1.1800 -1.6120 -0.0657
  494TMC3    C7 7404   2.683   2.932   0.155  0.0684 -0.7447  0.1511
  494TMC3    C8 7405   2.690   2.459   0.285  0.1298 -0.1775  0.4650
  494TMC3    O1 7406   2.778   2.900   0.086  0.4637 -0.7875 -0.0916
  494TMC3    O2 7407   2.666   2.383   0.373 -0.1146 -0.1658 -0.0509
  495TMC3    C1 7408   1.625   0.381  14.872  0.7092  0.1880 -0.2807
  495TMC3    C2 7409   1.542   0.440  14.782  0.2957  0.1668 -0.0347
  495TMC3    C3 7410   1.406   0.425  14.810 -0.1420 -0.2294  0.3763
  495TMC3    C4 7411   1.582   0.350  14.999 -1.1955 -0.1555 -0.0100
  495TMC3    C5 7412   1.451   0.359  15.025  0.2483  0.5711  0.1683
  495TMC3    C6 7413   1.358   0.388  14.933 -0.5346  0.0680  0.3843
  495TMC3     C 7414   1.681   0.262  14.819 -0.2317 -0.3537  0.2899
  495TMC3     O 7415   1.631   0.163  14.870  0.1880  0.4849 -0.6590
  495TMC3     H 7416   1.576   0.480  14.687  0.7329  1.0748  0.4967
  495TMC3    H1 7417   1.649   0.299  15.067 -1.8885 -2.9133 -1.3779
  495TMC3    H2 7418   1.256   0.407  14.962 -0.4994 -0.3649  0.7978
  495TMC3    C7 7419   1.414   0.330  15.157 -0.2456 -0.3329  0.1467
  495TMC3    C8 7420   1.316   0.397  14.699 -0.3724 -0.0241  0.8595
  495TMC3    O1 7421   1.480   0.377  15.245  0.1548 -0.4699  0.0866
  495TMC3    O2 7422   1.194   0.410  14.713  0.3931 -0.5451  0.3315
  496MPD2     C 7423   3.343   0.540  14.830  0.2446  0.5996  0.1211
  496MPD2    C1 7424   3.367   0.444  14.924  0.1429 -1.0084 -0.1029
  496MPD2    C2 7425   3.266   0.361  14.962 -1.1541  0.1907 -0.0946
  496MPD2    C3 7426   3.131   0.384  14.925  0.2706  0.0548  0.2415
  496MPD2    C4 7427   3.113   0.490  14.838  0.1831 -0.3393  0.0929
  496MPD2    C5 7428   3.218   0.569  14.797  0.2915 -0.1367  0.4717
  496MPD2     H 7429   3.292   0.273  15.019 -1.7595  1.1815  1.7018
  496MPD2    H1 7430   3.012   0.516  14.809  0.0037 -3.2044 -1.8864
  496MPD2    H2 7431   3.424   0.605  14.798 -0.0099 -0.9360 -3.7044
  496MPD2    H3 7432   3.203   0.645  14.721 -1.1235 -0.3843  0.5086
  496MPD2     N 7433   3.020   0.306  14.962 -0.1578  0.1220  0.3989
  496MPD2    H5 7434   2.932   0.322  14.915  0.7559 -1.7296 -1.8970
  496MPD2    N1 7435   3.500   0.429  14.970 -0.1411  0.2815 -0.0878
  496MPD2    H7 7436   3.564   0.495  14.928  1.0728 -1.6556 -1.2944
  497TMC3    C1 7437   2.901   0.120  15.061 -0.3432  0.1716  0.4468
  497TMC3    C2 7438   2.845   0.058  14.953  0.0665 -0.4536  0.3446
  497TMC3    C3 7439   2.735   4.721  14.976 -0.2000  0.2979  0.1001
  497TMC3    C4 7440   2.852   0.101  15.185 -0.2770  0.0497 -0.1561
  497TMC3    C5 7441   2.743   0.023  15.205  0.0783  0.3637  1.1123
  497TMC3    C6 7442   2.682   4.705  15.095  0.3856  0.2820  0.2004
  497TMC3     C 7443   3.025   0.202  15.051 -0.3261  0.3283  0.8998
  497TMC3     O 7444   3.109   0.180  15.139  0.1124 -0.1820  0.0534
  497TMC3     H 7445   2.881   0.079  14.853  0.1005 -0.8900  0.2636
  497TMC3    H1 7446   2.894   0.157  15.268 -0.4981  1.5316 -1.0440
  497TMC3    H2 7447   2.607   4.628  15.111  2.2105 -1.7279 -0.8206
  497TMC3    C7 7448   2.707   4.698  15.334  0.2436  0.0425  0.7842
  497TMC3    C8 7449   2.714   4.612  14.880 -0.2764  0.3675  0.9582
  497TMC3    O1 7450   2.613   4.628  15.340  0.2012  0.4242  0.0933
  497TMC3    O2 7451   2.714   4.498  14.920  0.6029 -0.6360  0.5096
  498MPD2     C 7452   4.090   1.526  10.100  0.9330 -0.8921  0.1257
  498MPD2    C1 7453   4.191   1.435  10.118  0.0904  0.8043  0.1261
  498MPD2    C2 7454   4.158   1.304  10.138 -0.6418  0.4419 -0.0207
  498MPD2    C3 7455   4.027   1.267  10.172 -0.2968  0.5197  0.3921
  498MPD2    C4 7456   3.928   1.372  10.165 -0.3469  0.4557 -0.1098
  498MPD2    C5 7457   3.959   1.500  10.131  0.3622 -0.6747  0.4049
  498MPD2     H 7458   4.231   1.224  10.136 -0.2371  0.8640 -2.2559
  498MPD2    H1 7459   3.823   1.346  10.174  0.2244 -1.9338 -0.3761
  498MPD2    H2 7460   4.101   1.627  10.063 -1.6474 -0.9230 -0.6630
  498MPD2    H3 7461   3.884   1.578  10.119  0.1807 -1.4383 -3.6237
  498MPD2     N 7462   3.996   1.132  10.192  0.2697  0.4196 -0.3511
  498MPD2    H5 7463   4.068   1.060  10.192  1.0397  1.1907 -0.6098
  498MPD2    N1 7464   4.328   1.461  10.094  0.1314  0.7589 -0.2834
  498MPD2    H7 7465   4.396   1.388  10.113 -0.3820  0.3644  0.0363
  499TMC3    C1 7466   4.504   1.584  10.000  0.4759 -0.7454  0.5028
  499TMC3    C2 7467   4.536   1.496   9.902  0.6947 -0.5416 -0.7679
  499TMC3    C3 7468   4.620   1.525   9.800 -0.3202 -0.8115 -0.3666
  499TMC3    C4 7469   4.561   1.711   9.988  0.2017  0.1180 -1.0206
  499TMC3    C5 7470   4.642   1.736   9.876 -0.8655 -0.3451  0.4567
  499TMC3    C6 7471   4.672   1.645   9.782  1.0055 -0.2221 -1.1173
  499TMC3     C 7472   4.369   1.581  10.044 -0.2477 -0.7242 -0.0892
  499TMC3     O 7473   4.316   1.691  10.043  0.2539 -0.0550 -0.2113
  499TMC3     H 7474   4.489   1.398   9.902 -2.7850  1.1312  0.8974
  499TMC3    H1 7475   4.542   1.785  10.065  0.0652 -0.1968 -0.7519
  499TMC3    H2 7476   0.007   1.675   9.706  0.5131  2.6681 -0.4428
  499TMC3    C7 7477   4.713   1.862   9.859  0.4612 -0.0669 -0.1320
  499TMC3    C8 7478   4.619   1.430   9.686  0.0272  0.9714  0.3120
  499TMC3    O1 7479   0.019   1.895   9.750 -0.1199  0.0113  0.2480
  499TMC3    O2 7480   4.563   1.322   9.705  0.2721  0.2262 -0.3094
  500MPD2     C 7481   1.451   1.319   9.704  0.1396  0.2763  0.6937
  500MPD2    C1 7482   1.407   1.422   9.796 -0.3466  0.6226  0.2189
  500MPD2    C2 7483   1.272   1.461   9.788 -0.5858  0.0883 -0.2693
  500MPD2    C3 7484   1.195   1.410   9.684  0.2531  0.3598  0.5528
  500MPD2    C4 7485   1.244   1.327   9.589  0.1807 -0.0954 -1.0654
  500MPD2    C5 7486   1.375   1.285   9.597 -1.0327 -0.0494  0.3455
  500MPD2     H 7487   1.232   1.533   9.859  0.6043 -0.0140  0.5073
  500MPD2    H1 7488   1.195   1.299   9.496 -1.5258 -0.0454 -0.1632
  500MPD2    H2 7489   1.554   1.286   9.711 -0.2973 -1.3114 -0.3948
  500MPD2    H3 7490   1.422   1.224   9.520 -1.4796  1.6342 -1.2492
  500MPD2     N 7491   1.054   1.434   9.695 -0.3390 -0.1288  0.0209
  500MPD2    H5 7492   1.027   1.483   9.780  0.6404 -1.4528  1.0854
  500MPD2    N1 7493   1.495   1.468   9.900  0.6001 -1.1693 -0.1533
  500MPD2    H7 7494   1.588   1.430   9.884  1.0164 -0.5715  0.8192
  501TMC3    C1 7495   1.576   1.615  10.071 -0.0630  0.9864 -0.7204
  501TMC3    C2 7496   1.572   1.753  10.093  0.4180 -0.0918 -0.5262
  501TMC3    C3 7497   1.690   1.813  10.118  0.0342  0.0543 -0.5778
  501TMC3    C4 7498   1.685   1.541  10.109 -0.6116 -0.5247  0.3035
  501TMC3    C5 7499   1.798   1.610  10.138 -0.3493  0.2754  0.3612
  501TMC3    C6 7500   1.806   1.741  10.133 -0.6492 -0.4391 -1.1678
  501TMC3     C 7501   1.465   1.561   9.997  1.1685 -0.0790 -0.3669
  501TMC3     O 7502   1.355   1.622  10.004  0.2867  0.1545  0.1387
  501TMC3     H 7503   1.476   1.797  10.068 -1.4548 -2.6094  2.2023
  501TMC3    H1 7504   1.697   1.435  10.094 -0.0413 -0.6660  1.8335
  501TMC3    H2 7505   1.893   1.798  10.161 -0.7004 -1.0700  0.2946
  501TMC3    C7 7506   1.873   1.557  10.253 -0.0159 -0.8452  0.2609
  501TMC3    C8 7507   1.693   1.932  10.203 -0.6491  0.7451 -0.1971
  501TMC3    O1 7508   1.914   1.440  10.241 -0.2680 -0.0194  0.1145
  501TMC3    O2 7509   1.783   1.945  10.286  0.5286  0.9489 -0.1264
  502TMC3    C1 7510   1.072   0.961  15.100  0.4458  0.2790  0.2816
  502TMC3    C2 7511   1.105   1.062  15.019 -0.3092 -0.2482  0.8306
  502TMC3    C3 7512   1.047   1.060  14.893 -0.3600  0.2251  0.8389
  502TMC3    C4 7513   1.004   0.850  15.056 -0.0821 -0.4857 -0.6022
  502TMC3    C5 7514   0.956   0.854  14.933  0.7487 -0.2655  0.2278
  502TMC3    C6 7515   0.967   0.959  14.848 -0.6790 -0.6957 -0.0147
  502TMC3     C 7516   1.091   0.988  15.239  0.1287 -0.3735 -0.7196
  502TMC3     O 7517   1.162   1.083  15.273 -0.2860 -0.5283  0.4508
  502TMC3     H 7518   1.167   1.143  15.054 -0.8750  0.0963  1.0332
  502TMC3    H1 7519   0.984   0.759  15.112 -3.1317  0.5204 -0.0435
  502TMC3    H2 7520   0.914   0.954  14.754 -1.1757 -1.0136  0.2867
  502TMC3    C7 7521   0.824   0.793  14.941 -0.9466  0.1118  0.0934
  502TMC3    C8 7522   1.106   1.155  14.797  1.0238  0.2084  0.7350
  502TMC3    O1 7523   0.807   0.676  14.969  0.0796 -0.0111  0.2549
  502TMC3    O2 7524   1.188   1.234  14.844 -0.2974 -0.4398  0.3454
  503MPD2     C 7525   2.931   2.085  16.566  0.7477 -0.0808 -0.0155
  503MPD2    C1 7526   2.928   2.051  16.697  0.8641  0.1356  0.6348
  503MPD2    C2 7527   2.942   1.915  16.724  0.5173 -0.0727  0.1732
  503MPD2    C3 7528   2.951   1.819  16.630  0.3316  0.3335  1.4168
  503MPD2    C4 7529   2.950   1.854  16.502 -0.0658  0.5095 -0.2577
  503MPD2    C5 7530   2.936   1.983  16.470  0.3650 -0.2261  0.3362
  503MPD2     H 7531   2.941   1.884  16.828 -2.8672  1.2045  0.5219
  503MPD2    H1 7532   2.952   1.779  16.424  0.3546  0.6040 -0.3349
  503MPD2    H2 7533   2.914   2.184  16.525  1.2217 -0.1913 -0.4773
  503MPD2    H3 7534   2.926   2.014  16.366 -0.6725 -2.5409 -0.2485
  503MPD2     N 7535   2.971   1.685  16.678  0.5142 -0.0277 -0.6895
  503MPD2    H5 7536   2.946   1.666  16.774 -1.7892  2.8045 -0.7357
  503MPD2    N1 7537   2.901   2.142  16.805 -0.2797  0.2275 -0.1791
  503MPD2    H7 7538   2.880   2.108  16.898 -1.3392  0.2942 -0.3948
  504TMC3    C1 7539   3.062   1.461  16.677 -0.4742 -0.0503  0.7608
  504TMC3    C2 7540   3.018   1.455  16.806 -0.0551  0.1661  0.9117
  504TMC3    C3 7541   3.083   1.375  16.892 -0.0690  0.7190  0.4822
  504TMC3    C4 7542   3.190   1.409  16.643 -0.6858 -0.1443  0.3929
  504TMC3    C5 7543   3.261   1.348  16.747  0.4326 -0.0541  0.2166
  504TMC3    C6 7544   3.208   1.322  16.873  0.0610 -0.2271  1.3703
  504TMC3     C 7545   3.026   1.582  16.602  0.3604 -0.1097 -1.0296
  504TMC3     O 7546   3.030   1.580  16.478  0.4538 -0.3569 -0.2234
  504TMC3     H 7547   2.921   1.495  16.832  0.3308  1.0312  1.0134
  504TMC3    H1 7548   3.235   1.419  16.545  1.6550 -0.3872  1.4536
  504TMC3    H2 7549   3.264   1.273  16.951  2.2355 -1.2599 -0.8485
  504TMC3    C7 7550   3.405   1.341  16.719 -0.7682  0.4459  0.1946
  504TMC3    C8 7551   3.019   1.342  17.015  0.3116 -1.1184 -0.6206
  504TMC3    O1 7552   3.444   1.365  16.604  0.0231  0.1085  0.0631
  504TMC3    O2 7553   2.928   1.413  17.054  0.2623 -0.1122  0.3661
  505MPD2     C 7554   3.353   0.249  10.943  0.4115 -0.1765 -0.0940
  505MPD2    C1 7555   3.407   0.141  10.876  0.1523  0.6907 -0.0976
  505MPD2    C2 7556   3.537   0.109  10.906 -0.3921  0.0409  0.0884
  505MPD2    C3 7557   3.609   0.183  11.001  0.4931  0.3142 -0.4831
  505MPD2    C4 7558   3.545   0.280  11.078  0.1090  0.3669 -0.2300
  505MPD2    C5 7559   3.415   0.311  11.048  0.6810  0.0421 -0.4505
  505MPD2     H 7560   3.584   0.027  10.852 -1.7584 -0.3328 -0.5318
  505MPD2    H1 7561   3.602   0.332  11.154 -0.4409 -1.8068  1.6707
  505MPD2    H2 7562   3.254   0.291  10.927  1.5145  2.0917 -1.0903
  505MPD2    H3 7563   3.372   0.393  11.104 -1.0013 -1.0537 -0.1162
  505MPD2     N 7564   3.746   0.167  11.024 -0.6744  0.0533  0.5520
  505MPD2    H5 7565   3.788   0.246  11.073 -3.0084  0.6884  1.5535
  505MPD2    N1 7566   3.336   0.075  10.774 -0.3420 -0.1413  0.1107
  505MPD2    H7 7567   3.241   0.108  10.761 -0.4913  0.1466  1.9394
  506TMC3    C1 7568   3.297   4.644  10.613 -0.3961  0.0670  0.5416
  506TMC3    C2 7569   3.270   4.734  10.514  0.9313  0.2261  0.3369
  506TMC3    C3 7570   3.266   4.683  10.385  0.3700  0.0161  0.4024
  506TMC3    C4 7571   3.330   4.516  10.588 -0.1790  0.2004 -0.3105
  506TMC3    C5 7572   3.339   4.480  10.454 -0.1025 -0.0544 -0.0567
  506TMC3    C6 7573   3.288   4.550  10.355 -0.2306 -0.2194 -0.2886
  506TMC3     C 7574   3.377   4.696  10.712  0.2316 -0.0310  0.1804
  506TMC3     O 7575   3.473   4.625  10.724 -1.0560 -0.1291 -0.1426
  506TMC3     H 7576   3.242   0.099  10.538  0.8594  0.1362  0.6291
  506TMC3    H1 7577   3.353   4.441  10.662 -0.0775  0.5231 -0.0177
  506TMC3    H2 7578   3.291   4.519  10.251  2.0013  0.4228 -0.4036
  506TMC3    C7 7579   3.472   4.428  10.421  0.8698 -0.4597 -0.4821
  506TMC3    C8 7580   3.271   0.042  10.270 -0.0904  0.5786  0.3821
  506TMC3    O1 7581   3.500   4.415  10.302  0.5605 -0.4816 -0.1977
  506TMC3    O2 7582   3.234   4.735  10.161 -0.2846  0.6960  0.5179
  507TMC3    C1 7583   4.555   1.467  13.809  0.3917 -0.4668  0.8543
  507TMC3    C2 7584   4.488   1.387  13.897 -0.4482  0.5867 -0.7791
  507TMC3    C3 7585   4.429   1.270  13.861 -0.1829  0.3274 -0.3200
  507TMC3    C4 7586   4.575   1.428  13.679 -0.7722 -0.2347 -0.4824
  507TMC3    C5 7587   4.510   1.321  13.636 -0.0536  0.2936  0.3289
  507TMC3    C6 7588   4.434   1.242  13.727  0.2931  0.4554 -0.3637
  507TMC3     C 7589   4.637   1.576  13.853  0.3086  0.1818  0.1120
  507TMC3     O 7590   0.012   1.569  13.814  0.9572  0.2073 -0.0550
  507TMC3     H 7591   4.467   1.431  13.994  1.9845 -1.2143  0.5395
  507TMC3    H1 7592   4.615   1.498  13.607  0.9418 -1.7868 -1.0408
  507TMC3    H2 7593   4.394   1.146  13.696  0.3124  0.2752  0.1617
  507TMC3    C7 7594   4.432   1.359  13.519 -0.5785  0.3397 -0.2369
  507TMC3    C8 7595   4.292   1.256  13.906  0.7731  0.8145  0.7768
  507TMC3    O1 7596   4.493   1.415  13.425 -0.3721  0.1554  0.1992
  507TMC3    O2 7597   4.211   1.268  13.812 -0.5895  0.1139  0.4887
  508MPD2     C 7598   0.580   3.322  15.826  0.0984 -0.2077 -0.2945
  508MPD2    C1 7599   0.501   3.363  15.933 -0.9689 -0.2192  0.4322
  508MPD2    C2 7600   0.438   3.485  15.912 -0.2653 -0.0106  0.1851
  508MPD2    C3 7601   0.432   3.545  15.786  0.2248  0.0824 -0.8481
  508MPD2    C4 7602   0.497   3.482  15.680 -0.5233 -0.3935 -0.4156
  508MPD2    C5 7603   0.574   3.374  15.698 -0.2359  0.0114 -0.2548
  508MPD2     H 7604   0.404   3.538  16.001 -1.1919  0.3777 -0.4099
  508MPD2    H1 7605   0.496   3.527  15.582  2.6033 -0.4791 -0.4819
  508MPD2    H2 7606   0.642   3.233  15.828  0.8766  0.3106 -0.8460
  508MPD2    H3 7607   0.619   3.335  15.607  2.1405  1.8728  0.1316
  508MPD2     N 7608   0.377   3.682  15.765 -0.2195  0.2982  0.1827
  508MPD2    H5 7609   0.332   3.723  15.846  0.5322  0.2047  0.6458
  508MPD2    N1 7610   0.519   3.293  16.054  0.3594  0.2922 -0.5890
  508MPD2    H7 7611   0.598   3.230  16.064  1.4718  1.6208 -0.9350
  509TMC3    C1 7612   0.251   4.080  15.541 -0.4657 -0.1517 -0.1126
  509TMC3    C2 7613   0.240   4.152  15.656  0.1220 -0.0777 -0.0805
  509TMC3    C3 7614   0.287   4.094  15.768  0.2441 -0.2269 -0.3293
  509TMC3    C4 7615   0.287   3.945  15.540 -0.4044  0.5963 -0.1996
  509TMC3    C5 7616   0.337   3.894  15.657 -0.6998  0.2951  0.5155
  509TMC3    C6 7617   0.328   3.963  15.777 -0.5907  0.7386  0.4868
  509TMC3     C 7618   0.173   4.119  15.429  0.0883  0.2956  0.3304
  509TMC3     O 7619   0.119   4.025  15.369  0.3362 -0.4219 -0.1064
  509TMC3     H 7620   0.192   4.249  15.670 -0.1393 -0.4153  1.4302
  509TMC3    H1 7621   0.281   3.886  15.449  2.3132 -2.2723  1.4795
  509TMC3    H2 7622   0.371   3.929  15.870 -1.1498  2.3684  1.3469
  509TMC3    C7 7623   0.395   3.759  15.654  0.2783 -0.4101 -0.2982
  509TMC3    C8 7624   0.318   4.191  15.875 -0.4319  0.7605 -0.1242
  509TMC3    O1 7625   0.466   3.743  15.556  0.2180  0.3879 -0.1499
  509TMC3    O2 7626   0.304   4.156  15.990 -0.5912 -0.4888 -0.4282
  510MPD2     C 7627   2.713   0.761  14.730 -0.2842 -0.2804  0.2952
  510MPD2    C1 7628   2.723   0.631  14.749 -0.8103 -0.4140 -0.6933
  510MPD2    C2 7629   2.805   0.556  14.670 -0.0375  0.0481 -0.0754
  510MPD2    C3 7630   2.894   0.611  14.578  0.7486  0.6231  0.4441
  510MPD2    C4 7631   2.873   0.744  14.559 -0.1384  0.1592  0.0959
  510MPD2    C5 7632   2.789   0.821  14.635 -0.5006  0.1771 -0.0733
  510MPD2     H 7633   2.818   0.450  14.692 -2.6737 -0.6352 -1.9090
  510MPD2    H1 7634   2.928   0.790  14.477 -0.9309 -1.0815 -1.1446
  510MPD2    H2 7635   2.647   0.823  14.790 -1.7503  0.0044 -1.5852
  510MPD2    H3 7636   2.790   0.929  14.625  1.5181  0.3265  1.7813
  510MPD2     N 7637   2.993   0.536  14.507  0.2325  0.2054 -0.5104
  510MPD2    H5 7638   2.988   0.436  14.523 -1.4343  0.2805 -0.5060
  510MPD2    N1 7639   2.643   0.580  14.847 -1.2307 -0.5484 -0.0478
  510MPD2    H7 7640   2.572   0.645  14.879 -0.1044  0.7202 -0.1474
  511TMC3    C1 7641   2.552   0.419  14.999 -0.5612 -0.1047 -0.3354
  511TMC3    C2 7642   2.439   0.490  15.007 -0.5794 -0.2556  0.2856
  511TMC3    C3 7643   2.321   0.431  15.055  0.2290  0.1363 -0.6306
  511TMC3    C4 7644   2.545   0.290  15.035 -0.1273  0.0926  0.3248
  511TMC3    C5 7645   2.431   0.226  15.069 -0.2408 -0.2689 -0.7864
  511TMC3    C6 7646   2.324   0.301  15.102  0.3485  0.1487 -0.1965
  511TMC3     C 7647   2.652   0.456  14.911  0.0066 -0.5769 -0.4607
  511TMC3     O 7648   2.738   0.373  14.882  0.0597 -0.0415 -0.7688
  511TMC3     H 7649   2.439   0.594  14.977  0.8659  0.1724  1.8070
  511TMC3    H1 7650   2.639   0.236  15.031 -1.0638 -1.4734 -0.7749
  511TMC3    H2 7651   2.232   0.255  15.135 -1.1542  2.9143 -0.5021
  511TMC3    C7 7652   2.394   0.127  14.970  0.0190 -0.1474  0.4857
  511TMC3    C8 7653   2.233   0.523  15.122  0.1861 -0.1607  0.3207
  511TMC3    O1 7654   2.447   0.145  14.863  0.2110  0.1026 -0.3888
  511TMC3    O2 7655   2.269   0.637  15.146 -0.0985  0.2022 -0.7214
  512TMC3    C1 7656   2.042   4.634  13.322  0.0572  0.5627 -0.6423
  512TMC3    C2 7657   2.123   4.620  13.429 -0.0165  0.3283 -0.3330
  512TMC3    C3 7658   2.238   4.554  13.422 -0.1773  0.3685  0.3064
  512TMC3    C4 7659   2.094   4.602  13.203  0.1926  0.3980  0.1729
  512TMC3    C5 7660   2.211   4.528  13.195 -0.0700 -0.1186  0.0992
  512TMC3    C6 7661   2.283   4.494  13.304  0.3301  0.5895 -0.6790
  512TMC3     C 7662   1.942   0.000  13.334 -0.5567 -0.4147 -0.6366
  512TMC3     O 7663   1.941   0.080  13.427 -0.2414  0.0983 -0.3736
  512TMC3     H 7664   2.093   4.662  13.525 -0.3198  0.8854 -0.6718
  512TMC3    H1 7665   2.037   4.612  13.111  1.2533  2.0336 -0.3098
  512TMC3    H2 7666   2.384   4.455  13.295  0.5011  1.1908 -1.2916
  512TMC3    C7 7667   2.269   4.511  13.058 -0.1329 -0.3757  0.9186
  512TMC3    C8 7668   2.341   4.572  13.521 -0.3938  0.0526  0.2395
  512TMC3    O1 7669   2.254   4.603  12.975  0.1522 -0.3513 -0.0790
  512TMC3    O2 7670   2.436   4.500  13.517 -0.1248 -0.1714  0.8879
  513MPD2     C 7671   3.804   4.659  13.008  0.5011  0.2684  0.0840
  513MPD2    C1 7672   3.742   4.552  13.082 -0.3468 -0.0003  0.9382
  513MPD2    C2 7673   3.755   4.553  13.224  0.4778 -0.7896  0.0788
  513MPD2    C3 7674   3.825   4.649  13.292 -0.6298  0.2090  0.5685
  513MPD2    C4 7675   3.872   0.015  13.222  0.0271 -1.0290  0.7293
  513MPD2    C5 7676   3.863   0.022  13.086  0.3590 -0.8597 -0.3876
  513MPD2     H 7677   3.727   4.463  13.278 -0.8047  0.4165  1.4003
  513MPD2    H1 7678   3.933   0.092  13.268 -0.9657  1.1571 -1.6172
  513MPD2    H2 7679   3.801   4.665  12.900 -0.2715  2.5312  0.2399
  513MPD2    H3 7680   3.909   0.104  13.032  1.1799  0.2505  2.0018
  513MPD2     N 7681   3.829   4.653  13.434 -0.2456  0.1633 -0.1407
  513MPD2    H5 7682   3.775   4.580  13.479 -0.7778  1.2934  1.0688
  513MPD2    N1 7683   3.683   4.433  13.026 -0.4435  0.1699  0.2791
  513MPD2    H7 7684   3.645   4.368  13.094  0.9146 -0.8980  0.0221
  514TMC3    C1 7685   3.643   4.257  12.872 -0.4511  0.4065 -0.8729
  514TMC3    C2 7686   3.715   4.197  12.778  0.4468  0.0875  0.7232
  514TMC3    C3 7687   3.720   4.058  12.773 -0.3139 -0.5559  0.3542
  514TMC3    C4 7688   3.591   4.186  12.974  0.3958  0.0199 -0.0251
  514TMC3    C5 7689   3.611   4.050  12.975 -0.1959  0.8761  0.3869
  514TMC3    C6 7690   3.661   3.982  12.867 -0.0722 -0.6353  0.0804
  514TMC3     C 7691   3.681   4.397  12.896  0.2031 -0.2057 -0.0757
  514TMC3     O 7692   3.700   4.462  12.795 -0.1315 -0.2279 -0.1426
  514TMC3     H 7693   3.779   4.253  12.712  0.8240 -1.8619 -0.5768
  514TMC3    H1 7694   3.531   4.245  13.043  1.2024  0.4374  0.3324
  514TMC3    H2 7695   3.684   3.876  12.872  1.1585 -0.3442  0.6397
  514TMC3    C7 7696   3.618   3.984  13.110 -0.0146  0.0064 -0.1691
  514TMC3    C8 7697   3.847   3.995  12.722  0.0458 -0.5658  0.2689
  514TMC3    O1 7698   3.563   3.878  13.124 -0.3977  0.5281  0.5496
  514TMC3    O2 7699   3.883   3.887  12.772  0.1548 -0.0011  0.0299
  515MPD2     C 7700   2.174   1.303  14.316  0.0436 -0.5284 -0.3790
  515MPD2    C1 7701   2.068   1.380  14.352  0.7409  0.0636  0.1956
  515MPD2    C2 7702   2.055   1.449  14.465 -0.6688  0.6001  0.2589
  515MPD2    C3 7703   2.164   1.461  14.550  0.1030 -0.0166 -0.5284
  515MPD2    C4 7704   2.279   1.390  14.517 -0.1812 -0.0290  0.0785
  515MPD2    C5 7705   2.280   1.318  14.399  0.4933  0.0155  0.5428
  515MPD2     H 7706   1.960   1.499  14.482  0.5917  3.1976 -0.3243
  515MPD2    H1 7707   2.367   1.383  14.580 -2.2922 -1.5357  2.8522
  515MPD2    H2 7708   2.180   1.242  14.226 -1.9550 -0.2968 -0.6706
  515MPD2    H3 7709   2.371   1.274  14.360 -0.7690 -1.8827 -0.2851
  515MPD2     N 7710   2.146   1.507  14.681  0.2319  0.2820 -0.1870
  515MPD2    H5 7711   2.220   1.512  14.750 -0.4224 -0.6964  0.5825
  515MPD2    N1 7712   1.947   1.377  14.278 -0.1509 -0.9029  0.1115
  515MPD2    H7 7713   1.869   1.430  14.316  0.8761 -0.0788  1.0891
  516TMC3    C1 7714   1.786   1.312  14.118 -0.2309  0.7597  0.6905
  516TMC3    C2 7715   1.738   1.439  14.121  0.8903  0.4993  0.5557
  516TMC3    C3 7716   1.601   1.443  14.127  0.6157 -1.0239  0.1504
  516TMC3    C4 7717   1.712   1.194  14.115  0.3662  0.4877  0.1761
  516TMC3    C5 7718   1.577   1.205  14.129 -0.2349  0.6274  0.0272
  516TMC3    C6 7719   1.523   1.335  14.120 -0.6162  0.1725 -0.3771
  516TMC3     C 7720   1.917   1.299  14.173  0.3340  0.4088 -0.7741
  516TMC3     O 7721   1.979   1.208  14.118 -0.0736 -0.2091 -0.5946
  516TMC3     H 7722   1.796   1.530  14.133  0.2633  0.8262  1.1339
  516TMC3    H1 7723   1.759   1.098  14.133 -0.8830 -0.3283 -0.8943
  516TMC3    H2 7724   1.415   1.350  14.120 -0.6669 -0.1927 -0.5563
  516TMC3    C7 7725   1.532   1.131  14.248 -0.2441  0.7676 -0.6634
  516TMC3    C8 7726   1.533   1.565  14.147 -0.0389  0.5285 -0.3928
  516TMC3    O1 7727   1.616   1.069  14.315  0.1254  0.2938 -0.4879
  516TMC3    O2 7728   1.410   1.560  14.158 -0.3869 -0.2877  0.2738
  517MPD2     C 7729   1.496   3.142   0.269 -0.0255  0.5288  0.7875
  517MPD2    C1 7730   1.588   3.179   0.175 -0.7668 -0.0400  0.4704
  517MPD2    C2 7731   1.661   3.297   0.200 -0.6916  0.6732  1.0702
  517MPD2    C3 7732   1.634   3.377   0.309 -0.0709  0.5117 -0.3139
  517MPD2    C4 7733   1.529   3.342   0.392  0.1747  0.4758 -0.3379
  517MPD2    C5 7734   1.466   3.222   0.374  0.0378  0.1812 -0.0659
  517MPD2     H 7735   1.748   3.312   0.137 -0.3697 -0.7846  1.1579
  517MPD2    H1 7736   1.488   3.400   0.475  1.1407  0.1209  0.3871
  517MPD2    H2 7737   1.436   3.052   0.263  0.4064  0.2363  0.8912
  517MPD2    H3 7738   1.402   3.184   0.453 -0.2887  0.4399 -0.2072
  517MPD2     N 7739   1.696   3.503   0.331 -0.1550 -0.3019 -0.3124
  517MPD2    H5 7740   1.660   3.557   0.409  1.7287 -0.3025  0.5654
  517MPD2    N1 7741   1.622   3.094   0.057 -0.3174 -0.1252 -0.2000
  517MPD2    H7 7742   1.691   3.128  17.735 -0.1577 -0.9693 -0.4671
  518TMC3    C1 7743   1.657   2.890  17.685 -0.1563  0.2512 -0.5617
  518TMC3    C2 7744   1.590   2.788  17.628 -0.6035  0.3590 -0.0857
  518TMC3    C3 7745   1.659   2.710  17.536  0.3876  0.3233  0.2219
  518TMC3    C4 7746   1.788   2.915  17.657 -0.5726 -0.2406  0.5436
  518TMC3    C5 7747   1.846   2.838  17.556  0.4320  0.8150  0.3215
  518TMC3    C6 7748   1.789   2.727  17.499  0.3165 -0.2249 -0.0612
  518TMC3     C 7749   1.579   2.960   0.041  0.3459  0.2103  0.8775
  518TMC3     O 7750   1.491   2.892   0.099 -0.2712  0.1106 -0.3519
  518TMC3     H 7751   1.485   2.773  17.652  0.0741 -0.0223  2.5289
  518TMC3    H1 7752   1.839   3.006  17.687  2.1770 -1.4004 -0.5836
  518TMC3    H2 7753   1.827   2.679  17.409  0.0802  0.2022 -0.3842
  518TMC3    C7 7754   1.993   2.829  17.553 -0.1952  0.1433 -0.6934
  518TMC3    C8 7755   1.591   2.597  17.462  0.0244 -0.5641  0.2574
  518TMC3    O1 7756   2.062   2.925  17.589 -0.3713  0.7926 -0.1496
  518TMC3    O2 7757   1.656   2.544  17.373 -0.3702 -0.2696  0.0749
  519MPD2     C 7758   3.131   1.535  14.118  0.9462 -0.5927  0.7557
  519MPD2    C1 7759   3.107   1.527  13.979 -0.1865  0.4752  0.4383
  519MPD2    C2 7760   3.150   1.422  13.906 -0.3552  0.0023 -0.2077
  519MPD2    C3 7761   3.225   1.327  13.963 -0.1480 -0.5443 -0.5444
  519MPD2    C4 7762   3.264   1.348  14.098 -0.2515 -0.4162  0.3076
  519MPD2    C5 7763   3.214   1.449  14.174 -0.0773  0.0077 -0.4132
  519MPD2     H 7764   3.131   1.425  13.799 -2.0844  0.8328  0.1126
  519MPD2    H1 7765   3.323   1.275  14.153  0.0833 -0.0702  0.4021
  519MPD2    H2 7766   3.106   1.626  14.172 -0.1246  0.0993 -0.8999
  519MPD2    H3 7767   3.256   1.467  14.273  0.7999  1.4355 -1.0469
  519MPD2     N 7768   3.285   1.220  13.891  0.7104  0.0097 -0.2996
  519MPD2    H5 7769   3.355   1.179  13.951 -2.0007 -2.0810  1.4018
  519MPD2    N1 7770   3.029   1.633  13.926  0.1063 -0.3021  0.2851
  519MPD2    H7 7771   2.980   1.691  13.994  0.5291  0.8873 -0.4282
  520TMC3    C1 7772   3.358   1.118  13.693  0.2787  0.2843  0.3063
  520TMC3    C2 7773   3.323   1.050  13.581 -0.0897 -0.0876  0.6395
  520TMC3    C3 7774   3.410   1.055  13.472 -0.5887  0.4477 -0.2909
  520TMC3    C4 7775   3.484   1.169  13.717 -0.3503 -0.1035  0.7247
  520TMC3    C5 7776   3.577   1.134  13.623 -0.0363  0.5461  0.4463
  520TMC3    C6 7777   3.543   1.084  13.498 -0.3601  0.2089  0.8868
  520TMC3     C 7778   3.250   1.182  13.765  0.1824 -0.4046  0.0442
  520TMC3     O 7779   3.154   1.218  13.702 -0.0670 -0.3297 -0.5075
  520TMC3     H 7780   3.217   1.028  13.569  0.2925 -1.7115  0.2682
  520TMC3    H1 7781   3.516   1.204  13.814  0.0922  0.1446  0.4886
  520TMC3    H2 7782   3.615   1.069  13.419 -2.8011  0.3563 -1.3635
  520TMC3    C7 7783   3.718   1.137  13.661  0.1337 -0.1866  0.7258
  520TMC3    C8 7784   3.366   1.087  13.337 -0.4425  0.2830  0.7044
  520TMC3    O1 7785   3.737   1.136  13.782  0.6541  0.7473 -0.0113
  520TMC3    O2 7786   3.442   1.090  13.242  0.3959 -0.8471 -0.0892
  521MPD2     C 7787   4.134   4.080  17.555  0.3725  0.8929 -0.4010
  521MPD2    C1 7788   4.077   4.056  17.437  0.4567  0.1753  0.8601
  521MPD2    C2 7789   4.159   4.075  17.320  0.2279  0.1935  0.1343
  521MPD2    C3 7790   4.292   4.099  17.323 -0.1582  0.8343  0.5294
  521MPD2    C4 7791   4.351   4.116  17.450  0.2124 -0.1938 -0.1824
  521MPD2    C5 7792   4.269   4.104  17.560 -0.4103 -0.0007 -0.2573
  521MPD2     H 7793   4.122   4.062  17.219  1.3425 -1.9686  0.0217
  521MPD2    H1 7794   4.458   4.134  17.460  0.5332 -2.9830  1.5366
  521MPD2    H2 7795   4.081   4.070  17.649  0.1333 -3.1108 -0.9755
  521MPD2    H3 7796   4.317   4.107  17.657 -0.9426 -1.3641  0.0420
  521MPD2     N 7797   4.376   4.093  17.208  0.1456  1.1462 -0.4235
  521MPD2    H5 7798   4.335   4.081  17.116  0.4165  0.9530 -0.5153
  521MPD2    N1 7799   3.943   4.024  17.444 -1.0879  0.0237 -0.0893
  521MPD2    H7 7800   3.896   4.008  17.532  2.6780  0.7705  2.0659
  522TMC3    C1 7801   4.577   4.043  17.077  0.1272 -0.4569  0.6112
  522TMC3    C2 7802   4.693   3.971  17.088 -0.1921  0.2227 -0.2532
  522TMC3    C3 7803   4.733   3.887  16.987 -0.2697  0.6046 -0.5615
  522TMC3    C4 7804   4.502   4.039  16.963  0.1431  0.5329 -0.0534
  522TMC3    C5 7805   4.547   3.950  16.864 -0.6223  0.3672 -0.4878
  522TMC3    C6 7806   4.660   3.876  16.874 -0.0848 -0.3732  0.0900
  522TMC3     C 7807   4.514   4.086  17.200  0.5781 -0.1177  0.0512
  522TMC3     O 7808   4.591   4.076  17.296 -0.2705 -0.3868 -0.7518
  522TMC3     H 7809   0.007   3.967  17.184  0.3268  0.0886 -0.5330
  522TMC3    H1 7810   4.405   4.086  16.956 -0.7374 -1.1603  0.8440
  522TMC3    H2 7811   4.678   3.801  16.797  0.2235  1.9444 -2.0725
  522TMC3    C7 7812   4.434   3.866  16.831  0.2518 -0.4457  0.3981
  522TMC3    C8 7813   0.105   3.790  17.023  0.4697 -0.9066  0.1710
  522TMC3    O1 7814   4.438   3.747  16.856 -0.3278  0.5644 -0.1989
  522TMC3    O2 7815   0.147   3.795  17.137  0.0303 -0.4028  0.1352
  523MPD2     C 7816   1.733   4.005  10.381  0.0697 -0.4722  0.1684
  523MPD2    C1 7817   1.676   3.893  10.320 -0.8332  0.3243 -0.0687
  523MPD2    C2 7818   1.601   3.915  10.204 -0.4164 -0.0749  0.1181
  523MPD2    C3 7819   1.586   4.043  10.155  0.2350  0.1300 -0.2918
  523MPD2    C4 7820   1.647   4.145  10.220 -0.7122  0.1558 -0.2552
  523MPD2    C5 7821   1.719   4.124  10.328  0.2359 -0.0315 -0.4726
  523MPD2     H 7822   1.565   3.829  10.148  0.4759  1.4408 -2.7923
  523MPD2    H1 7823   1.631   4.247  10.188 -1.8631  0.5335  1.5814
  523MPD2    H2 7824   1.812   3.988  10.454 -0.0058 -0.0900  0.3403
  523MPD2    H3 7825   1.781   4.203  10.368 -0.5657  0.4956 -0.2645
  523MPD2     N 7826   1.497   4.080  10.048 -0.3089  0.2697 -0.3504
  523MPD2    H5 7827   1.476   4.179  10.038 -0.7846  0.4775  2.7269
  523MPD2    N1 7828   1.718   3.769  10.372 -0.0249 -0.9248 -0.5783
  523MPD2    H7 7829   1.760   3.776  10.464  1.7036  2.0901 -1.5893
  524TMC3    C1 7830   1.367   4.067   9.854 -0.7745  0.1514  0.2811
  524TMC3    C2 7831   1.372   4.007   9.728  0.0732 -0.5286  0.2255
  524TMC3    C3 7832   1.296   4.075   9.639 -0.2731  0.4202  0.7377
  524TMC3    C4 7833   1.300   4.178   9.880 -0.0213 -0.3669 -0.3374
  524TMC3    C5 7834   1.232   4.246   9.789 -0.4682 -0.0663  0.1487
  524TMC3    C6 7835   1.223   4.196   9.664  0.8977  0.0017 -0.6160
  524TMC3     C 7836   1.443   3.997   9.959  0.2315  0.4909 -0.0238
  524TMC3     O 7837   1.488   3.885   9.929  0.1554  0.5749  0.3292
  524TMC3     H 7838   1.409   3.906   9.722  1.6388  0.0722 -0.1694
  524TMC3    H1 7839   1.303   4.219   9.980  0.2859 -0.1345 -0.4407
  524TMC3    H2 7840   1.150   4.242   9.599 -1.4890  0.4793  2.4214
  524TMC3    C7 7841   1.159   4.361   9.838 -0.3545  0.0334 -0.1203
  524TMC3    C8 7842   1.306   4.024   9.504  0.1845 -0.0855 -0.4481
  524TMC3    O1 7843   1.129   4.369   9.955 -0.0858 -0.1268 -0.3001
  524TMC3    O2 7844   1.395   3.943   9.486  0.5679 -0.8635  0.0955
  525MPD2     C 7845   4.714   1.111  14.134  0.4439 -0.3518 -0.4994
  525MPD2    C1 7846   0.036   1.151  14.250 -0.2459 -0.1015 -0.3895
  525MPD2    C2 7847   0.099   1.274  14.259  0.1180  0.4083  0.5803
  525MPD2    C3 7848   0.109   1.357  14.145 -0.1763 -0.4661 -1.2594
  525MPD2    C4 7849   0.064   1.309  14.026 -0.6275 -0.5251  0.2167
  525MPD2    C5 7850   0.001   1.184  14.017  0.0300 -0.7815  0.2237
  525MPD2     H 7851   0.144   1.297  14.355  0.4632  0.9668  0.2799
  525MPD2    H1 7852   0.065   1.370  13.936 -1.5048 -0.3119  0.3585
  525MPD2    H2 7853   4.671   1.012  14.123 -1.6553  0.5791 -0.6713
  525MPD2    H3 7854   4.710   1.146  13.919  0.3666  0.8599 -0.5079
  525MPD2     N 7855   0.166   1.491  14.153 -0.2586  0.3353  0.2078
  525MPD2    H5 7856   0.152   1.548  14.070 -0.6508 -0.5641 -0.3408
  525MPD2    N1 7857   0.021   1.079  14.361  0.2352  0.3873 -0.5864
  525MPD2    H7 7858   0.090   1.099  14.434  0.9523  0.9608 -1.4128
  526TMC3    C1 7859   0.009   0.882  14.479 -0.2357 -0.7052 -0.1140
  526TMC3    C2 7860   4.664   0.813  14.572 -0.0846  0.4831 -0.3078
  526TMC3    C3 7861   4.720   0.754  14.681  0.4728 -0.3033 -0.1624
  526TMC3    C4 7862   0.144   0.874  14.481 -0.0088 -0.1393 -0.6723
  526TMC3    C5 7863   0.195   0.803  14.585 -0.1637 -0.4587  0.1377
  526TMC3    C6 7864   0.122   0.740  14.686 -0.2034 -0.0933  0.6845
  526TMC3     C 7865   4.680   0.970  14.379 -0.2842  0.8663  0.2157
  526TMC3     O 7866   4.568   0.933  14.345  0.1434 -0.4157  0.3068
  526TMC3     H 7867   4.560   0.811  14.542  0.0194  1.7616 -0.7594
  526TMC3    H1 7868   0.212   0.917  14.408  1.8071 -0.9302  0.5297
  526TMC3    H2 7869   0.175   0.705  14.773  2.8967 -1.4273 -1.7283
  526TMC3    C7 7870   0.337   0.800  14.591 -0.1334  0.0513  0.1255
  526TMC3    C8 7871   4.669   0.787  14.810 -0.1680 -0.4854 -0.6815
  526TMC3    O1 7872   0.394   0.902  14.556  0.4206  0.2633  0.1907
  526TMC3    O2 7873   4.721   0.732  14.907 -0.1034 -0.0071  0.3795
  527MPD2     C 7874   2.334   3.256   1.528  0.3737 -0.7589  0.4867
  527MPD2    C1 7875   2.359   3.304   1.401 -0.2770  0.4829 -0.3483
  527MPD2    C2 7876   2.481   3.270   1.344 -1.0326 -0.5241 -0.0579
  527MPD2    C3 7877   2.575   3.195   1.408  0.0330 -0.0709 -0.3588
  527MPD2    C4 7878   2.551   3.163   1.538  0.1248  0.2154  0.1813
  527MPD2    C5 7879   2.434   3.189   1.594  0.2998  0.8488 -0.3220
  527MPD2     H 7880   2.510   3.322   1.253 -1.3151 -3.9715 -2.1306
  527MPD2    H1 7881   2.619   3.110   1.605 -2.6362 -0.8306  2.1332
  527MPD2    H2 7882   2.239   3.271   1.579  0.0186  0.9968 -0.6703
  527MPD2    H3 7883   2.425   3.157   1.697 -2.3407  0.5211 -0.6641
  527MPD2     N 7884   2.696   3.170   1.340  0.1551 -0.4506  0.1226
  527MPD2    H5 7885   2.708   3.221   1.253 -1.1515  0.1867  0.3142
  527MPD2    N1 7886   2.263   3.378   1.318 -0.1065  0.4130  0.9878
  527MPD2    H7 7887   2.284   3.404   1.222 -1.3242 -2.1980  0.0094
  528TMC3    C1 7888   2.050   3.482   1.275  0.0629  0.1725  0.3235
  528TMC3    C2 7889   2.105   3.544   1.161 -0.4481  0.1808  0.4877
  528TMC3    C3 7890   2.012   3.612   1.082 -0.0268  0.3052 -0.4338
  528TMC3    C4 7891   1.921   3.464   1.290 -0.2914 -0.0524 -0.4379
  528TMC3    C5 7892   1.831   3.537   1.211 -0.2082  0.6140 -0.3633
  528TMC3    C6 7893   1.874   3.606   1.102  0.0376 -0.4043  0.1484
  528TMC3     C 7894   2.130   3.403   1.364  0.2068  0.5318 -0.2461
  528TMC3     O 7895   2.081   3.379   1.478 -0.0618 -0.0042 -0.0747
  528TMC3     H 7896   2.210   3.572   1.154  0.4210 -2.2153  3.8772
  528TMC3    H1 7897   1.885   3.413   1.379 -0.2772  0.9277  0.1351
  528TMC3    H2 7898   1.813   3.630   1.016  1.7006  1.4600 -0.5082
  528TMC3    C7 7899   1.687   3.533   1.234  0.2739 -0.6977 -0.2970
  528TMC3    C8 7900   2.059   3.719   0.987 -0.1551  0.4198  0.1814
  528TMC3    O1 7901   1.613   3.577   1.148  0.2288 -0.0157 -0.2857
  528TMC3    O2 7902   1.984   3.812   0.966 -0.2172  0.1433 -0.3015
  529MPD2     C 7903   4.621   1.717   0.709 -0.3600 -0.4790  0.7172
  529MPD2    C1 7904   0.003   1.738   0.641  0.1528  0.0367 -0.8118
  529MPD2    C2 7905   0.013   1.852   0.566 -0.1039  0.6786  0.7684
  529MPD2    C3 7906   4.653   1.950   0.559 -0.4298  0.3075  0.2293
  529MPD2    C4 7907   4.543   1.927   0.629  0.6406  0.3469  0.0735
  529MPD2    C5 7908   4.526   1.817   0.705 -0.7606 -0.4197  0.4685
  529MPD2     H 7909   0.107   1.865   0.514  0.6207 -0.5083  1.7694
  529MPD2    H1 7910   4.460   1.997   0.628 -0.5048 -1.0213  0.3292
  529MPD2    H2 7911   4.605   1.624   0.763  1.8442 -1.5080 -0.4281
  529MPD2    H3 7912   4.435   1.805   0.763 -0.9436  1.1153  0.5089
  529MPD2     N 7913   4.661   2.059   0.466  0.1121  0.2223 -0.0685
  529MPD2    H5 7914   4.580   2.117   0.450 -0.5102 -0.1470  1.6658
  529MPD2    N1 7915   0.114   1.649   0.637 -0.1993  0.5144 -0.3741
  529MPD2    H7 7916   0.198   1.675   0.586  0.0403  0.1907 -0.1447
  530TMC3    C1 7917   0.244   1.450   0.683  0.0121 -0.2213 -0.8219
  530TMC3    C2 7918   0.365   1.521   0.714  0.0147 -0.9851  0.1931
  530TMC3    C3 7919   0.475   1.442   0.729  0.0129  0.4434  0.2356
  530TMC3    C4 7920   0.236   1.310   0.686  0.1302  0.1873 -0.0308
  530TMC3    C5 7921   0.353   1.246   0.700  1.3714 -0.5886 -0.5531
  530TMC3    C6 7922   0.476   1.306   0.717 -0.3609  0.5320 -0.1942
  530TMC3     C 7923   0.116   1.522   0.683  0.8662  0.1932 -0.3612
  530TMC3     O 7924   0.021   1.450   0.710  0.3054  0.3111  0.2166
  530TMC3     H 7925   0.368   1.629   0.730 -0.3688 -0.4951 -2.8737
  530TMC3    H1 7926   0.138   1.263   0.680 -0.2880  1.0999 -0.3493
  530TMC3    H2 7927   0.559   1.241   0.743 -0.8542 -0.6684 -1.5932
  530TMC3    C7 7928   0.355   1.101   0.705  0.1913 -0.0480 -0.0714
  530TMC3    C8 7929   0.589   1.509   0.788  0.4732 -0.0087 -0.0721
  530TMC3    O1 7930   0.464   1.050   0.694  0.6862 -0.1848 -0.0702
  530TMC3    O2 7931   0.592   1.631   0.790  0.1957  0.0414 -0.3910
  531MPD2     C 7932   3.649   4.089  13.606  0.1469  0.1404  0.2297
  531MPD2    C1 7933   3.735   4.162  13.533 -1.0453  0.1498 -0.1422
  531MPD2    C2 7934   3.748   4.143  13.404 -0.1710  0.0220  0.5737
  531MPD2    C3 7935   3.667   4.058  13.329 -0.1760 -0.7573 -0.6831
  531MPD2    C4 7936   3.576   3.991  13.404 -0.5622  0.3958 -0.0771
  531MPD2    C5 7937   3.572   4.000  13.540  0.2418 -0.0783  0.2823
  531MPD2     H 7938   3.804   4.214  13.344  0.9274  1.2005  2.9572
  531MPD2    H1 7939   3.517   3.912  13.359 -0.3022  1.0489 -1.5957
  531MPD2    H2 7940   3.653   4.088  13.714  2.3349  3.1742  0.1747
  531MPD2    H3 7941   3.498   3.945  13.596 -0.3475 -1.4562 -1.8409
  531MPD2     N 7942   3.683   4.061  13.196 -0.1213  0.2969 -0.2226
  531MPD2    H5 7943   3.754   4.125  13.161  1.1126 -1.0327 -0.1518
  531MPD2    N1 7944   3.813   4.267  13.593 -0.1801 -0.9028 -0.0939
  531MPD2    H7 7945   3.863   4.321  13.523 -0.2296  0.1324  0.6809
  532TMC3    C1 7946   3.909   4.424  13.738 -0.3590 -0.9651 -0.8890
  532TMC3    C2 7947   3.865   4.520  13.645 -0.1710 -0.1073  0.1394
  532TMC3    C3 7948   3.933   4.637  13.638  0.2543  0.0961 -0.2967
  532TMC3    C4 7949   4.028   4.439  13.811 -0.2775  0.1538  0.5203
  532TMC3    C5 7950   4.092   4.555  13.799  0.9754 -0.6811 -0.3223
  532TMC3    C6 7951   4.050   4.651  13.713 -0.4373 -0.3071 -0.0329
  532TMC3     C 7952   3.850   4.292  13.722  0.5175 -0.3216  0.0353
  532TMC3     O 7953   3.823   4.236  13.828 -0.1031  0.2815  0.3244
  532TMC3     H 7954   3.766   4.506  13.604 -1.2502  2.3213  1.8952
  532TMC3    H1 7955   4.074   4.357  13.866  0.4017 -1.4758 -2.4948
  532TMC3    H2 7956   4.102   0.010  13.706 -1.1432 -0.0049 -1.0237
  532TMC3    C7 7957   4.235   4.572  13.845 -0.1039 -0.9539 -0.5507
  532TMC3    C8 7958   3.907   4.723  13.524 -0.0594 -0.3794  0.5961
  532TMC3    O1 7959   4.272   4.686  13.860 -0.5465 -0.0715 -0.2619
  532TMC3    O2 7960   3.977   0.083  13.499  0.0684 -0.3556  0.3298
  533TMC3    C1 7961   0.248   1.679  14.265 -0.1833  0.4412  0.4588
  533TMC3    C2 7962   0.366   1.722  14.319 -0.2231 -0.1738  0.6648
  533TMC3    C3 7963   0.374   1.847  14.368 -0.0496  0.2799  0.3427
  533TMC3    C4 7964   0.142   1.763  14.262  0.2427 -0.0472  0.1223
  533TMC3    C5 7965   0.146   1.882  14.338 -0.0061 -0.1744  0.0221
  533TMC3    C6 7966   0.266   1.929  14.389 -0.6129 -0.3047 -0.0945
  533TMC3     C 7967   0.233   1.541  14.260 -0.6794  0.3847  0.0274
  533TMC3     O 7968   0.277   1.483  14.355 -0.1947  0.1796 -0.2423
  533TMC3     H 7969   0.444   1.646  14.322 -1.3896 -1.4184 -0.7563
  533TMC3    H1 7970   0.046   1.729  14.225  0.5855 -0.3884 -0.4636
  533TMC3    H2 7971   0.269   2.028  14.432 -0.8438  0.4221 -1.7602
  533TMC3    C7 7972   0.055   1.867  14.445  0.3056  0.5717 -0.0351
  533TMC3    C8 7973   0.511   1.890  14.412 -1.3739 -0.6164 -0.2149
  533TMC3    O1 7974   4.715   1.773  14.433 -0.0589 -0.3983  0.0283
  533TMC3    O2 7975   0.582   1.797  14.445 -0.3367  0.2460 -0.5985
  534MPD2     C 7976   3.306   2.093   1.475  0.4551 -0.2226  0.7308
  534MPD2    C1 7977   3.216   2.193   1.446  0.8113 -0.2652 -0.5600
  534MPD2    C2 7978   3.111   2.162   1.366  0.2807  0.5649  0.8342
  534MPD2    C3 7979   3.067   2.030   1.347 -0.0462 -0.7625 -0.2936
  534MPD2    C4 7980   3.150   1.933   1.392 -0.3281 -0.5196  0.6938
  534MPD2    C5 7981   3.275   1.964   1.450 -0.1130  0.7517 -0.4588
  534MPD2     H 7982   3.058   2.245   1.322 -0.7298 -2.0697 -2.8640
  534MPD2    H1 7983   3.123   1.830   1.368  1.0072 -0.5615 -0.6376
  534MPD2    H2 7984   3.398   2.121   1.526  0.6391  1.8090 -0.7097
  534MPD2    H3 7985   3.341   1.881   1.475 -0.1077  0.2629 -2.0955
  534MPD2     N 7986   2.956   1.996   1.273  0.2191  0.3115  0.0028
  534MPD2    H5 7987   2.947   1.897   1.255  1.5707  0.3134 -0.7135
  534MPD2    N1 7988   3.248   2.327   1.474  0.2143  0.2110  0.1231
  534MPD2    H7 7989   3.193   2.401   1.432 -0.7143 -0.4695  0.1668
  535TMC3    C1 7990   2.770   1.999   1.145  0.2006 -0.2372  1.0545
  535TMC3    C2 7991   2.730   1.872   1.183  0.7864  0.0300 -0.6524
  535TMC3    C3 7992   2.653   1.802   1.091 -0.1853  0.2120 -0.2107
  535TMC3    C4 7993   2.731   2.055   1.030  0.3948 -0.1233  0.6340
  535TMC3    C5 7994   2.656   1.979   0.942  0.0715 -0.0038  0.3368
  535TMC3    C6 7995   2.618   1.856   0.969  0.2010 -0.9560 -0.0768
  535TMC3     C 7996   2.862   2.077   1.222  0.6764 -0.1200 -0.2875
  535TMC3     O 7997   2.856   2.201   1.217 -0.0022  0.5984 -0.0783
  535TMC3     H 7998   2.747   1.832   1.283  0.0412  0.5966 -0.3025
  535TMC3    H1 7999   2.770   2.154   1.007  1.5590 -0.5577  0.7483
  535TMC3    H2 8000   2.540   1.804   0.914 -0.3113 -0.5019  0.2185
  535TMC3    C7 8001   2.561   2.056   0.873 -0.4789 -0.5827  0.7786
  535TMC3    C8 8002   2.588   1.676   1.137 -0.3877  0.3660 -0.0516
  535TMC3    O1 8003   2.471   1.998   0.814  0.6126  0.7684  0.1602
  535TMC3    O2 8004   2.495   1.627   1.073 -0.0392 -0.2974 -0.3436
  536MPD2     C 8005   0.759   0.594  16.561  0.0596 -0.1990  0.1106
  536MPD2    C1 8006   0.747   0.467  16.514 -0.2304 -0.3593  0.1063
  536MPD2    C2 8007   0.706   0.447  16.382 -0.9576  0.0564  0.5603
  536MPD2    C3 8008   0.688   0.557  16.294  0.5761  0.1745 -0.2583
  536MPD2    C4 8009   0.714   0.681  16.343  0.7744 -0.0181  0.2376
  536MPD2    C5 8010   0.735   0.699  16.475 -0.6609 -0.3198 -0.3018
  536MPD2     H 8011   0.698   0.343  16.350 -1.5614  0.6567 -1.2253
  536MPD2    H1 8012   0.704   0.773  16.286  2.3356 -1.9072 -3.0822
  536MPD2    H2 8013   0.786   0.613  16.664  1.2442  2.0416 -0.6112
  536MPD2    H3 8014   0.741   0.799  16.519 -3.6568 -0.2552 -0.0497
  536MPD2     N 8015   0.642   0.548  16.160  0.4015  0.0486 -0.6515
  536MPD2    H5 8016   0.642   0.632  16.103 -0.4199  0.0982 -0.5693
  536MPD2    N1 8017   0.766   0.363  16.614  0.0179 -0.5250  0.7498
  536MPD2    H7 8018   0.795   0.384  16.709 -0.7454  1.9662  0.4310
  537TMC3    C1 8019   0.786   0.157  16.700  0.2150  0.5466 -0.3748
  537TMC3    C2 8020   0.872   0.221  16.794 -0.3247  0.1455 -0.1615
  537TMC3    C3 8021   0.927   0.153  16.894  0.2449 -0.3265  0.2874
  537TMC3    C4 8022   0.751   0.024  16.718  0.2891  0.4254  0.0322
  537TMC3    C5 8023   0.799   4.700  16.824 -0.1545  0.4345 -0.4284
  537TMC3    C6 8024   0.889   0.020  16.902  0.2718  0.1250  0.7013
  537TMC3     C 8025   0.736   0.231  16.589 -0.2013  0.3993  0.1281
  537TMC3     O 8026   0.657   0.186  16.510 -0.2034 -0.7045  0.1481
  537TMC3     H 8027   0.922   0.316  16.782  1.3075 -0.7271 -0.2128
  537TMC3    H1 8028   0.676   4.719  16.651  2.7457 -2.4858 -0.9883
  537TMC3    H2 8029   0.943   4.691  16.969 -0.3913 -0.9953  0.1343
  537TMC3    C7 8030   0.747   4.568  16.863  0.1049 -0.4521 -0.2331
  537TMC3    C8 8031   1.034   0.200  16.984 -0.0820 -0.5469 -0.8806
  537TMC3    O1 8032   0.693   4.502  16.779 -0.3610 -0.0697 -0.7707
  537TMC3    O2 8033   1.076   0.313  16.965  0.3914 -0.3065  0.0790
  538TMC3    C1 8034   2.465   3.168  11.458 -0.1144 -0.1318  0.1983
  538TMC3    C2 8035   2.560   3.123  11.363 -0.9273 -0.3875 -0.7361
  538TMC3    C3 8036   2.588   3.207  11.257  0.0152 -0.0307  0.4476
  538TMC3    C4 8037   2.383   3.272  11.433 -0.2993 -0.0651  0.3370
  538TMC3    C5 8038   2.404   3.344  11.313 -0.5182  0.1284  0.7195
  538TMC3    C6 8039   2.510   3.323  11.232 -0.9279  0.0382  0.2099
  538TMC3     C 8040   2.455   3.083  11.581  0.4033 -0.3125  0.2695
  538TMC3     O 8041   2.496   2.969  11.570 -0.5365  0.1439 -0.1747
  538TMC3     H 8042   2.637   3.049  11.386  1.1395  1.0631 -2.9893
  538TMC3    H1 8043   2.293   3.284  11.492  0.1755 -2.0645  1.4791
  538TMC3    H2 8044   2.529   3.375  11.138  0.5693  1.2223  1.1771
  538TMC3    C7 8045   2.302   3.443  11.281 -0.0705 -0.2078 -0.0221
  538TMC3    C8 8046   2.648   3.149  11.130  0.0535  0.7205 -0.7882
  538TMC3    O1 8047   2.206   3.449  11.354  0.6345 -0.1823  0.2249
  538TMC3    O2 8048   2.620   3.031  11.122  0.0715  0.0898  0.0898
  539MPD2     C 8049   2.080   2.559  11.897  0.6836  0.0308  0.6057
  539MPD2    C1 8050   2.086   2.563  11.757  0.0390  0.3489  0.1069
  539MPD2    C2 8051   2.052   2.679  11.687 -0.3343  0.1524 -0.6964
  539MPD2    C3 8052   2.025   2.791  11.762  0.9115  0.0194 -0.5127
  539MPD2    C4 8053   2.010   2.779  11.894  0.8970  0.0473 -0.6283
  539MPD2    C5 8054   2.035   2.665  11.961 -0.5148  0.9133  0.2629
  539MPD2     H 8055   2.064   2.683  11.580  1.0909  0.2229 -0.5289
  539MPD2    H1 8056   1.988   2.866  11.955 -0.7801 -0.8390  0.0155
  539MPD2    H2 8057   2.099   2.471  11.957 -1.1001 -2.0069 -1.8077
  539MPD2    H3 8058   2.015   2.658  12.067  3.0741  2.4171  1.0444
  539MPD2     N 8059   2.002   2.920  11.708  0.0187  0.1498  0.2690
  539MPD2    H5 8060   1.963   2.983  11.777 -1.6728  0.4299 -0.9410
  539MPD2    N1 8061   2.137   2.453  11.685 -0.0506  0.2984  0.1359
  539MPD2    H7 8062   2.122   2.455  11.585  0.6278  0.7045  0.0377
  540TMC3    C1 8063   1.966   3.096  11.549  0.2391  0.0844  0.3403
  540TMC3    C2 8064   1.953   3.142  11.417  0.1442  0.8440  0.3444
  540TMC3    C3 8065   1.927   3.275  11.395  0.4589 -0.5534 -0.4264
  540TMC3    C4 8066   1.962   3.188  11.650 -0.1612 -0.8795 -1.1155
  540TMC3    C5 8067   1.930   3.316  11.621 -0.0642  0.1351 -0.0154
  540TMC3    C6 8068   1.904   3.360  11.495 -0.7266  1.0297  0.2982
  540TMC3     C 8069   1.996   2.952  11.575  0.1283 -0.5119  0.3752
  540TMC3     O 8070   2.052   2.894  11.481 -0.4408 -0.2388  0.0615
  540TMC3     H 8071   1.956   3.066  11.340  2.4928 -2.0039  3.2384
  540TMC3    H1 8072   1.972   3.158  11.754  0.9497 -1.5206 -1.4104
  540TMC3    H2 8073   1.875   3.463  11.475  0.4094  1.2051 -0.4100
  540TMC3    C7 8074   1.867   3.379  11.735 -0.5831  0.1704  0.2609
  540TMC3    C8 8075   1.878   3.317  11.264 -0.4248  0.1808  0.8252
  540TMC3    O1 8076   1.811   3.306  11.819  0.0831 -0.0636 -0.1393
  540TMC3    O2 8077   1.840   3.432  11.257  0.3677 -0.5408 -0.5401
  541MPD2     C 8078   1.089   0.231  13.315 -0.3379 -0.2554  0.1917
  541MPD2    C1 8079   1.067   0.150  13.205 -0.0188 -0.4996  0.0590
  541MPD2    C2 8080   1.006   0.204  13.089  0.1029  0.8042 -0.0038
  541MPD2    C3 8081   0.997   0.346  13.085  0.6391  0.3082 -0.0627
  541MPD2    C4 8082   1.033   0.425  13.191  0.1940  0.7788  0.3447
  541MPD2    C5 8083   1.074   0.366  13.304  0.5208  0.0525 -0.0789
  541MPD2     H 8084   0.969   0.132  13.018  0.7282  2.5235 -2.0609
  541MPD2    H1 8085   1.037   0.533  13.187  2.7296  0.6686  0.3251
  541MPD2    H2 8086   1.127   0.184  13.405  0.7921 -0.0346 -0.1695
  541MPD2    H3 8087   1.113   0.424  13.388 -0.0581  0.9680 -0.4479
  541MPD2     N 8088   0.949   0.412  12.965  0.6038 -0.1778  0.3231
  541MPD2    H5 8089   0.959   0.513  12.968 -0.4785 -0.0562 -0.0436
  541MPD2    N1 8090   1.084   0.011  13.227 -0.3220 -0.4029 -0.0999
  541MPD2    H7 8091   1.128   4.723  13.315  2.6017  1.0473 -1.1472
  542TMC3    C1 8092   0.881   0.431  12.731  0.8346 -0.0125  0.2458
  542TMC3    C2 8093   0.913   0.383  12.608 -0.7420 -0.1488  0.1106
  542TMC3    C3 8094   0.876   0.462  12.501  0.1089 -0.2656  0.2501
  542TMC3    C4 8095   0.823   0.551  12.746 -0.4397  0.4817 -0.3656
  542TMC3    C5 8096   0.785   0.627  12.642  1.0064 -0.0458  1.2912
  542TMC3    C6 8097   0.808   0.581  12.514 -0.6329  0.4077  0.0067
  542TMC3     C 8098   0.921   0.350  12.846 -0.6544 -0.2285 -0.0683
  542TMC3     O 8099   0.923   0.228  12.825 -0.1544 -0.4652 -0.6246
  542TMC3     H 8100   0.962   0.288  12.591  0.9784  0.7824 -0.0972
  542TMC3    H1 8101   0.786   0.584  12.842 -0.1065 -0.7371  0.1856
  542TMC3    H2 8102   0.769   0.630  12.426 -2.9178 -1.3252  0.0687
  542TMC3    C7 8103   0.745   0.766  12.663 -0.3626  0.0639  0.4200
  542TMC3    C8 8104   0.876   0.402  12.372 -0.0236 -0.1469  0.3887
  542TMC3    O1 8105   0.716   0.797  12.778 -0.2627 -0.4771 -0.1113
  542TMC3    O2 8106   0.783   0.434  12.297  0.3416 -0.0945 -0.2128
  543TMC3    C1 8107   4.401   1.584  16.974  0.3850 -0.4868 -0.0603
  543TMC3    C2 8108   4.457   1.466  17.010  0.7772 -0.0263 -0.3184
  543TMC3    C3 8109   4.477   1.442  17.139 -0.6709  0.4441 -0.1266
  543TMC3    C4 8110   4.369   1.684  17.058 -0.6600  0.8459  0.5892
  543TMC3    C5 8111   4.395   1.651  17.195  0.1815 -0.1620  0.3228
  543TMC3    C6 8112   4.447   1.528  17.233  0.3732  0.0253 -0.6903
  543TMC3     C 8113   4.368   1.614  16.835  0.1045 -1.0936 -0.8431
  543TMC3     O 8114   4.278   1.694  16.807 -0.3118  0.6013  0.1149
  543TMC3     H 8115   4.463   1.382  16.941  0.0171 -0.6542  0.3844
  543TMC3    H1 8116   4.315   1.775  17.036  0.2459  1.1108 -0.5766
  543TMC3    H2 8117   4.471   1.520  17.339 -1.9140 -0.6077 -0.2108
  543TMC3    C7 8118   4.414   1.756  17.296 -0.5481  0.0134 -0.1914
  543TMC3    C8 8119   4.538   1.315  17.166 -0.1638 -0.4560 -0.5098
  543TMC3    O1 8120   4.396   1.721  17.410 -0.4672 -0.3100 -0.4983
  543TMC3    O2 8121   4.557   1.240  17.068 -0.7684 -0.1116 -0.8651
  544MPD2     C 8122   4.681   0.928  17.482 -0.0431  0.3445  0.0954
  544MPD2    C1 8123   4.704   0.949  17.353 -0.3089 -0.3358 -0.9891
  544MPD2    C2 8124   4.668   1.067  17.289  0.2843 -0.3688  0.4928
  544MPD2    C3 8125   4.608   1.170  17.358 -0.2558 -0.0444 -0.0806
  544MPD2    C4 8126   4.582   1.147  17.494 -0.1696  0.3991 -0.2306
  544MPD2    C5 8127   4.613   1.029  17.550 -0.0456 -0.2966 -0.3340
  544MPD2     H 8128   4.680   1.083  17.183  1.1917  2.4848  1.0232
  544MPD2    H1 8129   4.514   1.209  17.551 -0.1527  0.5350 -0.3572
  544MPD2    H2 8130   4.705   0.838  17.537 -0.1110 -1.3321 -2.6261
  544MPD2    H3 8131   4.580   1.012  17.651  0.1013 -2.9179 -0.7173
  544MPD2     N 8132   4.554   1.286  17.301 -0.4004 -0.1817  0.1332
  544MPD2    H5 8133   4.518   1.356  17.366 -0.7656 -0.3294  0.0891
  544MPD2    N1 8134   0.029   0.840  17.286 -1.0653  0.5846 -0.2217
  544MPD2    H7 8135   0.047   0.755  17.339 -1.3267 -0.5094 -1.8700
  545TMC3    C1 8136   0.106   0.700  17.109  0.2038  0.0257 -0.8154
  545TMC3    C2 8137   0.069   0.659  16.984 -0.6511  0.4965  1.2678
  545TMC3    C3 8138   0.073   0.526  16.961 -0.6613  0.9394 -0.4977
  545TMC3    C4 8139   0.147   0.609  17.211  1.1040  0.4718  0.6196
  545TMC3    C5 8140   0.147   0.476  17.180  0.4251  0.3301  0.2953
  545TMC3    C6 8141   0.113   0.434  17.056 -0.7659 -0.5146  0.2543
  545TMC3     C 8142   0.056   0.829  17.150  0.7340  0.4212  0.5857
  545TMC3     O 8143   0.027   0.909  17.062  0.3704  0.6359  0.0321
  545TMC3     H 8144   0.053   0.739  16.912 -0.6041  1.5334  2.4098
  545TMC3    H1 8145   0.181   0.635  17.310  2.7631  1.0783 -0.1024
  545TMC3    H2 8146   0.100   0.329  17.037 -2.6597 -0.2746  0.1870
  545TMC3    C7 8147   0.265   0.403  17.242 -0.0682 -0.1647  0.1469
  545TMC3    C8 8148   4.714   0.479  16.861  0.0014 -0.3686 -0.3098
  545TMC3    O1 8149   0.328   0.321  17.173  0.0279 -0.5298  0.0434
  545TMC3    O2 8150   4.715   0.359  16.845 -0.3668 -0.2385  0.0339
  546MPD2     C 8151   1.264   1.230  17.206  0.7146  0.7379  0.5813
  546MPD2    C1 8152   1.225   1.267  17.077 -0.1342  0.7310  0.0475
  546MPD2    C2 8153   1.264   1.394  17.034  0.5659 -0.2953 -0.1115
  546MPD2    C3 8154   1.340   1.481  17.116  1.5507 -0.2576  0.0007
  546MPD2    C4 8155   1.354   1.443  17.248 -0.2342  0.5398 -0.1937
  546MPD2    C5 8156   1.325   1.318  17.290  0.6036  0.1272 -0.2832
  546MPD2     H 8157   1.255   1.442  16.937 -0.7908 -0.8012 -0.2278
  546MPD2    H1 8158   1.405   1.501  17.324  0.4402  0.6452 -0.7319
  546MPD2    H2 8159   1.242   1.130  17.242 -0.9618  0.1025 -2.2162
  546MPD2    H3 8160   1.358   1.289  17.389  1.6599 -1.3302 -1.0577
  546MPD2     N 8161   1.388   1.612  17.083 -0.2513  0.2231  0.3639
  546MPD2    H5 8162   1.419   1.673  17.158  1.3844 -0.4005  0.1843
  546MPD2    N1 8163   1.147   1.181  16.999  0.6495  0.0134  0.2284
  546MPD2    H7 8164   1.121   1.094  17.043  0.2128 -0.4135 -0.8843
  547TMC3    C1 8165   0.987   1.120  16.833  0.3544  0.0373 -0.6811
  547TMC3    C2 8166   0.933   1.157  16.717  0.1404 -0.1993  0.3578
  547TMC3    C3 8167   0.804   1.119  16.699  0.8450 -0.3790  0.6531
  547TMC3    C4 8168   0.927   1.049  16.933  0.3010  0.2516 -0.0461
  547TMC3    C5 8169   0.799   1.016  16.904 -0.0804  0.0767 -0.5735
  547TMC3    C6 8170   0.732   1.058  16.798  0.8995 -0.3037  0.4510
  547TMC3     C 8171   1.097   1.213  16.878  0.4199 -0.4370  0.4594
  547TMC3     O 8172   1.121   1.311  16.804 -0.2996 -0.0002 -0.4904
  547TMC3     H 8173   0.982   1.225  16.648  0.8706 -3.1063 -2.0180
  547TMC3    H1 8174   0.965   1.020  17.030  0.4843  1.4439  0.2332
  547TMC3    H2 8175   0.635   1.016  16.774  1.3549 -1.3784  0.5192
  547TMC3    C7 8176   0.743   0.905  16.978  0.1016  0.7530 -0.2775
  547TMC3    C8 8177   0.728   1.154  16.575  0.0665  0.4357  0.0513
  547TMC3    O1 8178   0.620   0.901  16.995 -0.2650  0.4442 -0.2761
  547TMC3    O2 8179   0.608   1.131  16.574  0.9083 -0.8804  0.3226
  548MPD2     C 8180   1.571   2.104  12.202  0.2425 -0.0694  0.4538
  548MPD2    C1 8181   1.503   2.027  12.295 -0.1171 -1.2210  0.5209
  548MPD2    C2 8182   1.533   1.895  12.316  0.7084  0.5119  0.1530
  548MPD2    C3 8183   1.624   1.825  12.240 -0.2199 -0.5696  0.7219
  548MPD2    C4 8184   1.694   1.900  12.155 -0.2695  0.4097  0.1910
  548MPD2    C5 8185   1.667   2.034  12.126 -0.5495  0.7582  0.2472
  548MPD2     H 8186   1.475   1.850  12.396  0.3828  0.0049 -0.3677
  548MPD2    H1 8187   1.773   1.864  12.090  0.6785  0.2499  1.4304
  548MPD2    H2 8188   1.560   2.211  12.195 -1.2597 -0.2168  0.5373
  548MPD2    H3 8189   1.716   2.085  12.044  2.7552  0.5138  2.0684
  548MPD2     N 8190   1.645   1.690  12.256  0.1270  0.3496  0.0489
  548MPD2    H5 8191   1.589   1.654  12.333 -2.1236  1.6062 -1.0102
  548MPD2    N1 8192   1.415   2.096  12.374 -0.9599 -0.3032 -0.0712
  548MPD2    H7 8193   1.421   2.197  12.374  2.4953 -0.5192  0.5003
  549TMC3    C1 8194   1.216   2.114  12.510  0.1283 -0.4499  0.2396
  549TMC3    C2 8195   1.080   2.094  12.496 -0.2476  0.2862  1.2249
  549TMC3    C3 8196   1.010   2.046  12.601  0.2469  0.2781 -0.1581
  549TMC3    C4 8197   1.275   2.100  12.630  0.5300 -0.6330  0.3624
  549TMC3    C5 8198   1.204   2.036  12.733 -0.0505 -0.6861  0.3769
  549TMC3    C6 8199   1.070   2.010  12.720  0.6057 -0.0763  0.6033
  549TMC3     C 8200   1.297   2.040  12.418 -0.4451 -0.4333 -0.8066
  549TMC3     O 8201   1.243   1.944  12.367  0.1882  0.1728  0.1002
  549TMC3     H 8202   1.042   2.096  12.394 -0.6713 -1.2214  1.3582
  549TMC3    H1 8203   1.383   2.105  12.636  0.6735 -3.1391 -0.1022
  549TMC3    H2 8204   1.015   1.966  12.802  0.9252 -0.7152  0.4721
  549TMC3    C7 8205   1.282   1.939  12.802 -0.6027  0.4821  0.0553
  549TMC3    C8 8206   0.873   2.075  12.610  0.1051 -0.5602  0.0019
  549TMC3    O1 8207   1.392   1.974  12.851  0.0660 -0.0287  0.2342
  549TMC3    O2 8208   0.798   2.016  12.689  0.2810  0.7216 -0.6097
  550TMC3    C1 8209   0.151   4.086  12.916  0.6793 -0.8382  0.2577
  550TMC3    C2 8210   0.152   4.163  13.028 -0.0604  0.2647  0.0922
  550TMC3    C3 8211   0.160   4.295  13.014  0.0894 -0.2716 -0.1056
  550TMC3    C4 8212   0.189   4.137  12.795 -0.4067  0.3561 -0.2066
  550TMC3    C5 8213   0.179   4.275  12.791 -0.0132 -0.3009 -0.6524
  550TMC3    C6 8214   0.176   4.357  12.896 -0.7348 -0.1441 -0.3236
  550TMC3     C 8215   0.116   3.942  12.922  0.0604 -0.8274  0.2048
  550TMC3     O 8216   0.087   3.896  13.032 -0.3000 -0.4151 -0.3747
  550TMC3     H 8217   0.130   4.111  13.120  0.9647 -3.4212 -1.7518
  550TMC3    H1 8218   0.191   4.078  12.704  3.0085 -1.7502  1.2526
  550TMC3    H2 8219   0.141   4.460  12.890  0.4771  0.1612 -2.2183
  550TMC3    C7 8220   0.129   4.321  12.667  0.2254 -0.3715 -0.2215
  550TMC3    C8 8221   0.120   4.377  13.126 -0.0904 -0.2964 -0.1997
  550TMC3    O1 8222   0.091   4.237  12.582 -0.3538 -0.6037  0.0378
  550TMC3    O2 8223   0.154   4.497  13.110 -0.1478 -0.5181 -0.1532
  551TMC3    C1 8224   2.639   2.565  13.330  0.3601  0.3946 -0.2221
  551TMC3    C2 8225   2.750   2.621  13.270 -0.1593  0.4499 -0.6540
  551TMC3    C3 8226   2.845   2.662  13.364 -0.4097 -0.1053 -0.0424
  551TMC3    C4 8227   2.625   2.559  13.469 -0.7371  0.3676  0.2529
  551TMC3    C5 8228   2.723   2.606  13.549  0.2344 -0.0258 -0.1475
  551TMC3    C6 8229   2.834   2.662  13.505  0.5213  0.1250  0.3482
  551TMC3     C 8230   2.522   2.535  13.250  0.5923  0.0591 -0.2265
  551TMC3     O 8231   2.448   2.444  13.286  0.4530  0.1072 -0.8932
  551TMC3     H 8232   2.770   2.600  13.166 -0.5145 -0.7899 -0.4716
  551TMC3    H1 8233   2.540   2.503  13.506 -1.7629  2.5630  1.2860
  551TMC3    H2 8234   2.909   2.699  13.573  2.4925 -1.0173 -1.2299
  551TMC3    C7 8235   2.707   2.614  13.691  0.1585  1.5522 -0.6841
  551TMC3    C8 8236   2.973   2.706  13.300  0.4385  0.2973  0.1106
  551TMC3    O1 8237   2.803   2.616  13.763 -0.3860  1.1075  0.2920
  551TMC3    O2 8238   2.972   2.696  13.179  0.0652 -0.0778  0.5051
  552MPD2     C 8239   4.224   4.296  14.186 -0.4331  0.9142  1.2769
  552MPD2    C1 8240   4.202   4.180  14.261  0.0603  0.3592  0.0844
  552MPD2    C2 8241   4.257   4.156  14.390  0.0401 -0.3040  0.7322
  552MPD2    C3 8242   4.324   4.260  14.448 -0.4665  0.1433  0.6401
  552MPD2    C4 8243   4.340   4.380  14.378  0.3652 -0.6827  0.1098
  552MPD2    C5 8244   4.294   4.397  14.251  0.5058  0.5097  0.2060
  552MPD2     H 8245   4.255   4.058  14.436  0.1154 -0.4379  0.4505
  552MPD2    H1 8246   4.390   4.464  14.425 -2.4004  0.4834  0.9657
  552MPD2    H2 8247   4.192   4.325  14.087  0.5911 -0.3463  0.5753
  552MPD2    H3 8248   4.322   4.484  14.194  2.9379 -1.4616 -1.6034
  552MPD2     N 8249   4.373   4.252  14.585 -0.2887 -0.2557 -0.1311
  552MPD2    H5 8250   4.428   4.329  14.623 -0.7408 -0.7449  1.4906
  552MPD2    N1 8251   4.139   4.068  14.203 -0.8920 -0.8050 -0.3744
  552MPD2    H7 8252   4.138   3.979  14.251 -0.7827 -0.4446  0.2927
  553TMC3    C1 8253   4.141   3.937  14.011  0.0476  0.4719  0.5636
  553TMC3    C2 8254   4.133   3.944  13.876  0.1465  0.0396  0.0984
  553TMC3    C3 8255   4.240   3.896  13.803  0.1682  0.0334 -0.2755
  553TMC3    C4 8256   4.248   3.875  14.076  0.7957 -0.3252 -0.4189
  553TMC3    C5 8257   4.345   3.819  13.998 -0.4659 -0.2520 -0.0533
  553TMC3    C6 8258   4.346   3.833  13.860  0.8462 -0.1407 -0.1454
  553TMC3     C 8259   4.099   4.064  14.069  0.2031 -0.5481 -0.0149
  553TMC3     O 8260   4.069   4.157  13.997 -0.4197  0.5427 -0.1302
  553TMC3     H 8261   4.061   4.004  13.822 -0.3846 -1.0286 -0.3886
  553TMC3    H1 8262   4.269   3.862  14.181  1.1394 -1.6463 -0.6455
  553TMC3    H2 8263   4.414   3.780  13.795  1.6678  0.5847  0.1315
  553TMC3    C7 8264   4.483   3.840  14.046 -0.6127 -0.1799 -0.1316
  553TMC3    C8 8265   4.239   3.902  13.655  0.1317 -0.2383 -0.2275
  553TMC3    O1 8266   4.566   3.766  14.000 -0.0762 -0.1458 -0.1096
  553TMC3    O2 8267   4.139   3.892  13.588  0.0509 -0.1453 -0.9132
  554TMC3    C1 8268   0.777   3.007  11.717 -0.3743  0.0196  0.0088
  554TMC3    C2 8269   0.678   3.020  11.625  0.5379 -0.4291 -0.0935
  554TMC3    C3 8270   0.670   3.139  11.557 -0.4051  0.3523  0.2994
  554TMC3    C4 8271   0.858   3.110  11.741 -0.4808 -0.4846  0.2077
  554TMC3    C5 8272   0.853   3.227  11.671  0.1700  0.5945 -0.2187
  554TMC3    C6 8273   0.754   3.246  11.574 -0.0731 -0.6575  0.7851
  554TMC3     C 8274   0.826   2.872  11.757 -0.2630  0.5216  1.2383
  554TMC3     O 8275   0.733   2.791  11.761 -0.9251 -0.1770  0.1493
  554TMC3     H 8276   0.601   2.944  11.614  1.2881 -1.3924  1.3108
  554TMC3    H1 8277   0.937   3.094  11.813 -0.5059 -1.2242  0.0654
  554TMC3    H2 8278   0.760   3.325  11.501  1.8189 -2.8454 -1.4321
  554TMC3    C7 8279   0.980   3.282  11.628 -0.5186  0.4343 -0.7856
  554TMC3    C8 8280   0.608   3.145  11.425 -0.1851  0.2381  0.2187
  554TMC3    O1 8281   0.983   3.321  11.516  0.0837 -0.4204 -0.7156
  554TMC3    O2 8282   0.583   3.255  11.373  0.4835 -0.0542 -1.1320
  555TMC3    C1 8283   0.410   3.169  15.336 -0.3396  0.2932  0.2267
  555TMC3    C2 8284   0.358   3.180  15.460  0.1456  0.6682  0.6057
  555TMC3    C3 8285   0.365   3.076  15.550  0.5572 -0.0876  0.8460
  555TMC3    C4 8286   0.484   3.061  15.298  0.0382  0.0460  0.8903
  555TMC3    C5 8287   0.501   2.960  15.394  0.2031 -0.6229 -0.0826
  555TMC3    C6 8288   0.443   2.966  15.519 -0.4163 -0.4184 -0.2198
  555TMC3     C 8289   0.396   3.286  15.250 -0.1898  0.5576 -0.5366
  555TMC3     O 8290   0.379   3.392  15.306 -0.0086  0.0594  0.2299
  555TMC3     H 8291   0.301   3.264  15.499 -0.2313  0.1997  1.0578
  555TMC3    H1 8292   0.542   3.061  15.207 -1.0187  1.1282  0.2274
  555TMC3    H2 8293   0.463   2.890  15.593 -0.2010 -1.4011 -1.2759
  555TMC3    C7 8294   0.535   2.825  15.346  0.5279 -0.3610  0.7025
  555TMC3    C8 8295   0.301   3.092  15.681 -0.4738 -0.1429  0.1239
  555TMC3    O1 8296   0.510   2.729  15.423  0.6185  0.4224 -0.0071
  555TMC3    O2 8297   0.207   3.168  15.705 -0.0484  0.3697 -0.3918
  556MPD2     C 8298   3.115   4.341  10.786 -0.1717 -0.1858  0.2603
  556MPD2    C1 8299   3.181   4.262  10.883  0.3844 -0.0368 -0.3821
  556MPD2    C2 8300   3.186   4.127  10.859 -0.2450 -0.5230 -0.0988
  556MPD2    C3 8301   3.163   4.068  10.733  0.6586 -0.2181  0.1927
  556MPD2    C4 8302   3.107   4.151  10.640 -0.3169 -0.5718  0.3215
  556MPD2    C5 8303   3.080   4.275  10.671 -0.4204 -0.4991 -0.1818
  556MPD2     H 8304   3.221   4.059  10.936 -1.4540  0.0316  0.9386
  556MPD2    H1 8305   3.080   4.116  10.541  1.4861  1.7165 -0.9720
  556MPD2    H2 8306   3.100   4.448  10.792  3.5168  0.3713 -1.1039
  556MPD2    H3 8307   3.036   4.328  10.587 -0.8355 -1.7710 -0.7625
  556MPD2     N 8308   3.203   3.942  10.712 -0.1144  0.4309 -0.0777
  556MPD2    H5 8309   3.250   3.898  10.789 -0.7049 -1.9595 -1.0643
  556MPD2    N1 8310   3.225   4.320  11.002  0.3753  0.3928  0.6067
  556MPD2    H7 8311   3.267   4.267  11.077  2.2212 -0.6649 -1.1904
  557TMC3    C1 8312   3.244   3.748  10.595 -0.3863 -0.3303 -0.2724
  557TMC3    C2 8313   3.315   3.689  10.493 -0.0012  0.1743 -0.1184
  557TMC3    C3 8314   3.310   3.553  10.482 -0.3205  0.8040  0.7988
  557TMC3    C4 8315   3.160   3.674  10.673 -0.2889 -0.7068 -0.0952
  557TMC3    C5 8316   3.164   3.536  10.669  0.8807  0.1880  0.0593
  557TMC3    C6 8317   3.243   3.474  10.576  0.0267  0.7805  0.3971
  557TMC3     C 8318   3.201   3.882  10.586 -0.7574 -0.2465 -0.6906
  557TMC3     O 8319   3.199   3.932  10.474 -0.3962  0.3217  0.0332
  557TMC3     H 8320   3.371   3.753  10.425  0.1344  1.9863  1.7090
  557TMC3    H1 8321   3.090   3.717  10.743 -2.1750 -1.2486 -1.6546
  557TMC3    H2 8322   3.261   3.368  10.567 -0.2556  0.7417  0.2943
  557TMC3    C7 8323   3.057   3.463  10.736  0.3703 -0.0318 -0.0960
  557TMC3    C8 8324   3.367   3.495  10.367  0.6903  0.7097  0.0791
  557TMC3    O1 8325   2.978   3.527  10.804 -0.3386 -0.5800  0.0205
  557TMC3    O2 8326   3.421   3.578  10.295 -0.1822 -0.9646 -0.1949
  558TMC3    C1 8327   0.819   1.412   9.643 -0.1307 -0.3664  0.3911
  558TMC3    C2 8328   0.793   1.456   9.769 -0.3417  0.5186 -0.0612
  558TMC3    C3 8329   0.671   1.515   9.795  0.2640  0.4372  0.1108
  558TMC3    C4 8330   0.746   1.451   9.533 -0.0020  0.0550 -0.0716
  558TMC3    C5 8331   0.646   1.539   9.561  0.5986 -0.7215 -0.0479
  558TMC3    C6 8332   0.602   1.559   9.690  0.6639  0.4325 -0.4035
  558TMC3     C 8333   0.959   1.380   9.606  0.0797  0.3780  0.2075
  558TMC3     O 8334   0.974   1.332   9.498  0.1500  0.0835 -0.0105
  558TMC3     H 8335   0.866   1.416   9.838 -1.6031 -0.0316  0.9454
  558TMC3    H1 8336   0.776   1.433   9.430  1.4806 -0.6025  0.4853
  558TMC3    H2 8337   0.504   1.604   9.702  0.9392  0.6989  0.7954
  558TMC3    C7 8338   0.620   1.636   9.456  0.6861  0.6024  0.8443
  558TMC3    C8 8339   0.643   1.576   9.927 -0.1037 -0.0071 -0.2461
  558TMC3    O1 8340   0.663   1.614   9.345  0.4713 -0.5225 -0.0984
  558TMC3    O2 8341   0.554   1.658   9.930 -0.2696 -0.0463 -0.0271
  559MPD2     C 8342   0.784   2.931  10.443  0.6233  0.0498  0.1377
  559MPD2    C1 8343   0.752   2.808  10.488  0.1015  0.1692 -0.9105
  559MPD2    C2 8344   0.855   2.717  10.510  0.6379  0.1079 -0.7544
  559MPD2    C3 8345   0.988   2.762  10.511  0.6196 -0.6090  0.0709
  559MPD2    C4 8346   1.013   2.889  10.475 -0.2961 -0.0537 -0.3195
  559MPD2    C5 8347   0.913   2.977  10.442 -0.1873 -0.4852 -0.8608
  559MPD2     H 8348   0.835   2.615  10.541  2.6890 -0.7195 -2.1410
  559MPD2    H1 8349   1.114   2.930  10.471 -0.5079  0.6332  1.6141
  559MPD2    H2 8350   0.715   3.002  10.400  1.3593  1.6544  1.6091
  559MPD2    H3 8351   0.939   3.077  10.408  0.0007 -0.5474 -0.8981
  559MPD2     N 8352   1.084   2.675  10.552 -0.2274  0.3735  0.4471
  559MPD2    H5 8353   1.058   2.577  10.550 -2.1349  0.8645  0.9443
  559MPD2    N1 8354   0.617   2.767  10.498  0.5269  0.4316  0.5884
  559MPD2    H7 8355   0.552   2.844  10.505 -2.2676 -1.7226 -2.0135
  560TMC3    C1 8356   1.295   2.597  10.622 -0.2585  0.2747  0.0276
  560TMC3    C2 8357   1.253   2.469  10.581 -0.0697  0.1553  0.4486
  560TMC3    C3 8358   1.315   2.364  10.642  1.2361  0.7114 -0.8117
  560TMC3    C4 8359   1.371   2.625  10.730  0.0536  0.1802  0.1805
  560TMC3    C5 8360   1.416   2.514  10.798  0.3529  0.6188 -0.3331
  560TMC3    C6 8361   1.384   2.384  10.755 -0.8078  0.4841 -0.5013
  560TMC3     C 8362   1.219   2.706  10.566 -0.1964  0.2143 -0.1658
  560TMC3     O 8363   1.270   2.813  10.593 -0.1421 -0.0900 -0.2390
  560TMC3     H 8364   1.205   2.466  10.484 -1.3523  1.8476  1.0159
  560TMC3    H1 8365   1.384   2.726  10.767  0.0259  0.0163  0.6388
  560TMC3    H2 8366   1.434   2.304  10.808  0.2230  0.9443 -0.7756
  560TMC3    C7 8367   1.530   2.529  10.879  0.0913 -0.5607  0.5618
  560TMC3    C8 8368   1.314   2.235  10.577  0.4548  0.4500  0.1552
  560TMC3    O1 8369   1.569   2.644  10.889  0.1786  0.2225  0.0438
  560TMC3    O2 8370   1.388   2.159  10.637 -0.6739  0.5066 -0.5582
  561TMC3    C1 8371   3.757   1.291  11.413 -0.1927 -0.5932 -0.4715
  561TMC3    C2 8372   3.742   1.248  11.541 -0.3783 -0.1809 -0.4417
  561TMC3    C3 8373   3.638   1.302  11.608 -0.2873  0.4075  0.6154
  561TMC3    C4 8374   3.700   1.411  11.363 -0.0439  0.7176 -0.0510
  561TMC3    C5 8375   3.601   1.472  11.436  0.4986  0.1947  0.3001
  561TMC3    C6 8376   3.573   1.419  11.563  0.0135 -0.3114 -0.8662
  561TMC3     C 8377   3.895   1.290  11.365 -0.1358  0.6628  0.1722
  561TMC3     O 8378   3.915   1.286  11.245  0.0821  0.4621  0.5109
  561TMC3     H 8379   3.789   1.163  11.591 -0.0988 -0.0483 -0.4758
  561TMC3    H1 8380   3.738   1.461  11.274 -2.8068  1.4815 -0.8230
  561TMC3    H2 8381   3.507   1.482  11.620  1.8380  0.1790  0.7141
  561TMC3    C7 8382   3.569   1.612  11.424  0.2628  0.1190 -0.3112
  561TMC3    C8 8383   3.596   1.243  11.734  0.0706 -0.5906 -0.6488
  561TMC3    O1 8384   3.484   1.660  11.494  0.2615  0.4188  0.7163
  561TMC3    O2 8385   3.636   1.137  11.773  0.1052 -0.0236  0.0100
  562TMC3    C1 8386   0.061   3.206  16.751  0.2912 -0.5137 -0.4254
  562TMC3    C2 8387   0.026   3.341  16.733  0.3181 -0.4695 -0.1167
  562TMC3    C3 8388   4.706   3.382  16.613  0.2543 -0.0065 -0.0278
  562TMC3    C4 8389   0.039   3.114  16.648 -0.3625 -0.1806  0.3368
  562TMC3    C5 8390   4.728   3.164  16.523  0.6491  0.4271  0.0065
  562TMC3    C6 8391   4.687   3.293  16.513  0.1227  0.2516 -0.3418
  562TMC3     C 8392   0.091   3.165  16.882  0.0613 -0.3117 -0.4119
  562TMC3     O 8393   0.118   3.043  16.896 -0.0297  0.8695 -0.8009
  562TMC3     H 8394   0.003   3.411  16.812  0.3730 -1.4770  0.7904
  562TMC3    H1 8395   0.042   3.007  16.665  1.3859 -0.3924 -1.2520
  562TMC3    H2 8396   4.650   3.327  16.417 -1.6129 -0.0180  0.2451
  562TMC3    C7 8397   4.684   3.074  16.414  0.6355 -0.0554  0.0477
  562TMC3    C8 8398   4.677   3.524  16.598 -1.0461 -0.5814 -0.0408
  562TMC3    O1 8399   4.591   3.120  16.347  0.0025  0.5177 -0.2490
  562TMC3    O2 8400   4.691   3.597  16.699  0.3204  0.3353 -0.4661
  563MPD2     C 8401   2.090   4.434  15.862  0.1354 -0.1519  0.2707
  563MPD2    C1 8402   2.102   4.502  15.976  0.4387 -0.1837  0.0542
  563MPD2    C2 8403   2.221   4.500  16.044 -0.0120  0.6720 -0.2755
  563MPD2    C3 8404   2.330   4.431  15.996  0.9188  0.3248  0.0058
  563MPD2    C4 8405   2.323   4.378  15.870 -0.3927  0.0745  0.4644
  563MPD2    C5 8406   2.197   4.373  15.806 -0.5510  0.1533  0.0786
  563MPD2     H 8407   2.237   4.556  16.136  0.2564 -1.7647  1.1502
  563MPD2    H1 8408   2.399   4.316  15.823 -0.4747  1.7225 -1.8345
  563MPD2    H2 8409   1.991   4.421  15.818  0.4718 -1.0308 -0.2477
  563MPD2    H3 8410   2.182   4.321  15.712 -1.4735  2.0860 -0.8419
  563MPD2     N 8411   2.449   4.431  16.070 -0.0392  0.7964 -0.4670
  563MPD2    H5 8412   2.443   4.486  16.155 -2.7539 -1.1251  0.5839
  563MPD2    N1 8413   1.984   4.566  16.021  0.3290 -0.0251 -0.0625
  563MPD2    H7 8414   1.896   4.548  15.973  0.6394  1.0532 -1.0516
  564TMC3    C1 8415   1.888   4.579  16.236  0.1726 -0.0128  0.2061
  564TMC3    C2 8416   1.775   4.520  16.193  0.1117 -0.1462 -0.3733
  564TMC3    C3 8417   1.731   4.404  16.261 -0.1957  0.4284  0.1917
  564TMC3    C4 8418   1.947   4.543  16.358  1.0875 -0.8118 -0.4394
  564TMC3    C5 8419   1.902   4.432  16.426  0.3869 -0.3747 -0.2719
  564TMC3    C6 8420   1.798   4.355  16.375  0.0896 -0.6724 -0.3709
  564TMC3     C 8421   1.976   4.646  16.135  0.7651  0.2399 -0.0373
  564TMC3     O 8422   2.072   4.702  16.187 -0.4474 -0.1084 -0.6750
  564TMC3     H 8423   1.724   4.545  16.101  1.6961  2.7843 -0.4711
  564TMC3    H1 8424   2.043   4.587  16.384  0.7720  2.2612 -4.2970
  564TMC3    H2 8425   1.778   4.258  16.420 -1.2568  0.1763  0.8186
  564TMC3    C7 8426   2.026   4.348  16.429  0.5617 -0.0621  0.1274
  564TMC3    C8 8427   1.679   4.295  16.184  0.8282  0.4126 -0.2876
  564TMC3    O1 8428   2.120   4.395  16.495  0.2063  0.1991  0.3203
  564TMC3    O2 8429   1.612   4.218  16.247  0.2310 -0.8644 -0.4423
  565TMC3    C1 8430   3.152   0.648  10.224  0.2301 -0.4768  0.5589
  565TMC3    C2 8431   3.139   0.546  10.316 -0.2719 -0.0196  0.4276
  565TMC3    C3 8432   3.062   0.442  10.282  0.0017 -0.3776  0.0076
  565TMC3    C4 8433   3.110   0.651  10.098 -0.6429 -0.5991 -0.4841
  565TMC3    C5 8434   3.041   0.540  10.058 -0.4837 -0.5219 -0.2147
  565TMC3    C6 8435   3.010   0.439  10.149  0.2804 -0.0194 -0.4681
  565TMC3     C 8436   3.218   0.768  10.275 -0.2935 -0.1517 -0.3875
  565TMC3     O 8437   3.217   0.857  10.197 -0.2905 -0.3451 -0.0362
  565TMC3     H 8438   3.168   0.559  10.420 -2.0098 -0.5758  0.9802
  565TMC3    H1 8439   3.144   0.733  10.036  1.1189 -1.3296 -0.4816
  565TMC3    H2 8440   2.955   0.352  10.116 -1.1088 -0.3162  2.6435
  565TMC3    C7 8441   2.968   0.549   9.928 -0.4997  0.8076 -0.5520
  565TMC3    C8 8442   3.049   0.334  10.386  0.4580  0.2279  0.1440
  565TMC3    O1 8443   2.922   0.446   9.887  0.4588 -0.1714  0.0392
  565TMC3    O2 8444   3.092   0.359  10.498  0.4635  0.5516  0.2491
  566MPD2     C 8445   4.357   2.142  13.843 -0.7082  0.3009  0.2445
  566MPD2    C1 8446   4.408   2.268  13.846  0.3207 -0.2689 -0.1278
  566MPD2    C2 8447   4.378   2.351  13.741  0.2874 -0.7395 -0.1554
  566MPD2    C3 8448   4.303   2.314  13.634 -0.5923 -0.7265  0.3918
  566MPD2    C4 8449   4.252   2.190  13.637  0.3360 -0.4040  0.5410
  566MPD2    C5 8450   4.284   2.105  13.736  0.5042  0.4659  0.1400
  566MPD2     H 8451   4.414   2.454  13.736 -1.5011 -0.1422 -0.6099
  566MPD2    H1 8452   4.186   2.166  13.555 -0.1801  1.6366  0.3670
  566MPD2    H2 8453   4.396   2.059  13.901 -0.2674 -1.0940 -2.0404
  566MPD2    H3 8454   4.263   1.999  13.735 -1.9474  0.9810 -1.2632
  566MPD2     N 8455   4.262   2.403  13.529 -0.4991  0.6292 -0.3861
  566MPD2    H5 8456   4.180   2.375  13.475  0.0380  0.9157 -1.3546
  566MPD2    N1 8457   4.485   2.313  13.960  0.3728  0.6769  0.0866
  566MPD2    H7 8458   4.485   2.243  14.033  1.0081  0.4770 -0.1096
  567TMC3    C1 8459   4.633   2.451  14.076 -0.0467 -0.2027  0.2545
  567TMC3    C2 8460   4.718   2.559  14.082  0.0340 -0.3304  0.6830
  567TMC3    C3 8461   0.044   2.589  14.199  0.2374 -0.0256 -0.1198
  567TMC3    C4 8462   4.605   2.381  14.190 -0.3320  0.2274  0.5756
  567TMC3    C5 8463   4.662   2.417  14.304 -0.7513 -0.6465 -0.2350
  567TMC3    C6 8464   0.022   2.516  14.320 -0.4486 -0.3925  0.0045
  567TMC3     C 8465   4.550   2.431  13.960  0.8499  0.3842  0.2382
  567TMC3     O 8466   4.557   2.521  13.880  0.4112  0.2870 -0.2767
  567TMC3     H 8467   0.000   2.611  13.989  0.0360 -0.6720  0.4930
  567TMC3    H1 8468   4.525   2.307  14.193  1.0757 -1.4033 -2.0233
  567TMC3    H2 8469   0.061   2.544  14.417 -0.6738  0.3974 -0.1309
  567TMC3    C7 8470   4.620   2.341  14.423 -0.1434  0.5805 -0.4208
  567TMC3    C8 8471   0.142   2.702  14.199 -0.3907  0.5093 -0.6713
  567TMC3    O1 8472   4.549   2.244  14.404 -0.7435 -0.0565  0.5396
  567TMC3    O2 8473   0.171   2.747  14.094 -0.5320  0.0308 -0.1344
  568MPD2     C 8474   1.935   2.822  16.375  0.2110  0.1125  0.3863
  568MPD2    C1 8475   1.866   2.884  16.478 -0.4528  0.2033 -0.6193
  568MPD2    C2 8476   1.813   3.003  16.443 -0.7356  0.1086 -0.2548
  568MPD2    C3 8477   1.830   3.064  16.324  0.5500  0.6114  0.7518
  568MPD2    C4 8478   1.889   2.999  16.221  0.5588 -0.4907 -0.0420
  568MPD2    C5 8479   1.952   2.879  16.252 -0.0226  0.3045 -0.5238
  568MPD2     H 8480   1.762   3.061  16.520  0.2533  0.6905 -0.0442
  568MPD2    H1 8481   1.905   3.040  16.122  1.4362  2.7251  1.4421
  568MPD2    H2 8482   1.976   2.722  16.382  0.2100  0.0463 -0.4556
  568MPD2    H3 8483   2.017   2.833  16.178  1.2531  0.6086  0.3917
  568MPD2     N 8484   1.780   3.194  16.303 -0.4832  0.4487 -0.0926
  568MPD2    H5 8485   1.742   3.239  16.386  1.1293  1.1216  0.2913
  568MPD2    N1 8486   1.857   2.823  16.604  0.0173  0.2493 -0.3605
  568MPD2    H7 8487   1.912   2.738  16.606 -2.4767 -1.2836  1.3132
  569TMC3    C1 8488   1.745   3.403  16.210 -0.4172  0.0965 -0.6405
  569TMC3    C2 8489   1.751   3.446  16.340 -0.3494  0.4958  0.5589
  569TMC3    C3 8490   1.815   3.574  16.366 -0.3195 -0.1208 -0.1358
  569TMC3    C4 8491   1.812   3.475  16.119 -0.4262  0.1490  0.5488
  569TMC3    C5 8492   1.871   3.597  16.147  0.2269 -0.4126 -1.7360
  569TMC3    C6 8493   1.878   3.654  16.271  0.0298 -0.2556  0.1700
  569TMC3     C 8494   1.764   3.257  16.184 -0.8321  0.1647 -0.4149
  569TMC3     O 8495   1.794   3.220  16.071  0.1852 -0.1941 -0.1383
  569TMC3     H 8496   1.694   3.395  16.417  0.0238 -0.1277  0.4236
  569TMC3    H1 8497   1.803   3.446  16.015  1.9727  0.8888  0.1178
  569TMC3    H2 8498   1.946   3.737  16.284 -2.1595  1.8980 -2.2002
  569TMC3    C7 8499   1.869   3.680  16.032 -0.2847 -0.4297 -0.5557
  569TMC3    C8 8500   1.777   3.641  16.482  0.2415  0.1315  0.2043
  569TMC3    O1 8501   1.882   3.635  15.918  0.5823  0.1358 -0.2790
  569TMC3    O2 8502   1.689   3.593  16.552  0.4100 -0.6472 -0.1721
  570TMC3    C1 8503   1.383   2.114  15.936 -0.2114  0.5210  0.0664
  570TMC3    C2 8504   1.475   2.132  15.836  0.4383  1.0427  0.3143
  570TMC3    C3 8505   1.546   2.251  15.842  0.9043 -0.3851 -0.3470
  570TMC3    C4 8506   1.362   2.204  16.034  0.4216  0.7552  0.9320
  570TMC3    C5 8507   1.435   2.324  16.032 -0.1947 -0.0037 -0.3486
  570TMC3    C6 8508   1.522   2.348  15.933  0.1386 -0.0423  0.2752
  570TMC3     C 8509   1.303   1.988  15.930  0.2203  0.3757  0.1993
  570TMC3     O 8510   1.299   1.933  15.824  0.2161 -0.0915  0.6277
  570TMC3     H 8511   1.488   2.053  15.762  0.3947  1.6582 -0.3459
  570TMC3    H1 8512   1.293   2.192  16.117  0.1424 -0.8880  0.4643
  570TMC3    H2 8513   1.587   2.434  15.942 -0.8346  0.6520  0.6222
  570TMC3    C7 8514   1.415   2.419  16.133 -0.3801  0.0018 -0.7243
  570TMC3    C8 8515   1.673   2.259  15.766  0.0303 -0.7287 -0.2279
  570TMC3    O1 8516   1.372   2.376  16.241  0.4845  0.3638  0.2586
  570TMC3    O2 8517   1.736   2.365  15.773 -0.0859 -0.1346 -0.1302
  571MPD2     C 8518   4.066   3.597  17.584 -0.2623  0.3016 -0.4420
  571MPD2    C1 8519   4.085   3.580  17.722 -0.0428  0.4829  0.5818
  571MPD2    C2 8520   4.197   3.646   0.035  0.6807  0.5311  0.1362
  571MPD2    C3 8521   4.275   3.730  17.702 -0.3005 -0.8473 -0.2221
  571MPD2    C4 8522   4.253   3.741  17.569  0.2591 -0.1827 -0.3385
  571MPD2    C5 8523   4.148   3.680  17.517  0.1326 -0.0859  0.6924
  571MPD2     H 8524   4.217   3.621   0.138 -1.7091 -0.6568  0.3269
  571MPD2    H1 8525   4.318   3.798  17.504  1.2567  0.6189  1.3514
  571MPD2    H2 8526   3.980   3.566  17.525 -0.3665 -1.1573  0.4880
  571MPD2    H3 8527   4.132   3.702  17.413 -1.1405 -2.4802  0.3680
  571MPD2     N 8528   4.378   3.815   0.008  0.0650 -0.8664 -0.3476
  571MPD2    H5 8529   4.430   3.864  17.680  0.6102  1.3557  1.5414
  571MPD2    N1 8530   4.000   3.492   0.050 -0.1801 -0.1399 -0.1779
  571MPD2    H7 8531   3.932   3.432   0.003 -0.3315 -1.2660  1.4465
  572TMC3    C1 8532   4.552   3.900   0.147  0.8236 -0.0231 -0.2869
  572TMC3    C2 8533   4.609   3.901   0.267 -0.6263 -0.2925 -0.6491
  572TMC3    C3 8534   4.693   4.003   0.296  0.9930 -0.3207 -0.0655
  572TMC3    C4 8535   4.577   4.000   0.055 -0.1935  0.1390 -0.5233
  572TMC3    C5 8536   4.676   4.092   0.078  0.6929  0.0965 -0.0102
  572TMC3    C6 8537   4.734   4.093   0.199  0.3793  0.2431 -0.4037
  572TMC3     C 8538   4.425   3.817   0.136  0.0171 -0.7108 -0.1851
  572TMC3     O 8539   4.398   3.746   0.232 -0.1819 -0.3252  0.0052
  572TMC3     H 8540   4.557   3.857   0.352 -1.0625 -0.1282 -0.8323
  572TMC3    H1 8541   4.518   4.005  17.709  0.0658 -0.4280 -0.7274
  572TMC3    H2 8542   0.076   4.158   0.236 -1.2021  1.7882  0.2567
  572TMC3    C7 8543   4.677   4.211  17.736 -0.1160 -0.8690  0.3569
  572TMC3    C8 8544   0.007   4.028   0.433  0.6039  0.5736  0.1470
  572TMC3    O1 8545   4.595   4.227  17.647 -0.0549 -0.1242  0.2108
  572TMC3    O2 8546   0.066   4.134   0.448 -0.2515 -0.1421  0.2447
  573MPD2     C 8547   0.493   4.466   1.048  0.0422  0.6774 -0.0953
  573MPD2    C1 8548   0.459   4.600   1.041 -0.8743  0.1509  0.6195
  573MPD2    C2 8549   0.406   4.655   0.927  0.7812 -0.3957  0.3526
  573MPD2    C3 8550   0.369   4.572   0.825 -0.4481  0.1127 -0.1324
  573MPD2    C4 8551   0.362   4.438   0.856  0.0723 -0.2936 -0.0872
  573MPD2    C5 8552   0.429   4.381   0.963  0.1729 -0.0782  0.7483
  573MPD2     H 8553   0.393   0.024   0.904  0.1931 -0.6309 -0.4178
  573MPD2    H1 8554   0.328   4.366   0.783  2.5785 -2.1011  0.5206
  573MPD2    H2 8555   0.546   4.418   1.129  1.9625 -0.2652 -1.8973
  573MPD2    H3 8556   0.432   4.273   0.971 -0.2639 -0.1978 -0.7491
  573MPD2     N 8557   0.322   4.612   0.696 -0.1027 -0.4811  0.1233
  573MPD2    H5 8558   0.279   4.539   0.639  0.7299 -1.8128  1.1883
  573MPD2    N1 8559   0.498   4.672   1.151 -0.2966 -0.6588 -0.3380
  573MPD2    H7 8560   0.534   4.620   1.231  2.0783  2.9387  0.9202
  574TMC3    C1 8561   0.284   0.007   0.500  0.4958  0.3253 -0.3518
  574TMC3    C2 8562   0.345   0.079   0.404  0.0326  0.3971  0.6081
  574TMC3    C3 8563   0.296   0.074   0.277 -0.1554  0.3252 -0.5405
  574TMC3    C4 8564   0.181   4.663   0.468  0.9214 -0.4736  0.1381
  574TMC3    C5 8565   0.120   4.675   0.350 -0.3700  0.0591  0.1633
  574TMC3    C6 8566   0.183   0.005   0.249  1.3928 -1.0443  0.4329
  574TMC3     C 8567   0.338   4.736   0.638 -0.3981 -0.1752  0.3214
  574TMC3     O 8568   0.407   0.091   0.681  0.7565 -0.9612 -0.0885
  574TMC3     H 8569   0.441   0.126   0.419  0.1648 -0.4825  2.4984
  574TMC3    H1 8570   0.127   4.610   0.546 -0.6063  0.8411 -0.0349
  574TMC3    H2 8571   0.149   0.002   0.146 -3.6458 -3.0184  2.1243
  574TMC3    C7 8572   0.003   4.605   0.308  0.1953  0.0603  0.5228
  574TMC3    C8 8573   0.381   0.104   0.161  0.4328  0.1660  0.2301
  574TMC3    O1 8574   4.672   4.642   0.210  0.1883 -0.3722  0.0373
  574TMC3    O2 8575   0.500   0.069   0.171  0.1295  0.6264 -0.2154
  575TMC3    C1 8576   3.009   0.094  11.210  0.3600 -0.2377 -0.1732
  575TMC3    C2 8577   2.934   4.718  11.254 -0.4489 -0.0187 -0.1796
  575TMC3    C3 8578   2.884   4.634  11.160 -0.2646 -0.2608  0.4199
  575TMC3    C4 8579   3.032   0.115  11.076  1.1273 -0.3266 -0.5963
  575TMC3    C5 8580   2.984   0.021  10.984 -0.6402  0.4385  0.6431
  575TMC3    C6 8581   2.900   4.654  11.022 -0.3021  0.2802  0.1400
  575TMC3     C 8582   3.064   0.181  11.310  0.1401 -0.3128 -0.3790
  575TMC3     O 8583   3.080   0.127  11.420  0.3817  0.0274  0.3268
  575TMC3     H 8584   2.919   4.698  11.360 -0.0011 -1.5086 -0.4047
  575TMC3    H1 8585   3.096   0.193  11.038  1.1126  0.0648  0.1670
  575TMC3    H2 8586   2.844   4.583  10.960 -0.4666  1.7035 -1.3442
  575TMC3    C7 8587   3.011   0.048  10.843 -0.4366 -0.7158  0.2674
  575TMC3    C8 8588   2.803   4.528  11.199 -0.7040 -0.3708 -0.0290
  575TMC3    O1 8589   3.071   0.154  10.816 -0.1162  0.0093  0.0477
  575TMC3    O2 8590   2.807   4.430  11.124  1.0412 -0.0764  0.5280
  576MPD2     C 8591   2.799   2.002  12.730 -0.2176  0.1868 -0.4381
  576MPD2    C1 8592   2.856   2.062  12.622 -0.7131 -0.1778  0.2207
  576MPD2    C2 8593   2.867   2.202  12.627 -0.2356  0.7004 -0.6202
  576MPD2    C3 8594   2.832   2.272  12.740 -0.2964  0.2281 -0.4393
  576MPD2    C4 8595   2.761   2.211  12.844  0.6349  0.0084  0.0608
  576MPD2    C5 8596   2.741   2.076  12.828  0.6394 -0.5371  0.0775
  576MPD2     H 8597   2.924   2.253  12.550  2.9019 -0.9730  0.5691
  576MPD2    H1 8598   2.745   2.251  12.944 -0.0261  0.4346 -0.2188
  576MPD2    H2 8599   2.777   1.896  12.729 -0.6216  0.2681 -0.4106
  576MPD2    H3 8600   2.696   2.011  12.903 -1.4401  0.0319 -0.6749
  576MPD2     N 8601   2.874   2.407  12.745  0.1383  0.9776  0.1778
  576MPD2    H5 8602   2.938   2.434  12.671 -1.2434 -1.3620 -1.8844
  576MPD2    N1 8603   2.908   1.993  12.513  0.6094 -0.1035  0.0061
  576MPD2    H7 8604   2.924   2.044  12.427 -2.6397 -1.1080 -1.1722
  577TMC3    C1 8605   2.994   1.809  12.401 -0.1682  0.2416  0.2662
  577TMC3    C2 8606   3.088   1.707  12.396 -0.2858  0.1903  0.1338
  577TMC3    C3 8607   3.120   1.653  12.275  0.1861  0.0837 -0.5626
  577TMC3    C4 8608   2.934   1.857  12.292 -0.6259 -0.6819 -0.2456
  577TMC3    C5 8609   2.963   1.795  12.174 -0.2047  0.2536 -0.2697
  577TMC3    C6 8610   3.056   1.699  12.163  0.7270  0.3929  0.0517
  577TMC3     C 8611   2.953   1.864  12.521 -0.8685 -0.4422 -0.5802
  577TMC3     O 8612   3.001   1.807  12.616 -0.4010  0.2166  0.1467
  577TMC3     H 8613   3.123   1.653  12.484  0.0331  0.5487  0.2248
  577TMC3    H1 8614   2.860   1.937  12.290 -1.0421 -1.0471  0.6564
  577TMC3    H2 8615   3.061   1.639  12.073 -0.3262 -2.0551  1.6095
  577TMC3    C7 8616   2.896   1.843  12.056 -0.0246 -0.5519  0.1754
  577TMC3    C8 8617   3.214   1.541  12.270  0.3529 -0.3177  0.4016
  577TMC3    O1 8618   2.794   1.906  12.085  0.1426 -0.4449  0.2656
  577TMC3    O2 8619   3.250   1.496  12.373 -0.3527 -0.2422  0.1434
  578MPD2     C 8620   1.244   1.804   1.368  0.8926 -0.3302  0.5932
  578MPD2    C1 8621   1.305   1.784   1.249  0.1561 -0.0221  0.1944
  578MPD2    C2 8622   1.423   1.719   1.237  0.2108 -0.0582 -1.1384
  578MPD2    C3 8623   1.482   1.663   1.347  0.1597 -0.5471  0.8584
  578MPD2    C4 8624   1.405   1.666   1.465 -0.1645 -0.6766 -0.4295
  578MPD2    C5 8625   1.287   1.733   1.480  0.1288  0.1956 -0.0234
  578MPD2     H 8626   1.469   1.703   1.140  2.6890 -1.4495  0.2891
  578MPD2    H1 8627   1.445   1.627   1.558  2.0294 -0.8972 -1.4637
  578MPD2    H2 8628   1.152   1.862   1.371  0.7432 -0.5494  0.2660
  578MPD2    H3 8629   1.232   1.734   1.574  0.8583  0.4008  0.4028
  578MPD2     N 8630   1.609   1.599   1.335 -0.1831 -0.2648  0.3331
  578MPD2    H5 8631   1.641   1.596   1.239 -4.4175 -3.4939 -1.0056
  578MPD2    N1 8632   1.237   1.844   1.139 -0.2217  0.3121  0.5330
  578MPD2    H7 8633   1.157   1.903   1.156 -0.0379  1.0401 -1.1611
  579TMC3    C1 8634   1.800   1.467   1.393 -0.3911 -0.1423 -0.2402
  579TMC3    C2 8635   1.908   1.451   1.476 -0.0784  0.2439 -0.1441
  579TMC3    C3 8636   2.004   1.359   1.441  0.3537 -0.4826 -0.1680
  579TMC3    C4 8637   1.782   1.386   1.277  0.1145  0.2356  0.1924
  579TMC3    C5 8638   1.882   1.291   1.245 -0.4418  0.0949  0.2435
  579TMC3    C6 8639   1.998   1.292   1.319  0.2497 -0.2112  0.5727
  579TMC3     C 8640   1.689   1.549   1.437 -0.6071 -0.3077  0.2971
  579TMC3     O 8641   1.674   1.558   1.556  0.5983 -0.1992  0.1203
  579TMC3     H 8642   1.919   1.506   1.568 -0.8313  0.0385  0.0717
  579TMC3    H1 8643   1.691   1.401   1.221  1.1115  1.7621 -1.0105
  579TMC3    H2 8644   2.068   1.216   1.287  0.6894 -0.5141  2.2519
  579TMC3    C7 8645   1.853   1.182   1.153 -0.3837 -0.3920 -0.4538
  579TMC3    C8 8646   2.140   1.373   1.489 -0.2125 -0.4237  0.2289
  579TMC3    O1 8647   1.939   1.097   1.141  0.5161  0.4234  0.2249
  579TMC3    O2 8648   2.155   1.383   1.607 -0.4845 -0.1317  0.0093
  580TMC3    C1 8649   1.335   1.816  11.918 -0.3384  0.0190 -0.7037
  580TMC3    C2 8650   1.456   1.855  11.878 -0.2316 -0.2774  0.5680
  580TMC3    C3 8651   1.554   1.760  11.875 -0.1245 -0.5795 -0.3097
  580TMC3    C4 8652   1.303   1.690  11.957  0.4934  0.6353  0.2123
  580TMC3    C5 8653   1.404   1.602  11.970  0.3478  0.0321 -0.1036
  580TMC3    C6 8654   1.531   1.635  11.925 -0.3001  0.1818  0.5903
  580TMC3     C 8655   1.229   1.899  11.869 -0.0911  0.2104  0.6030
  580TMC3     O 8656   1.121   1.887  11.930 -0.1680  0.7903  1.0811
  580TMC3     H 8657   1.486   1.950  11.834  3.0292 -0.4333  2.4571
  580TMC3    H1 8658   1.201   1.659  11.977  0.2538  0.7691 -0.8041
  580TMC3    H2 8659   1.611   1.567  11.949 -3.2333 -3.0753  1.1075
  580TMC3    C7 8660   1.372   1.473  12.030 -1.0737 -0.2343  0.2741
  580TMC3    C8 8661   1.677   1.779  11.797 -0.0528 -0.0842  0.1923
  580TMC3    O1 8662   1.462   1.412  12.089  0.1572 -0.9329  0.1182
  580TMC3    O2 8663   1.724   1.892  11.786 -0.5375 -0.3604  0.7618
  581MPD2     C 8664   3.451   0.892  14.933  0.4167  0.7208 -0.4412
  581MPD2    C1 8665   3.314   0.878  14.941 -0.0189 -0.2431 -0.3060
  581MPD2    C2 8666   3.237   0.953  14.853 -0.4840 -0.3882  0.0132
  581MPD2    C3 8667   3.286   1.044  14.758 -0.6129  0.0802 -0.1605
  581MPD2    C4 8668   3.422   1.062  14.753 -0.0052  0.2939 -0.1305
  581MPD2    C5 8669   3.500   0.983  14.843  0.2979 -0.0511  0.0786
  581MPD2     H 8670   3.129   0.941  14.861 -0.8008  0.6718 -2.7145
  581MPD2    H1 8671   3.474   1.133  14.689  2.3423 -0.4132  0.9970
  581MPD2    H2 8672   3.514   0.827  14.993 -1.8631  0.3733  1.6134
  581MPD2    H3 8673   3.608   0.988  14.844  0.3092 -0.3427  0.7058
  581MPD2     N 8674   3.189   1.099  14.675  0.0995 -0.0018 -0.0888
  581MPD2    H5 8675   3.093   1.094  14.710 -0.1265 -2.2071 -1.0204
  581MPD2    N1 8676   3.267   0.801  15.039  0.1161 -0.3976 -0.6982
  581MPD2    H7 8677   3.333   0.749  15.096 -0.6864 -2.0316 -1.2414
  582TMC3    C1 8678   3.114   0.672  15.157  0.3291 -0.0189  0.6458
  582TMC3    C2 8679   3.165   0.698  15.278 -0.3824  0.8455 -0.1628
  582TMC3    C3 8680   3.086   0.682  15.388 -0.5216  0.5173  0.6873
  582TMC3    C4 8681   2.983   0.627  15.135  0.2417  0.2013  0.0419
  582TMC3    C5 8682   2.909   0.627  15.246  0.2552 -0.3938  0.1547
  582TMC3    C6 8683   2.950   0.649  15.375 -0.7221  0.3124 -0.0984
  582TMC3     C 8684   3.136   0.773  15.052  0.0509  0.8523 -0.2942
  582TMC3     O 8685   3.035   0.823  15.007 -0.6236 -0.2900  0.8671
  582TMC3     H 8686   3.260   0.751  15.280 -0.2738  0.6485 -0.0974
  582TMC3    H1 8687   2.945   0.605  15.036 -0.4088  2.8759 -0.2877
  582TMC3    H2 8688   2.884   0.646  15.461 -1.9691  2.6512 -0.9737
  582TMC3    C7 8689   2.786   0.688  15.228 -0.9079 -0.5548 -0.6355
  582TMC3    C8 8690   3.129   0.739  15.516  0.1474 -0.1834  0.1261
  582TMC3    O1 8691   2.689   0.652  15.290 -0.1183  0.1500  0.1005
  582TMC3    O2 8692   3.043   0.744  15.607 -0.3783  0.5412 -0.0263
  583MPD2     C 8693   3.189   2.562  16.649 -0.4485 -0.3757 -0.1167
  583MPD2    C1 8694   3.190   2.688  16.603 -0.0668 -0.2120  0.0027
  583MPD2    C2 8695   3.138   2.795  16.680  0.4770 -0.0101 -0.2674
  583MPD2    C3 8696   3.103   2.775  16.806 -0.0063  0.6526 -0.3140
  583MPD2    C4 8697   3.111   2.647  16.856 -0.2927 -0.6854  0.8812
  583MPD2    C5 8698   3.154   2.546  16.775  0.0207  0.1518 -0.1838
  583MPD2     H 8699   3.144   2.893  16.635  0.3008  1.3728  2.7017
  583MPD2    H1 8700   3.087   2.614  16.956  0.7337 -0.0038  1.3530
  583MPD2    H2 8701   3.216   2.474  16.591  0.6566 -0.4827  0.5595
  583MPD2    H3 8702   3.158   2.446  16.818 -0.6435 -0.8713 -2.5004
  583MPD2     N 8703   3.044   2.881  16.871  0.1510  0.3453  0.4344
  583MPD2    H5 8704   3.039   2.974  16.830 -3.1058  0.2849  0.6779
  583MPD2    N1 8705   3.255   2.721  16.479 -0.5301  0.0921  0.1452
  583MPD2    H7 8706   3.253   2.819  16.456 -1.8177  0.2448  0.9321
  584TMC3    C1 8707   2.950   2.990  17.066 -0.5690 -0.6390 -0.2996
  584TMC3    C2 8708   2.961   3.113  17.005 -0.5090 -0.7829 -0.6512
  584TMC3    C3 8709   2.925   3.225  17.082  0.3148 -0.5058  0.5526
  584TMC3    C4 8710   2.910   2.981  17.195  0.3941 -0.0164 -0.3068
  584TMC3    C5 8711   2.870   3.090  17.264  0.3698 -0.8041  0.0304
  584TMC3    C6 8712   2.868   3.212  17.207 -0.3760  0.1899  0.1511
  584TMC3     C 8713   3.012   2.874  17.005 -0.4090  0.6382 -0.0540
  584TMC3     O 8714   3.000   2.778  17.080 -0.3516  0.4505 -0.5018
  584TMC3     H 8715   2.983   3.134  16.900  0.0486  0.9050 -0.2041
  584TMC3    H1 8716   2.896   2.881  17.236  0.7023  1.3880  3.2444
  584TMC3    H2 8717   2.853   3.304  17.262  1.0496  1.2873 -1.3119
  584TMC3    C7 8718   2.812   3.072  17.395 -0.1308  0.8001 -0.0447
  584TMC3    C8 8719   2.938   3.362  17.026 -0.6672  0.2345 -0.6087
  584TMC3    O1 8720   2.850   2.975  17.464  0.1792 -0.6517 -0.0895
  584TMC3    O2 8721   2.902   3.386  16.909 -0.4434  0.0293 -0.2831
  585MPD2     C 8722   2.355   1.817   0.224  0.2420 -0.6032  0.6147
  585MPD2    C1 8723   2.293   1.911   0.143  0.7865  0.0481 -0.1933
  585MPD2    C2 8724   2.256   1.860   0.016 -0.0139 -0.2822  0.6939
  585MPD2    C3 8725   2.284   1.730  17.718  0.5332 -0.9259  0.4714
  585MPD2    C4 8726   2.354   1.647   0.054 -0.8779  0.2498 -0.6902
  585MPD2    C5 8727   2.385   1.685   0.180 -0.3867 -0.2116  0.4243
  585MPD2     H 8728   2.213   1.928  17.687 -0.6872 -0.2763  1.0870
  585MPD2    H1 8729   2.389   1.547   0.028 -1.6538 -0.1721 -0.1191
  585MPD2    H2 8730   2.388   1.833   0.326  0.4993  1.0218  0.2897
  585MPD2    H3 8731   2.430   1.608   0.241 -0.7091 -1.8046 -1.3554
  585MPD2     N 8732   2.253   1.692  17.587 -0.5875 -0.2290 -0.4187
  585MPD2    H5 8733   2.272   1.597  17.558 -0.0427 -0.8610  1.9681
  585MPD2    N1 8734   2.262   2.043   0.190 -0.1326 -0.1983  0.1489
  585MPD2    H7 8735   2.311   2.082   0.270  1.2263 -2.4412  0.4108
  586TMC3    C1 8736   2.172   1.689  17.363 -0.4959  1.0979  0.3840
  586TMC3    C2 8737   2.232   1.730  17.247  0.0337 -0.0956 -0.1142
  586TMC3    C3 8738   2.242   1.647  17.141  0.3257  0.3611 -0.0100
  586TMC3    C4 8739   2.119   1.561  17.370  0.5661  0.1697  0.8903
  586TMC3    C5 8740   2.123   1.491  17.252  0.3179  0.0651  0.1302
  586TMC3    C6 8741   2.177   1.528  17.133 -0.9820 -0.6320  0.2454
  586TMC3     C 8742   2.198   1.769  17.484  1.0971  0.0113 -0.2343
  586TMC3     O 8743   2.176   1.891  17.479  0.5329 -0.0045 -0.1287
  586TMC3     H 8744   2.276   1.829  17.244 -1.4449  0.5945  0.8947
  586TMC3    H1 8745   2.054   1.531  17.451  0.5480  0.2279  0.8972
  586TMC3    H2 8746   2.179   1.456  17.052  2.1019  0.6091 -0.7759
  586TMC3    C7 8747   2.017   1.393  17.249 -0.3623  0.2584  0.0261
  586TMC3    C8 8748   2.348   1.664  17.048  0.5408 -0.3533  0.3664
  586TMC3    O1 8749   1.981   1.343  17.358 -0.4750  0.7368 -0.3500
  586TMC3    O2 8750   2.362   1.778  17.004  0.2445 -0.5499  0.1475
  587TMC3    C1 8751   4.225   0.384  15.884  0.3963 -0.5523 -0.6687
  587TMC3    C2 8752   4.326   0.478  15.894 -0.4207  0.7372  0.3994
  587TMC3    C3 8753   4.446   0.440  15.944  0.7437 -0.0325  0.5520
  587TMC3    C4 8754   4.244   0.252  15.920 -0.3253 -0.0034  0.5689
  587TMC3    C5 8755   4.366   0.220  15.964  0.6557  0.7170 -0.2878
  587TMC3    C6 8756   4.468   0.309  15.981  0.3555  0.8055 -0.4294
  587TMC3     C 8757   4.097   0.441  15.849  0.4469 -0.2349 -0.9201
  587TMC3     O 8758   4.103   0.548  15.790  0.0056  0.2400 -0.0375
  587TMC3     H 8759   4.313   0.576  15.849  0.3481  0.2800 -0.8211
  587TMC3    H1 8760   4.175   0.174  15.891 -0.9052  0.5314  0.5154
  587TMC3    H2 8761   4.553   0.284  16.044  1.1143  0.8914 -1.4125
  587TMC3    C7 8762   4.391   0.083  16.001 -0.3386 -0.0920  0.2481
  587TMC3    C8 8763   4.528   0.541  16.015  0.3803  0.1677 -0.4105
  587TMC3    O1 8764   4.295   0.016  16.044 -0.5996 -0.0255  0.0145
  587TMC3    O2 8765   4.639   0.499  16.054 -0.3303  0.5232  0.2828
  588TMC3    C1 8766   2.358   2.975  10.290 -0.6123 -0.1310  0.4434
  588TMC3    C2 8767   2.301   2.861  10.241  0.5611 -0.0015 -0.1620
  588TMC3    C3 8768   2.384   2.756  10.222  0.8824 -0.4130  0.5691
  588TMC3    C4 8769   2.482   2.987  10.327  0.2862 -0.1605 -0.5862
  588TMC3    C5 8770   2.560   2.877  10.301  0.0704  0.3282  0.4526
  588TMC3    C6 8771   2.519   2.754  10.252 -0.0331 -0.1545  0.3145
  588TMC3     C 8772   2.265   3.087  10.289 -0.0172  0.2622  0.4246
  588TMC3     O 8773   2.176   3.087  10.207 -0.1408 -0.0152 -0.2501
  588TMC3     H 8774   2.194   2.852  10.226  0.2575 -1.2401  2.7544
  588TMC3    H1 8775   2.517   3.084  10.361  2.4704 -1.1233 -0.1117
  588TMC3    H2 8776   2.587   2.672  10.231 -1.1234 -1.2846  1.2092
  588TMC3    C7 8777   2.707   2.891  10.334  0.1016 -0.2288 -0.3128
  588TMC3    C8 8778   2.330   2.640  10.158  0.7393 -1.1587  0.2683
  588TMC3    O1 8779   2.774   2.815  10.262  0.1897  0.0661 -0.2172
  588TMC3    O2 8780   2.228   2.649  10.096 -0.6395  0.1320  0.1362
  589TMC3    C1 8781   1.413   0.153   0.899 -0.2103  0.8961  0.2518
  589TMC3    C2 8782   1.542   0.138   0.946  0.4097 -0.3466  0.7528
  589TMC3    C3 8783   1.622   0.066   0.866  0.1794  0.0000  0.0009
  589TMC3    C4 8784   1.364   0.085   0.792  0.1591 -0.3394 -0.0273
  589TMC3    C5 8785   1.454   0.015   0.719 -0.1003 -0.2809 -0.1025
  589TMC3    C6 8786   1.581   4.731   0.760  0.1556 -0.1793  0.7024
  589TMC3     C 8787   1.314   0.216   0.989 -0.0381  0.0687  0.5079
  589TMC3     O 8788   1.198   0.186   0.972  0.0049  0.4112 -0.3466
  589TMC3     H 8789   1.580   0.194   1.031  2.4539 -2.9597  1.5537
  589TMC3    H1 8790   1.262   0.105   0.762 -0.3227 -0.9995  1.1482
  589TMC3    H2 8791   1.649   4.662   0.711 -0.5740 -0.2166 -0.2621
  589TMC3    C7 8792   1.388   4.649   0.647 -0.5269  0.0939 -0.2841
  589TMC3    C8 8793   1.729   4.731   0.943  0.0993 -0.2816  0.4632
  589TMC3    O1 8794   1.278   4.623   0.696 -0.0814 -0.3429  0.5955
  589TMC3    O2 8795   1.721   4.729   1.065  0.0461  0.2249  0.3665
  590MPD2     C 8796   1.007   3.335  16.733 -0.8896  0.2062  0.7263
  590MPD2    C1 8797   0.968   3.377  16.607 -0.3218  0.6206 -0.0983
  590MPD2    C2 8798   1.058   3.440  16.527  0.6799 -0.1980 -0.2241
  590MPD2    C3 8799   1.188   3.467  16.565  0.4025  0.0946  0.2154
  590MPD2    C4 8800   1.222   3.438  16.700 -0.6094 -0.0776  0.5771
  590MPD2    C5 8801   1.133   3.368  16.775  0.7288 -0.5689  0.3078
  590MPD2     H 8802   1.030   3.473  16.428  1.2355 -0.0535 -0.3311
  590MPD2    H1 8803   1.319   3.462  16.742  0.6738 -0.8174 -1.9663
  590MPD2    H2 8804   0.938   3.284  16.801 -1.0433  0.1407  0.5198
  590MPD2    H3 8805   1.154   3.349  16.880  1.7018 -0.2004  0.1795
  590MPD2     N 8806   1.260   3.559  16.483 -0.3348  0.3507 -0.7682
  590MPD2    H5 8807   1.226   3.557  16.387 -1.7668  0.2577 -0.2659
  590MPD2    N1 8808   0.843   3.329  16.565  0.4125  0.1846 -0.2684
  590MPD2    H7 8809   0.788   3.271  16.628 -1.4655  0.4549 -1.6448
  591TMC3    C1 8810   1.375   3.753  16.436  0.2185 -0.9232 -0.1242
  591TMC3    C2 8811   1.383   3.708  16.306 -0.0319 -0.3193  0.0028
  591TMC3    C3 8812   1.419   3.806  16.217 -0.2527 -0.7828 -0.0129
  591TMC3    C4 8813   1.361   3.872  16.472 -0.0706  0.2716  0.1283
  591TMC3    C5 8814   1.377   3.973  16.380 -0.3874 -0.8036 -0.2091
  591TMC3    C6 8815   1.416   3.940  16.248 -0.0149 -0.2419  0.0843
  591TMC3     C 8816   1.336   3.658  16.539  0.1127  0.1992  0.1441
  591TMC3     O 8817   1.352   3.685  16.655  0.4016 -0.2282 -0.0841
  591TMC3     H 8818   1.387   3.602  16.283  0.9348 -0.4171  0.5966
  591TMC3    H1 8819   1.326   3.889  16.573  0.4267  1.0171  0.1769
  591TMC3    H2 8820   1.419   4.020  16.175 -0.4339  0.5169  0.8952
  591TMC3    C7 8821   1.290   4.087  16.405  0.2330 -0.0047  0.5477
  591TMC3    C8 8822   1.485   3.774  16.096  0.1547 -0.1382  0.1417
  591TMC3    O1 8823   1.197   4.079  16.483 -0.6802 -0.0797  0.0145
  591TMC3    O2 8824   1.553   3.672  16.091  0.3726  0.0939 -0.0480
  592MPD2     C 8825   1.442   0.731  11.461  0.5379 -0.1167 -0.6125
  592MPD2    C1 8826   1.479   0.800  11.574 -0.6283 -0.2462  0.3425
  592MPD2    C2 8827   1.427   0.764  11.694 -0.4093 -0.2524 -0.2205
  592MPD2    C3 8828   1.354   0.641  11.700 -0.4162 -0.4786  0.0093
  592MPD2    C4 8829   1.329   0.567  11.590 -0.4006  0.1670 -0.2628
  592MPD2    C5 8830   1.367   0.619  11.468 -0.1981  0.2639 -0.2216
  592MPD2     H 8831   1.443   0.807  11.792 -1.5637 -0.5118  0.0771
  592MPD2    H1 8832   1.291   0.466  11.582  0.2464  0.1635 -3.3469
  592MPD2    H2 8833   1.479   0.770  11.366  0.2969  1.8931  0.1223
  592MPD2    H3 8834   1.344   0.569  11.375  1.7708 -0.2732 -0.4271
  592MPD2     N 8835   1.293   0.610  11.823  0.4261 -0.0231 -0.3954
  592MPD2    H5 8836   1.304   0.683  11.893 -0.1817  1.6421 -2.0337
  592MPD2    N1 8837   1.568   0.909  11.550 -0.2368 -0.1501 -0.0700
  592MPD2    H7 8838   1.609   0.927  11.459 -0.1378 -1.3163 -0.2545
  593TMC3    C1 8839   1.734   1.061  11.613  0.7396  0.0130 -0.6420
  593TMC3    C2 8840   1.780   1.158  11.697  0.7079  1.0872  0.1876
  593TMC3    C3 8841   1.913   1.200  11.698 -0.3951  0.4055 -0.0080
  593TMC3    C4 8842   1.829   1.000  11.530  0.1535  0.1569  0.5726
  593TMC3    C5 8843   1.964   1.039  11.535 -0.3315  0.6185  0.4304
  593TMC3    C6 8844   2.006   1.144  11.613  0.1483  0.0497 -0.3662
  593TMC3     C 8845   1.611   0.993  11.650 -0.1377 -0.4477  0.1584
  593TMC3     O 8846   1.563   1.020  11.757 -0.5601  0.2786  0.2720
  593TMC3     H 8847   1.705   1.210  11.756 -0.8956 -0.1736 -0.7234
  593TMC3    H1 8848   1.802   0.905  11.484 -1.9100  0.5016  1.0479
  593TMC3    H2 8849   2.106   1.184  11.608 -0.6314  1.8437 -1.8945
  593TMC3    C7 8850   2.052   0.999  11.429  0.6282 -0.0696  0.2947
  593TMC3    C8 8851   1.940   1.324  11.775 -0.0989  0.5924  0.7007
  593TMC3    O1 8852   2.152   1.070  11.419  0.3005 -0.7367  0.5882
  593TMC3    O2 8853   1.859   1.358  11.856 -0.2790 -0.0401 -0.1514
  594MPD2     C 8854   0.344   4.292  15.050  0.1399  0.2996 -0.8723
  594MPD2    C1 8855   0.281   4.293  14.929  0.7026 -0.0360  0.3449
  594MPD2    C2 8856   0.343   4.366  14.826  0.4247  0.2892  0.0355
  594MPD2    C3 8857   0.471   4.418  14.842  0.2990  0.7614  0.6695
  594MPD2    C4 8858   0.533   4.408  14.961 -0.2764  0.7261 -0.7963
  594MPD2    C5 8859   0.465   4.350  15.063  0.1958 -0.2641 -0.2611
  594MPD2     H 8860   0.303   4.374  14.725  0.3666  0.2680  0.0572
  594MPD2    H1 8861   0.625   4.457  14.991  0.3055 -1.0153  0.2755
  594MPD2    H2 8862   0.310   4.243  15.140  1.0906  0.7395 -0.2688
  594MPD2    H3 8863   0.500   4.352  15.166 -0.0300 -0.3738 -0.1815
  594MPD2     N 8864   0.534   4.494  14.742 -0.4081 -0.1162 -0.6239
  594MPD2    H5 8865   0.472   4.529  14.670 -2.5153  0.0912  1.2883
  594MPD2    N1 8866   0.151   4.232  14.920  0.8180  0.0010 -0.3364
  594MPD2    H7 8867   0.119   4.179  15.000 -0.8601  1.3541 -0.1072
  595TMC3    C1 8868   0.860   4.703  14.490  1.0787  0.0127 -0.2864
  595TMC3    C2 8869   0.828   4.617  14.583  0.5589 -0.0821  0.1046
  595TMC3    C3 8870   0.695   4.605  14.621  0.0131 -1.3803 -0.0643
  595TMC3    C4 8871   0.777   0.062  14.448  0.1246 -0.4300 -0.3111
  595TMC3    C5 8872   0.641   0.058  14.491  0.3083 -0.3531  0.3417
  595TMC3    C6 8873   0.599   4.688  14.573  0.2884 -0.0235  0.1583
  595TMC3     C 8874   0.998   0.010  14.506  0.2318  0.0767  0.3675
  595TMC3     O 8875   1.060   4.732  14.606  0.0150  0.0119  0.0856
  595TMC3     H 8876   0.896   4.540  14.617  0.8215  0.5020  0.8993
  595TMC3    H1 8877   0.809   0.137  14.376  0.4885 -2.5994 -2.4214
  595TMC3    H2 8878   0.495   4.699  14.600  0.5011  0.9225  0.5626
  595TMC3    C7 8879   0.558   0.176  14.494 -0.1563 -0.8185 -0.0933
  595TMC3    C8 8880   0.672   4.525  14.733 -0.0624  0.0605 -0.6755
  595TMC3    O1 8881   0.437   0.168  14.514  0.7919 -0.5168  0.3144
  595TMC3    O2 8882   0.763   4.475  14.796 -0.2119  0.1111 -0.0097
  596MPD2     C 8883   3.896   2.518  16.750 -0.2293 -0.5231  0.6987
  596MPD2    C1 8884   3.896   2.624  16.663  0.4563  0.9607 -0.0989
  596MPD2    C2 8885   3.933   2.616  16.536  0.4037  0.1357  0.5409
  596MPD2    C3 8886   3.988   2.496  16.484  0.1034  0.4676  0.3085
  596MPD2    C4 8887   4.002   2.392  16.574 -0.1233  0.1820 -0.0229
  596MPD2    C5 8888   3.952   2.395  16.709  0.6616 -0.4421 -0.0407
  596MPD2     H 8889   3.929   2.703  16.472 -0.7950  1.0820  1.9399
  596MPD2    H1 8890   4.043   2.297  16.542  2.2373  0.8854  0.8624
  596MPD2    H2 8891   3.852   2.522  16.849  0.2703  1.4708  0.8576
  596MPD2    H3 8892   3.947   2.318  16.785  2.5639 -0.0982  0.4277
  596MPD2     N 8893   4.042   2.490  16.355 -0.3129  0.1580  0.6883
  596MPD2    H5 8894   4.060   2.399  16.314 -0.3228 -0.1901  1.4711
  596MPD2    N1 8895   3.865   2.752  16.712 -0.1014 -0.4962 -0.4502
  596MPD2    H7 8896   3.868   2.823  16.639 -1.2559 -0.9919 -0.9724
  597TMC3    C1 8897   3.788   2.939  16.845 -0.2258 -0.5871  0.1479
  597TMC3    C2 8898   3.845   3.036  16.765 -0.3487  0.0198  0.0188
  597TMC3    C3 8899   3.836   3.169  16.813  0.7990 -0.0260  0.1946
  597TMC3    C4 8900   3.717   2.970  16.954  0.1755 -0.2276 -0.2189
  597TMC3    C5 8901   3.701   3.101  16.992  0.2184 -0.4702  0.0913
  597TMC3    C6 8902   3.777   3.200  16.933  0.0775  1.2801  0.4559
  597TMC3     C 8903   3.817   2.792  16.833  0.5250  0.7483  0.1349
  597TMC3     O 8904   3.797   2.724  16.934  0.0065 -0.4977  0.4429
  597TMC3     H 8905   3.882   3.007  16.667 -2.9796 -0.6054 -0.7830
  597TMC3    H1 8906   3.664   2.887  17.000  2.8515 -2.2141 -0.7204
  597TMC3    H2 8907   3.745   3.303  16.945 -0.1635  1.1870  0.5885
  597TMC3    C7 8908   3.681   3.116  17.138 -0.7010 -0.3460  1.1176
  597TMC3    C8 8909   3.917   3.268  16.738  0.5466  0.0838 -0.2405
  597TMC3    O1 8910   3.609   3.027  17.183 -0.5416 -0.1243 -0.2278
  597TMC3    O2 8911   3.894   3.386  16.757 -1.3580  0.3114 -0.1812
  598TMC3    C1 8912   2.029   3.997  15.261 -0.2200  0.0293  0.5403
  598TMC3    C2 8913   1.981   3.883  15.206 -0.1432 -0.2210  0.5214
  598TMC3    C3 8914   1.954   3.887  15.076 -0.0438 -0.0988 -0.4841
  598TMC3    C4 8915   2.064   4.105  15.185  0.4744  0.4989  0.2070
  598TMC3    C5 8916   2.030   4.108  15.054  0.4855 -0.1487  0.3400
  598TMC3    C6 8917   1.980   3.994  14.995 -0.0499 -0.2944 -0.0421
  598TMC3     C 8918   2.085   4.006  15.398  0.3989  0.1757  0.5800
  598TMC3     O 8919   2.153   4.103  15.423  0.3363 -0.5918 -0.2463
  598TMC3     H 8920   1.941   3.801  15.264  0.0340 -1.5071 -1.1705
  598TMC3    H1 8921   2.086   4.196  15.238 -1.4748  1.4183 -0.5593
  598TMC3    H2 8922   1.944   4.003  14.894 -0.4032 -2.1483 -0.0737
  598TMC3    C7 8923   2.070   4.212  14.960 -0.6415 -1.0215 -0.1897
  598TMC3    C8 8924   1.889   3.768  15.011 -0.3159  1.0342  0.2401
  598TMC3    O1 8925   2.045   4.183  14.841  0.3934  0.0285  0.1961
  598TMC3    O2 8926   1.837   3.688  15.087 -0.0416  0.0402  0.4484
  599MPD2     C 8927   1.954   1.302  15.275  0.8463 -0.1596  0.6137
  599MPD2    C1 8928   2.026   1.375  15.369 -0.7341  0.2228 -0.2209
  599MPD2    C2 8929   1.955   1.479  15.430 -0.4639 -0.8480 -0.3891
  599MPD2    C3 8930   1.824   1.514  15.404  0.3160  0.1797 -0.5843
  599MPD2    C4 8931   1.770   1.450  15.297 -0.0913  0.0609 -0.2518
  599MPD2    C5 8932   1.836   1.348  15.230  0.7022 -0.7583  0.9168
  599MPD2     H 8933   1.999   1.529  15.516 -1.8393  0.5749 -0.5124
  599MPD2    H1 8934   1.675   1.480  15.253  0.3750 -0.2657 -1.4700
  599MPD2    H2 8935   2.004   1.218  15.228  0.1594 -1.1413  1.6386
  599MPD2    H3 8936   1.791   1.302  15.143  0.7871  0.1437  0.3893
  599MPD2     N 8937   1.735   1.594  15.482  0.2485 -0.0498 -0.1470
  599MPD2    H5 8938   1.647   1.612  15.436  0.5300  1.0038 -0.2667
  599MPD2    N1 8939   2.157   1.330  15.399  0.3437  0.6159 -0.1589
  599MPD2    H7 8940   2.192   1.244  15.358 -0.8076 -0.4022  1.0069
  600TMC3    C1 8941   1.654   1.700  15.672 -0.1922  0.1400 -0.0547
  600TMC3    C2 8942   1.529   1.642  15.669  0.2111 -0.0346 -0.6359
  600TMC3    C3 8943   1.458   1.633  15.788 -0.6488  0.1899 -0.3087
  600TMC3    C4 8944   1.701   1.749  15.786  0.3760  0.2191 -0.3854
  600TMC3    C5 8945   1.631   1.744  15.907 -0.1658 -0.4442 -0.1202
  600TMC3    C6 8946   1.502   1.692  15.902 -0.0451  0.0739 -0.1513
  600TMC3     C 8947   1.758   1.626  15.614 -0.1635  0.4436  0.2042
  600TMC3     O 8948   1.850   1.590  15.686  0.4425  0.0539  0.3679
  600TMC3     H 8949   1.478   1.611  15.578 -0.3167  1.6524 -0.9136
  600TMC3    H1 8950   1.800   1.793  15.776  0.8264 -0.6952  0.1085
  600TMC3    H2 8951   1.442   1.693  15.992 -0.0606 -0.6756 -0.1542
  600TMC3    C7 8952   1.666   1.830  16.013  0.3521  0.6818  0.3151
  600TMC3    C8 8953   1.313   1.598  15.789 -0.4814  0.7595 -0.7165
  600TMC3    O1 8954   1.601   1.816  16.118 -0.1066  0.1955 -0.0844
  600TMC3    O2 8955   1.241   1.634  15.697 -0.0621  0.2126 -0.2500
  601MPD2     C 8956   0.169   4.652  17.607  0.3482 -0.2354 -0.0023
  601MPD2    C1 8957   0.039   4.614  17.581 -0.1513 -0.3387  0.6629
  601MPD2    C2 8958   0.002   4.489  17.622  0.4892  0.5000  0.3570
  601MPD2    C3 8959   0.090   4.406  17.695 -0.7312 -0.6100 -0.4295
  601MPD2    C4 8960   0.223   4.444  17.721 -0.2532 -0.8300 -0.0183
  601MPD2    C5 8961   0.263   4.570  17.675  0.5246  0.8594 -0.4454
  601MPD2     H 8962   4.635   4.458  17.615 -0.1440  2.2981  1.9175
  601MPD2    H1 8963   0.296   4.382   0.027  0.7433  1.8488  1.8163
  601MPD2    H2 8964   0.208   0.011  17.574  1.7634  0.0736  2.5677
  601MPD2    H3 8965   0.360   4.611  17.697  0.5383  0.4896  0.1786
  601MPD2     N 8966   0.052   4.288   0.016 -0.4239  0.0056  0.0993
  601MPD2    H5 8967   0.125   4.253   0.077 -0.7261 -1.5187 -0.4363
  601MPD2    N1 8968   4.681   4.699  17.525 -0.2694  0.2858  0.0710
  601MPD2    H7 8969   4.589   4.658  17.515 -0.5554  0.5693  1.4533
  602TMC3    C1 8970   4.581   0.143  17.417  0.0363  0.1607  0.3928
  602TMC3    C2 8971   4.594   0.272  17.373  0.2198  0.3220  0.8302
  602TMC3    C3 8972   4.503   0.321  17.294 -0.2005  0.0746 -0.1743
  602TMC3    C4 8973   4.486   0.059  17.369 -0.5528  0.1017 -0.6978
  602TMC3    C5 8974   4.401   0.109  17.272 -0.3393 -0.5474  0.4333
  602TMC3    C6 8975   4.402   0.244  17.241  0.7691 -1.2394 -0.3435
  602TMC3     C 8976   4.700   0.083  17.472 -0.2310 -0.3752 -0.2493
  602TMC3     O 8977   0.064   0.152  17.474  0.4254  0.3533 -0.4898
  602TMC3     H 8978   4.669   0.338  17.415  1.1453  1.6304 -2.8745
  602TMC3    H1 8979   4.494   4.689  17.389  0.0018  0.1528 -0.6588
  602TMC3    H2 8980   4.323   0.282  17.178  0.0310  1.5764  2.2330
  602TMC3    C7 8981   4.319   0.026  17.181  0.5346  0.1978 -0.6180
  602TMC3    C8 8982   4.515   0.461  17.247  0.2958 -0.3595 -0.0218
  602TMC3    O1 8983   4.311   4.641  17.207 -0.6301  0.0452  0.0188
  602TMC3    O2 8984   4.545   0.541  17.336  0.2754 -0.2874  0.1847
  603TMC3    C1 8985   2.508   4.542  10.911  0.5824 -0.0224  0.1060
  603TMC3    C2 8986   2.501   4.630  11.015  0.1835 -0.2298  0.2677
  603TMC3    C3 8987   2.552   0.018  10.997  0.0822  0.2630 -0.6455
  603TMC3    C4 8988   2.555   4.585  10.788  0.4193  0.4822  0.3373
  603TMC3    C5 8989   2.599   4.716  10.777 -0.6583 -0.8322 -0.1646
  603TMC3    C6 8990   2.604   0.063  10.884 -0.0082 -0.2050 -0.6818
  603TMC3     C 8991   2.434   4.424  10.913  0.1271  0.3132  0.4883
  603TMC3     O 8992   2.432   4.358  10.814  0.5985 -0.1299 -0.2465
  603TMC3     H 8993   2.479   4.590  11.114 -1.7990 -2.3040 -0.9922
  603TMC3    H1 8994   2.566   4.512  10.709  0.6190 -2.2111  2.8272
  603TMC3    H2 8995   2.624   0.169  10.870 -1.1276  0.0253 -0.6056
  603TMC3    C7 8996   2.614   0.038  10.648 -0.1363 -0.1442 -0.4436
  603TMC3    C8 8997   2.547   0.112  11.111  0.1807  0.1255 -0.0812
  603TMC3    O1 8998   2.691   0.133  10.639 -0.3275 -0.4266 -0.2243
  603TMC3    O2 8999   2.470   0.087  11.204  0.2147 -0.1738  0.2543
  604MPD2     C 9000   3.282   3.961  16.389  0.6130 -0.1207  0.0999
  604MPD2    C1 9001   3.166   3.926  16.320 -0.3415  0.3338  0.2793
  604MPD2    C2 9002   3.189   3.875  16.193  0.3472  0.0556 -1.0916
  604MPD2    C3 9003   3.320   3.864  16.142 -0.0164  0.5343  0.5270
  604MPD2    C4 9004   3.429   3.896  16.220 -0.0763  0.1384 -0.0903
  604MPD2    C5 9005   3.408   3.955  16.345  0.1594 -0.1466  0.1466
  604MPD2     H 9006   3.107   3.838  16.133  2.0445 -3.1772 -1.4305
  604MPD2    H1 9007   3.532   3.889  16.187  0.2653  2.4057  0.5212
  604MPD2    H2 9008   3.268   4.009  16.485 -0.5716  0.2473 -0.2495
  604MPD2    H3 9009   3.492   3.988  16.406  0.5875  2.2946 -1.7759
  604MPD2     N 9010   3.325   3.817  16.010 -0.8283 -0.6113  0.3308
  604MPD2    H5 9011   3.235   3.803  15.965 -0.7793  2.2193 -0.6293
  604MPD2    N1 9012   3.049   3.910  16.400  0.0264 -0.8536  0.3868
  604MPD2    H7 9013   3.057   3.947  16.494  3.1204  2.1586 -1.0627
  605TMC3    C1 9014   2.824   3.886  16.460 -0.3343  0.4114 -0.1235
  605TMC3    C2 9015   2.872   3.890  16.589 -0.0344  1.2975 -0.6168
  605TMC3    C3 9016   2.824   3.992  16.666  0.0443 -0.4380  0.6015
  605TMC3    C4 9017   2.723   3.962  16.418 -0.0990  0.2215 -0.1498
  605TMC3    C5 9018   2.658   4.034  16.512 -0.5402 -0.2997  0.2655
  605TMC3    C6 9019   2.714   4.069  16.636  0.3994  0.2375  0.0900
  605TMC3     C 9020   2.927   3.853  16.358 -0.1052 -0.5877  0.5568
  605TMC3     O 9021   2.898   3.812  16.248 -0.5619 -0.0949  0.3081
  605TMC3     H 9022   2.955   3.832  16.626 -0.7525  0.7176  0.0705
  605TMC3    H1 9023   2.694   3.970  16.314 -1.9663  0.9986  0.4265
  605TMC3    H2 9024   2.659   4.134  16.703  0.6928  0.6090 -0.0314
  605TMC3    C7 9025   2.526   4.092  16.483  0.3852 -0.3615 -0.4048
  605TMC3    C8 9026   2.941   4.055  16.722  0.6308 -0.1037  0.1367
  605TMC3    O1 9027   2.468   4.164  16.562  0.0856  0.1364 -0.1704
  605TMC3    O2 9028   3.050   3.997  16.718  0.0049 -0.2422 -0.5628
  606TMC3    C1 9029   3.901   2.719  17.366  0.9072  0.1078 -0.3233
  606TMC3    C2 9030   3.922   2.695  17.503 -0.0117 -0.4732  0.3561
  606TMC3    C3 9031   3.907   2.567  17.544 -0.4401 -0.1760 -0.0488
  606TMC3    C4 9032   3.870   2.613  17.276  0.1985 -0.1357  0.2917
  606TMC3    C5 9033   3.868   2.488  17.323 -0.2244  0.5609 -0.1679
  606TMC3    C6 9034   3.877   2.461  17.457 -0.2564 -0.3358  0.2735
  606TMC3     C 9035   3.936   2.847  17.312 -0.0332 -0.2937 -0.2064
  606TMC3     O 9036   3.941   2.929  17.396  0.4843 -0.4831 -0.1354
  606TMC3     H 9037   3.947   2.774  17.573 -1.6423  0.9486 -0.6643
  606TMC3    H1 9038   3.863   2.630  17.169  1.0273 -0.1577  0.2348
  606TMC3    H2 9039   3.881   2.356  17.482 -0.0621 -0.4994 -0.4353
  606TMC3    C7 9040   3.863   2.378  17.224 -0.3278 -0.5449 -0.0181
  606TMC3    C8 9041   3.989   2.530  17.657  0.3251 -0.2595 -0.0628
  606TMC3    O1 9042   3.902   2.405  17.108  0.0974 -0.0182 -0.4106
  606TMC3    O2 9043   4.072   2.609  17.703  0.0841 -0.0995  0.1182
  607MPD2     C 9044   1.805   0.470  11.561  0.0647  0.0820  0.3952
  607MPD2    C1 9045   1.904   0.551  11.610 -0.5060  0.0415 -0.3448
  607MPD2    C2 9046   1.877   0.637  11.717 -0.1440 -0.3265 -0.7020
  607MPD2    C3 9047   1.754   0.630  11.778  0.2634 -0.1122 -0.2787
  607MPD2    C4 9048   1.660   0.532  11.735 -0.2460 -0.3162  0.1537
  607MPD2    C5 9049   1.683   0.460  11.623 -0.1663  0.4210  0.2148
  607MPD2     H 9050   1.944   0.715  11.749  0.5428 -0.5149 -1.6776
  607MPD2    H1 9051   1.556   0.531  11.764 -0.2631 -0.1368  0.0946
  607MPD2    H2 9052   1.817   0.405  11.476 -0.8917 -0.0938  0.3988
  607MPD2    H3 9053   1.608   0.397  11.577  1.1426 -0.2473 -1.0216
  607MPD2     N 9054   1.730   0.724  11.879 -0.1472 -0.0717  0.5401
  607MPD2    H5 9055   1.800   0.796  11.894 -2.9187  3.0262 -1.6253
  607MPD2    N1 9056   2.038   0.549  11.563 -0.2068  0.4176 -0.2898
  607MPD2    H7 9057   2.102   0.612  11.610 -0.2896  1.2748 -1.3216
  608TMC3    C1 9058   2.225   0.498  11.446  0.0482 -0.2446  0.1177
  608TMC3    C2 9059   2.281   0.573  11.544  0.3665  0.0715 -0.2917
  608TMC3    C3 9060   2.382   0.657  11.513  0.1801 -0.1665 -0.5464
  608TMC3    C4 9061   2.283   0.484  11.325 -0.3032 -0.0054  0.1433
  608TMC3    C5 9062   2.379   0.569  11.293 -0.2767 -0.4778 -0.1469
  608TMC3    C6 9063   2.430   0.665  11.383 -0.4531  0.1163 -0.4971
  608TMC3     C 9064   2.085   0.468  11.459  0.1414 -0.1348  0.0893
  608TMC3     O 9065   2.025   0.404  11.371 -0.2846  0.2070 -0.6186
  608TMC3     H 9066   2.282   0.546  11.649  0.8416 -2.9044 -1.0740
  608TMC3    H1 9067   2.254   0.403  11.258 -0.8118  2.3417 -2.4638
  608TMC3    H2 9068   2.504   0.739  11.355 -2.3181  2.3769  0.5558
  608TMC3    C7 9069   2.417   0.573  11.155 -0.4778 -0.4253  0.0607
  608TMC3    C8 9070   2.416   0.776  11.599  0.2003  1.0474 -0.3855
  608TMC3    O1 9071   2.340   0.519  11.079  0.4342  0.3531  0.4394
  608TMC3    O2 9072   2.503   0.857  11.575  0.2624 -0.4082  0.5454
  609TMC3    C1 9073   0.454   4.412   9.338 -0.2726 -0.0982 -0.4392
  609TMC3    C2 9074   0.459   4.508   9.240 -0.8024 -0.2721 -0.0693
  609TMC3    C3 9075   0.540   4.473   9.134 -0.4485  0.3650 -0.1052
  609TMC3    C4 9076   0.524   4.293   9.335  0.0843  0.1786  0.5697
  609TMC3    C5 9077   0.603   4.268   9.219 -0.6056  0.0908 -0.9563
  609TMC3    C6 9078   0.611   4.359   9.119 -0.0613  0.0878 -0.4167
  609TMC3     C 9079   0.361   4.426   9.448 -0.6981  0.0864 -0.0806
  609TMC3     O 9080   0.358   4.338   9.535 -0.2463 -0.2447  0.1217
  609TMC3     H 9081   0.401   4.599   9.244 -1.5480 -0.7411 -0.1156
  609TMC3    H1 9082   0.529   4.214   9.410 -0.5690  1.7198  2.2371
  609TMC3    H2 9083   0.686   4.350   9.041 -0.8637 -0.6607 -1.1050
  609TMC3    C7 9084   0.692   4.149   9.218  0.4742 -0.2498 -0.0197
  609TMC3    C8 9085   0.555   4.581   9.030  0.5922 -0.3141  0.1127
  609TMC3    O1 9086   0.704   4.081   9.320  0.6865 -0.1807 -0.3886
  609TMC3    O2 9087   0.499   4.687   9.052 -0.4504 -0.7171  0.2479
  610TMC3    C1 9088   2.310   0.609  12.754  0.0720 -0.0281  0.3823
  610TMC3    C2 9089   2.350   0.648  12.628  0.3094 -0.6307 -0.0618
  610TMC3    C3 9090   2.443   0.569  12.571 -0.3399 -0.1637 -0.4177
  610TMC3    C4 9091   2.356   0.507  12.826  0.4312  0.3855 -0.1355
  610TMC3    C5 9092   2.451   0.430  12.764 -0.3221 -0.0234 -0.1370
  610TMC3    C6 9093   2.500   0.462  12.636  0.4022  0.1007 -0.1239
  610TMC3     C 9094   2.183   0.657  12.802 -0.9991  0.2032 -0.4037
  610TMC3     O 9095   2.166   0.775  12.818  0.0736  0.1177  0.0136
  610TMC3     H 9096   2.307   0.734  12.579  0.3934  0.2242  1.3654
  610TMC3    H1 9097   2.315   0.485  12.924 -1.3223 -1.6465 -1.3271
  610TMC3    H2 9098   2.570   0.389  12.595 -0.0344 -0.3585 -0.0510
  610TMC3    C7 9099   2.551   0.368  12.854  0.0458 -0.7409 -0.4899
  610TMC3    C8 9100   2.473   0.591  12.431  0.0605 -0.3405 -0.4105
  610TMC3    O1 9101   2.617   0.277  12.809 -0.2136 -0.3968 -0.2914
  610TMC3    O2 9102   2.394   0.654  12.367 -0.3647  0.0127 -0.2926
  611MPD2     C 9103   1.352   0.238   9.782  0.1278  0.5057  0.2011
  611MPD2    C1 9104   1.361   0.156   9.888 -0.2131 -0.8895 -0.1588
  611MPD2    C2 9105   1.465   0.090   9.929 -0.8338 -0.3027 -0.5411
  611MPD2    C3 9106   1.572   0.105   9.848 -0.0026 -0.0402  0.2219
  611MPD2    C4 9107   1.573   0.181   9.733  0.1815 -0.2966  0.7323
  611MPD2    C5 9108   1.458   0.250   9.697 -0.1485 -0.3762 -0.7069
  611MPD2     H 9109   1.464   0.030  10.019 -1.6221  0.0796 -0.2913
  611MPD2    H1 9110   1.666   0.193   9.679  0.5764  1.9116  1.9098
  611MPD2    H2 9111   1.258   0.283   9.753 -1.0740 -1.6928  0.6592
  611MPD2    H3 9112   1.459   0.323   9.617  1.0077  0.0573 -0.3067
  611MPD2     N 9113   1.695   0.038   9.880 -0.0287  0.0177  0.1236
  611MPD2    H5 9114   1.776   0.073   9.830  0.2555  0.0432  0.6071
  611MPD2    N1 9115   1.241   0.153   9.960  0.8692  0.4695 -0.1231
  611MPD2    H7 9116   1.172   0.222   9.932  0.2745  0.5729  1.5695
  612TMC3    C1 9117   1.849   4.618   9.958 -0.0911 -0.2154 -0.1978
  612TMC3    C2 9118   1.940   4.715   9.999  0.0631 -0.0285  0.3242
  612TMC3    C3 9119   2.067   4.671  10.024  0.1467 -0.0131 -0.6302
  612TMC3    C4 9120   1.869   4.486   9.976 -0.2049  0.5754  0.1219
  612TMC3    C5 9121   1.993   4.451  10.017  0.4329 -0.3897 -0.4565
  612TMC3    C6 9122   2.088   4.543  10.046 -0.3820 -0.0248 -0.2779
  612TMC3     C 9123   1.708   4.654   9.951 -1.1679  0.4205  0.1263
  612TMC3     O 9124   1.625   4.575   9.994  0.2963  0.0007 -0.0802
  612TMC3     H 9125   1.917   0.084   9.989  0.1819 -0.3824 -3.6852
  612TMC3    H1 9126   1.796   4.417   9.936 -0.8220  2.3216 -1.7793
  612TMC3    H2 9127   2.180   4.501  10.085 -0.2361  0.1516 -0.4311
  612TMC3    C7 9128   2.026   4.312  10.058 -0.2676  0.5142  0.3677
  612TMC3    C8 9129   2.179   0.028  10.057 -0.0360  0.6180  0.5336
  612TMC3    O1 9130   2.118   4.295  10.143 -0.1689 -0.3217  0.4892
  612TMC3    O2 9131   2.202   0.113   9.972  0.0883  0.0942 -0.1510
  613MPD2     C 9132   0.739   2.281  16.825  0.5608 -0.2515  0.2000
  613MPD2    C1 9133   0.667   2.388  16.764  0.4516 -0.5710  0.0658
  613MPD2    C2 9134   0.541   2.357  16.713  0.4175  0.0730 -0.3384
  613MPD2    C3 9135   0.494   2.223  16.721 -0.3013  0.7460  0.4714
  613MPD2    C4 9136   0.568   2.129  16.781 -0.1458 -0.2907 -0.6382
  613MPD2    C5 9137   0.686   2.156  16.841 -0.2141  0.3770 -0.2812
  613MPD2     H 9138   0.478   2.439  16.680  1.0471  0.1228 -1.4273
  613MPD2    H1 9139   0.543   2.024  16.786  0.1936 -0.2802  1.3776
  613MPD2    H2 9140   0.844   2.292  16.850  0.0622  1.4300  1.5546
  613MPD2    H3 9141   0.744   2.075  16.881 -2.0030  0.3794  2.3141
  613MPD2     N 9142   0.387   2.172  16.654 -0.2152  0.1848 -0.3429
  613MPD2    H5 9143   0.379   2.071  16.651  0.1257  0.1786 -0.9762
  613MPD2    N1 9144   0.730   2.509  16.724 -0.1259  0.2532  0.4753
  613MPD2    H7 9145   0.830   2.509  16.742  0.0516  4.1591 -0.6102
  614TMC3    C1 9146   0.738   2.653  16.549  0.3535  0.6923 -0.1027
  614TMC3    C2 9147   0.756   2.544  16.465  0.6734  0.3371 -0.2340
  614TMC3    C3 9148   0.715   2.541  16.339 -0.4081 -0.1164  0.2670
  614TMC3    C4 9149   0.684   2.766  16.490  0.9652  0.0656 -0.1368
  614TMC3    C5 9150   0.652   2.764  16.358  0.0877  0.2457  0.1211
  614TMC3    C6 9151   0.664   2.652  16.279 -0.4767 -0.5938 -1.2111
  614TMC3     C 9152   0.672   2.620  16.671 -0.6636 -0.2297 -0.2958
  614TMC3     O 9153   0.557   2.657  16.687  0.1198 -0.4608  0.3528
  614TMC3     H 9154   0.791   2.451  16.508 -1.7790 -0.2403  0.5465
  614TMC3    H1 9155   0.649   2.849  16.551  2.1600  0.3235  0.2075
  614TMC3    H2 9156   0.607   2.651  16.187 -1.3948  1.3056 -0.6610
  614TMC3    C7 9157   0.542   2.848  16.318 -1.1837  0.2444  0.0124
  614TMC3    C8 9158   0.639   2.418  16.307 -0.0139  0.5480  0.7309
  614TMC3    O1 9159   0.477   2.900  16.404  0.2782 -0.5662  0.2140
  614TMC3    O2 9160   0.571   2.361  16.386 -0.3082  0.0944 -0.5919
  615MPD2     C 9161   0.059   3.737  15.850 -0.0640 -0.9142 -0.6684
  615MPD2    C1 9162   0.052   3.849  15.924  0.2791  0.2848 -0.3431
  615MPD2    C2 9163   0.004   3.966  15.874 -0.8374  0.2713 -0.9710
  615MPD2    C3 9164   4.701   3.971  15.739 -0.0568 -0.2195 -0.1513
  615MPD2    C4 9165   4.710   3.860  15.663  0.0820 -0.1802 -0.1977
  615MPD2    C5 9166   0.024   3.744  15.718  0.1085  0.0016  0.4873
  615MPD2     H 9167   4.730   4.052  15.939  1.1366  1.7295 -2.5987
  615MPD2    H1 9168   4.685   3.857  15.557 -1.3640  1.1031  0.1042
  615MPD2    H2 9169   0.102   3.640  15.875  2.4789  0.1253 -0.9921
  615MPD2    H3 9170   0.040   3.657  15.655 -0.7522  0.6926 -0.6942
  615MPD2     N 9171   4.653   4.083  15.672 -0.3863 -0.1007  0.4826
  615MPD2    H5 9172   4.602   4.069  15.586 -2.1599  0.2421  1.4816
  615MPD2    N1 9173   0.105   3.856  16.056 -0.6770 -0.5350  0.4569
  615MPD2    H7 9174   0.098   3.946  16.104  2.1362  1.9366 -3.6977
  616TMC3    C1 9175   0.228   3.799  16.244 -0.5921  0.2701 -0.2267
  616TMC3    C2 9176   0.344   3.749  16.296  0.3212  0.0004 -0.3628
  616TMC3    C3 9177   0.387   3.795  16.417 -1.0873  0.2800 -0.3929
  616TMC3    C4 9178   0.144   3.872  16.324  0.4739  0.5274 -0.1334
  616TMC3    C5 9179   0.179   3.894  16.454 -0.1267  0.2456 -0.1850
  616TMC3    C6 9180   0.303   3.849  16.507 -0.4125 -0.2306 -0.1976
  616TMC3     C 9181   0.181   3.760  16.112 -0.1725 -0.5278 -0.5028
  616TMC3     O 9182   0.223   3.657  16.058  0.4314  0.3268  0.0617
  616TMC3     H 9183   0.412   3.691  16.235  0.5756  0.8043 -0.8443
  616TMC3    H1 9184   0.046   3.905  16.291  1.4260  3.7113  0.2429
  616TMC3    H2 9185   0.314   3.865  16.613 -1.0150 -0.5102 -0.0903
  616TMC3    C7 9186   0.106   3.977  16.544 -0.6230 -0.4430 -0.0990
  616TMC3    C8 9187   0.518   3.752  16.455 -0.2241  0.3090 -0.4130
  616TMC3    O1 9188   0.124   3.972  16.662  0.5089  0.0827  0.2499
  616TMC3    O2 9189   0.566   3.646  16.414 -0.1806  0.2089 -0.6731
  617MPD2     C 9190   3.285   2.451  14.030 -0.4172  0.3664  0.0121
  617MPD2    C1 9191   3.240   2.337  13.952 -0.0258 -0.0292  0.3494
  617MPD2    C2 9192   3.106   2.318  13.929  0.2326 -0.6060  0.7888
  617MPD2    C3 9193   3.017   2.399  13.994  0.1152  0.5072 -0.4592
  617MPD2    C4 9194   3.062   2.507  14.067  0.1490  0.1500  0.6902
  617MPD2    C5 9195   3.189   2.534  14.089 -0.4271 -0.0067 -0.4779
  617MPD2     H 9196   3.066   2.242  13.862 -1.2413  1.2874 -0.4775
  617MPD2    H1 9197   2.986   2.570  14.113 -1.1878  0.7549 -2.3613
  617MPD2    H2 9198   3.386   2.487  14.040  0.2065 -1.3300 -0.2549
  617MPD2    H3 9199   3.222   2.623  14.141 -0.7260  1.2119 -2.3644
  617MPD2     N 9200   2.879   2.380  13.990  1.0386 -0.5918  0.2355
  617MPD2    H5 9201   2.815   2.431  14.050  0.0571 -0.3701 -0.9972
  617MPD2    N1 9202   3.335   2.251  13.891  0.5280 -0.0033  0.2555
  617MPD2    H7 9203   3.292   2.191  13.821  0.7055  1.9575 -1.5556
  618TMC3    C1 9204   3.548   2.156  13.828  0.2835 -0.1910 -0.6027
  618TMC3    C2 9205   3.492   2.109  13.711 -0.5140  0.5137  0.7319
  618TMC3    C3 9206   3.561   2.006  13.649 -0.3146  0.2135  0.0462
  618TMC3    C4 9207   3.666   2.112  13.878  0.9835 -0.4154  0.2851
  618TMC3    C5 9208   3.732   2.016  13.814 -0.2758 -0.7531  0.2861
  618TMC3    C6 9209   3.668   1.951  13.707 -0.3952  0.5228  0.7196
  618TMC3     C 9210   3.469   2.247  13.917  0.1729  0.9524 -0.0109
  618TMC3     O 9211   3.538   2.318  13.993 -0.4053 -0.2746  0.0101
  618TMC3     H 9212   3.414   2.164  13.660 -0.6102 -0.1707  0.1338
  618TMC3    H1 9213   3.708   2.160  13.966  0.1932 -1.6467  1.3446
  618TMC3    H2 9214   3.717   1.867  13.660 -1.0107  0.9483 -0.6744
  618TMC3    C7 9215   3.813   1.941  13.891 -0.1717 -0.3757 -0.3077
  618TMC3    C8 9216   3.520   1.970  13.513  0.6712  0.2580  0.8467
  618TMC3    O1 9217   3.776   1.921  14.007 -0.6765  0.9944 -0.1081
  618TMC3    O2 9218   3.407   2.005  13.478 -0.3183  0.4116  0.6239
  619MPD2     C 9219   0.017   3.362  13.784 -0.3183 -0.2247  0.3908
  619MPD2    C1 9220   4.697   3.471  13.843 -0.2815  0.0868 -0.4561
  619MPD2    C2 9221   4.595   3.454  13.935 -0.3257 -0.4242 -0.1753
  619MPD2    C3 9222   4.547   3.327  13.964  0.4704  0.3955  0.8254
  619MPD2    C4 9223   4.612   3.214  13.910  0.0663 -0.8052 -0.4501
  619MPD2    C5 9224   4.720   3.240  13.828  0.1000  0.0668  0.1782
  619MPD2     H 9225   4.534   3.539  13.965  0.0731 -0.5006  0.8448
  619MPD2    H1 9226   4.583   3.111  13.928 -3.0328  0.3733  1.2949
  619MPD2    H2 9227   0.103   3.360  13.718 -0.4452  0.6209  0.1989
  619MPD2    H3 9228   0.018   3.148  13.780  1.5293  1.1465 -0.8634
  619MPD2     N 9229   4.425   3.296  14.038  0.1164 -0.3610 -1.1387
  619MPD2    H5 9230   4.392   3.200  14.031  2.3218 -1.1288 -1.0305
  619MPD2    N1 9231   4.718   3.599  13.784 -0.0417 -0.2734 -0.1568
  619MPD2    H7 9232   4.658   3.669  13.826  1.1614  0.9894 -0.5269
  620TMC3    C1 9233   0.080   3.784  13.656  0.2764  0.0343  0.5255
  620TMC3    C2 9234   0.123   3.824  13.533  0.6433  0.0062  0.7732
  620TMC3    C3 9235   0.117   3.952  13.512  0.6758  0.1151 -0.0623
  620TMC3    C4 9236   0.040   3.867  13.755 -0.0026 -0.1306  0.2174
  620TMC3    C5 9237   0.031   4.000  13.719  0.1690 -0.1509 -0.7931
  620TMC3    C6 9238   0.069   4.053  13.600 -0.3870  0.6870  0.0866
  620TMC3     C 9239   0.075   3.638  13.682 -0.1082  0.2121 -0.3827
  620TMC3     O 9240   0.155   3.569  13.618 -0.5378 -0.5610  0.3006
  620TMC3     H 9241   0.159   3.759  13.454  1.1702  0.7033  0.4412
  620TMC3    H1 9242   0.000   3.836  13.851 -2.5994 -0.4262 -0.9468
  620TMC3    H2 9243   0.056   4.157  13.571 -0.4856  0.7164  0.2384
  620TMC3    C7 9244   4.669   4.069  13.785  0.2611  0.5853 -0.0105
  620TMC3    C8 9245   0.104   3.977  13.372  0.7797 -0.1271  0.0652
  620TMC3    O1 9246   4.554   4.025  13.778  0.1213 -0.2429 -0.1529
  620TMC3    O2 9247   0.193   4.052  13.336 -0.1655 -0.3498  0.2395
  621MPD2     C 9248   0.029   2.892  10.429  0.3085 -0.1451  0.0181
  621MPD2    C1 9249   0.063   2.878  10.302  0.0131 -0.2109  0.1045
  621MPD2    C2 9250   0.092   3.000  10.235  0.3642  0.5963 -0.7914
  621MPD2    C3 9251   0.094   3.130  10.293 -0.5619 -0.0196  0.5418
  621MPD2    C4 9252   0.054   3.136  10.426  0.2175 -0.0790 -0.5346
  621MPD2    C5 9253   0.032   3.016  10.490  0.1963 -0.3061 -0.1808
  621MPD2     H 9254   0.110   2.988  10.129 -0.9030  1.0220 -1.0420
  621MPD2    H1 9255   0.043   3.223  10.491  1.6904 -0.5296  0.3134
  621MPD2    H2 9256   4.734   2.807  10.488  1.0772  0.8892  1.9396
  621MPD2    H3 9257   0.014   3.025  10.596  0.4598 -0.1110 -0.1519
  621MPD2     N 9258   0.109   3.244  10.209  0.6852 -0.1676 -0.0206
  621MPD2    H5 9259   0.103   3.226  10.109 -1.8138  0.8645 -0.0500
  621MPD2    N1 9260   0.050   2.756  10.230 -0.4908 -0.0736 -0.9903
  621MPD2    H7 9261   0.098   2.754  10.140 -1.0076 -1.2612 -1.2360
  622TMC3    C1 9262   4.733   2.530  10.192 -0.5082 -0.0771  0.4638
  622TMC3    C2 9263   4.669   2.419  10.257 -0.1464  0.1253 -0.0658
  622TMC3    C3 9264   4.582   2.348  10.189 -0.2959 -0.3503  0.6465
  622TMC3    C4 9265   4.708   2.563  10.060 -0.0748 -0.3126  0.3021
  622TMC3    C5 9266   4.617   2.482   9.995  0.3375  0.2848 -0.5983
  622TMC3    C6 9267   4.561   2.373  10.056 -0.2786  0.0816  0.8237
  622TMC3     C 9268   4.736   2.638  10.282  0.2033  0.2884 -0.7680
  622TMC3     O 9269   4.678   2.616  10.390 -0.4301  0.4552  0.1959
  622TMC3     H 9270   4.706   2.389  10.355 -1.0495  0.1681  0.2954
  622TMC3    H1 9271   0.025   2.639  10.004 -1.4343  2.2839  2.5091
  622TMC3    H2 9272   4.475   2.328  10.009  1.4731 -0.8293 -1.5290
  622TMC3    C7 9273   4.577   2.513   9.860 -0.1191 -0.0326 -0.4696
  622TMC3    C8 9274   4.462   2.338  10.261  0.1127 -1.0250  0.0266
  622TMC3    O1 9275   4.539   2.425   9.784  0.3269 -0.4356 -0.3036
  622TMC3    O2 9276   4.367   2.273  10.213  0.6697  0.4130  0.7669
  623MPD2     C 9277   3.223   4.359  15.981 -0.3814  0.3317  0.3349
  623MPD2    C1 9278   3.189   4.318  16.110  0.2349 -0.1844  0.0826
  623MPD2    C2 9279   3.291   4.320  16.202  0.5109  0.1902 -0.4141
  623MPD2    C3 9280   3.412   4.367  16.168  0.4577 -0.2962  0.9510
  623MPD2    C4 9281   3.447   4.415  16.042  0.0704 -0.2460  0.5925
  623MPD2    C5 9282   3.350   4.408  15.945 -0.0561  0.5470  0.2376
  623MPD2     H 9283   3.273   4.295  16.306 -0.9393 -0.4584 -0.8249
  623MPD2    H1 9284   3.546   4.449  16.017 -0.3658  0.0609 -0.7474
  623MPD2    H2 9285   3.142   4.354  15.910  0.3955 -3.0033 -0.3168
  623MPD2    H3 9286   3.372   4.438  15.843  0.6996 -1.7309 -0.2796
  623MPD2     N 9287   3.501   4.362  16.269 -1.0837 -0.1528  0.2401
  623MPD2    H5 9288   3.452   4.331  16.353 -0.2156  1.4186  1.3075
  623MPD2    N1 9289   3.055   4.294  16.140 -0.1260  0.4976  0.1542
  623MPD2    H7 9290   2.996   4.317  16.060  0.6632  0.1598 -0.5266
  624TMC3    C1 9291   3.775   4.166  16.503  0.3329  0.5196 -0.1461
  624TMC3    C2 9292   3.684   4.176  16.604  0.4939  0.1138  0.0532
  624TMC3    C3 9293   3.585   4.273  16.603  0.5548  0.1145  0.4594
  624TMC3    C4 9294   3.790   4.278  16.419 -0.3183  0.0970  0.1569
  624TMC3    C5 9295   3.682   4.366  16.407  0.5357 -0.1911 -0.2009
  624TMC3    C6 9296   3.582   4.367  16.502  0.5254 -0.3430 -0.0312
  624TMC3     C 9297   3.897   4.094  16.536 -0.2781  0.1215 -0.8486
  624TMC3     O 9298   3.999   4.163  16.526 -0.2735 -0.0196  0.1222
  624TMC3     H 9299   3.688   4.113  16.692  0.7030 -0.2757 -0.2378
  624TMC3    H1 9300   3.862   4.269  16.339  0.7344 -0.2197  1.1483
  624TMC3    H2 9301   3.496   4.432  16.488  0.9117  0.6920  2.3610
  624TMC3    C7 9302   3.639   4.368  16.269  0.4332 -0.2969 -0.4982
  624TMC3    C8 9303   3.462   4.258  16.674  0.0387  0.1272 -0.7962
  624TMC3    O1 9304   3.713   4.380  16.175  0.4691  0.0050 -0.1543
  624TMC3    O2 9305   3.427   4.146  16.705  0.0547 -0.4794  0.2896
  625MPD2     C 9306   3.973   0.572  17.555 -0.3958 -1.2068 -0.1269
  625MPD2    C1 9307   3.946   0.663  17.655 -0.2123 -0.0923 -0.1111
  625MPD2    C2 9308   4.027   0.670   0.019 -0.3240 -0.3033  0.0162
  625MPD2    C3 9309   4.138   0.590   0.039  0.1356  0.3567 -0.7256
  625MPD2    C4 9310   4.165   0.499  17.686  0.3313 -0.4862 -0.3236
  625MPD2    C5 9311   4.080   0.491  17.572  0.0040  0.6812  0.2395
  625MPD2     H 9312   4.006   0.737   0.101 -1.3250  1.2670 -1.5354
  625MPD2    H1 9313   4.252   0.435  17.682 -0.7580 -2.0817  1.2155
  625MPD2    H2 9314   3.896   0.552  17.481 -1.0333 -1.6777  0.6530
  625MPD2    H3 9315   4.098   0.415  17.497  0.2620 -1.0428  2.0609
  625MPD2     N 9316   4.215   0.614   0.154  0.0759 -0.6864  0.4043
  625MPD2    H5 9317   4.187   0.691   0.214  0.9976 -0.5009  0.5946
  625MPD2    N1 9318   3.826   0.740  17.661  0.1541  0.0463  0.0343
  625MPD2    H7 9319   3.814   0.801  17.741  0.3398 -0.4008  0.4086
  626TMC3    C1 9320   3.622   0.825  17.611 -0.1865  0.6127  0.2546
  626TMC3    C2 9321   3.535   0.863  17.515 -0.2108 -0.4423 -0.2520
  626TMC3    C3 9322   3.415   0.927  17.546 -0.4971  0.0757 -0.2539
  626TMC3    C4 9323   3.591   0.840  17.741 -0.2845  0.5025 -0.2537
  626TMC3    C5 9324   3.466   0.884   0.028  0.1091 -0.3698 -0.4239
  626TMC3    C6 9325   3.372   0.921  17.681  0.0338 -0.3642  0.9296
  626TMC3     C 9326   3.732   0.743  17.564 -0.3351 -0.6256  0.1805
  626TMC3     O 9327   3.735   0.710  17.445  0.0365 -0.0205 -0.2229
  626TMC3     H 9328   3.554   0.861  17.408  1.0353 -2.0431  0.0018
  626TMC3    H1 9329   3.661   0.814   0.075 -1.0527  0.2728  0.3584
  626TMC3    H2 9330   3.295   0.991  17.715  0.7085  1.1612 -0.7006
  626TMC3    C7 9331   3.430   0.851   0.163  0.4227 -0.3734 -0.1470
  626TMC3    C8 9332   3.336   0.981  17.439 -0.2195  0.1133  0.2146
  626TMC3    O1 9333   3.509   0.779   0.222  0.5040 -0.5622 -0.1932
  626TMC3    O2 9334   3.394   1.019  17.338  0.0961  0.1926 -0.4567
  627MPD2     C 9335   2.556   1.208  14.121  0.5952 -0.4768  0.3242
  627MPD2    C1 9336   2.593   1.152  14.234 -0.9064  0.0883  0.7089
  627MPD2    C2 9337   2.539   1.032  14.268  0.0894  0.4414  0.3439
  627MPD2    C3 9338   2.440   0.973  14.195  0.3533  0.1916 -0.2443
  627MPD2    C4 9339   2.403   1.026  14.070  0.5115  0.1053  0.5052
  627MPD2    C5 9340   2.453   1.151  14.047  0.4213 -0.6056 -0.1774
  627MPD2     H 9341   2.576   0.984  14.358 -0.1245  0.0384  0.2182
  627MPD2    H1 9342   2.332   0.987  13.998  0.9147  2.9198 -1.4107
  627MPD2    H2 9343   2.601   1.298  14.081  0.5049 -1.0587 -1.0814
  627MPD2    H3 9344   2.422   1.205  13.958 -1.3591  0.6333  1.1935
  627MPD2     N 9345   2.392   0.847  14.234  0.0629 -0.0784  0.5631
  627MPD2    H5 9346   2.389   0.822  14.332 -3.6315 -0.2116  0.4170
  627MPD2    N1 9347   2.699   1.213  14.311  0.3686  0.3409 -0.8347
  627MPD2    H7 9348   2.740   1.291  14.259  2.8956 -1.0431 -0.9163
  628TMC3    C1 9349   2.859   1.253  14.461  0.5851  0.6228 -0.5732
  628TMC3    C2 9350   2.960   1.182  14.526  0.2372  0.3853  0.9173
  628TMC3    C3 9351   3.073   1.257  14.548  0.1234  0.3565  0.4025
  628TMC3    C4 9352   2.867   1.387  14.429  0.0454 -0.1376  0.4023
  628TMC3    C5 9353   2.978   1.457  14.459  0.2247 -0.0016 -0.1821
  628TMC3    C6 9354   3.091   1.390  14.500  1.0738  0.4021 -0.0327
  628TMC3     C 9355   2.732   1.187  14.438 -0.1578 -0.1899 -0.3354
  628TMC3     O 9356   2.684   1.103  14.515  0.1525  0.3284  0.1891
  628TMC3     H 9357   2.953   1.077  14.551  2.8997  0.1047  0.4492
  628TMC3    H1 9358   2.784   1.443  14.390  1.0214 -0.9566 -2.8173
  628TMC3    H2 9359   3.170   1.458  14.527  0.7473  0.9577 -0.4921
  628TMC3    C7 9360   2.966   1.589  14.523  0.1176 -0.5271  0.2415
  628TMC3    C8 9361   3.207   1.192  14.576  0.1117 -0.8125 -0.8464
  628TMC3    O1 9362   3.009   1.607  14.634  0.8103  0.4398 -0.5070
  628TMC3    O2 9363   3.310   1.249  14.546 -1.0066  0.2303  0.8564
  629MPD2     C 9364   0.972   3.894  16.650  0.1615 -0.1800 -0.2401
  629MPD2    C1 9365   0.893   4.006  16.624 -0.0086  0.2224  0.3945
  629MPD2    C2 9366   0.768   3.984  16.576  0.9175  0.6271  0.3983
  629MPD2    C3 9367   0.719   3.859  16.550  0.3184 -0.1038  0.5519
  629MPD2    C4 9368   0.794   3.750  16.589 -0.3505 -0.3540 -0.7416
  629MPD2    C5 9369   0.926   3.770  16.625 -0.5857  0.3843  0.2138
  629MPD2     H 9370   0.706   4.073  16.567 -1.1116 -0.7921  0.4550
  629MPD2    H1 9371   0.762   3.647  16.582  1.1756 -0.8661 -0.2558
  629MPD2    H2 9372   1.066   3.906  16.703  0.9001 -0.6501 -1.4500
  629MPD2    H3 9373   0.985   3.684  16.655 -0.7052  0.3338  0.3048
  629MPD2     N 9374   0.582   3.858  16.518  0.3862  1.1630  0.2474
  629MPD2    H5 9375   0.531   3.945  16.532  0.4707  1.1618  0.5636
  629MPD2    N1 9376   0.950   4.133  16.652 -0.2131  0.0325 -0.0154
  629MPD2    H7 9377   1.032   4.126  16.711  0.1725  0.9731 -0.4363
  630TMC3    C1 9378   0.981   4.370  16.658 -0.3985 -0.4654  0.0634
  630TMC3    C2 9379   0.992   4.485  16.583  0.5540  0.5173  0.2481
  630TMC3    C3 9380   1.055   4.586  16.645 -1.0283 -0.1346 -0.3624
  630TMC3    C4 9381   1.035   4.357  16.782  0.3207 -0.0632  0.3272
  630TMC3    C5 9382   1.097   4.468  16.841 -0.2688  0.1669 -0.3079
  630TMC3    C6 9383   1.108   4.583  16.769  0.2647  0.4853 -0.0735
  630TMC3     C 9384   0.904   4.256  16.607 -0.8335 -0.7027  0.0179
  630TMC3     O 9385   0.825   4.277  16.518  0.2409 -0.0309 -0.3183
  630TMC3     H 9386   0.938   4.493  16.490 -1.5899 -2.4035  1.2412
  630TMC3    H1 9387   0.990   4.286  16.851 -1.4463  0.9965  0.2705
  630TMC3    H2 9388   1.148   4.668  16.823  0.3470  1.6225 -1.9639
  630TMC3    C7 9389   1.157   4.449  16.973 -0.1802 -0.2490 -0.6081
  630TMC3    C8 9390   1.089   4.717  16.579 -0.2829 -0.0550  0.1579
  630TMC3    O1 9391   1.143   4.339  17.022  0.1210 -0.1711 -0.3312
  630TMC3    O2 9392   1.171   0.052  16.636  0.0623  0.2153  0.4567
  631MPD2     C 9393   3.825   4.544  15.383 -0.2253 -0.6475  0.6137
  631MPD2    C1 9394   3.913   4.632  15.323 -0.6628 -0.4572 -0.0879
  631MPD2    C2 9395   4.046   4.598  15.336 -0.0704  0.3786 -0.3526
  631MPD2    C3 9396   4.091   4.483  15.394  0.0989 -0.0771 -0.8420
  631MPD2    C4 9397   4.002   4.394  15.447  0.6665 -0.5497  0.1664
  631MPD2    C5 9398   3.867   4.424  15.445  0.3174 -0.2227 -0.3679
  631MPD2     H 9399   4.130   4.662  15.310  0.3985 -0.7618 -1.6975
  631MPD2    H1 9400   4.024   4.296  15.489  0.6099 -0.8362 -0.4644
  631MPD2    H2 9401   3.720   4.568  15.377  0.2602  1.4171  0.3860
  631MPD2    H3 9402   3.795   4.356  15.489  0.3866  0.7947  1.3160
  631MPD2     N 9403   4.234   4.462  15.413  0.1157 -0.1820 -0.1784
  631MPD2    H5 9404   4.296   4.531  15.371 -1.3533  1.3749  0.1794
  631MPD2    N1 9405   3.869   0.012  15.257 -0.5029 -0.0589  0.4177
  631MPD2    H7 9406   3.776   0.040  15.287 -0.7710 -0.9762  0.4406
  632TMC3    C1 9407   3.878   0.213  15.147 -0.4913  0.5404 -0.1936
  632TMC3    C2 9408   3.742   0.226  15.139 -0.4451 -0.8821 -0.3473
  632TMC3    C3 9409   3.684   0.342  15.091  0.0248 -0.2154 -0.4995
  632TMC3    C4 9410   3.950   0.317  15.097 -0.1006 -0.7409  0.5385
  632TMC3    C5 9411   3.888   0.426  15.053  1.1629  0.4804  0.9431
  632TMC3    C6 9412   3.757   0.448  15.051 -0.5542 -0.1788  0.3841
  632TMC3     C 9413   3.948   0.091  15.175  0.2123  0.2925 -0.8200
  632TMC3     O 9414   4.060   0.061  15.131  0.0729 -0.3305 -0.9062
  632TMC3     H 9415   3.688   0.136  15.164 -2.9806  0.8323  0.3337
  632TMC3    H1 9416   4.057   0.332  15.106 -0.1054 -1.3441  1.5499
  632TMC3    H2 9417   3.719   0.541  15.010 -1.6044 -0.6992  0.1780
  632TMC3    C7 9418   3.947   0.518  14.968 -0.1361  0.1807 -0.1390
  632TMC3    C8 9419   3.548   0.326  15.051  0.0897  0.8730 -0.4361
  632TMC3    O1 9420   3.919   0.639  14.976  0.1507  0.1217 -0.3621
  632TMC3    O2 9421   3.490   0.238  15.110 -0.0082  0.2566  0.2241
  633MPD2     C 9422   3.500   2.410  17.341  0.0181  0.5130  0.7785
  633MPD2    C1 9423   3.433   2.354  17.233  0.0319  0.7848 -0.3022
  633MPD2    C2 9424   3.394   2.223  17.247  0.1632 -0.0754 -0.2629
  633MPD2    C3 9425   3.413   2.148  17.369  0.2431  0.3957  0.3911
  633MPD2    C4 9426   3.483   2.211  17.469  0.2923 -0.1559 -0.3566
  633MPD2    C5 9427   3.524   2.338  17.458  0.1391  0.7198 -0.4149
  633MPD2     H 9428   3.349   2.179  17.158  1.1520 -1.3666 -0.1251
  633MPD2    H1 9429   3.497   2.168  17.567  1.1478  0.4536 -0.2099
  633MPD2    H2 9430   3.552   2.505  17.333  0.8634  0.0418  0.6726
  633MPD2    H3 9431   3.591   2.381  17.533  0.3149  0.8073 -0.6203
  633MPD2     N 9432   3.368   2.023  17.393  0.0543 -0.2338 -0.4652
  633MPD2    H5 9433   3.373   1.992  17.489 -0.7551 -2.9616 -1.2906
  633MPD2    N1 9434   3.439   2.411  17.107 -0.4755 -0.0375 -0.0607
  633MPD2    H7 9435   3.390   2.363  17.033 -0.6669  2.1338 -1.3564
  634TMC3    C1 9436   3.497   2.554  16.928 -0.1518  0.8363 -0.0953
  634TMC3    C2 9437   3.541   2.447  16.849 -0.0793 -0.3332 -0.0563
  634TMC3    C3 9438   3.561   2.472  16.721 -0.4276  0.1067  0.2302
  634TMC3    C4 9439   3.491   2.679  16.867  0.4088 -0.0990  0.1198
  634TMC3    C5 9440   3.523   2.695  16.734 -0.4853  0.1272 -0.1110
  634TMC3    C6 9441   3.547   2.590  16.661  0.2151 -0.3784 -0.6924
  634TMC3     C 9442   3.484   2.536  17.073 -0.5230 -0.0003  0.5547
  634TMC3     O 9443   3.523   2.622  17.148 -0.0057  0.0652 -0.3993
  634TMC3     H 9444   3.550   2.350  16.899 -0.2757  0.1737  0.9610
  634TMC3    H1 9445   3.479   2.763  16.933  1.7172  0.7561 -0.7361
  634TMC3    H2 9446   3.565   2.606  16.555 -1.2107  1.0266 -0.7238
  634TMC3    C7 9447   3.516   2.825  16.667 -0.3579 -0.6643 -0.2703
  634TMC3    C8 9448   3.607   2.365  16.637  0.5720  0.0768 -1.0182
  634TMC3    O1 9449   3.580   2.846  16.566 -0.1017  0.1135  0.4020
  634TMC3    O2 9450   3.648   2.266  16.691  0.0847  0.5979  0.3051
  635TMC3    C1 9451   3.938   3.339   0.210  0.1962 -0.2229  0.9705
  635TMC3    C2 9452   3.911   3.254   0.113 -0.3148  0.2395 -0.3998
  635TMC3    C3 9453   3.832   3.148   0.145  0.0334 -0.5096 -0.5111
  635TMC3    C4 9454   3.902   3.330   0.339  0.1631  0.7646 -0.3241
  635TMC3    C5 9455   3.821   3.222   0.368 -0.1059 -0.6878 -0.2537
  635TMC3    C6 9456   3.771   3.138   0.266  0.4886 -0.7166 -0.3734
  635TMC3     C 9457   4.006   3.464   0.179 -0.1549  0.8404 -0.4230
  635TMC3     O 9458   4.061   3.529   0.266 -0.3736  0.3286 -0.0236
  635TMC3     H 9459   3.975   3.236   0.027  2.8797 -1.7353  2.4421
  635TMC3    H1 9460   3.930   3.404   0.412 -0.1847 -0.7674  1.3741
  635TMC3    H2 9461   3.704   3.054   0.279  0.5590 -0.4443  1.7390
  635TMC3    C7 9462   3.734   3.233   0.483  0.5281  0.5598  0.2235
  635TMC3    C8 9463   3.810   3.041   0.043 -0.5467 -0.3114  0.1505
  635TMC3    O1 9464   3.625   3.176   0.474 -0.4517 -0.2345 -0.6764
  635TMC3    O2 9465   3.823   3.093  17.675  0.0167 -0.0497 -0.4707
  636MPD2     C 9466   4.609   2.856  16.237 -0.6186 -0.3667 -0.0665
  636MPD2    C1 9467   4.694   2.842  16.349 -0.5791 -0.0068  0.1519
  636MPD2    C2 9468   0.004   2.719  16.377  0.2640  0.1880  0.3682
  636MPD2    C3 9469   4.703   2.603  16.307 -0.1982 -0.9538 -0.3005
  636MPD2    C4 9470   4.620   2.618  16.197  0.2534 -0.1911 -0.1951
  636MPD2    C5 9471   4.569   2.744  16.169 -0.3136 -0.0378 -0.8979
  636MPD2     H 9472   0.051   2.711  16.475 -0.6152 -1.4994  0.6499
  636MPD2    H1 9473   4.575   2.538  16.140 -0.8292 -2.3425  3.6366
  636MPD2    H2 9474   4.571   2.951  16.199 -1.3404 -0.8299 -0.4993
  636MPD2    H3 9475   4.502   2.750  16.084  0.3909 -0.0846 -1.4583
  636MPD2     N 9476   0.012   2.475  16.351 -0.4251 -0.3874 -0.3625
  636MPD2    H5 9477   0.061   2.474  16.440 -0.4370 -2.2385 -0.3814
  636MPD2    N1 9478   0.000   2.951  16.427 -0.3428  0.7200  0.0255
  636MPD2    H7 9479   0.061   2.930  16.505 -0.9484 -2.7778 -0.4229
  637TMC3    C1 9480   0.097   2.270  16.331 -0.6581  0.4434  0.9868
  637TMC3    C2 9481   0.114   2.274  16.464 -0.3772  0.3896 -0.0875
  637TMC3    C3 9482   0.204   2.180  16.509  0.0872 -0.3194  0.5933
  637TMC3    C4 9483   0.174   2.194  16.245 -0.4522 -0.1546  0.7171
  637TMC3    C5 9484   0.262   2.107  16.306  0.3240  0.6145  0.7382
  637TMC3    C6 9485   0.276   2.095  16.440 -0.6542 -0.4715 -0.3303
  637TMC3     C 9486   0.017   2.366  16.270  0.1521 -0.7573 -0.7952
  637TMC3     O 9487   0.011   2.362  16.150 -0.1154 -0.4845 -0.2915
  637TMC3     H 9488   0.049   2.324  16.535 -1.9608 -1.0463 -0.5273
  637TMC3    H1 9489   0.183   2.214  16.139 -0.1942 -0.6627  0.6416
  637TMC3    H2 9490   0.341   2.019  16.483  1.6363  2.2984  1.0507
  637TMC3    C7 9491   0.297   1.987  16.236 -0.2461 -0.1620  0.7105
  637TMC3    C8 9492   0.279   2.244  16.611  0.0894  0.0567 -0.6146
  637TMC3    O1 9493   0.258   1.881  16.281  0.0320 -0.4597 -0.0452
  637TMC3    O2 9494   0.256   2.363  16.624 -0.0165 -0.8136 -0.2917
  638MPD2     C 9495   0.061   2.011  14.790 -0.1549 -0.5127  0.2442
  638MPD2    C1 9496   0.052   1.916  14.687  0.0358  0.5904 -1.0303
  638MPD2    C2 9497   0.016   1.787  14.723  0.6422  0.2773 -0.0523
  638MPD2    C3 9498   0.001   1.752  14.858 -0.6774 -0.2100  0.5228
  638MPD2    C4 9499   0.027   1.842  14.959  0.0669 -0.3965 -0.3849
  638MPD2    C5 9500   0.057   1.969  14.924  0.8917 -0.5182  0.3286
  638MPD2     H 9501   0.006   1.708  14.649  0.5339  0.2820 -0.0427
  638MPD2    H1 9502   0.041   1.816  15.063 -1.5377 -0.0081 -0.0586
  638MPD2    H2 9503   0.086   2.116  14.777 -0.1676 -0.6043 -0.5240
  638MPD2    H3 9504   0.091   2.038  15.000  0.2472  0.4950 -0.3091
  638MPD2     N 9505   4.705   1.615  14.884 -0.8325 -0.1500 -0.7128
  638MPD2    H5 9506   4.671   1.561  14.805  1.2836  0.2624 -1.9185
  638MPD2    N1 9507   0.080   1.952  14.548  0.0275  0.6402 -0.2220
  638MPD2    H7 9508   0.126   2.041  14.534  0.2541  0.3503 -1.2969
  639TMC3    C1 9509   4.702   1.409  14.993  0.0150  0.5565 -0.9484
  639TMC3    C2 9510   4.618   1.374  14.894 -0.0382  0.3859 -0.2854
  639TMC3    C3 9511   4.658   1.264  14.820  0.4218 -0.1035  0.2038
  639TMC3    C4 9512   0.080   1.337  15.029  0.0345  0.2105  0.1297
  639TMC3    C5 9513   0.110   1.232  14.950  0.7762  0.2070  0.0919
  639TMC3    C6 9514   0.034   1.192  14.841  0.5780 -0.2197 -0.2436
  639TMC3     C 9515   4.725   1.555  15.004 -0.1448 -0.3154 -0.3639
  639TMC3     O 9516   0.043   1.585  15.111 -0.1935  0.7798  0.4838
  639TMC3     H 9517   4.526   1.431  14.884  0.0659  1.0742  2.6199
  639TMC3    H1 9518   0.133   1.357  15.121  0.9115  1.7016 -0.7039
  639TMC3    H2 9519   0.055   1.093  14.802 -0.7044 -0.4941 -0.2199
  639TMC3    C7 9520   0.183   1.123  15.007 -0.1560 -0.3228  0.2116
  639TMC3    C8 9521   4.566   1.195  14.735 -0.4483 -0.2702 -0.3964
  639TMC3    O1 9522   0.175   1.094  15.124 -0.2115 -0.2106 -0.0408
  639TMC3    O2 9523   4.620   1.113  14.664 -0.4691  0.1970  0.3740
  640MPD2     C 9524   0.460   4.584  10.048 -0.3289 -0.2181 -0.3089
  640MPD2    C1 9525   0.454   4.650   9.931  0.2107  0.2326  0.1010
  640MPD2    C2 9526   0.380   0.030   9.919 -0.4788 -0.5473 -0.2964
  640MPD2    C3 9527   0.305   0.070  10.029 -0.1669 -0.1155  0.2928
  640MPD2    C4 9528   0.308   0.001  10.150 -0.0950  0.1656 -0.5134
  640MPD2    C5 9529   0.378   4.618  10.155 -0.0906 -0.0530  0.3518
  640MPD2     H 9530   0.366   0.065   9.817 -0.1324  1.6825  0.4210
  640MPD2    H1 9531   0.253   0.041  10.235  0.6707  0.4497 -0.1515
  640MPD2    H2 9532   0.509   4.488  10.055 -0.1840 -0.0525  0.9005
  640MPD2    H3 9533   0.370   4.546  10.235 -0.7992  1.1088  1.3308
  640MPD2     N 9534   0.223   0.188  10.025  0.2996  0.6656 -0.4337
  640MPD2    H5 9535   0.168   0.216  10.105  0.9454  0.4553  0.0800
  640MPD2    N1 9536   0.537   4.594   9.823  0.2614 -0.3568 -0.5374
  640MPD2    H7 9537   0.596   4.513   9.835  0.6476 -0.4621 -3.0404
  641TMC3    C1 9538   0.641   4.566   9.614  0.3923  0.1283  0.7044
  641TMC3    C2 9539   0.683   4.442   9.651  0.5162  0.4475 -0.0736
  641TMC3    C3 9540   0.779   4.384   9.572 -0.0820 -0.0703 -0.6276
  641TMC3    C4 9541   0.695   4.635   9.509 -0.8953  0.5511  0.3667
  641TMC3    C5 9542   0.784   4.569   9.430  0.3581 -0.5328 -0.1597
  641TMC3    C6 9543   0.823   4.443   9.463  0.3370  0.8173  0.5834
  641TMC3     C 9544   0.542   4.644   9.694 -0.1224  0.4009  0.4449
  641TMC3     O 9545   0.510   0.019   9.653 -0.0113 -0.1553  0.9208
  641TMC3     H 9546   0.638   4.382   9.729  0.3798  2.4446  1.3792
  641TMC3    H1 9547   0.677   0.004   9.493  0.3737  0.8644  1.0349
  641TMC3    H2 9548   0.881   4.385   9.393 -0.1443  1.4301 -0.3213
  641TMC3    C7 9549   0.834   4.636   9.314 -0.8059 -0.4492  0.5087
  641TMC3    C8 9550   0.833   4.253   9.592 -0.0382  0.0485 -0.3917
  641TMC3    O1 9551   0.932   4.586   9.267 -0.5024 -0.1938 -0.2696
  641TMC3    O2 9552   0.914   4.214   9.508 -0.4903 -0.3324 -0.2970
  642TMC3    C1 9553   1.769   1.488  12.257 -0.0336 -0.0738 -0.1605
  642TMC3    C2 9554   1.896   1.441  12.241  0.1856 -0.1217 -0.0309
  642TMC3    C3 9555   1.922   1.318  12.294  0.5839 -0.1014  0.2158
  642TMC3    C4 9556   1.674   1.417  12.316  0.1507  0.1531  1.0195
  642TMC3    C5 9557   1.698   1.287  12.346 -0.0509 -0.8335 -0.1292
  642TMC3    C6 9558   1.823   1.230  12.337  0.5853 -0.0491  0.0765
  642TMC3     C 9559   1.746   1.620  12.191  0.3025  0.4583 -0.1320
  642TMC3     O 9560   1.823   1.645  12.099 -0.1206 -0.3224  0.8857
  642TMC3     H 9561   1.980   1.479  12.184  0.1920  2.7169  1.8918
  642TMC3    H1 9562   1.571   1.451  12.319 -0.5714 -2.1007  1.8817
  642TMC3    H2 9563   1.840   1.132  12.380  2.7526  1.5614  2.9075
  642TMC3    C7 9564   1.585   1.197  12.361  0.0249 -0.4319 -0.4647
  642TMC3    C8 9565   2.059   1.265  12.287  0.0571 -0.0845 -0.0374
  642TMC3    O1 9566   1.486   1.206  12.299 -0.5059  0.6614  0.4647
  642TMC3    O2 9567   2.064   1.146  12.276 -0.0947  0.3642  0.5046
  643TMC3    C1 9568   0.396   0.631  17.739 -0.1808  0.0260 -0.2949
  643TMC3    C2 9569   0.306   0.730   0.019  0.2112 -0.3334 -0.1090
  643TMC3    C3 9570   0.290   0.820  17.661  0.1912  0.0338  0.2363
  643TMC3    C4 9571   0.449   0.601  17.617  0.2948 -0.0742 -0.2997
  643TMC3    C5 9572   0.423   0.697  17.517  0.0032 -0.4279 -0.7225
  643TMC3    C6 9573   0.346   0.806  17.534  0.8360  0.0728 -0.0917
  643TMC3     C 9574   0.418   0.545   0.111 -0.5338  0.3637 -0.5852
  643TMC3     O 9575   0.325   0.532   0.190  0.0202  0.2606 -0.1645
  643TMC3     H 9576   0.266   0.745   0.119 -0.3820  2.9807 -0.8305
  643TMC3    H1 9577   0.507   0.510  17.605  2.1215  0.9812  0.5408
  643TMC3    H2 9578   0.339   0.881  17.456  0.8861  0.9475  0.7457
  643TMC3    C7 9579   0.481   0.687  17.381 -0.3480  0.0869  0.3900
  643TMC3    C8 9580   0.234   0.954  17.689 -0.2661 -0.4558 -0.2575
  643TMC3    O1 9581   0.415   0.736  17.290  0.5282  0.0952  0.6609
  643TMC3    O2 9582   0.142   0.972   0.025  0.1516 -0.1388  0.7351
  644MPD2     C 9583   0.973   1.004   9.237 -0.0851 -0.6625 -0.6850
  644MPD2    C1 9584   0.893   0.891   9.243 -0.4525 -0.7224 -0.8738
  644MPD2    C2 9585   0.754   0.911   9.261 -0.5397 -0.2170 -0.3693
  644MPD2    C3 9586   0.702   1.035   9.273  0.3669  0.0303 -0.2381
  644MPD2    C4 9587   0.788   1.143   9.266  0.8827  0.2130  0.5220
  644MPD2    C5 9588   0.925   1.128   9.248  0.2791 -0.6442 -0.0678
  644MPD2     H 9589   0.687   0.826   9.260 -0.3774 -0.3482 -0.0132
  644MPD2    H1 9590   0.759   1.239   9.306  1.9216  0.2411  1.2159
  644MPD2    H2 9591   1.078   0.991   9.212 -0.3721 -1.1951 -1.6025
  644MPD2    H3 9592   1.001   1.205   9.258  1.9168 -2.1636 -0.8697
  644MPD2     N 9593   0.560   1.038   9.301 -0.4561  0.5213  0.1107
  644MPD2    H5 9594   0.509   0.952   9.318  0.4092 -0.2201 -1.0954
  644MPD2    N1 9595   0.956   0.765   9.258 -0.3791  0.4940  0.2072
  644MPD2    H7 9596   1.054   0.766   9.232 -0.0313 -0.1420  1.4874
  645TMC3    C1 9597   0.373   1.148   9.395  0.2913 -0.0008 -1.2117
  645TMC3    C2 9598   0.357   1.257   9.481  0.5213  0.4340  0.4067
  645TMC3    C3 9599   0.292   1.238   9.602 -0.3836 -0.4596  0.3943
  645TMC3    C4 9600   0.327   1.020   9.424 -0.5428  0.2833  0.3843
  645TMC3    C5 9601   0.261   1.008   9.549 -0.4132  0.0149 -0.0754
  645TMC3    C6 9602   0.247   1.113   9.635 -0.4314  0.3009  0.3044
  645TMC3     C 9603   0.494   1.161   9.308  0.2883 -0.3867  0.3495
  645TMC3     O 9604   0.535   1.272   9.291  0.1403  0.2682 -0.0057
  645TMC3     H 9605   0.376   1.361   9.456  1.5446 -0.0534 -0.8256
  645TMC3    H1 9606   0.317   0.941   9.351  1.6453  1.1862 -0.8861
  645TMC3    H2 9607   0.212   1.096   9.736 -0.0435 -2.4080 -0.0158
  645TMC3    C7 9608   0.200   0.878   9.564  0.2340 -0.0664 -0.5444
  645TMC3    C8 9609   0.269   1.347   9.697  1.3843 -0.2512  0.0023
  645TMC3    O1 9610   0.260   0.784   9.509 -0.2871  0.6040 -0.0646
  645TMC3    O2 9611   0.309   1.456   9.665  0.2459 -0.6154  0.4008
  646MPD2     C 9612   0.240   0.419  14.361  0.2034 -0.5349 -0.2284
  646MPD2    C1 9613   0.125   0.379  14.415  0.8935  0.5375  0.0234
  646MPD2    C2 9614   0.003   0.437  14.385 -0.3911 -0.0543 -0.4315
  646MPD2    C3 9615   0.002   0.535  14.281  0.2070  0.3839  0.6698
  646MPD2    C4 9616   0.121   0.581  14.235  0.1223  0.3030 -0.1804
  646MPD2    C5 9617   0.238   0.526  14.270  0.0778  0.6786 -0.0166
  646MPD2     H 9618   4.640   0.408  14.419 -0.9806  0.5238 -1.6848
  646MPD2    H1 9619   0.112   0.670  14.174  0.8149  0.4961 -0.0078
  646MPD2    H2 9620   0.337   0.376  14.383  1.2516  1.4961 -0.8895
  646MPD2    H3 9621   0.331   0.569  14.233  0.3678  0.3145  0.2942
  646MPD2     N 9622   4.613   0.583  14.233  0.3225 -0.5058 -0.0527
  646MPD2    H5 9623   4.529   0.560  14.287  0.9800 -1.2128  0.6623
  646MPD2    N1 9624   0.150   0.271  14.505  0.0075 -0.0668 -0.1614
  646MPD2    H7 9625   0.240   0.224  14.511 -0.1781 -0.1602  1.9019
  647TMC3    C1 9626   0.117   0.140  14.707 -0.3632  0.4741  0.1970
  647TMC3    C2 9627   0.043   0.061  14.782 -1.1944  1.0411  0.0806
  647TMC3    C3 9628   0.098   4.728  14.890  0.2659  0.1730  0.0531
  647TMC3    C4 9629   0.249   0.165  14.747 -0.2283  0.1759 -0.8733
  647TMC3    C5 9630   0.296   0.102  14.864 -0.3704 -0.1898  0.2751
  647TMC3    C6 9631   0.226   0.009  14.935 -0.4658  0.2595 -0.0981
  647TMC3     C 9632   0.058   0.227  14.599  0.1496 -0.2268  0.1040
  647TMC3     O 9633   4.674   0.245  14.592  0.1158  0.6770 -0.0785
  647TMC3     H 9634   4.674   0.054  14.757 -0.5653  0.1338 -2.3864
  647TMC3    H1 9635   0.307   0.241  14.695  0.0948  2.0024  2.1467
  647TMC3    H2 9636   0.278   4.685  15.009  0.4736  1.6821  0.4207
  647TMC3    C7 9637   0.433   0.105  14.904 -0.5254  0.0589 -0.8145
  647TMC3    C8 9638   0.011   4.628  14.954  0.4591 -0.4500 -0.2741
  647TMC3    O1 9639   0.475   0.010  14.972  0.2540 -0.0493  0.2514
  647TMC3    O2 9640   4.645   4.596  14.888  0.3327 -0.2509 -0.3768
  648TMC3    C1 9641   4.122   2.579  16.145 -0.4058 -0.1734  0.5508
  648TMC3    C2 9642   4.195   2.470  16.114 -0.5373  0.5971 -0.1862
  648TMC3    C3 9643   4.268   2.473  15.997 -0.4134  0.4130 -0.1997
  648TMC3    C4 9644   4.106   2.680  16.061  0.5604  0.5799  0.1610
  648TMC3    C5 9645   4.173   2.678  15.939 -0.4550 -0.0725  0.3520
  648TMC3    C6 9646   4.260   2.575  15.905  0.5139 -0.3424  0.1000
  648TMC3     C 9647   4.064   2.602  16.276  0.2560  0.1181  0.0810
  648TMC3     O 9648   4.086   2.715  16.314 -0.0365  0.1862  0.3099
  648TMC3     H 9649   4.187   2.381  16.175 -0.2639  0.2096 -0.7178
  648TMC3    H1 9650   4.051   2.770  16.089  2.3398  1.1262  1.8866
  648TMC3    H2 9651   4.305   2.564  15.807 -1.2956  0.2521 -0.8000
  648TMC3    C7 9652   4.146   2.778  15.842 -0.2330  0.3081 -0.0263
  648TMC3    C8 9653   4.340   2.353  15.965  0.4656 -0.4660 -0.7462
  648TMC3    O1 9654   4.210   2.789  15.740 -0.4354  0.2177  0.8623
  648TMC3    O2 9655   4.343   2.271  16.057  0.6877  0.0165  0.1523
  649TMC3    C1 9656   3.167   3.464  13.326  0.6502  0.0004  0.4109
  649TMC3    C2 9657   3.244   3.535  13.413 -0.5903  0.5260  0.3266
  649TMC3    C3 9658   3.254   3.492  13.541  0.2786  0.2602  0.3149
  649TMC3    C4 9659   3.106   3.350  13.363 -0.1854  0.1162 -0.4059
  649TMC3    C5 9660   3.124   3.302  13.486 -0.3551 -0.0314  0.5731
  649TMC3    C6 9661   3.195   3.374  13.577  0.7974 -0.4712  0.1445
  649TMC3     C 9662   3.095   3.551  13.228 -0.5676  0.0310  0.3709
  649TMC3     O 9663   3.115   3.669  13.241  0.0781 -0.1453 -0.2906
  649TMC3     H 9664   3.294   3.626  13.379  1.6868 -0.7654  0.2394
  649TMC3    H1 9665   3.025   3.312  13.303 -0.6948  0.4259  0.0816
  649TMC3    H2 9666   3.197   3.341  13.681 -1.5317  1.3689  0.7880
  649TMC3    C7 9667   3.042   3.189  13.542 -0.1340  0.0409  0.5844
  649TMC3    C8 9668   3.361   3.541  13.626  0.1731 -0.1642  0.0310
  649TMC3    O1 9669   3.038   3.177  13.666  0.5826 -0.2349  0.2569
  649TMC3    O2 9670   3.369   3.511  13.743 -0.3225 -0.1192 -0.0364
  650TMC3    C1 9671   1.168   0.928  12.719  0.3476  0.6043 -0.3433
  650TMC3    C2 9672   1.178   1.058  12.774  0.0213  0.0677 -0.1490
  650TMC3    C3 9673   1.116   1.161  12.705  0.4390 -0.0684 -0.4347
  650TMC3    C4 9674   1.129   0.906  12.585 -0.1823 -0.4206 -0.2162
  650TMC3    C5 9675   1.093   1.016  12.519 -0.5373 -0.2659  1.0687
  650TMC3    C6 9676   1.076   1.141  12.575  0.1535 -0.2118  0.1193
  650TMC3     C 9677   1.185   0.821  12.807 -0.4310  0.4714  0.5142
  650TMC3     O 9678   1.193   0.842  12.933  0.0461 -0.3882  0.1875
  650TMC3     H 9679   1.204   1.076  12.878 -0.5999  1.3700 -0.2175
  650TMC3    H1 9680   1.102   0.806  12.550 -1.1928 -0.0193 -0.6062
  650TMC3    H2 9681   1.027   1.221  12.520 -0.0714  0.1563  0.8508
  650TMC3    C7 9682   1.091   1.006  12.373 -0.1239  0.6905  0.5130
  650TMC3    C8 9683   1.132   1.301  12.750 -0.3391 -0.0412 -0.2822
  650TMC3    O1 9684   1.028   0.912  12.326  0.5042 -0.0811 -0.1651
  650TMC3    O2 9685   1.055   1.383  12.705  0.7021 -0.0378 -0.4437
  651MPD2     C 9686   4.553   2.025  10.645  0.5130  0.3906  0.2732
  651MPD2    C1 9687   4.489   2.141  10.651 -0.3713 -0.2046  0.2344
  651MPD2    C2 9688   4.560   2.262  10.642 -0.4736 -0.3529  0.2734
  651MPD2    C3 9689   4.697   2.260  10.618 -0.5204 -0.3018 -0.8142
  651MPD2    C4 9690   0.022   2.140  10.608 -0.0766 -0.3246  0.2747
  651MPD2    C5 9691   4.690   2.030  10.626  0.2849 -0.0884  0.3100
  651MPD2     H 9692   4.504   2.355  10.641  1.7725  0.9885 -1.2368
  651MPD2    H1 9693   0.125   2.118  10.581  0.3145 -0.6498  2.0432
  651MPD2    H2 9694   4.512   1.926  10.664 -0.4177  0.1998 -2.8160
  651MPD2    H3 9695   0.016   1.942  10.612  1.4402  0.4425  2.2064
  651MPD2     N 9696   0.041   2.376  10.612 -0.2220  0.5315  0.4461
  651MPD2    H5 9697   4.731   2.464  10.634  0.4436  0.9194  0.2831
  651MPD2    N1 9698   4.347   2.145  10.672 -0.0533  0.2383 -0.2548
  651MPD2    H7 9699   4.302   2.234  10.691  0.6602  0.0610  2.2761
  652TMC3    C1 9700   0.439   2.645  10.552  0.6868 -1.3462  0.2172
  652TMC3    C2 9701   0.365   2.529  10.523  0.7925 -0.1653  0.4970
  652TMC3    C3 9702   0.244   2.512  10.587 -0.2940  0.3860  0.1281
  652TMC3    C4 9703   0.408   2.732  10.660 -0.1219 -0.0168 -0.5758
  652TMC3    C5 9704   0.292   2.709  10.716  0.4315  0.0136  0.2558
  652TMC3    C6 9705   0.207   2.603  10.685  0.2584  0.4630  0.6254
  652TMC3     C 9706   0.576   2.646  10.505 -0.0398 -0.1504  0.2837
  652TMC3     O 9707   0.619   2.547  10.452 -0.1113  0.0359 -0.6600
  652TMC3     H 9708   0.410   2.463  10.448  0.7456  1.4234 -0.9243
  652TMC3    H1 9709   0.481   2.797  10.705  0.4951  0.0583 -1.6912
  652TMC3    H2 9710   0.114   2.592  10.739  0.4078  0.7659  0.9409
  652TMC3    C7 9711   0.254   2.810  10.813 -0.3469  0.9294 -0.1760
  652TMC3    C8 9712   0.176   2.377  10.573  0.0101 -0.1965  0.0265
  652TMC3    O1 9713   0.212   2.769  10.919  0.2406 -0.3120 -0.4855
  652TMC3    O2 9714   0.239   2.298  10.506 -0.1072  0.5572 -1.0231
  653MPD2     C 9715   3.231   2.508  17.694 -0.1590 -0.8170  0.3533
  653MPD2    C1 9716   3.179   2.623  17.641 -0.6252 -0.1968 -0.2316
  653MPD2    C2 9717   3.107   2.613  17.523  0.3395 -0.1134 -0.2323
  653MPD2    C3 9718   3.102   2.498  17.451 -0.1201 -0.6494 -0.3762
  653MPD2    C4 9719   3.158   2.383  17.502  0.4585 -1.1320  0.0977
  653MPD2    C5 9720   3.221   2.391  17.628  0.8858 -0.3363 -0.5828
  653MPD2     H 9721   3.066   2.700  17.473  1.3474 -0.3286 -1.4593
  653MPD2    H1 9722   3.135   2.283  17.467  1.8362 -1.4941  0.2064
  653MPD2    H2 9723   3.266   2.502   0.052  2.0469 -2.1545 -0.4860
  653MPD2    H3 9724   3.242   2.298  17.680 -0.2113 -0.8392 -1.0373
  653MPD2     N 9725   3.030   2.494  17.320 -0.7094 -0.2034  0.6355
  653MPD2    H5 9726   2.975   2.574  17.291  0.3054  0.7565  1.3663
  653MPD2    N1 9727   3.191   2.749  17.706 -0.1489  0.4616  0.0503
  653MPD2    H7 9728   3.163   2.831  17.654  0.7287  0.2750 -0.7138
  654TMC3    C1 9729   2.936   2.418  17.122  0.0178  0.2854  0.0334
  654TMC3    C2 9730   2.862   2.531  17.117  0.2205  0.6274 -0.1806
  654TMC3    C3 9731   2.795   2.561  16.999 -0.0365  0.0279  0.1218
  654TMC3    C4 9732   2.948   2.331  17.014  0.2231 -1.3142 -0.7030
  654TMC3    C5 9733   2.869   2.356  16.899  0.3780  0.2660  0.8313
  654TMC3    C6 9734   2.800   2.475  16.889 -0.3289  0.5289 -0.5434
  654TMC3     C 9735   3.020   2.386  17.235  0.7049 -0.6157 -0.4069
  654TMC3     O 9736   3.069   2.272  17.237 -0.2761  0.1958 -0.1384
  654TMC3     H 9737   2.852   2.589  17.208  3.0879 -0.5763  0.8876
  654TMC3    H1 9738   3.022   2.252  17.009  1.2781 -0.2169 -2.2475
  654TMC3    H2 9739   2.744   2.502  16.800  0.5234 -0.9224 -1.5233
  654TMC3    C7 9740   2.869   2.274  16.785  0.1254 -0.1558  0.5005
  654TMC3    C8 9741   2.675   2.642  17.007 -0.7278 -0.5096  0.0709
  654TMC3    O1 9742   2.855   2.332  16.682  0.4890 -0.1732 -0.4064
  654TMC3    O2 9743   2.595   2.616  16.916 -0.3202  0.4853  0.3721
  655MPD2     C 9744   0.051   2.802  15.732  0.0162  0.4309 -0.4763
  655MPD2    C1 9745   4.735   2.911  15.659 -0.4257 -0.4982  0.4576
  655MPD2    C2 9746   0.049   2.933  15.533  0.6169 -0.4490 -0.5137
  655MPD2    C3 9747   0.134   2.845  15.470 -0.4138  0.1866  0.0072
  655MPD2    C4 9748   0.177   2.735  15.540 -0.3086  0.5437 -0.3340
  655MPD2    C5 9749   0.133   2.711  15.671 -0.1766 -0.0656  0.1985
  655MPD2     H 9750   0.012   3.019  15.478  1.7985  1.7953  2.2096
  655MPD2    H1 9751   0.233   2.658  15.488  0.9368  0.7629  0.7012
  655MPD2    H2 9752   0.019   2.797  15.836 -0.2530  0.5415 -0.5537
  655MPD2    H3 9753   0.160   2.620  15.723  2.1215  0.8952  0.7039
  655MPD2     N 9754   0.169   2.850  15.333  0.3721 -0.3376 -0.2306
  655MPD2    H5 9755   0.208   2.763  15.297  0.8760  0.2117 -1.0042
  655MPD2    N1 9756   4.638   3.002  15.716 -0.2154  0.1815  0.4495
  655MPD2    H7 9757   4.620   3.085  15.661  0.3116 -0.2805 -0.4104
  656TMC3    C1 9758   4.459   3.075  15.864  0.5941  0.0387  0.4117
  656TMC3    C2 9759   4.369   3.035  15.957 -0.4201 -0.3733  0.0991
  656TMC3    C3 9760   4.259   3.119  15.981 -0.0327  0.9346  0.1867
  656TMC3    C4 9761   4.434   3.184  15.785 -0.3498 -0.0045 -0.4423
  656TMC3    C5 9762   4.328   3.262  15.804  0.7110 -0.5641 -0.5093
  656TMC3    C6 9763   4.234   3.222  15.896  0.2316  0.0204  0.1529
  656TMC3     C 9764   4.558   2.978  15.825 -0.1141 -0.9251 -0.4236
  656TMC3     O 9765   4.552   2.869  15.882 -0.3996  0.1618  0.3977
  656TMC3     H 9766   4.394   2.955  16.026  0.1409 -1.1364 -0.9969
  656TMC3    H1 9767   4.507   3.212  15.710  1.0062  0.7494  1.1854
  656TMC3    H2 9768   4.144   3.279  15.915 -0.5263 -0.5960 -1.6219
  656TMC3    C7 9769   4.291   3.354  15.697  0.6908  0.0138  0.3632
  656TMC3    C8 9770   4.167   3.076  16.076 -0.0348 -0.2614 -0.5061
  656TMC3    O1 9771   4.379   3.377  15.617 -0.5035  0.2825 -0.2195
  656TMC3    O2 9772   4.176   2.958  16.115 -0.1271 -0.2394 -0.1656
  657TMC3    C1 9773   3.385   2.440  14.680  0.8911  0.3807  1.0915
  657TMC3    C2 9774   3.424   2.487  14.801 -0.4089 -1.0867  0.3561
  657TMC3    C3 9775   3.380   2.609  14.841  0.0214  0.5525  0.0828
  657TMC3    C4 9776   3.296   2.501  14.595 -0.1233 -0.0113  0.4752
  657TMC3    C5 9777   3.249   2.620  14.644  0.1853  0.2581 -0.0343
  657TMC3    C6 9778   3.302   2.679  14.757  0.1708 -0.8743  0.0821
  657TMC3     C 9779   3.424   2.308  14.625 -0.5372  0.4167  0.7795
  657TMC3     O 9780   3.402   2.280  14.506  0.5370  0.0132 -0.5985
  657TMC3     H 9781   3.495   2.434  14.863  0.5415 -1.2644 -0.8832
  657TMC3    H1 9782   3.247   2.450  14.513  0.5415  0.5527 -0.2776
  657TMC3    H2 9783   3.275   2.780  14.787 -1.9973 -0.3659 -3.5873
  657TMC3    C7 9784   3.153   2.681  14.562  0.3469  0.2705 -0.8510
  657TMC3    C8 9785   3.375   2.646  14.984  0.6569  0.3090  0.5338
  657TMC3    O1 9786   3.150   2.653  14.443 -0.3478 -0.1245  0.0112
  657TMC3    O2 9787   3.313   2.742  15.013 -0.1656 -0.6777 -0.6975
  658MPD2     C 9788   4.594   2.285  14.932 -0.4064 -0.1099 -0.5352
  658MPD2    C1 9789   4.673   2.388  14.905 -0.1936 -0.0056 -0.0347
  658MPD2    C2 9790   4.694   2.423  14.774  0.0929  0.2125 -0.2906
  658MPD2    C3 9791   4.632   2.348  14.671  0.7026  0.7370  0.3819
  658MPD2    C4 9792   4.546   2.239  14.704  0.1848  0.0349  0.0029
  658MPD2    C5 9793   4.531   2.206  14.832  0.0233  0.2131 -0.2667
  658MPD2     H 9794   0.007   2.514  14.741  1.1071 -0.1087  0.3867
  658MPD2    H1 9795   4.502   2.172  14.631  0.1328  0.3390 -0.2467
  658MPD2    H2 9796   4.581   2.253  15.035  1.3106 -1.3329 -0.7075
  658MPD2    H3 9797   4.479   2.115  14.857 -1.7386  1.5297  0.8781
  658MPD2     N 9798   4.653   2.403  14.540  0.3149 -0.5062  0.2331
  658MPD2    H5 9799   4.705   2.490  14.533  2.0935 -1.5980 -0.1988
  658MPD2    N1 9800   4.728   2.463  15.011 -0.0704  0.1180 -0.2381
  658MPD2    H7 9801   4.682   2.465  15.101 -0.0936  2.2912 -0.3108
  659TMC3    C1 9802   0.037   2.678  15.064  0.2654 -0.8720  0.1315
  659TMC3    C2 9803   0.140   2.760  15.101 -0.2925  0.0347  0.0272
  659TMC3    C3 9804   0.107   2.894  15.123  0.7648  0.4125 -0.4023
  659TMC3    C4 9805   4.648   2.716  15.033  0.0265 -0.5756  0.2626
  659TMC3    C5 9806   4.621   2.841  15.060  0.5551  0.0923  0.2073
  659TMC3    C6 9807   4.716   2.935  15.099 -0.0278 -0.7367  0.3186
  659TMC3     C 9808   0.081   2.562  14.992  0.0368  0.2254  0.8300
  659TMC3     O 9809   0.178   2.575  14.920 -0.3887 -0.5923  0.2207
  659TMC3     H 9810   0.244   2.730  15.107 -0.4766 -0.6430 -0.1960
  659TMC3    H1 9811   4.570   2.644  15.008 -2.1414  1.2408  1.7536
  659TMC3    H2 9812   4.686   3.037  15.121 -1.9328 -0.7297 -2.2858
  659TMC3    C7 9813   4.484   2.864  15.097 -0.6622 -0.5175  0.1227
  659TMC3    C8 9814   0.158   2.952  15.243 -0.4839 -0.7565  0.5403
  659TMC3    O1 9815   4.410   2.768  15.106 -0.3070 -0.7910 -0.4318
  659TMC3    O2 9816   0.115   3.066  15.266  0.2561  0.5256  0.1397
  660MPD2     C 9817   3.184   1.165  12.290 -0.2131 -0.0385 -0.1173
  660MPD2    C1 9818   3.072   1.247  12.303  0.7679 -0.3538 -1.1559
  660MPD2    C2 9819   2.994   1.243  12.421  0.0273 -0.2049 -0.3069
  660MPD2    C3 9820   3.030   1.168  12.534  0.7033 -0.4446  0.2703
  660MPD2    C4 9821   3.150   1.100  12.525  0.5254  0.3561  0.4053
  660MPD2    C5 9822   3.224   1.100  12.408 -0.5709  0.4700  0.3707
  660MPD2     H 9823   2.899   1.295  12.421  1.0526  1.6606 -1.5100
  660MPD2    H1 9824   3.191   1.031  12.599 -0.2089 -0.9194 -0.3681
  660MPD2    H2 9825   3.232   1.157  12.193  0.0053 -0.4149  0.0243
  660MPD2    H3 9826   3.317   1.045  12.405 -0.9914 -0.0742 -2.2143
  660MPD2     N 9827   2.950   1.148  12.643  0.2750 -0.2533  0.1224
  660MPD2    H5 9828   2.975   1.068  12.701  0.8850  0.1606  0.4310
  660MPD2    N1 9829   3.020   1.304  12.182  0.1504 -0.2328  0.6349
  660MPD2    H7 9830   3.066   1.290  12.093 -1.9564 -1.3601 -0.2930
  661TMC3    C1 9831   2.871   1.424  12.037 -1.0997  0.3562 -0.3016
  661TMC3    C2 9832   2.961   1.418  11.938  0.8910 -0.4142 -0.0732
  661TMC3    C3 9833   2.923   1.460  11.819  0.7195  0.5999 -0.2089
  661TMC3    C4 9834   2.739   1.470  12.017  0.2136  0.1279 -0.3560
  661TMC3    C5 9835   2.705   1.513  11.893  0.4438 -0.3822  0.0576
  661TMC3    C6 9836   2.801   1.514  11.790 -0.1488 -0.0568 -0.1023
  661TMC3     C 9837   2.910   1.390  12.169  0.3492  0.4999  0.7522
  661TMC3     O 9838   2.851   1.451  12.256 -0.5437  0.7981 -0.3116
  661TMC3     H 9839   3.067   1.410  11.954  0.8761 -1.9819 -0.7826
  661TMC3    H1 9840   2.663   1.457  12.093  0.8238  1.6446  0.5204
  661TMC3    H2 9841   2.763   1.529  11.690  0.6643  1.3271 -0.1969
  661TMC3    C7 9842   2.565   1.500  11.859 -0.7763 -0.3916 -0.9788
  661TMC3    C8 9843   3.020   1.421  11.714 -0.1708  0.1369 -0.0544
  661TMC3    O1 9844   2.536   1.461  11.746 -0.0021 -0.5779 -0.3998
  661TMC3    O2 9845   3.108   1.349  11.751  0.4676  0.0052  0.4003
  662MPD2     C 9846   2.697   1.460  16.719  0.5248  0.1306  0.6875
  662MPD2    C1 9847   2.661   1.364  16.813 -0.3939  0.0284 -0.8463
  662MPD2    C2 9848   2.574   1.404  16.911 -0.0856  0.6700 -0.0398
  662MPD2    C3 9849   2.529   1.528  16.939 -0.6642  0.4061  0.6756
  662MPD2    C4 9850   2.590   1.627  16.859  0.2319 -0.2099  0.4562
  662MPD2    C5 9851   2.666   1.587  16.752 -0.3000 -0.3186  1.1789
  662MPD2     H 9852   2.521   1.327  16.966 -2.7491  2.0073 -0.7157
  662MPD2    H1 9853   2.568   1.731  16.876 -0.9630 -0.5783  1.1990
  662MPD2    H2 9854   2.763   1.436  16.636 -0.0036  1.3100 -0.0788
  662MPD2    H3 9855   2.707   1.668  16.694 -0.9307 -1.7487 -1.2666
  662MPD2     N 9856   2.417   1.546  17.030 -0.3051 -0.2402 -0.4956
  662MPD2    H5 9857   2.383   1.464  17.080  2.8052 -1.4109 -0.3149
  662MPD2    N1 9858   2.693   1.228  16.805 -0.1113 -0.4262 -0.1616
  662MPD2    H7 9859   2.664   1.168  16.881 -3.0029 -0.0169 -0.9483
  663TMC3    C1 9860   2.804   1.032  16.749 -0.1612  0.5225 -0.0330
  663TMC3    C2 9861   2.826   1.021  16.883 -0.6652 -0.4850  0.6334
  663TMC3    C3 9862   2.760   0.924  16.963 -0.2336  0.1251  0.7609
  663TMC3    C4 9863   2.726   0.945  16.685  0.8553  0.4056 -0.1353
  663TMC3    C5 9864   2.689   0.835  16.755 -0.3206  0.7152 -0.0225
  663TMC3    C6 9865   2.700   0.823  16.893  0.3252  0.1379 -0.7457
  663TMC3     C 9866   2.773   1.169  16.710  0.3427  0.3271 -0.5086
  663TMC3     O 9867   2.793   1.205  16.592  0.2247  0.2170  0.2812
  663TMC3     H 9868   2.854   1.113  16.932  0.7024  0.5494 -2.0796
  663TMC3    H1 9869   2.695   0.949  16.582  0.6040 -0.4248 -0.0953
  663TMC3    H2 9870   2.623   0.770  16.949 -0.4308 -2.3545 -4.2057
  663TMC3    C7 9871   2.608   0.736  16.690  0.1424  0.8300 -0.5032
  663TMC3    C8 9872   2.669   0.980  17.059 -0.7236 -0.2919 -0.7244
  663TMC3    O1 9873   2.558   0.762  16.579  0.4285 -0.3407 -0.0947
  663TMC3    O2 9874   2.643   1.094  17.023  0.0499  0.1122  0.0123
  664MPD2     C 9875   1.037   3.674   0.055 -0.7442 -0.2484  0.1509
  664MPD2    C1 9876   0.948   3.764   0.010  0.2230 -0.4794  0.3538
  664MPD2    C2 9877   0.815   3.746   0.062  0.1711  0.2167  0.7814
  664MPD2    C3 9878   0.786   3.647   0.156 -0.0648  0.2148 -0.5395
  664MPD2    C4 9879   0.884   3.561   0.191 -0.2016 -0.1638 -0.0145
  664MPD2    C5 9880   1.006   3.570   0.129  0.7964  0.4249 -0.0678
  664MPD2     H 9881   0.733   3.814   0.042  1.0335  0.7469 -0.9462
  664MPD2    H1 9882   0.873   3.489   0.271 -1.2705 -0.1528 -0.1525
  664MPD2    H2 9883   1.141   3.690   0.026 -1.1121  0.2107 -0.9582
  664MPD2    H3 9884   1.081   3.495   0.150  0.6144 -0.2374 -1.7860
  664MPD2     N 9885   0.661   3.663   0.227  1.0307 -0.0945 -0.1731
  664MPD2    H5 9886   0.615   3.752   0.207  1.8510  0.6693  1.3783
  664MPD2    N1 9887   0.976   3.887  17.689 -0.8284 -0.0616 -0.4059
  664MPD2    H7 9888   0.894   3.921  17.640 -0.6505  0.5025 -0.3050
  665TMC3    C1 9889   0.494   3.636   0.390  0.1180 -0.5163 -0.3350
  665TMC3    C2 9890   0.503   3.613   0.521  0.1781 -0.1940  0.3284
  665TMC3    C3 9891   0.434   3.688   0.608  0.4211  0.2741  0.1511
  665TMC3    C4 9892   0.448   3.760   0.346  0.1153  0.0074 -0.7592
  665TMC3    C5 9893   0.397   3.843   0.440 -0.3421 -0.5898 -0.0054
  665TMC3    C6 9894   0.384   3.808   0.571  0.1160 -0.1310 -0.1371
  665TMC3     C 9895   0.606   3.580   0.318  0.2665  0.1478  0.2542
  665TMC3     O 9896   0.658   3.485   0.377  0.3660 -0.6013 -0.6074
  665TMC3     H 9897   0.531   3.515   0.558  0.4479 -0.1738  0.1793
  665TMC3    H1 9898   0.442   3.786   0.241 -1.2045 -0.0364 -0.6901
  665TMC3    H2 9899   0.327   3.872   0.637 -0.8782 -0.5306 -0.6113
  665TMC3    C7 9900   0.396   3.984   0.407  0.4829  0.1717  0.0237
  665TMC3    C8 9901   0.442   3.663   0.749  0.5730  0.3423  0.3470
  665TMC3    O1 9902   0.355   4.014   0.296 -0.0909 -0.5181 -0.2521
  665TMC3    O2 9903   0.456   3.754   0.825  0.0625  0.0213  0.3081
  666TMC3    C1 9904   0.128   3.476  10.152  0.1854  0.8216 -0.5758
  666TMC3    C2 9905   0.203   3.443  10.042  0.7781 -0.9775  1.1829
  666TMC3    C3 9906   0.238   3.542   9.962  0.3396  0.2164 -0.4722
  666TMC3    C4 9907   0.102   3.610  10.180  0.2682  0.6525 -0.3385
  666TMC3    C5 9908   0.139   3.702  10.090 -0.0275  0.0978 -0.8519
  666TMC3    C6 9909   0.195   3.672   9.972 -0.2666 -0.3612 -0.6011
  666TMC3     C 9910   0.115   3.375  10.254  0.7925 -0.7133  0.5282
  666TMC3     O 9911   0.080   3.411  10.366  0.1033 -0.2236 -0.2099
  666TMC3     H 9912   0.242   3.344  10.019 -0.2783 -0.4213 -2.9686
  666TMC3    H1 9913   0.047   3.635  10.270 -1.0386  0.4389 -1.0738
  666TMC3    H2 9914   0.198   3.740   9.888  0.2161 -2.4917 -2.3016
  666TMC3    C7 9915   0.139   3.846  10.129  1.6577 -0.5356 -0.0575
  666TMC3    C8 9916   0.336   3.509   9.859 -0.4829  0.4391  0.2788
  666TMC3    O1 9917   0.104   3.863  10.244 -0.0230  0.2419 -0.1410
  666TMC3    O2 9918   0.310   3.403   9.800  0.6245  0.4627  0.0336
  667MPD2     C 9919   1.883   4.187  14.537 -0.6918  0.1611 -0.0360
  667MPD2    C1 9920   1.817   4.220  14.646 -0.3606 -0.5100  0.5501
  667MPD2    C2 9921   1.738   4.121  14.707  0.6435  0.8679  0.3838
  667MPD2    C3 9922   1.718   3.998  14.642 -0.2336 -0.2471  0.5732
  667MPD2    C4 9923   1.779   3.976  14.524  0.5101  0.1360 -0.4583
  667MPD2    C5 9924   1.867   4.066  14.473 -0.4586  0.0412 -0.2377
  667MPD2     H 9925   1.690   4.150  14.800  0.8306  0.9413  0.4571
  667MPD2    H1 9926   1.758   3.886  14.468 -1.8063  1.0673 -1.0943
  667MPD2    H2 9927   1.951   4.260  14.495  1.0267 -0.8285  0.9947
  667MPD2    H3 9928   1.909   4.045  14.375 -0.5365  1.3270 -0.5556
  667MPD2     N 9929   1.631   3.894  14.691  0.0859 -0.2670  0.0057
  667MPD2    H5 9930   1.625   3.819  14.623  0.2222 -0.9514  0.7517
  667MPD2    N1 9931   1.806   4.347  14.706  0.1397 -0.0120  0.2015
  667MPD2    H7 9932   1.744   4.360  14.785  2.0037 -0.0146  1.6663
  668TMC3    C1 9933   1.901   4.548  14.779 -0.6747 -0.8900 -0.4496
  668TMC3    C2 9934   1.940   4.675  14.763  0.9652 -0.2275 -0.4883
  668TMC3    C3 9935   1.955   0.019  14.872 -0.0782 -0.4452  0.2479
  668TMC3    C4 9936   1.874   4.506  14.909 -0.1658  0.1427  0.2391
  668TMC3    C5 9937   1.886   4.592  15.018  0.3346 -0.3884 -0.8340
  668TMC3    C6 9938   1.932   4.715  15.003  0.2286 -0.2958  0.5490
  668TMC3     C 9939   1.891   4.454  14.669 -0.5327  0.0791  0.0975
  668TMC3     O 9940   1.945   4.475  14.559  0.6655 -0.2907 -0.0210
  668TMC3     H 9941   1.974   4.703  14.663 -1.3930 -1.2226 -1.5681
  668TMC3    H1 9942   1.878   4.399  14.926 -1.0949 -0.0469 -0.7259
  668TMC3    H2 9943   1.925   0.050  15.085 -1.4693  1.5387 -1.1983
  668TMC3    C7 9944   1.876   4.539  15.149 -0.3047 -0.1907  0.7290
  668TMC3    C8 9945   2.005   0.154  14.859 -0.3092  0.4498  0.2191
  668TMC3    O1 9946   1.963   4.577  15.223  0.0939 -0.1980 -0.2846
  668TMC3    O2 9947   1.988   0.234  14.952 -0.0356 -0.1615  0.2575
  669TMC3    C1 9948   4.552   4.008  14.934  0.2649 -0.0845  0.5788
  669TMC3    C2 9949   4.445   4.039  14.861  0.5589  0.5189 -0.2466
  669TMC3    C3 9950   4.462   4.130  14.758  0.4075  0.4907  0.7472
  669TMC3    C4 9951   4.669   4.075  14.929 -0.9193  0.2167 -0.2628
  669TMC3    C5 9952   4.689   4.157  14.828  0.0596  0.3268  0.1081
  669TMC3    C6 9953   4.585   4.191  14.744  0.7432  0.1455  0.1205
  669TMC3     C 9954   4.526   3.917  15.048  0.0195 -0.0829  0.6477
  669TMC3     O 9955   4.418   3.937  15.110 -0.3724  0.3168  0.4536
  669TMC3     H 9956   4.352   3.987  14.878  0.8411  0.5188  1.2943
  669TMC3    H1 9957   0.015   4.044  14.993 -0.9838  0.3522 -0.1176
  669TMC3    H2 9958   4.603   4.264  14.666 -0.7172 -3.0131 -3.1876
  669TMC3    C7 9959   0.072   4.236  14.810 -0.1584  0.8546 -0.3369
  669TMC3    C8 9960   4.353   4.146  14.667 -0.2175 -0.5909 -0.3361
  669TMC3    O1 9961   0.100   4.281  14.698  0.0469  0.4570 -0.2183
  669TMC3    O2 9962   4.264   4.064  14.666 -0.0864 -0.0288  0.4188
  670MPD2     C 9963   3.157   2.095  13.071 -0.7098 -0.3456  0.0666
  670MPD2    C1 9964   3.221   2.115  13.190  0.2499  0.4762  0.6212
  670MPD2    C2 9965   3.153   2.080  13.309 -0.6387  0.0183 -0.2430
  670MPD2    C3 9966   3.026   2.024  13.311  0.4875  0.6495  0.1096
  670MPD2    C4 9967   2.964   2.010  13.190  0.2334 -0.3592 -0.8975
  670MPD2    C5 9968   3.030   2.043  13.067  0.2815 -0.1080  0.7330
  670MPD2     H 9969   3.205   2.086  13.404  0.9819 -0.2939 -1.1228
  670MPD2    H1 9970   2.862   1.979  13.171  0.1500  0.1086 -1.2262
  670MPD2    H2 9971   3.195   2.123  12.974 -1.5677  0.8899  0.0915
  670MPD2    H3 9972   2.988   2.030  12.968  2.2393 -0.7192 -0.0147
  670MPD2     N 9973   2.972   1.977  13.431  0.1669 -0.2497  0.3390
  670MPD2    H5 9974   3.029   1.972  13.515  2.8016 -0.2543 -1.4690
  670MPD2    N1 9975   3.354   2.160  13.194  0.1223  0.3248  0.2666
  670MPD2    H7 9976   3.390   2.169  13.289  1.2043  1.1957 -0.2256
  671TMC3    C1 9977   2.832   1.846  13.564 -0.3384 -0.1133 -0.4202
  671TMC3    C2 9978   2.924   1.828  13.662 -0.7848  0.0407 -0.3199
  671TMC3    C3 9979   2.900   1.755  13.775  0.5155 -0.1663  0.1035
  671TMC3    C4 9980   2.703   1.799  13.584 -0.2221  0.6135  0.7102
  671TMC3    C5 9981   2.682   1.722  13.693 -0.3893 -0.9262  0.3279
  671TMC3    C6 9982   2.775   1.703  13.795 -0.4996  0.4419  0.1523
  671TMC3     C 9983   2.843   1.930  13.446 -0.2214  0.6816 -0.2250
  671TMC3     O 9984   2.744   1.946  13.375 -0.1575  0.4054  0.3803
  671TMC3     H 9985   3.030   1.838  13.641 -0.2262 -2.1518  1.3904
  671TMC3    H1 9986   2.628   1.814  13.507  0.9757 -0.0105 -0.5990
  671TMC3    H2 9987   2.757   1.621  13.865 -0.8071  1.7561  1.6128
  671TMC3    C7 9988   2.603   1.611  13.671 -0.4161 -0.4210 -0.6020
  671TMC3    C8 9989   2.998   1.652  13.795 -0.9739 -0.6074 -0.0749
  671TMC3    O1 9990   2.598   1.569  13.557 -0.6735 -0.1396 -0.0109
  671TMC3    O2 9991   3.029   1.592  13.689 -0.0110 -0.4544  0.2904
  672MPD2     C 9992   2.762   1.550   0.783 -0.5297  0.1003  0.4979
  672MPD2    C1 9993   2.819   1.651   0.704  0.3680 -0.0891 -0.3984
  672MPD2    C2 9994   2.906   1.739   0.773  0.6078 -0.3965  1.4789
  672MPD2    C3 9995   2.952   1.713   0.905  0.7899 -1.2973  0.0579
  672MPD2    C4 9996   2.907   1.600   0.967  0.0963 -0.3819 -0.2248
  672MPD2    C5 9997   2.810   1.534   0.909  0.4778  0.0166  0.3010
  672MPD2     H 9998   2.956   1.819   0.720  0.2348  0.7892  2.9170
  672MPD2    H1 9999   2.946   1.563   1.062  2.9727  1.1338 -0.8062
  672MPD2    H210000   2.688   1.485   0.739  0.2380  1.0139 -2.1280
  672MPD2    H310001   2.770   1.446   0.958  0.8211 -0.3268 -0.0286
  672MPD2     N10002   3.050   1.791   0.968  0.1453 -0.1580  0.1744
  672MPD2    H510003   3.095   1.763   1.055 -1.1446 -0.5322  0.7193
  672MPD2    N110004   2.791   1.671   0.564  0.0438  0.1890  0.4157
  672MPD2    H710005   2.843   1.743   0.514  0.3263  0.6451  1.3768
  673TMC3    C110006   2.773   1.597   0.343  0.3211  0.1268 -0.4471
  673TMC3    C210007   2.794   1.489   0.266 -0.2860 -0.2478 -0.1261
  673TMC3    C310008   2.771   1.498   0.129 -0.0869  0.2276  0.3864
  673TMC3    C410009   2.735   1.712   0.287  0.0663  0.1747 -0.9062
  673TMC3    C510010   2.720   1.723   0.154 -0.3126 -0.4177 -0.0799
  673TMC3    C610011   2.744   1.617   0.071  0.2541 -0.3545  0.4869
  673TMC3     C10012   2.745   1.571   0.485 -0.5522 -0.1476 -0.0797
  673TMC3     O10013   2.708   1.461   0.509  0.4884 -0.7087  0.1629
  673TMC3     H10014   2.805   1.392   0.313  2.1207  0.5432  0.9513
  673TMC3    H110015   2.727   1.800   0.349 -0.3342 -0.7767  0.3919
  673TMC3    H210016   2.734   1.618  17.707  1.1435 -0.0984  0.4065
  673TMC3    C710017   2.738   1.847   0.085  0.0082 -0.6667  0.1933
  673TMC3    C810018   2.855   1.416   0.045  0.8747 -0.1075  0.1098
  673TMC3    O110019   2.769   1.831  17.710 -0.1459  0.4736 -0.3445
  673TMC3    O210020   2.842   1.408  17.667 -0.3842  0.3530  0.0832
  674MPD2     C10021   2.760   2.270  17.434 -0.2695 -0.1120 -0.5069
  674MPD2    C110022   2.660   2.181  17.457 -0.2775 -0.2164  0.6315
  674MPD2    C210023   2.545   2.215  17.525  0.4758  0.4118  0.0834
  674MPD2    C310024   2.533   2.344  17.577  0.1955 -0.3855 -0.4832
  674MPD2    C410025   2.635   2.437  17.550 -0.4976  0.6106 -0.6021
  674MPD2    C510026   2.741   2.398  17.479  0.8537 -0.3089 -0.4206
  674MPD2     H10027   2.468   2.138  17.525  1.5783 -0.7000  0.0079
  674MPD2    H110028   2.628   2.543  17.574  0.9010  0.5354  0.1353
  674MPD2    H210029   2.853   2.246  17.385  0.6217  2.1614  0.0394
  674MPD2    H310030   2.820   2.470  17.459 -0.8903  1.1853 -2.0112
  674MPD2     N10031   2.414   2.367  17.649  0.2907 -0.3529  0.3039
  674MPD2    H510032   2.347   2.292  17.662 -0.9330  1.0003  1.8340
  674MPD2    N110033   2.689   2.052  17.408 -0.0323 -0.7087  0.0320
  674MPD2    H710034   2.789   2.038  17.392  0.5179  0.2855  2.6337
  675TMC3    C110035   2.671   1.821  17.375  0.7696 -0.0409  0.3071
  675TMC3    C210036   2.587   1.712  17.356  0.6587  0.2085  0.1921
  675TMC3    C310037   2.634   1.586  17.380 -0.0653  0.7698 -0.4239
  675TMC3    C410038   2.798   1.800  17.408  0.5035 -0.0476 -0.9585
  675TMC3    C510039   2.844   1.673  17.411  0.9878  0.1943 -0.1810
  675TMC3    C610040   2.765   1.566  17.405  0.0815 -0.4318  0.3647
  675TMC3     C10041   2.603   1.945  17.407  0.5702 -0.5529  0.1655
  675TMC3     O10042   2.479   1.946  17.394 -0.1234  0.0640  0.6461
  675TMC3     H10043   2.486   1.722  17.316  0.5712  0.0208  0.3697
  675TMC3    H110044   2.871   1.879  17.414  1.4954 -1.0379  0.0691
  675TMC3    H210045   2.800   1.465  17.422  2.8066  0.3397 -0.6226
  675TMC3    C710046   2.973   1.641  17.467  0.2934  0.1485 -0.1406
  675TMC3    C810047   2.535   1.492  17.417 -0.6105  1.0724 -0.6422
  675TMC3    O110048   3.047   1.558  17.414  0.0393  0.5624 -0.2535
  675TMC3    O210049   2.432   1.503  17.355  0.1014 -0.0461  0.0742
  676MPD2     C10050   0.778   0.481  10.853  0.3352  0.0826 -0.0007
  676MPD2    C110051   0.710   0.488  10.970  0.2230 -0.0436 -0.2787
  676MPD2    C210052   0.620   0.385  10.997  0.4588  0.8200 -0.5435
  676MPD2    C310053   0.600   0.285  10.904 -0.0794  0.3989 -0.0757
  676MPD2    C410054   0.671   0.285  10.789 -0.0521 -0.3742  0.4442
  676MPD2    C510055   0.756   0.387  10.759 -0.2013 -0.3051 -0.2005
  676MPD2     H10056   0.560   0.380  11.087  1.2717  1.0574  0.0137
  676MPD2    H110057   0.652   0.212  10.712 -0.6354 -0.3545  0.5711
  676MPD2    H210058   0.851   0.560  10.837 -0.7315  1.3959  1.6174
  676MPD2    H310059   0.804   0.391  10.662  1.1921  0.8865  0.5412
  676MPD2     N10060   0.505   0.179  10.920 -0.1566  0.4087  0.2413
  676MPD2    H510061   0.477   0.126  10.838 -0.3796  1.7219 -0.5348
  676MPD2    N110062   0.730   0.591  11.066  0.5058 -0.0012  0.4365
  676MPD2    H710063   0.662   0.589  11.142  0.7291 -0.4704  0.6232
  677TMC3    C110064   0.832   0.768  11.180 -0.3389  0.0821 -0.1871
  677TMC3    C210065   0.735   0.773  11.281  0.2282  0.3118 -0.5424
  677TMC3    C310066   0.738   0.869  11.375  0.6191  0.2811 -0.3751
  677TMC3    C410067   0.913   0.872  11.163 -0.1201  0.3372 -0.4373
  677TMC3    C510068   0.904   0.972  11.256 -0.0746 -0.1046 -0.8145
  677TMC3    C610069   0.818   0.977  11.362 -0.9108 -0.0495 -0.5275
  677TMC3     C10070   0.835   0.677  11.072 -0.1737  0.5803 -0.6333
  677TMC3     O10071   0.945   0.662  11.023 -0.3772 -0.2709 -0.2264
  677TMC3     H10072   0.670   0.687  11.285  0.1757  0.2541 -2.4350
  677TMC3    H110073   0.971   0.885  11.073  1.6495  3.7371  1.1841
  677TMC3    H210074   0.838   1.041  11.447  2.1347 -0.7885 -0.6907
  677TMC3    C710075   0.998   1.081  11.249  0.6693 -0.5468 -0.0058
  677TMC3    C810076   0.687   0.826  11.505 -0.8040 -0.4081  0.0317
  677TMC3    O110077   0.949   1.190  11.293  0.3285 -0.3291  0.1576
  677TMC3    O210078   0.676   0.704  11.516  0.6264 -0.1598  0.1544
  678MPD2     C10079   2.167   4.451   0.958 -0.3166 -0.4043 -0.1070
  678MPD2    C110080   2.160   4.516   0.833  0.3621 -0.3658 -0.0508
  678MPD2    C210081   2.045   4.594   0.807 -0.1126 -0.2789 -0.1523
  678MPD2    C310082   1.946   4.618   0.903  0.5784  0.5234 -0.1809
  678MPD2    C410083   1.952   4.553   1.024  0.0278  0.2431  0.5850
  678MPD2    C510084   2.070   4.480   1.057 -0.4858  0.0293 -0.0310
  678MPD2     H10085   2.028   4.641   0.711 -2.0947 -1.0390 -0.1778
  678MPD2    H110086   1.882   4.563   1.106 -0.6177 -0.9534  0.1905
  678MPD2    H210087   2.249   4.386   0.986 -0.3516 -0.4013  0.0003
  678MPD2    H310088   2.090   4.430   1.151 -2.2141 -0.9142 -0.1616
  678MPD2     N10089   1.835   4.696   0.863 -0.4477  0.2167 -0.0894
  678MPD2    H510090   1.838   4.728   0.767  1.4203  1.1014  0.2695
  678MPD2    N110091   2.269   4.506   0.737 -0.1074 -0.1695 -0.2055
  678MPD2    H710092   2.265   4.580   0.667 -0.1096  0.4770  0.4810
  679TMC3    C110093   2.698   4.396   0.589  0.4204 -0.5561 -0.4806
  679TMC3    C210094   2.583   4.361   0.647 -0.4875  0.3172 -0.3064
  679TMC3    C310095   2.478   4.451   0.656  0.0869  0.2524  0.2598
  679TMC3    C410096   2.712   4.523   0.534 -0.2600  0.7731 -0.2711
  679TMC3    C510097   2.614   4.609   0.553  0.4364  0.2464 -0.9482
  679TMC3    C610098   2.497   4.578   0.618  0.7059 -0.3638  0.3030
  679TMC3     C10099   2.815   4.313   0.594  0.0939  0.2001 -0.0102
  679TMC3     O10100   2.909   4.342   0.525  0.0750 -0.1685  0.3719
  679TMC3     H10101   2.560   4.256   0.663 -0.3937  0.2010 -0.9251
  679TMC3    H110102   2.786   4.526   0.454 -0.0073 -0.5304 -0.0842
  679TMC3    H210103   2.427   4.658   0.639 -0.7078 -1.5553  0.0694
  679TMC3    C710104   2.612   4.722   0.473  0.0372 -0.3139  0.2234
  679TMC3    C810105   2.376   4.418   0.748  0.1253 -0.3755 -0.1899
  679TMC3    O110106   2.502   0.046   0.467 -0.0737 -0.6906 -0.6044
  679TMC3    O210107   2.389   4.316   0.819 -0.0759  0.1649 -0.3597
  680MPD2     C10108   2.597   3.754  13.769  0.4713 -1.3784  0.5208
  680MPD2    C110109   2.642   3.701  13.887 -0.1058 -0.1208 -0.0286
  680MPD2    C210110   2.726   3.773  13.970 -0.8374 -0.4552 -0.4247
  680MPD2    C310111   2.754   3.908  13.948  0.9564 -0.0053  0.2208
  680MPD2    C410112   2.696   3.964  13.831 -0.3738  0.9114 -0.1598
  680MPD2    C510113   2.624   3.888  13.744 -0.1980  0.0737  0.8387
  680MPD2     H10114   2.754   3.735  14.068 -0.4015 -0.3314 -0.5041
  680MPD2    H110115   2.712   4.066  13.797 -0.5843  1.0361  0.1161
  680MPD2    H210116   2.530   3.710  13.696 -1.2313 -0.8677  1.7786
  680MPD2    H310117   2.584   3.929  13.652 -0.3429 -1.8481  0.0447
  680MPD2     N10118   2.836   3.990  14.023  0.0554 -0.0644 -0.3537
  680MPD2    H510119   2.845   4.088  14.000  1.1424 -0.4589 -1.6050
  680MPD2    N110120   2.600   3.569  13.932  0.5601  0.3149 -0.3372
  680MPD2    H710121   2.639   3.531  14.018  2.7935  1.1702 -0.9578
  681TMC3    C110122   2.490   3.358  13.924 -0.1247 -0.6139 -0.3606
  681TMC3    C210123   2.503   3.332  14.057  0.6869 -0.1071 -0.1319
  681TMC3    C310124   2.459   3.208  14.097 -0.1619 -0.1778  0.3644
  681TMC3    C410125   2.461   3.260  13.833 -0.3358 -0.2453  0.3653
  681TMC3    C510126   2.441   3.133  13.873  0.4288 -0.3174 -0.0781
  681TMC3    C610127   2.432   3.105  14.004 -0.8697  0.4625 -0.1514
  681TMC3     C10128   2.514   3.488  13.863 -0.0133  0.0264 -0.1309
  681TMC3     O10129   2.461   3.509  13.752 -0.4778 -0.4434  0.0634
  681TMC3     H10130   2.491   3.418  14.123  1.7550 -0.0680  0.0239
  681TMC3    H110131   2.474   3.276  13.727  2.1541 -1.5193  0.4731
  681TMC3    H210132   2.415   3.002  14.033 -2.0217  1.5620  3.1157
  681TMC3    C710133   2.456   3.027  13.774  0.1141 -0.7663 -0.0339
  681TMC3    C810134   2.405   3.195  14.227  1.0788  0.0329  0.0082
  681TMC3    O110135   2.365   3.036  13.693  0.1499 -0.1678 -0.1926
  681TMC3    O210136   2.316   3.117  14.240  0.0595 -0.0447  0.1476
  682MPD2     C10137   4.616   0.253  10.872  0.6059 -0.2976  0.5194
  682MPD2    C110138   4.564   0.124  10.881 -0.4612 -0.4394 -0.1293
  682MPD2    C210139   4.513   0.077  11.002 -0.2454  0.7564  0.0662
  682MPD2    C310140   4.527   0.151  11.117  0.3543  0.0040  0.3229
  682MPD2    C410141   4.584   0.277  11.103 -0.2949 -0.4275 -0.1015
  682MPD2    C510142   4.628   0.327  10.986  0.3552 -1.1666  0.0893
  682MPD2     H10143   4.487   4.708  11.003 -2.2531  1.2490 -0.0461
  682MPD2    H110144   4.583   0.339  11.191  0.3825  1.4988 -1.4377
  682MPD2    H210145   4.655   0.295  10.780 -1.8874 -0.2497 -0.5246
  682MPD2    H310146   4.677   0.423  10.979 -1.7860 -0.0039  0.9387
  682MPD2     N10147   4.491   0.102  11.246  0.0349  0.0738  0.3276
  682MPD2    H510148   4.538   0.151  11.321  2.0175 -0.4113 -0.5953
  682MPD2    N110149   4.571   0.023  10.783  0.0634  0.6131  0.2554
  682MPD2    H710150   4.518   4.675  10.800  1.2758 -0.3382 -0.7122
  683TMC3    C110151   4.532   4.618  11.592  0.1822 -0.2233  0.8641
  683TMC3    C210152   4.445   4.522  11.618 -0.7067 -0.0662 -0.5627
  683TMC3    C310153   4.338   4.502  11.534 -0.3252 -0.4203  0.8004
  683TMC3    C410154   4.518   4.702  11.482  0.0159  0.6457 -0.5614
  683TMC3    C510155   4.408   4.682  11.403  0.1208  0.0264 -0.0165
  683TMC3    C610156   4.324   4.576  11.420 -0.9301 -0.5142 -0.2082
  683TMC3     C10157   4.627   4.661  11.692  0.0520  0.0205 -0.4156
  683TMC3     O10158   4.622   0.044  11.710  0.3650 -0.5717  0.3111
  683TMC3     H10159   4.455   4.464  11.709  0.2201 -0.4367 -0.9067
  683TMC3    H110160   4.591   0.045  11.469  1.1302 -0.0124  1.6996
  683TMC3    H210161   4.242   4.559  11.352  1.3734 -0.1455 -3.0796
  683TMC3    C710162   4.414   4.724  11.267  0.3573  0.2334 -0.1534
  683TMC3    C810163   4.252   4.386  11.536  0.5956  0.8102 -0.8100
  683TMC3    O110164   4.359   4.651  11.186 -0.0894 -0.0583  0.4021
  683TMC3    O210165   4.174   4.361  11.442 -0.3796 -0.6864 -0.2918
  684MPD2     C10166   2.733   4.678  16.704 -0.1333  0.1915 -0.0478
  684MPD2    C110167   2.699   4.699  16.573 -0.3346 -0.8492  0.1330
  684MPD2    C210168   2.704   0.089  16.519 -0.0389  0.5848 -0.2493
  684MPD2    C310169   2.768   0.190  16.588 -0.2745 -0.1056  0.1042
  684MPD2    C410170   2.804   0.167  16.716  0.3457 -0.3873  0.4604
  684MPD2    C510171   2.778   0.046  16.782  0.2258  0.1160  0.4417
  684MPD2     H10172   2.656   0.109  16.423 -0.8245 -1.4613 -0.2738
  684MPD2    H110173   2.845   0.247  16.775  2.2112  0.5688 -2.1118
  684MPD2    H210174   2.738   4.578  16.747  0.6128 -1.0183 -2.8879
  684MPD2    H310175   2.802   0.037  16.887 -0.7754 -0.6034  0.6079
  684MPD2     N10176   2.801   0.320  16.539  0.4805  0.2857  0.3059
  684MPD2    H510177   2.872   0.370  16.591 -1.2235  1.8436  1.1113
  684MPD2    N110178   2.668   4.591  16.482  0.0496 -0.0621 -0.4932
  684MPD2    H710179   2.653   4.619  16.385 -1.5065 -0.8204 -0.4755
  685TMC3    C110180   2.696   4.382  16.394 -0.0104  0.0993 -0.4543
  685TMC3    C210181   2.618   4.407  16.283 -0.2476 -0.1676 -0.4806
  685TMC3    C310182   2.662   4.371  16.160 -0.1635  0.2861 -0.4599
  685TMC3    C410183   2.817   4.315  16.386 -0.3214 -0.4253 -0.2142
  685TMC3    C510184   2.859   4.279  16.257  0.1233  0.0875  0.0053
  685TMC3    C610185   2.788   4.308  16.139 -0.6153  1.1089 -0.0146
  685TMC3     C10186   2.686   4.463  16.508 -0.2042  0.3406  0.4069
  685TMC3     O10187   2.720   4.407  16.613 -0.0788  0.1836 -0.1178
  685TMC3     H10188   2.518   4.442  16.305  0.2614  0.9700  0.0059
  685TMC3    H110189   2.874   4.299  16.476 -0.9590 -0.3355  0.2090
  685TMC3    H210190   2.823   4.283  16.040 -0.4765 -3.6751  1.2178
  685TMC3    C710191   2.995   4.253  16.258  0.0449  0.2146  0.8557
  685TMC3    C810192   2.575   4.376  16.048 -0.5170  0.2206  0.1503
  685TMC3    O110193   3.049   4.239  16.367  0.4370 -0.3506 -0.5360
  685TMC3    O210194   2.612   4.303  15.957 -0.3893 -0.4047 -0.1011
  686MPD2     C10195   4.220   0.135  15.565  0.2574  0.0187 -0.6817
  686MPD2    C110196   4.263   0.028  15.634  0.3339 -1.2582  0.0163
  686MPD2    C210197   4.393   4.736  15.632 -0.1931 -0.2453 -0.5544
  686MPD2    C310198   4.477   0.071  15.540  0.3952  0.7448  0.1162
  686MPD2    C410199   4.433   0.173  15.463  0.1192  0.3515 -0.3820
  686MPD2    C510200   4.300   0.209  15.477  0.5091 -0.1492 -0.3898
  686MPD2     H10201   4.435   4.657  15.692  0.5332  0.2944 -0.3512
  686MPD2    H110202   4.481   0.222  15.379  0.7165 -0.3485 -0.4477
  686MPD2    H210203   4.113   0.149  15.561  0.3149  0.2550 -1.4803
  686MPD2    H310204   4.257   0.285  15.413 -2.1701 -0.0274  1.5385
  686MPD2     N10205   4.613   0.037  15.516 -0.0403  0.1028 -0.3586
  686MPD2    H510206   4.666   0.114  15.477 -0.8644  1.2195  0.7199
  686MPD2    N110207   4.173   4.699  15.713 -0.3352 -0.8300  0.2877
  686MPD2    H710208   4.080   0.001  15.704  0.6441  0.9654 -2.3190
  687TMC3    C110209   4.611   4.524  15.553 -0.4406  0.4728  0.7209
  687TMC3    C210210   4.498   4.499  15.483  0.3319 -0.6569 -0.2967
  687TMC3    C310211   4.446   4.372  15.487  0.8669  0.1989  0.1650
  687TMC3    C410212   4.670   4.435  15.628  0.3212 -1.0279 -0.0384
  687TMC3    C510213   4.615   4.309  15.623  0.0634  0.4826 -0.6168
  687TMC3    C610214   4.506   4.271  15.553 -0.8067  0.1828 -0.0149
  687TMC3     C10215   4.678   4.652  15.540 -0.3030 -0.5699 -0.8495
  687TMC3     O10216   0.060   4.633  15.538  0.3664 -0.2996 -0.5885
  687TMC3     H10217   4.448   4.575  15.425 -0.7954 -0.9549  0.2883
  687TMC3    H110218   0.018   4.453  15.694  0.8620  3.2735 -1.9092
  687TMC3    H210219   4.473   4.168  15.540 -2.6941  0.8360 -0.4598
  687TMC3    C710220   4.660   4.215  15.715  1.4716  0.0569  0.0369
  687TMC3    C810221   4.301   4.358  15.476 -0.2379 -0.0773  0.6178
  687TMC3    O110222   4.712   4.263  15.816 -0.2087 -0.0197 -0.4273
  687TMC3    O210223   4.253   4.258  15.518  0.1500  0.3739  0.3464
  688MPD2     C10224   3.654   3.360  17.591 -0.2295 -0.0820 -0.2891
  688MPD2    C110225   3.593   3.243  17.550 -0.3959  0.6393 -0.3758
  688MPD2    C210226   3.620   3.199  17.423 -0.6399 -0.7480  0.2861
  688MPD2    C310227   3.702   3.268  17.337  0.1130 -0.2936 -0.4187
  688MPD2    C410228   3.770   3.381  17.383  0.2894  0.4204  0.0652
  688MPD2    C510229   3.739   3.422  17.505  0.7098  0.2518  0.4403
  688MPD2     H10230   3.570   3.105  17.401  1.4728 -2.0867  1.1344
  688MPD2    H110231   3.830   3.443  17.318 -2.1896  0.9652 -1.7058
  688MPD2    H210232   3.626   3.405  17.686  1.1278 -1.3099  0.7002
  688MPD2    H310233   3.786   3.514  17.540  2.4672  0.0566 -1.3928
  688MPD2     N10234   3.737   3.226  17.202  0.6805  0.3030 -0.5222
  688MPD2    H510235   3.805   3.282  17.151 -0.3215 -0.6095 -2.8831
  688MPD2    N110236   3.506   3.168  17.636 -0.6597  0.0614  0.1612
  688MPD2    H710237   3.465   3.091  17.585  0.0581 -0.1719 -0.0653
  689TMC3    C110238   3.394   3.097   0.104 -0.4047 -0.2558 -0.1249
  689TMC3    C210239   3.374   3.131   0.235 -0.1410  0.1195 -0.1890
  689TMC3    C310240   3.300   3.051   0.313  0.0317  0.2895  0.6451
  689TMC3    C410241   3.335   2.993   0.041  0.3039  0.0393  0.0571
  689TMC3    C510242   3.273   2.903   0.131 -0.7646  0.3526  0.5968
  689TMC3    C610243   3.250   2.932   0.261  0.3325  0.4349  0.4495
  689TMC3     C10244   3.483   3.188   0.029 -1.2943 -0.1160 -0.0545
  689TMC3     O10245   3.514   3.282   0.097  0.0716  0.6027  0.7061
  689TMC3     H10246   3.425   3.219   0.275  1.2292 -1.1828  0.9308
  689TMC3    H110247   3.360   2.958  17.685 -0.6069  0.0384 -0.1652
  689TMC3    H210248   3.184   2.874   0.325  0.0707 -0.3497 -0.5293
  689TMC3    C710249   3.258   2.765   0.089  0.4857  0.7011 -0.2972
  689TMC3    C810250   3.296   3.084   0.454  0.4842  0.2076 -0.4919
  689TMC3    O110251   3.279   2.689   0.183 -0.1997  0.1868  0.6982
  689TMC3    O210252   3.280   2.994   0.535  0.2365  0.7932  0.3595
  690MPD2     C10253   1.235   0.571  15.655  0.0409  0.9704 -0.4011
  690MPD2    C110254   1.157   0.532  15.549 -0.1958  0.1598  0.0618
  690MPD2    C210255   1.209   0.556  15.421 -0.4456 -0.2676 -0.0774
  690MPD2    C310256   1.315   0.630  15.396 -0.1378  0.3107  0.1742
  690MPD2    C410257   1.388   0.672  15.505 -0.0440 -0.0874  0.2886
  690MPD2    C510258   1.352   0.650  15.634 -0.1870  0.1943 -0.0576
  690MPD2     H10259   1.154   0.526  15.332  1.7425  0.6472 -1.7471
  690MPD2    H110260   1.478   0.732  15.494  1.3409 -1.8976  1.8889
  690MPD2    H210261   1.216   0.537  15.756  2.0418  1.3196  0.0965
  690MPD2    H310262   1.413   0.675  15.719  3.5747  0.2148 -2.7592
  690MPD2     N10263   1.349   0.661  15.263 -0.1312 -0.3360  0.2364
  690MPD2    H510264   1.311   0.597  15.194 -1.2742  1.2919 -0.6359
  690MPD2    N110265   1.035   0.464  15.565  0.4183 -0.2794 -0.4482
  690MPD2    H710266   0.987   0.437  15.480  0.4686 -0.9734 -0.2529
  691TMC3    C110267   0.862   0.343  15.659  0.1694  0.3120 -0.9466
  691TMC3    C210268   0.795   0.337  15.533  0.1109 -0.0810 -0.5523
  691TMC3    C310269   0.702   0.239  15.519 -0.2325 -0.2260 -0.2444
  691TMC3    C410270   0.834   0.262  15.766 -0.0532 -0.4968  0.5393
  691TMC3    C510271   0.752   0.154  15.740  0.3966  0.1280 -0.5160
  691TMC3    C610272   0.684   0.146  15.615 -0.1206  0.1780  0.3644
  691TMC3     C10273   0.971   0.437  15.682  0.0241 -0.0320  0.1180
  691TMC3     O10274   1.004   0.468  15.795 -0.3144  0.0217 -0.1775
  691TMC3     H10275   0.805   0.418  15.462 -0.8760 -0.2140 -0.8454
  691TMC3    H110276   0.896   0.266  15.854  1.2345  0.1919 -0.4050
  691TMC3    H210277   0.596   0.083  15.611  0.2125 -0.3035  0.6374
  691TMC3    C710278   0.713   0.064  15.842  0.7166 -0.4603  0.8302
  691TMC3    C810279   0.581   0.262  15.440 -0.2708  0.2807 -0.6192
  691TMC3    O110280   0.755   0.086  15.958 -0.4739  0.2631  0.6114
  691TMC3    O210281   0.513   0.162  15.420  0.0976 -0.1956 -0.3405
  692TMC3    C110282   2.368   1.318  15.506  0.1128  0.8216  0.1442
  692TMC3    C210283   2.477   1.394  15.547 -0.1597 -0.2531 -0.0734
  692TMC3    C310284   2.595   1.335  15.579 -0.9358 -0.2030  0.3222
  692TMC3    C410285   2.368   1.180  15.520  0.0555  0.3955 -0.0272
  692TMC3    C510286   2.490   1.120  15.553 -0.6068  0.3443  0.3898
  692TMC3    C610287   2.596   1.199  15.595 -0.1581  0.4539 -0.4058
  692TMC3     C10288   2.246   1.395  15.481 -0.2345 -0.4774  0.6826
  692TMC3     O10289   2.236   1.510  15.523 -0.3782 -0.5092 -0.2297
  692TMC3     H10290   2.461   1.495  15.512 -2.0667 -0.2325  0.8592
  692TMC3    H110291   2.275   1.127  15.503  0.5865 -0.8532  0.9941
  692TMC3    H210292   2.694   1.154  15.608  0.8997  2.3047 -1.9007
  692TMC3    C710293   2.481   0.981  15.597  0.2074  0.7766  0.1679
  692TMC3    C810294   2.680   1.413  15.671  0.5054 -0.0898  0.2447
  692TMC3    O110295   2.377   0.925  15.568 -0.5604 -0.2138  0.3066
  692TMC3    O210296   2.780   1.358  15.717  0.0372 -0.1537  0.3887
  693MPD2     C10297   2.057   3.737  10.945 -0.0892  0.1939 -0.0726
  693MPD2    C110298   2.003   3.664  11.051 -1.0634  0.4266 -0.6409
  693MPD2    C210299   2.090   3.579  11.113 -0.8116 -0.5923  0.9969
  693MPD2    C310300   2.225   3.568  11.076 -0.0054  0.0924 -0.3350
  693MPD2    C410301   2.267   3.639  10.967  0.8203  0.8031 -0.0714
  693MPD2    C510302   2.187   3.722  10.901  0.4463 -0.0494 -0.1489
  693MPD2     H10303   2.049   3.517  11.192  1.4589 -3.4795 -0.0781
  693MPD2    H110304   2.368   3.646  10.930  0.8206 -0.7152 -0.3313
  693MPD2    H210305   1.993   3.810  10.895 -1.4392 -1.3987 -0.6614
  693MPD2    H310306   2.222   3.769  10.810  2.1279  0.0050  0.5223
  693MPD2     N10307   2.320   3.504  11.157 -0.0363  0.2008  0.0539
  693MPD2    H510308   2.415   3.498  11.121 -0.8110 -3.4470 -1.3159
  693MPD2    N110309   1.875   3.674  11.103  0.6885 -0.1552  0.2288
  693MPD2    H710310   1.854   3.600  11.169  1.2052 -0.8383 -0.3766
  694TMC3    C110311   1.642   3.702  11.122 -0.1294 -0.7138 -0.4040
  694TMC3    C210312   1.528   3.706  11.048  0.5246  0.1572 -0.6665
  694TMC3    C310313   1.417   3.661  11.108 -0.3668 -0.4207 -0.0883
  694TMC3    C410314   1.642   3.672  11.253 -0.2168  0.0966  0.8087
  694TMC3    C510315   1.533   3.609  11.303 -0.1775  0.4208 -0.4610
  694TMC3    C610316   1.413   3.614  11.238  0.0975 -0.3507 -0.2514
  694TMC3     C10317   1.766   3.746  11.061  0.0843  0.0779  0.4470
  694TMC3     O10318   1.759   3.825  10.971  0.3504 -0.0201 -0.1746
  694TMC3     H10319   1.533   3.737  10.944 -0.5628  1.5494 -0.2963
  694TMC3    H110320   1.735   3.655  11.306 -0.3240  0.0808  0.9932
  694TMC3    H210321   1.316   3.596  11.283  0.3336  1.6006  1.0444
  694TMC3    C710322   1.530   3.579  11.445 -0.8330 -0.2535 -0.1683
  694TMC3    C810323   1.292   3.662  11.033  0.0582  0.2428 -0.2665
  694TMC3    O110324   1.626   3.599  11.521 -0.0201  0.4822  0.6040
  694TMC3    O210325   1.213   3.571  11.059 -0.4867 -0.2033 -0.1082
  695MPD2     C10326   3.204   1.202  13.116 -0.2138 -0.5608  0.3977
  695MPD2    C110327   3.169   1.203  13.251  0.1324  0.2920  0.5902
  695MPD2    C210328   3.044   1.237  13.289  0.4119  0.1083  1.1277
  695MPD2    C310329   2.954   1.279  13.193  0.2742 -0.5028 -0.0459
  695MPD2    C410330   2.995   1.298  13.060  0.1775  0.8456  0.2611
  695MPD2    C510331   3.119   1.256  13.022 -0.2931 -0.2371  0.7212
  695MPD2     H10332   3.017   1.215  13.391 -1.4019  0.7230  0.7789
  695MPD2    H110333   2.922   1.324  12.984 -0.1416  0.8876  0.5833
  695MPD2    H210334   3.298   1.169  13.075 -0.0168 -0.8929  1.1058
  695MPD2    H310335   3.145   1.246  12.917 -2.5059  1.4184  0.0351
  695MPD2     N10336   2.816   1.277  13.216 -0.3609 -0.1049  0.5919
  695MPD2    H510337   2.789   1.233  13.304  1.7117  0.3901  1.4709
  695MPD2    N110338   3.242   1.142  13.349  0.3425 -0.3096 -0.1461
  695MPD2    H710339   3.207   1.152  13.444  0.2665  1.5185 -0.3538
  696TMC3    C110340   2.593   1.346  13.217  0.5246  0.2781  0.3741
  696TMC3    C210341   2.571   1.254  13.320  0.2934 -0.0911 -0.6022
  696TMC3    C310342   2.453   1.280  13.392  0.4591  0.6213  0.9127
  696TMC3    C410343   2.521   1.458  13.211 -0.0863  0.6216 -0.2271
  696TMC3    C510344   2.412   1.485  13.286  0.0103  0.6882 -0.3760
  696TMC3    C610345   2.379   1.396  13.381  0.4771 -0.1723  0.1367
  696TMC3     C10346   2.721   1.351  13.149 -0.5359  0.1226 -0.6502
  696TMC3     O10347   2.728   1.416  13.045  0.0471 -0.1205 -0.0864
  696TMC3     H10348   2.609   1.153  13.327  0.4878 -0.0760 -1.5554
  696TMC3    H110349   2.546   1.525  13.129  0.5683  0.8401  0.1526
  696TMC3    H210350   2.288   1.409  13.440  1.1830  2.5969  0.6113
  696TMC3    C710351   2.359   1.619  13.279  0.3077  0.0222 -0.9152
  696TMC3    C810352   2.390   1.155  13.448 -0.1230 -0.0266  0.2495
  696TMC3    O110353   2.322   1.659  13.169 -0.5169  0.4260  0.4681
  696TMC3    O210354   2.380   1.063  13.363 -0.5843  0.3766 -0.7798
  697MPD2     C10355   2.237   3.154  15.667  0.5192 -0.9296 -0.1813
  697MPD2    C110356   2.229   3.088  15.543 -0.5643  0.3409 -0.0784
  697MPD2    C210357   2.220   3.165  15.432  0.4942 -0.8614 -0.0139
  697MPD2    C310358   2.217   3.307  15.440  0.4752  0.3137 -0.1233
  697MPD2    C410359   2.206   3.367  15.563  0.6063 -0.7357  0.3258
  697MPD2    C510360   2.225   3.289  15.678 -0.2479  0.4739 -0.2909
  697MPD2     H10361   2.218   3.109  15.339  1.9599  0.0232 -0.5730
  697MPD2    H110362   2.200   3.474  15.582  3.8794 -0.7249  1.1324
  697MPD2    H210363   2.247   3.102  15.762  0.1163  1.5895  1.2472
  697MPD2    H310364   2.231   3.330  15.779  1.2719 -3.0451  1.0334
  697MPD2     N10365   2.220   3.382  15.322 -0.5011  0.2256 -0.3072
  697MPD2    H510366   2.260   3.334  15.241  2.3023 -1.9716  2.3942
  697MPD2    N110367   2.254   2.947  15.517  0.6103  0.3646  0.4416
  697MPD2    H710368   2.248   2.908  15.424  1.5842 -0.2767  0.6508
  698TMC3    C110369   2.213   3.555  15.175 -0.3511 -0.7243  0.4279
  698TMC3    C210370   2.265   3.675  15.162  0.2040 -0.3016 -0.8788
  698TMC3    C310371   2.285   3.727  15.037 -0.1205  0.2765 -0.5259
  698TMC3    C410372   2.202   3.477  15.067 -0.1832 -0.1888 -1.0323
  698TMC3    C510373   2.207   3.536  14.939 -0.3253  0.0772  0.5016
  698TMC3    C610374   2.252   3.667  14.923  0.3496  0.2188 -0.0799
  698TMC3     C10375   2.191   3.513  15.308 -0.5435  0.2986  0.3289
  698TMC3     O10376   2.148   3.598  15.385 -0.2081 -0.1059 -0.3285
  698TMC3     H10377   2.286   3.732  15.251  1.1329 -0.1527 -1.1853
  698TMC3    H110378   2.174   3.374  15.086  2.8611 -1.1049 -1.5505
  698TMC3    H210379   2.286   3.711  14.830  1.7082  1.2154  0.8924
  698TMC3    C710380   2.185   3.461  14.815  0.0129  0.3726  0.1602
  698TMC3    C810381   2.325   3.863  15.023 -0.3421  0.9109  0.1732
  698TMC3    O110382   2.227   3.509  14.709 -0.0482 -0.8935 -0.0802
  698TMC3    O210383   2.272   3.929  14.935  0.5786 -0.0219  0.5630
  699TMC3    C110384   2.755   1.170  12.780  0.0552 -0.0487  0.2226
  699TMC3    C210385   2.823   1.100  12.881 -1.2631 -1.3120  0.1910
  699TMC3    C310386   2.744   1.057  12.987  0.0397  0.8775 -1.0447
  699TMC3    C410387   2.625   1.202  12.784  0.2488  0.3720 -0.2209
  699TMC3    C510388   2.560   1.170  12.894  0.1096 -0.4831  0.2952
  699TMC3    C610389   2.618   1.097  12.991 -0.3000 -0.3986  0.7424
  699TMC3     C10390   2.831   1.224  12.665 -0.1147  0.8630 -0.1525
  699TMC3     O10391   2.777   1.317  12.602 -0.6677 -0.1373  0.3732
  699TMC3     H10392   2.927   1.072  12.877 -1.0728 -0.3889 -1.3063
  699TMC3    H110393   2.581   1.254  12.699  0.4367 -0.0380 -0.5684
  699TMC3    H210394   2.561   1.075  13.080  0.8344  0.7515  1.7552
  699TMC3    C710395   2.420   1.203  12.921  0.5913  0.5152  0.1099
  699TMC3    C810396   2.782   0.974  13.099  0.1896  0.1317  0.1038
  699TMC3    O110397   2.379   1.209  13.036 -0.1178  0.2594 -0.4054
  699TMC3    O210398   2.692   0.936  13.174 -0.8519 -0.0662 -0.1188
  700TMC3    C110399   1.292   3.558  17.545 -0.4780 -0.0530 -0.4520
  700TMC3    C210400   1.310   3.421  17.528 -0.2585 -0.0781 -0.4417
  700TMC3    C310401   1.431   3.380  17.573 -0.3620  0.3038  0.3339
  700TMC3    C410402   1.380   3.648  17.600 -0.0278  0.3859 -0.0766
  700TMC3    C510403   1.498   3.595  17.638  0.0656  0.5310  0.1965
  700TMC3    C610404   1.525   3.463  17.630 -0.2322  0.8207  0.4469
  700TMC3     C10405   1.196   3.625  17.457 -0.1973  0.1899 -0.6093
  700TMC3     O10406   1.087   3.569  17.444  0.2166 -0.0386 -0.8550
  700TMC3     H10407   1.232   3.356  17.491  0.3796 -0.8781 -0.3745
  700TMC3    H110408   1.345   3.749  17.620  0.6096  0.0776  2.5522
  700TMC3    H210409   1.614   3.425  17.678 -0.0602  1.1231  0.3685
  700TMC3    C710410   1.585   3.676  17.731  0.2218  0.6272  0.6135
  700TMC3    C810411   1.475   3.251  17.533 -0.1846 -0.7253  0.1765
  700TMC3    O110412   1.707   3.682  17.717  0.0453  0.6170 -0.0066
  700TMC3    O210413   1.597   3.219  17.533 -0.2149  0.1092 -0.1082
  701TMC3    C110414   1.538   2.336  15.457  0.2069  0.2028  0.3047
  701TMC3    C210415   1.595   2.247  15.362  0.5363  0.5021  0.2253
  701TMC3    C310416   1.720   2.278  15.321  0.0469 -0.1982 -0.4582
  701TMC3    C410417   1.594   2.454  15.497 -0.7185 -0.2058  0.0904
  701TMC3    C510418   1.722   2.477  15.450  0.6084 -0.4876  0.4997
  701TMC3    C610419   1.786   2.394  15.370 -0.3285 -0.2776 -0.2503
  701TMC3     C10420   1.416   2.313  15.522 -0.4809 -0.1337  0.0894
  701TMC3     O10421   1.394   2.361  15.636 -0.0476 -0.7400  0.4570
  701TMC3     H10422   1.562   2.145  15.342  2.5147 -0.0659 -0.1493
  701TMC3    H110423   1.535   2.519  15.561 -3.2258  0.2481 -2.6665
  701TMC3    H210424   1.887   2.420  15.341 -0.3364 -0.8223 -0.7654
  701TMC3    C710425   1.799   2.598  15.487 -0.2749 -0.2620  0.2845
  701TMC3    C810426   1.785   2.216  15.211  0.0889  0.4565  1.0397
  701TMC3    O110427   1.839   2.665  15.393  0.5034  0.2316  0.4212
  701TMC3    O210428   1.906   2.237  15.200 -0.8251  0.2279  0.6851
  702MPD2     C10429   0.403   4.389  10.496  0.7464  0.2908  0.1646
  702MPD2    C110430   0.440   4.509  10.552  0.6785 -0.0338 -0.2809
  702MPD2    C210431   0.542   4.584  10.497 -0.3165  0.4024  0.2202
  702MPD2    C310432   0.612   4.538  10.386 -0.2545  0.7886 -0.4203
  702MPD2    C410433   0.579   4.415  10.333 -0.1998  0.3509  0.5829
  702MPD2    C510434   0.471   4.349  10.379  0.0906 -0.5243  1.1322
  702MPD2     H10435   0.575   4.676  10.544  1.9603 -0.9194  1.2145
  702MPD2    H110436   0.627   4.376  10.243  1.5158 -1.9972  2.5155
  702MPD2    H210437   0.330   4.325  10.545  0.4660  1.2348  0.9655
  702MPD2    H310438   0.445   4.261  10.321  0.5816  0.4625 -0.5735
  702MPD2     N10439   0.719   4.615  10.340 -0.3130  0.0600 -0.3022
  702MPD2    H510440   0.727   4.695  10.404 -0.3983 -0.1793  0.0087
  702MPD2    N110441   0.390   4.565  10.673 -0.5137 -0.5062 -0.3337
  702MPD2    H710442   0.424   4.660  10.687 -0.3722 -0.5052 -0.6927
  703TMC3    C110443   0.884   4.722  10.217 -0.0254  0.4476 -0.9176
  703TMC3    C210444   0.819   0.109  10.220  0.3386  0.0198  0.8038
  703TMC3    C310445   0.880   0.218  10.160 -0.1412  0.1384  0.2595
  703TMC3    C410446   1.002   4.708  10.150 -0.0517  0.2155 -0.1670
  703TMC3    C510447   1.058   0.084  10.087  0.6652  0.5061  0.4950
  703TMC3    C610448   1.000   0.205  10.096  0.4473 -0.2997  0.0433
  703TMC3     C10449   0.806   4.597  10.244 -0.2095  0.3007  0.5101
  703TMC3     O10450   0.814   4.501  10.171  0.5003 -0.0003  0.3617
  703TMC3     H10451   0.726   0.113  10.275  0.9865 -0.7526  1.9595
  703TMC3    H110452   1.059   4.618  10.165 -0.1687 -0.0019 -0.9860
  703TMC3    H210453   1.064   0.291  10.080  2.2051 -1.8438 -1.2476
  703TMC3    C710454   1.206   0.078  10.062 -0.1610  0.0084  0.7338
  703TMC3    C810455   0.840   0.353  10.217 -0.2297 -0.3424 -0.7601
  703TMC3    O110456   1.259   4.713  10.111 -0.1726 -0.2841  0.5442
  703TMC3    O210457   0.907   0.442  10.163 -0.7084 -0.3029 -0.1794
  704TMC3    C110458   3.669   3.123  12.136 -0.2690  0.2561  0.6679
  704TMC3    C210459   3.660   3.083  12.003  0.1584  0.8094  0.3786
  704TMC3    C310460   3.752   2.993  11.967 -0.4300 -0.1156 -1.0912
  704TMC3    C410461   3.756   3.065  12.225  0.6095 -0.2676 -0.2357
  704TMC3    C510462   3.847   2.975  12.185  0.0929  0.5484  0.6003
  704TMC3    C610463   3.838   2.935  12.058  0.7742  0.8313  0.0009
  704TMC3     C10464   3.555   3.198  12.197 -0.0724 -0.2753 -0.7518
  704TMC3     O10465   3.554   3.199  12.321  0.2005  0.0669  0.1387
  704TMC3     H10466   3.594   3.127  11.929  0.3488  0.4134 -0.0315
  704TMC3    H110467   3.768   3.104  12.326  0.0396  0.6594 -0.5320
  704TMC3    H210468   3.926   2.880  12.027  0.8289  0.6468  0.4754
  704TMC3    C710469   3.905   2.887  12.289  0.2754  0.4928  0.0406
  704TMC3    C810470   3.751   2.939  11.833 -0.3475  0.1869  0.5477
  704TMC3    O110471   3.864   2.881  12.402  0.2852 -0.1231 -0.0510
  704TMC3    O210472   3.713   3.015  11.741 -0.3294  0.3333 -0.6723
  705MPD2     C10473   2.648   0.942  16.248 -0.1423 -0.8550 -0.2723
  705MPD2    C110474   2.670   1.071  16.219 -0.7107  0.6251  0.3411
  705MPD2    C210475   2.570   1.158  16.215 -0.8285 -0.0323 -0.5661
  705MPD2    C310476   2.440   1.116  16.245  0.0253 -0.3556 -0.3576
  705MPD2    C410477   2.415   0.981  16.271  0.2217  0.1313  0.3609
  705MPD2    C510478   2.521   0.892  16.255  0.1780 -0.6805  0.4149
  705MPD2     H10479   2.588   1.259  16.180  0.1597  0.5490  1.6364
  705MPD2    H110480   2.319   0.948  16.306  0.4697 -1.6976 -0.6671
  705MPD2    H210481   2.723   0.865  16.253  0.1494 -0.5889 -0.5697
  705MPD2    H310482   2.513   0.787  16.284  0.3729 -0.4049  1.4791
  705MPD2     N10483   2.330   1.204  16.235 -0.5568 -0.3801 -0.0328
  705MPD2    H510484   2.235   1.166  16.237  0.1562 -2.2290 -1.1034
  705MPD2    N110485   2.805   1.123  16.216  0.1971 -0.1797 -0.3687
  705MPD2    H710486   2.808   1.220  16.185 -1.4919 -0.4619 -1.4383
  706TMC3    C110487   3.251   1.151  16.121 -1.0127  0.2201 -0.3233
  706TMC3    C210488   3.271   1.281  16.160 -0.7159  0.5904 -0.1160
  706TMC3    C310489   3.163   1.344  16.220 -0.3574 -0.0851 -0.1102
  706TMC3    C410490   3.144   1.076  16.158  0.5593 -0.7267 -0.0873
  706TMC3    C510491   3.042   1.136  16.223  0.0649 -0.8323  0.1085
  706TMC3    C610492   3.053   1.272  16.254 -0.1173 -0.1288 -0.3943
  706TMC3     C10493   3.343   1.111  16.017  0.4880 -0.6443  0.2315
  706TMC3     O10494   3.458   1.147  16.023 -0.3320 -0.6092 -0.9525
  706TMC3     H10495   3.355   1.336  16.120 -0.1731 -1.1100 -1.3317
  706TMC3    H110496   3.135   0.973  16.125 -0.6814 -1.2636  1.9555
  706TMC3    H210497   2.976   1.323  16.310  0.9359  0.0880  0.8597
  706TMC3    C710498   2.925   1.059  16.247 -0.5992 -0.7799 -0.5423
  706TMC3    C810499   3.137   1.466  16.151 -0.2265  0.7032 -0.2896
  706TMC3    O110500   2.948   0.942  16.287 -0.0867  0.0591 -0.2605
  706TMC3    O210501   3.038   1.465  16.078 -0.0645  0.3593 -0.2932
  707TMC3    C110502   4.585   0.179   1.691 -0.0827  0.2419 -0.4251
  707TMC3    C210503   4.635   0.071   1.755 -0.6544 -0.3317 -0.0431
  707TMC3    C310504   4.731   4.725   1.703 -0.4103 -0.6333  0.3294
  707TMC3    C410505   4.620   0.205   1.562 -0.3599 -0.4200 -0.2558
  707TMC3    C510506   4.703   0.115   1.499 -0.2338  0.1372 -0.1399
  707TMC3    C610507   0.021   0.010   1.570  0.0134 -0.3845  0.7958
  707TMC3     C10508   4.529   0.282   1.773 -0.3650 -0.0611 -0.6432
  707TMC3     O10509   4.430   0.237   1.834  0.6582  0.2532  0.0102
  707TMC3     H10510   4.594   0.060   1.855  0.0108  0.5328  0.3244
  707TMC3    H110511   4.584   0.291   1.508 -1.1858 -1.2285 -0.9844
  707TMC3    H210512   0.090   4.680   1.518  0.9388 -0.4154  2.0824
  707TMC3    C710513   4.709   0.101   1.356  0.0404  0.4117 -0.3074
  707TMC3    C810514   0.070   4.636   1.787  0.5673  0.5248  0.1006
  707TMC3    O110515   0.042   0.008   1.323  0.6870  0.4958  0.0591
  707TMC3    O210516   0.054   4.649   1.907  0.1379  0.1485  0.2299
  708MPD2     C10517   1.907   4.272  13.872 -0.0511 -0.2866  0.0733
  708MPD2    C110518   1.786   4.341  13.862  0.5315 -0.1931  0.6199
  708MPD2    C210519   1.691   4.333  13.963  0.1544  0.4372  0.6791
  708MPD2    C310520   1.715   4.243  14.070  0.0683 -0.1572 -0.2240
  708MPD2    C410521   1.833   4.169  14.075  0.0873  0.0538 -0.0502
  708MPD2    C510522   1.921   4.182  13.972  0.1902 -0.5259 -0.1468
  708MPD2     H10523   1.603   4.395  13.954 -1.1700 -1.6536 -0.6353
  708MPD2    H110524   1.850   4.097  14.154 -1.5441 -0.7301 -0.4161
  708MPD2    H210525   1.974   4.261  13.787 -0.0306 -0.5411  0.1219
  708MPD2    H310526   2.006   4.115  13.971 -0.6853 -1.6386 -0.1460
  708MPD2     N10527   1.629   4.221  14.180 -0.2515 -0.2438  0.3337
  708MPD2    H510528   1.669   4.185  14.266  1.0453  0.3476 -0.0288
  708MPD2    N110529   1.767   4.418  13.744 -0.4825  0.0544 -0.1955
  708MPD2    H710530   1.835   4.410  13.669 -0.9642  1.5196 -0.7913
  709TMC3    C110531   1.647   4.548  13.585  0.6454  0.2553  0.3630
  709TMC3    C210532   1.655   4.450  13.489  0.6588  0.6895  0.4404
  709TMC3    C310533   1.574   4.456  13.388  0.0299 -1.0444  0.0633
  709TMC3    C410534   1.550   4.638  13.581 -0.2536 -0.1889  0.8011
  709TMC3    C510535   1.460   4.633  13.483 -0.0377 -0.4436  0.0586
  709TMC3    C610536   1.472   4.544  13.376  0.1080 -0.2483  0.6571
  709TMC3     C10537   1.659   4.498  13.724 -0.1137 -0.1092 -0.3762
  709TMC3     O10538   1.589   4.555  13.804 -0.0613 -0.1208  0.2077
  709TMC3     H10539   1.725   4.367  13.492  2.0273  1.7738 -1.4498
  709TMC3    H110540   1.543   4.725  13.645  0.1366  0.9316 -0.6839
  709TMC3    H210541   1.393   4.548  13.302  2.1082 -0.5283 -1.5146
  709TMC3    C710542   1.323   4.630  13.526  0.2719 -0.2403 -0.1392
  709TMC3    C810543   1.591   4.358  13.291 -1.1986  0.2701  0.0046
  709TMC3    O110544   1.234   4.692  13.475 -0.0901 -0.1328  0.1107
  709TMC3    O210545   1.645   4.253  13.319  0.4781 -0.1805 -0.1713
  710TMC3    C110546   2.151   0.577   0.080  0.1246  0.4087 -0.2871
  710TMC3    C210547   2.191   0.629  17.703 -0.1271 -0.1538  0.0001
  710TMC3    C310548   2.288   0.566  17.631  0.0704 -0.5952  0.0296
  710TMC3    C410549   2.222   0.478   0.141  0.2455 -0.5283 -0.3030
  710TMC3    C510550   2.327   0.424   0.069  0.6363 -0.4970  0.3373
  710TMC3    C610551   2.351   0.456  17.680 -0.8105  0.0379 -0.7086
  710TMC3     C10552   2.076   0.664   0.163 -0.4534  0.4303 -0.4788
  710TMC3     O10553   2.071   0.786   0.127  0.7657 -0.2605  0.3285
  710TMC3     H10554   2.134   0.709  17.657  0.4177 -0.0305 -0.4594
  710TMC3    H110555   2.215   0.450   0.245 -0.1207  1.2012  0.1424
  710TMC3    H210556   2.429   0.406  17.624 -2.4424 -3.5885  0.2248
  710TMC3    C710557   2.429   0.339   0.145  0.2351  0.3362 -0.8852
  710TMC3    C810558   2.346   0.631  17.514  0.3556 -0.8521 -0.7525
  710TMC3    O110559   2.392   0.305   0.257 -0.2284  0.3049 -0.1385
  710TMC3    O210560   2.444   0.572  17.460  0.1227 -0.1595  0.0760
  711TMC3    C110561   2.016   1.542  14.873  1.1991  0.4242 -0.1143
  711TMC3    C210562   2.106   1.465  14.944 -0.5671  0.1076 -0.2394
  711TMC3    C310563   2.138   1.499  15.076 -0.3249  0.2073 -0.2883
  711TMC3    C410564   1.956   1.657  14.929  0.7249  0.8422  0.3189
  711TMC3    C510565   1.997   1.686  15.055  0.4258 -0.3473  0.3516
  711TMC3    C610566   2.085   1.619  15.133 -0.1238  0.0884  0.4186
  711TMC3     C10567   2.032   1.562  14.728  0.2261  0.6193 -0.5138
  711TMC3     O10568   1.942   1.625  14.672  0.4150  0.6988  0.1927
  711TMC3     H10569   2.164   1.390  14.892  0.7482  0.8837  0.1164
  711TMC3    H110570   1.887   1.720  14.876  0.8537  1.1575  0.5261
  711TMC3    H210571   2.106   1.660  15.231  2.0962  2.1008 -0.9025
  711TMC3    C710572   1.942   1.811  15.117  0.1121  0.2859 -0.2394
  711TMC3    C810573   2.266   1.458  15.121 -0.3426  0.7504 -0.3523
  711TMC3    O110574   1.825   1.801  15.150  0.3147 -0.5156  0.9637
  711TMC3    O210575   2.299   1.343  15.096  0.0491 -0.4304 -0.0030
  712MPD2     C10576   4.099   2.559  13.894  0.3139  0.4696  0.5333
  712MPD2    C110577   3.973   2.621  13.926  0.1994  0.3563  0.5828
  712MPD2    C210578   3.973   2.744  13.987  0.5997 -0.0315  0.4251
  712MPD2    C310579   4.090   2.816  14.009  0.2916  0.1674 -0.0611
  712MPD2    C410580   4.211   2.749  13.988  0.1450 -0.1539 -0.2819
  712MPD2    C510581   4.214   2.627  13.921 -0.4653 -0.3864  0.0861
  712MPD2     H10582   3.877   2.788  14.009  0.0437 -1.4684  0.8280
  712MPD2    H110583   4.302   2.806  14.000 -0.6391  0.9289  0.5196
  712MPD2    H210584   4.106   2.459  13.853  0.1009  1.3476 -1.6730
  712MPD2    H310585   4.312   2.589  13.894 -0.9792 -0.9774 -0.9351
  712MPD2     N10586   4.096   2.950  14.054  0.3372  0.5675  0.1671
  712MPD2    H510587   4.188   2.981  14.083 -0.4764  3.1173  0.0411
  712MPD2    N110588   3.847   2.576  13.872 -0.1570 -0.6103 -0.4480
  712MPD2    H710589   3.764   2.625  13.903  0.8503  1.1777 -0.6022
  713TMC3    C110590   4.032   3.172  14.085  0.5725 -0.6494 -0.1266
  713TMC3    C210591   4.165   3.214  14.069  0.5544  0.3063  0.0568
  713TMC3    C310592   4.203   3.339  14.106 -0.0088  0.0440  0.0317
  713TMC3    C410593   3.931   3.257  14.119  0.0618  0.6557 -0.2355
  713TMC3    C510594   3.974   3.381  14.151  0.2977 -1.1419 -0.1274
  713TMC3    C610595   4.104   3.428  14.147  0.0358  0.7412 -0.1522
  713TMC3     C10596   3.987   3.034  14.048  0.0965  0.1879  0.3863
  713TMC3     O10597   3.870   3.007  14.023  0.5027 -0.2397  0.5561
  713TMC3     H10598   4.223   3.144  14.009 -0.9255  0.7719 -1.9306
  713TMC3    H110599   3.827   3.229  14.136  0.4648  0.2588  1.5541
  713TMC3    H210600   4.127   3.534  14.153 -0.7811  0.8308  1.2767
  713TMC3    C710601   3.874   3.477  14.202 -0.1059 -0.0279 -0.2200
  713TMC3    C810602   4.336   3.394  14.080 -0.1493 -0.1040  0.8917
  713TMC3    O110603   3.919   3.558  14.284 -0.2911 -0.1379  0.6757
  713TMC3    O210604   4.356   3.513  14.105 -0.6549 -0.5619 -0.0429
  714MPD2     C10605   1.058   1.468   0.978  0.2284 -0.3528 -0.5010
  714MPD2    C110606   1.001   1.342   0.959  0.0024  0.0465 -0.4890
  714MPD2    C210607   0.873   1.331   0.915  0.4558  0.1765 -0.3190
  714MPD2    C310608   0.810   1.444   0.873 -0.7967 -0.8600 -0.0276
  714MPD2    C410609   0.854   1.570   0.898  0.2162  0.6632  0.3056
  714MPD2    C510610   0.983   1.573   0.939  0.7849 -0.3744 -0.2198
  714MPD2     H10611   0.834   1.230   0.901 -2.1051  1.1003  0.0817
  714MPD2    H110612   0.806   1.664   0.873  1.1258  1.0935  0.1810
  714MPD2    H210613   1.158   1.488   1.015 -0.1118  1.9260 -0.7796
  714MPD2    H310614   1.031   1.670   0.942  1.6285 -0.9652  4.3800
  714MPD2     N10615   0.684   1.417   0.811  0.0189 -0.4274  0.7780
  714MPD2    H510616   0.656   1.319   0.803 -0.3462 -0.3470  1.0663
  714MPD2    N110617   1.085   1.236   1.002  0.4779 -0.1929 -0.1151
  714MPD2    H710618   1.161   1.267   1.062 -1.4171  1.4230  1.4406
  715TMC3    C110619   1.152   1.010   1.020 -0.1696 -0.1716 -0.4237
  715TMC3    C210620   1.162   0.896   0.952  0.2420  0.2364 -0.3463
  715TMC3    C310621   1.237   0.797   0.997  1.1118 -0.2205 -0.6473
  715TMC3    C410622   1.233   1.041   1.131 -0.3266  1.1007  0.4485
  715TMC3    C510623   1.310   0.933   1.171  0.1897  0.0393  0.0594
  715TMC3    C610624   1.315   0.811   1.108  0.4055 -0.7153 -0.6776
  715TMC3     C10625   1.069   1.105   0.956  0.6662  0.4901 -0.4501
  715TMC3     O10626   1.003   1.070   0.864  0.1948  0.0039 -0.3573
  715TMC3     H10627   1.101   0.869   0.867 -1.5947  1.0528  0.7131
  715TMC3    H110628   1.217   1.130   1.190  2.9885  2.5335 -0.8001
  715TMC3    H210629   1.358   0.730   1.166 -1.1748 -0.9072  0.2204
  715TMC3    C710630   1.430   0.955   1.252  0.1193  0.5497 -0.4419
  715TMC3    C810631   1.270   0.684   0.904  0.1066 -0.0310  0.2507
  715TMC3    O110632   1.515   0.868   1.243  0.2436  0.2853 -0.0662
  715TMC3    O210633   1.196   0.665   0.808  0.1951 -0.4722  0.1388
  716MPD2     C10634   0.943   4.109   9.908  0.1595  0.0928 -1.0374
  716MPD2    C110635   0.894   4.101   9.774  0.2308 -0.5850  0.0650
  716MPD2    C210636   0.935   3.992   9.697  0.5187  0.0492 -0.3287
  716MPD2    C310637   1.012   3.890   9.750 -0.2422  0.2566 -0.2174
  716MPD2    C410638   1.052   3.892   9.886  0.5988  0.2609 -0.0452
  716MPD2    C510639   1.017   4.003   9.957  0.8280 -0.5279 -0.0649
  716MPD2     H10640   0.904   3.986   9.593  1.5347 -0.5053 -0.6026
  716MPD2    H110641   1.115   3.817   9.933  3.5328  1.0219 -2.7810
  716MPD2    H210642   0.934   4.195   9.973  1.4653 -0.0715 -0.6348
  716MPD2    H310643   1.046   4.014  10.061 -3.2237 -0.6131  1.0651
  716MPD2     N10644   1.049   3.780   9.664  0.5921  0.3392 -0.2428
  716MPD2    H510645   1.015   3.779   9.568  1.1712  0.7036 -0.4522
  716MPD2    N110646   0.837   4.224   9.723 -1.0921 -0.3379  0.4834
  716MPD2    H710647   0.799   4.286   9.793  0.4103  0.3547  0.6952
  717TMC3    C110648   1.152   3.607   9.574  0.1905  0.3610 -0.2463
  717TMC3    C210649   1.049   3.603   9.495  0.1601 -0.0622 -0.0503
  717TMC3    C310650   1.076   3.600   9.358  0.1494  0.1224 -0.0281
  717TMC3    C410651   1.283   3.602   9.540  0.1089  0.4532 -0.9242
  717TMC3    C510652   1.311   3.606   9.403  0.3533 -0.3446  0.2476
  717TMC3    C610653   1.207   3.607   9.307 -0.6607 -0.1343 -0.3873
  717TMC3     C10654   1.127   3.677   9.700 -0.9697  1.0496 -0.7545
  717TMC3     O10655   1.197   3.655   9.798  0.0829 -0.0033 -0.0769
  717TMC3     H10656   0.951   3.590   9.539 -0.0069  0.6525 -0.2183
  717TMC3    H110657   1.361   3.610   9.615 -1.0325 -3.4593  0.6692
  717TMC3    H210658   1.232   3.619   9.202 -1.9410 -0.3580 -0.7168
  717TMC3    C710659   1.445   3.629   9.354 -0.2560  0.1028 -0.1961
  717TMC3    C810660   0.980   3.688   9.304 -0.4427  0.4540  0.2659
  717TMC3    O110661   1.471   3.592   9.241  0.1170 -0.8023 -0.1186
  717TMC3    O210662   0.919   3.759   9.386  0.8827 -0.1051 -0.2270
  718MPD2     C10663   0.421   3.335  13.211  0.5507  0.3504  0.4959
  718MPD2    C110664   0.380   3.310  13.082 -0.4861 -0.2330  0.2819
  718MPD2    C210665   0.420   3.191  13.025 -0.3368  0.4306 -1.1939
  718MPD2    C310666   0.494   3.097  13.103  0.3193  0.1453 -0.4138
  718MPD2    C410667   0.536   3.132  13.232 -0.8309 -0.7374 -0.2826
  718MPD2    C510668   0.504   3.254  13.281 -0.0766 -0.0624 -0.1361
  718MPD2     H10669   0.389   3.173  12.923  2.4328 -1.3349 -1.7162
  718MPD2    H110670   0.590   3.059  13.292  2.2146  0.7276 -1.2356
  718MPD2    H210671   0.392   3.433  13.247  3.4606  0.9854  1.0463
  718MPD2    H310672   0.534   3.278  13.382  0.1444  1.6632 -0.6123
  718MPD2     N10673   0.518   2.969  13.059 -0.2357  0.8626 -0.3623
  718MPD2    H510674   0.528   2.899  13.132  0.3163  0.6737 -0.6175
  718MPD2    N110675   0.305   3.411  13.016  0.1405  0.1010  0.4850
  718MPD2    H710676   0.300   3.500  13.064  0.6945 -0.1268  0.9610
  719TMC3    C110677   0.239   3.524  12.820 -1.0659  0.1016 -0.0012
  719TMC3    C210678   0.185   3.493  12.695  0.0768 -0.6440  0.3025
  719TMC3    C310679   0.235   3.548  12.586 -0.4753  0.2852 -0.0883
  719TMC3    C410680   0.352   3.599  12.821 -0.1192 -0.3857  0.2427
  719TMC3    C510681   0.406   3.643  12.705  0.3214 -0.6077 -0.0747
  719TMC3    C610682   0.342   3.628  12.583  0.3611  0.3905 -0.8059
  719TMC3     C10683   0.250   3.399  12.892 -0.4199  0.6603 -0.3202
  719TMC3     O10684   0.223   3.303  12.825 -0.9057 -0.0648 -0.0933
  719TMC3     H10685   0.108   3.417  12.683 -0.5612 -0.0056  0.3443
  719TMC3    H110686   0.396   3.642  12.910 -2.3883 -0.6206  1.4771
  719TMC3    H210687   0.381   3.670  12.491  3.5029  0.2093  0.4505
  719TMC3    C710688   0.554   3.662  12.688  0.5780  0.4304 -0.0845
  719TMC3    C810689   0.248   3.450  12.481 -0.2202 -0.0183 -0.8481
  719TMC3    O110690   0.582   3.678  12.573  0.0441  0.1915 -0.4097
  719TMC3    O210691   0.277   3.499  12.372 -0.3349  0.1511 -0.2603
  720MPD2     C10692   3.646   0.000  13.862 -0.3401  0.3917 -0.2402
  720MPD2    C110693   3.701   0.104  13.792  0.4113 -0.2242  0.3218
  720MPD2    C210694   3.815   0.164  13.834  0.1788  0.4909 -0.6024
  720MPD2    C310695   3.880   0.104  13.944  0.3167  0.5854 -0.5557
  720MPD2    C410696   3.826   4.731  14.012 -0.1296 -0.0116 -0.9883
  720MPD2    C510697   3.704   4.683  13.972 -0.3443 -0.3309 -0.6736
  720MPD2     H10698   3.851   0.251  13.780 -0.9110  1.4773  0.2580
  720MPD2    H110699   3.879   4.697  14.100 -1.0582 -2.5362 -1.4073
  720MPD2    H210700   3.551   4.689  13.841 -1.0515  0.9176  1.8165
  720MPD2    H310701   3.656   4.604  14.028  1.5021 -0.5315  0.6225
  720MPD2     N10702   4.000   0.154  14.002  0.6869  0.1089 -0.4992
  720MPD2    H510703   4.047   0.092  14.067 -0.9550 -0.3448  0.2277
  720MPD2    N110704   3.634   0.162  13.679 -0.0207 -0.6660 -0.1422
  720MPD2    H710705   3.669   0.252  13.646 -3.2409 -0.5614 -3.2042
  721TMC3    C110706   4.207   0.264  14.039 -0.2819 -0.2039  0.2693
  721TMC3    C210707   4.186   0.291  14.167  0.7478  0.2749  0.6205
  721TMC3    C310708   4.305   0.307  14.244  0.0407 -0.4686  1.1576
  721TMC3    C410709   4.325   0.235  13.975 -0.0010  0.4372 -0.7320
  721TMC3    C510710   4.435   0.223  14.063  0.3905  0.0279 -0.0078
  721TMC3    C610711   4.428   0.271  14.191 -0.2631  0.2809 -0.3287
  721TMC3     C10712   4.086   0.251  13.962 -1.1918  0.3602 -0.4521
  721TMC3     O10713   4.093   0.291  13.846  0.1646 -0.1862 -0.1317
  721TMC3     H10714   4.085   0.298  14.206  0.3143  3.7273 -1.1713
  721TMC3    H110715   4.323   0.191  13.876  0.8852  0.4183 -0.7407
  721TMC3    H210716   4.514   0.281  14.256  0.0882 -0.4933 -0.6829
  721TMC3    C710717   4.565   0.197  14.021  0.0218 -0.0244  0.1190
  721TMC3    C810718   4.303   0.414  14.345 -0.4233 -0.2883  0.5838
  721TMC3    O110719   4.601   0.250  13.916 -0.0531 -0.6438  0.3715
  721TMC3    O210720   4.386   0.503  14.342 -0.2503  0.1730 -0.0379
  722MPD2     C10721   2.740   3.410  13.562  0.5192  0.2338  0.0437
  722MPD2    C110722   2.802   3.524  13.508 -0.3898  0.0929 -0.0257
  722MPD2    C210723   2.775   3.557  13.376 -0.1799  0.2744 -0.4097
  722MPD2    C310724   2.692   3.480  13.293  1.2848 -0.7633  0.3294
  722MPD2    C410725   2.646   3.359  13.336 -0.2523 -0.4433  0.2597
  722MPD2    C510726   2.669   3.336  13.472  0.2300 -0.4276 -0.3345
  722MPD2     H10727   2.809   3.651  13.334  1.2913  0.2763  0.7697
  722MPD2    H110728   2.587   3.290  13.276  1.0447  1.3226 -3.0339
  722MPD2    H210729   2.763   3.377  13.662  0.2766  0.8437  0.2996
  722MPD2    H310730   2.618   3.253  13.518  0.4083  0.8404  2.1417
  722MPD2     N10731   2.665   3.532  13.162 -0.0051  0.6758  0.4028
  722MPD2    H510732   2.685   3.629  13.142 -0.3114  0.5564 -0.5131
  722MPD2    N110733   2.896   3.602  13.581 -0.4729  0.0801 -0.1376
  722MPD2    H710734   2.920   3.690  13.534 -0.3332 -0.4265 -1.0205
  723TMC3    C110735   2.532   3.558  12.965 -0.9340  0.4559  0.1496
  723TMC3    C210736   2.466   3.502  12.859 -0.4205 -0.1376  0.2137
  723TMC3    C310737   2.404   3.591  12.773 -0.4398  0.2704 -0.3654
  723TMC3    C410738   2.531   3.694  12.992 -0.8559 -0.0714 -0.9299
  723TMC3    C510739   2.475   3.775  12.901  0.1148  0.6156  0.1115
  723TMC3    C610740   2.415   3.724  12.788 -0.5737  0.0845  0.0873
  723TMC3     C10741   2.579   3.472  13.069 -0.6765 -0.1414  0.2257
  723TMC3     O10742   2.556   3.348  13.060 -0.4118 -0.0863  0.0073
  723TMC3     H10743   2.488   3.397  12.845  2.5415  0.3039  1.5588
  723TMC3    H110744   2.570   3.739  13.082 -0.0805  0.4564 -1.5437
  723TMC3    H210745   2.341   3.783  12.735 -1.2232 -1.3859 -0.6362
  723TMC3    C710746   2.480   3.916  12.934  0.0146  0.2119 -0.6105
  723TMC3    C810747   2.316   3.544  12.665  0.0189 -0.4364 -0.8593
  723TMC3    O110748   2.529   3.948  13.042  0.0983 -0.1120  0.1705
  723TMC3    O210749   2.256   3.625  12.598 -0.7782 -0.4478  0.1729
  724TMC3    C110750   2.921   1.083  10.225 -0.1951  0.4210  0.8597
  724TMC3    C210751   2.984   1.164  10.135  0.5237  0.5217  0.7133
  724TMC3    C310752   3.040   1.279  10.191 -0.2465 -0.4150  0.3255
  724TMC3    C410753   2.869   1.128  10.346 -0.2668  0.3265 -0.0118
  724TMC3    C510754   2.901   1.248  10.384 -0.6300  0.2462 -0.4818
  724TMC3    C610755   2.987   1.325  10.310 -0.5737  0.3624 -0.5895
  724TMC3     C10756   2.890   0.945  10.194  0.7062 -0.4618  0.2672
  724TMC3     O10757   2.922   0.911  10.082 -0.3055 -0.2065  0.7888
  724TMC3     H10758   3.028   1.118  10.047 -0.5016  0.6193  0.1451
  724TMC3    H110759   2.805   1.069  10.410 -0.4547  1.1784  0.5927
  724TMC3    H210760   3.026   1.411  10.365  0.4000 -1.0749  0.9724
  724TMC3    C710761   2.837   1.306  10.504 -0.1944 -0.3532 -0.7308
  724TMC3    C810762   3.096   1.372  10.098  0.9765  0.1564  0.4509
  724TMC3    O110763   2.843   1.432  10.512  0.0201  0.2891 -0.2493
  724TMC3    O210764   3.127   1.330   9.987 -0.4611  0.2314  0.3676
  725TMC3    C110765   4.696   0.382  13.309  1.0178  0.3766  0.6303
  725TMC3    C210766   4.566   0.406  13.280 -0.0958 -0.5162 -0.5648
  725TMC3    C310767   4.484   0.303  13.305 -0.7626  0.1689 -0.1671
  725TMC3    C410768   0.008   0.272  13.376  0.6109  0.0425  0.3899
  725TMC3    C510769   4.654   0.174  13.403 -0.5938  0.3847  0.1310
  725TMC3    C610770   4.524   0.188  13.370 -0.6680  0.4913  0.1382
  725TMC3     C10771   0.055   0.476  13.257 -0.1665  1.1099  0.1025
  725TMC3     O10772   0.004   0.584  13.251 -0.6749 -0.8590  0.3434
  725TMC3     H10773   4.536   0.501  13.237 -0.8283 -0.1498  0.7610
  725TMC3    H110774   0.115   0.265  13.395  0.7422 -1.5242 -0.9311
  725TMC3    H210775   4.450   0.110  13.384 -0.0836 -0.2383 -0.8649
  725TMC3    C710776   4.716   0.045  13.412 -0.1481  0.0020 -0.1219
  725TMC3    C810777   4.355   0.304  13.251  0.2679 -0.3930  0.0635
  725TMC3    O110778   0.088   0.029  13.353 -0.5078  0.4149 -0.4448
  725TMC3    O210779   4.269   0.232  13.293  0.7695 -0.1466  0.4454
  726MPD2     C10780   2.085   2.045   9.846 -0.1017 -0.3628 -0.1856
  726MPD2    C110781   2.047   2.011   9.968 -0.3810 -1.1275  0.3809
  726MPD2    C210782   2.092   1.892  10.031 -0.1819  0.1357 -0.0267
  726MPD2    C310783   2.180   1.821   9.952 -0.2170 -0.0513  0.5989
  726MPD2    C410784   2.211   1.862   9.823  1.1570 -0.9170 -0.1137
  726MPD2    C510785   2.168   1.972   9.769  0.9259 -0.6733 -0.5420
  726MPD2     H10786   2.068   1.872  10.135  2.5078 -1.2285  0.3263
  726MPD2    H110787   2.279   1.803   9.763 -1.2545 -1.2633 -2.5139
  726MPD2    H210788   2.073   2.145   9.807  0.5835  0.2698  1.2616
  726MPD2    H310789   2.210   2.011   9.676  1.9845 -1.2160 -0.2846
  726MPD2     N10790   2.229   1.696   9.989  0.1209 -0.2504 -0.1499
  726MPD2    H510791   2.275   1.651   9.911  1.7140  0.9292  0.1086
  726MPD2    N110792   1.983   2.106  10.051  0.4811 -0.0971 -0.2296
  726MPD2    H710793   2.008   2.099  10.149 -0.0030 -0.2442 -0.1140
  727TMC3    C110794   1.889   2.330  10.085 -0.4954  0.0397  0.0684
  727TMC3    C210795   1.962   2.360  10.203  0.6472 -0.1490  0.7514
  727TMC3    C310796   1.942   2.490  10.247  1.0591 -0.3793  0.1255
  727TMC3    C410797   1.779   2.395  10.051 -0.6072  0.0780 -0.1234
  727TMC3    C510798   1.750   2.514  10.113  0.5043 -0.8054  0.6653
  727TMC3    C610799   1.838   2.564  10.199 -0.3531  0.1518 -0.2707
  727TMC3     C10800   1.912   2.217  10.000 -0.3667  1.9027 -0.9298
  727TMC3     O10801   1.861   2.213   9.888 -0.3904 -0.1667  0.2382
  727TMC3     H10802   2.046   2.299  10.234  0.6558 -0.3273  0.3842
  727TMC3    H110803   1.709   2.351   9.981  0.8656  0.2731 -1.7033
  727TMC3    H210804   1.826   2.663  10.242 -3.7852  1.0598 -3.3363
  727TMC3    C710805   1.626   2.579  10.084 -0.0354  0.3386  0.6453
  727TMC3    C810806   2.037   2.532  10.352 -0.5247  1.1356  0.8223
  727TMC3    O110807   1.573   2.534   9.982 -0.0495 -0.0541  0.7821
  727TMC3    O210808   2.108   2.442  10.398  0.1375  0.8118 -0.1705
  728TMC3    C110809   1.475   0.740  15.089 -0.9032 -0.3382 -0.0229
  728TMC3    C210810   1.609   0.749  15.059  0.2413 -0.0352  0.4567
  728TMC3    C310811   1.642   0.764  14.926  0.2285 -0.0108 -0.0740
  728TMC3    C410812   1.373   0.732  14.995  0.1760  0.2928  0.6870
  728TMC3    C510813   1.412   0.759  14.871  0.2009 -0.0968 -0.0819
  728TMC3    C610814   1.544   0.777  14.834 -0.4419  0.4325  0.8369
  728TMC3     C10815   1.451   0.747  15.226 -0.2529 -0.3764 -0.4237
  728TMC3     O10816   1.534   0.815  15.283 -0.5658 -0.1053 -1.0468
  728TMC3     H10817   1.692   0.734  15.127  3.4404 -1.9064 -3.8565
  728TMC3    H110818   1.267   0.722  15.017 -0.1936 -0.7555 -1.5590
  728TMC3    H210819   1.574   0.776  14.730  1.2638 -1.5919  1.3564
  728TMC3    C710820   1.311   0.782  14.769 -0.1035 -0.3900  0.0118
  728TMC3    C810821   1.775   0.810  14.883  0.3346  0.6610 -0.0649
  728TMC3    O110822   1.197   0.737  14.781 -0.1533 -0.3495 -0.8302
  728TMC3    O210823   1.863   0.746  14.941 -0.3393  0.0499  0.1941
  729MPD2     C10824   3.464   1.762  16.571 -0.2100  0.5320  0.3596
  729MPD2    C110825   3.564   1.706  16.650  0.2690 -0.5326  0.2086
  729MPD2    C210826   3.540   1.668  16.789  0.1153  0.3584 -0.5969
  729MPD2    C310827   3.411   1.682  16.836  0.7329 -0.4383  0.1219
  729MPD2    C410828   3.312   1.736  16.756  0.1383 -0.2423 -0.2130
  729MPD2    C510829   3.336   1.773  16.620  0.2582 -0.7767 -0.4430
  729MPD2     H10830   3.619   1.633  16.854  1.0968  2.6637 -0.5496
  729MPD2    H110831   3.214   1.756  16.797  0.0784  1.9066 -1.3967
  729MPD2    H210832   3.488   1.807  16.475  0.8832 -1.7386 -0.4423
  729MPD2    H310833   3.255   1.820  16.565  0.5676  0.1551 -0.1060
  729MPD2     N10834   3.386   1.643  16.965  0.2784 -0.3905 -0.8480
  729MPD2    H510835   3.465   1.615  17.022 -0.8763  1.2161  1.5869
  729MPD2    N110836   3.695   1.707  16.603  0.7889  0.6931 -0.0772
  729MPD2    H710837   3.702   1.723  16.503  0.9207  0.1168 -0.1646
  730TMC3    C110838   3.278   1.648  17.169  0.3424  0.5302 -0.3139
  730TMC3    C210839   3.405   1.606  17.210 -0.7779  0.4343  0.1075
  730TMC3    C310840   3.475   1.675  17.303 -0.1664 -0.7665  0.1563
  730TMC3    C410841   3.217   1.747  17.233 -0.0468  0.1914  0.2668
  730TMC3    C510842   3.283   1.810  17.332 -0.5546  0.8846  0.2260
  730TMC3    C610843   3.409   1.769  17.377 -0.0282  0.9464  0.3263
  730TMC3     C10844   3.260   1.659  17.027 -0.0738  0.3516 -0.4203
  730TMC3     O10845   3.144   1.662  16.986 -0.1749  0.1815 -0.3615
  730TMC3     H10846   3.433   1.510  17.168 -0.5099  0.6941 -0.3128
  730TMC3    H110847   3.129   1.796  17.192 -0.2199  0.2246  0.6757
  730TMC3    H210848   3.458   1.814  17.462  1.5353 -0.1857  0.0209
  730TMC3    C710849   3.286   1.954  17.307  0.3031 -0.6313 -0.4359
  730TMC3    C810850   3.596   1.712  17.236  0.2321  0.1922  0.9805
  730TMC3    O110851   3.262   1.976  17.186 -0.2860 -0.5682 -0.4442
  730TMC3    O210852   3.619   1.644  17.138  0.0094 -0.2162 -0.1966
  731MPD2     C10853   4.286   4.037  12.470 -0.0787 -0.0771  0.3999
  731MPD2    C110854   4.199   4.119  12.403  0.9223 -0.2214 -0.4023
  731MPD2    C210855   4.073   4.125  12.455  0.3804  0.1674  0.2119
  731MPD2    C310856   4.036   4.063  12.571  0.4274 -0.0877  0.3596
  731MPD2    C410857   4.139   3.996  12.637  0.1776 -0.0790 -0.5847
  731MPD2    C510858   4.263   3.969  12.590  0.4700  0.1141 -0.0834
  731MPD2     H10859   3.993   4.176  12.402  2.0884  1.0012 -1.5685
  731MPD2    H110860   4.113   3.935  12.722  1.5974 -2.3986 -1.8193
  731MPD2    H210861   4.382   4.016  12.423 -0.3417  0.7610 -0.5088
  731MPD2    H310862   4.324   3.894  12.640 -0.5374  1.1307  2.6608
  731MPD2     N10863   3.904   4.070  12.622 -0.3607 -0.3124 -0.2252
  731MPD2    H510864   3.840   4.133  12.574  0.5244  1.0387  0.3568
  731MPD2    N110865   4.231   4.199  12.284 -0.2721 -0.1154  0.0866
  731MPD2    H710866   4.155   4.240  12.229  0.1475 -0.2894 -0.6208
  732TMC3    C110867   4.364   4.315  12.118 -0.3392  0.4745  0.1235
  732TMC3    C210868   4.245   4.361  12.066  0.6753 -0.2164 -0.0624
  732TMC3    C310869   4.255   4.487  12.004  0.0175 -0.2044 -0.0750
  732TMC3    C410870   4.486   4.378  12.111 -0.0735 -0.4307  0.3418
  732TMC3    C510871   4.478   4.510  12.072  0.1021  0.3989 -0.2565
  732TMC3    C610872   4.371   4.566  12.012 -0.1602  0.9481 -0.4189
  732TMC3     C10873   4.359   4.235  12.244  0.4169 -0.5256  0.1069
  732TMC3     O10874   4.466   4.221  12.304 -0.6815  0.5032  0.0126
  732TMC3     H10875   4.162   4.293  12.050 -0.4170  1.3850 -1.1677
  732TMC3    H110876   4.574   4.319  12.133 -1.7856 -2.4527  1.7911
  732TMC3    H210877   4.381   4.661  11.960  0.1517  1.4673  0.5768
  732TMC3    C710878   4.568   4.602  12.143  0.5761 -0.1324  0.0145
  732TMC3    C810879   4.161   4.525  11.902  0.8502  0.6276 -0.1935
  732TMC3    O110880   4.564   4.723  12.131 -0.8391 -0.4436 -0.6259
  732TMC3    O210881   4.222   4.578  11.812  0.2048  0.3807  0.5975
  733TMC3    C110882   0.394   2.619  12.843  0.0886  0.2776 -0.5502
  733TMC3    C210883   0.427   2.719  12.930 -0.4880  0.2679 -0.3576
  733TMC3    C310884   0.544   2.790  12.898  0.8504 -0.3806  0.2126
  733TMC3    C410885   0.453   2.608  12.726  0.4146 -0.0726 -0.6366
  733TMC3    C510886   0.543   2.698  12.683  0.1652  0.3861  0.0195
  733TMC3    C610887   0.597   2.784  12.774  0.0783 -0.0481 -0.1225
  733TMC3     C10888   0.255   2.578  12.841  0.0282 -0.0300 -0.1412
  733TMC3     O10889   0.175   2.668  12.851 -0.3397 -0.3016  0.6399
  733TMC3     H10890   0.368   2.747  13.017  0.4205  0.7405  0.1041
  733TMC3    H110891   0.407   2.546  12.650 -1.2856 -0.7509  0.9653
  733TMC3    H210892   0.678   2.849  12.744  0.3756 -0.5181 -0.3457
  733TMC3    C710893   0.508   2.770  12.563  0.2494 -0.3133  0.3666
  733TMC3    C810894   0.523   2.935  12.923  0.5500 -0.6252  0.7527
  733TMC3    O110895   0.480   2.695  12.468 -0.9035 -0.2490 -0.5685
  733TMC3    O210896   0.539   3.010  12.831 -0.1498  0.5513 -0.2091
  734MPD2     C10897   2.270   1.114  11.949 -0.4232  0.1750  0.0983
  734MPD2    C110898   2.171   1.024  11.929  0.2895  0.1532 -0.4761
  734MPD2    C210899   2.176   0.928  11.829  0.1488  0.4098  0.0106
  734MPD2    C310900   2.288   0.923  11.756  0.4326  0.1452 -0.5004
  734MPD2    C410901   2.371   1.026  11.765 -0.7273 -0.1695 -0.2601
  734MPD2    C510902   2.373   1.112  11.865  0.5649  0.2109 -0.2292
  734MPD2     H10903   2.106   0.845  11.822 -0.1109  0.6075  0.2509
  734MPD2    H110904   2.458   1.046  11.704  0.1882 -2.1367  0.3790
  734MPD2    H210905   2.268   1.197  12.018 -0.6706  0.6052 -0.4303
  734MPD2    H310906   2.447   1.191  11.870  0.0268  0.7656 -1.0707
  734MPD2     N10907   2.313   0.795  11.687 -0.2256  0.1317  0.3656
  734MPD2    H510908   2.250   0.717  11.703 -0.6298 -0.2876 -3.2712
  734MPD2    N110909   2.059   1.037  12.013 -0.2172 -0.2885 -0.5958
  734MPD2    H710910   2.065   1.089  12.100 -0.0976  0.4107 -1.0274
  735TMC3    C110911   1.843   0.961  12.089  0.0262 -0.1844 -0.2024
  735TMC3    C210912   1.719   0.914  12.044 -0.1070  0.2249  0.0106
  735TMC3    C310913   1.672   0.793  12.091  0.7123 -0.0804 -0.9162
  735TMC3    C410914   1.912   0.886  12.184  0.3631  0.3881  0.6630
  735TMC3    C510915   1.866   0.764  12.216 -0.0254 -0.5900  0.4340
  735TMC3    C610916   1.742   0.718  12.179 -0.4875  0.2739 -0.1711
  735TMC3     C10917   1.933   0.985  11.983 -0.3422  0.2470  0.2675
  735TMC3     O10918   1.895   0.935  11.880 -0.6279  0.4134 -0.0004
  735TMC3     H10919   1.661   0.978  11.978 -1.1619  2.0698  2.7051
  735TMC3    H110920   2.009   0.905  12.228  1.4039  1.4219 -2.0835
  735TMC3    H210921   1.718   0.612  12.186  0.5110  0.1546  1.4375
  735TMC3    C710922   1.964   0.659  12.215  0.2457 -0.2662  0.4664
  735TMC3    C810923   1.631   0.709  11.979  0.5163  0.2611  0.3225
  735TMC3    O110924   2.047   0.668  12.125  0.1718 -0.7575  0.0924
  735TMC3    O210925   1.578   0.604  12.014 -0.3237 -0.0068 -0.5567
  736MPD2     C10926   2.041   0.433  12.489  0.2046  0.2130 -0.4697
  736MPD2    C110927   2.045   0.491  12.361  0.3631  0.9496 -0.3544
  736MPD2    C210928   2.138   0.440  12.279  0.5804  0.3337 -0.0606
  736MPD2    C310929   2.241   0.351  12.314 -0.7840 -0.2777 -0.3679
  736MPD2    C410930   2.236   0.300  12.439  0.2721  0.2345  0.6371
  736MPD2    C510931   2.133   0.335  12.522 -0.1954 -0.1608 -0.6612
  736MPD2     H10932   2.122   0.469  12.176  0.9153  2.2532  0.4315
  736MPD2    H110933   2.319   0.245  12.481 -0.5368 -0.5699  1.1680
  736MPD2    H210934   1.961   0.471  12.551  0.3467 -1.1801  0.5462
  736MPD2    H310935   2.141   0.292  12.621  0.2027  2.3223  0.3939
  736MPD2     N10936   2.348   0.324  12.223  0.5695 -0.1982  0.1769
  736MPD2    H510937   2.424   0.267  12.257  0.5267  0.1153  0.8100
  736MPD2    N110938   1.947   0.584  12.328 -0.6523  0.4618 -0.1162
  736MPD2    H710939   1.865   0.607  12.384  0.2869  2.3702  0.4768
  737TMC3    C110940   2.477   0.341  12.017  0.8433 -0.1641  0.2931
  737TMC3    C210941   2.496   0.406  11.896 -0.6281  0.4492  0.3447
  737TMC3    C310942   2.601   0.368  11.817  0.5634 -0.2301  0.6108
  737TMC3    C410943   2.570   0.251  12.063  0.5660  0.2784 -0.0629
  737TMC3    C510944   2.661   0.207  11.968 -0.6531  0.0633  0.3586
  737TMC3    C610945   2.689   0.268  11.848  1.2772  0.3332 -0.9514
  737TMC3     C10946   2.351   0.368  12.092  0.3323 -0.1535  0.1870
  737TMC3     O10947   2.274   0.437  12.029  0.4522  0.3402 -0.8963
  737TMC3     H10948   2.420   0.477  11.866 -1.7488 -0.0319  2.0257
  737TMC3    H110949   2.560   0.202  12.159 -2.5785  2.4515  0.7328
  737TMC3    H210950   2.760   0.242  11.771 -0.3076 -1.9942 -1.6496
  737TMC3    C710951   2.722   0.073  11.981 -0.1975 -0.2882 -0.8422
  737TMC3    C810952   2.623   0.426  11.684  0.3609  0.1446  0.0477
  737TMC3    O110953   2.675   0.002  12.069  0.0249 -0.3128 -0.1288
  737TMC3    O210954   2.622   0.551  11.686 -0.2834 -0.5019 -0.4409
  738MPD2     C10955   2.452   4.136  15.049  0.1074  0.2082 -0.4065
  738MPD2    C110956   2.497   4.027  15.110  0.4789 -0.3723 -0.1940
  738MPD2    C210957   2.616   4.034  15.172  0.8049 -0.3467  0.1948
  738MPD2    C310958   2.679   4.156  15.171 -0.1786  0.0953 -0.3860
  738MPD2    C410959   2.636   4.268  15.108 -0.6072 -0.3283  0.6864
  738MPD2    C510960   2.513   4.259  15.054  0.0510 -0.3135  0.5692
  738MPD2     H10961   2.671   3.945  15.201  1.8495  1.2231  3.0523
  738MPD2    H110962   2.688   4.363  15.097 -4.1510  1.6956  1.2716
  738MPD2    H210963   2.358   4.129  14.996  0.1503  1.1882 -0.6238
  738MPD2    H310964   2.470   4.336  14.992 -3.2808 -1.2481  1.7136
  738MPD2     N10965   2.816   4.156  15.208 -0.8473  0.0473  0.8319
  738MPD2    H510966   2.870   4.234  15.173  1.8489 -1.5269  1.4945
  738MPD2    N110967   2.436   3.896  15.105 -0.1097 -0.6271  0.2112
  738MPD2    H710968   2.471   3.826  15.169 -0.0318  1.5079  2.5057
  739TMC3    C110969   3.021   4.081  15.262 -0.0381 -0.2218  0.2886
  739TMC3    C210970   3.059   4.088  15.127 -0.3563 -0.6271 -0.3871
  739TMC3    C310971   3.194   4.092  15.107  0.1719  0.8432  0.5575
  739TMC3    C410972   3.112   4.087  15.366 -0.1110  0.3387  0.2489
  739TMC3    C510973   3.252   4.083  15.337  0.0931  0.3478  0.3954
  739TMC3    C610974   3.283   4.082  15.206 -0.3954 -0.1584 -0.1074
  739TMC3     C10975   2.882   4.061  15.275  0.1781  0.0786 -0.0486
  739TMC3     O10976   2.839   3.997  15.369 -0.2791 -0.6142 -0.0357
  739TMC3     H10977   2.985   4.072  15.050 -0.7388 -0.0446 -0.1372
  739TMC3    H110978   3.075   4.116  15.463 -1.6659  0.9302 -0.5243
  739TMC3    H210979   3.385   4.059  15.180 -0.1700  0.9099 -0.1738
  739TMC3    C710980   3.350   4.070  15.441 -0.3324  0.0384  0.1011
  739TMC3    C810981   3.234   4.087  14.963  0.1936 -0.0312 -0.7334
  739TMC3    O110982   3.321   4.085  15.560 -0.1325  0.1166  0.4076
  739TMC3    O210983   3.151   4.049  14.884  0.1608  0.4832  0.7000
  740TMC3    C110984   3.198   0.479  14.411  0.4998 -0.5285  0.7021
  740TMC3    C210985   3.210   0.368  14.499 -0.2666 -0.4059 -0.6142
  740TMC3    C310986   3.336   0.311  14.507 -0.6863  0.6747 -1.8039
  740TMC3    C410987   3.298   0.520  14.331  0.5040 -0.2073  0.5652
  740TMC3    C510988   3.416   0.455  14.341 -0.5082 -1.0343  0.0904
  740TMC3    C610989   3.439   0.361  14.435 -0.9061  0.2443  0.3841
  740TMC3     C10990   3.103   0.585  14.443  0.1736 -0.5163  0.5052
  740TMC3     O10991   3.129   0.697  14.399  0.3246  0.8022  0.6238
  740TMC3     H10992   3.125   0.345  14.562  0.9836 -2.2191  0.4277
  740TMC3    H110993   3.269   0.588  14.252  0.7202 -2.9166 -1.8294
  740TMC3    H210994   3.527   0.299  14.418  0.2268  2.3716 -1.5586
  740TMC3    C710995   3.520   0.506  14.257 -0.1097 -0.2754 -0.9766
  740TMC3    C810996   3.370   0.218  14.613 -0.3394  0.3633 -0.0901
  740TMC3    O110997   3.479   0.562  14.154 -0.1238 -0.1699  0.1416
  740TMC3    O210998   3.280   0.147  14.660 -0.0278  0.3002  0.2000
  741TMC3    C110999   3.207   4.565  14.447  0.9697  0.4138  0.5042
  741TMC3    C211000   3.087   4.529  14.398 -0.5289 -0.3759  0.1791
  741TMC3    C311001   3.012   4.443  14.478 -0.5833 -0.1392 -0.8845
  741TMC3    C411002   3.259   4.518  14.566  0.7938  0.0918 -0.1556
  741TMC3    C511003   3.178   4.452  14.648  0.0576 -0.1967 -0.2186
  741TMC3    C611004   3.056   4.411  14.607 -1.0464 -0.4102 -0.6490
  741TMC3     C11005   3.293   4.640  14.360 -0.5582  0.6059  0.3227
  741TMC3     O11006   3.412   4.625  14.385 -0.0052 -0.0242  0.4984
  741TMC3     H11007   3.055   4.545  14.296  1.0594 -0.8455 -0.3975
  741TMC3    H111008   3.354   4.558  14.600  0.4614  0.7678 -0.0183
  741TMC3    H211009   2.991   4.352  14.671  0.7910 -0.9106  0.7613
  741TMC3    C711010   3.225   4.434  14.789 -0.0997 -0.0446 -0.1210
  741TMC3    C811011   2.897   4.381  14.411 -0.6488 -0.6799  0.1873
  741TMC3    O111012   3.344   4.436  14.815  0.3085 -0.7353 -0.7692
  741TMC3    O211013   2.861   4.432  14.307 -0.4854  0.2063 -0.2390
  742TMC3    C111014   2.667   3.127  15.615 -0.4516  0.0958  0.8351
  742TMC3    C211015   2.625   3.101  15.485  0.2830 -1.1468  0.2542
  742TMC3    C311016   2.721   3.052  15.403 -0.3552  0.0152 -0.8295
  742TMC3    C411017   2.795   3.099  15.662  0.0699 -0.2489  0.9701
  742TMC3    C511018   2.883   3.040  15.564  0.4514 -0.2958  0.8672
  742TMC3    C611019   2.849   3.016  15.434  0.1016 -0.3069  0.1774
  742TMC3     C11020   2.601   3.225  15.691  0.1640 -0.1873  0.5672
  742TMC3     O11021   2.566   3.324  15.628 -0.1646 -0.3321  0.0903
  742TMC3     H11022   2.542   3.163  15.455  3.2611  2.4730 -0.5715
  742TMC3    H111023   2.831   3.136  15.757 -1.4898 -0.0865  1.5045
  742TMC3    H211024   2.920   2.977  15.362 -1.8205 -1.0892 -1.2898
  742TMC3    C711025   3.020   3.017  15.591 -0.4072 -0.1800 -0.0120
  742TMC3    C811026   2.687   3.012  15.268 -0.8240 -0.1833 -0.9758
  742TMC3    O111027   3.098   2.996  15.498  0.1388  0.1414  0.0923
  742TMC3    O211028   2.779   2.988  15.195 -0.2598  0.1287 -0.3486
  743MPD2     C11029   0.922   3.818   1.852 -0.5633  0.4139 -0.1418
  743MPD2    C111030   0.889   3.835   1.720  0.3457  0.3669 -0.3484
  743MPD2    C211031   0.989   3.833   1.624  0.3304  0.3034 -0.3389
  743MPD2    C311032   1.121   3.826   1.661 -0.3698  0.4525  0.1253
  743MPD2    C411033   1.153   3.832   1.796  0.0879 -0.1643 -0.0099
  743MPD2    C511034   1.055   3.816   1.887 -0.2817  0.0876 -0.2791
  743MPD2     H11035   0.970   3.834   1.517  0.4426 -2.7679 -0.4000
  743MPD2    H111036   1.249   3.827   1.845  0.6336  2.6851 -0.7868
  743MPD2    H211037   0.845   3.820   1.928 -0.4091  0.7655  0.0079
  743MPD2    H311038   1.077   3.811   1.993 -1.6116 -0.6202 -0.0291
  743MPD2     N11039   1.216   3.818   1.561  0.0102  0.0221 -0.6788
  743MPD2    H511040   1.189   3.814   1.463  0.9956 -0.7297 -0.9235
  743MPD2    N111041   0.757   3.839   1.683 -0.4785 -0.0477  0.3952
  743MPD2    H711042   0.686   3.862   1.753  1.2295  3.1321  1.0642
  744TMC3    C111043   0.561   3.795   1.544  0.2388  0.0361  0.3243
  744TMC3    C211044   0.498   3.902   1.593 -0.6038 -0.2616  0.2490
  744TMC3    C311045   0.384   3.944   1.530  1.1411  0.3933 -0.4148
  744TMC3    C411046   0.529   3.722   1.432  0.6323  0.0769  0.0317
  744TMC3    C511047   0.407   3.763   1.380  0.4390  0.1878 -0.0291
  744TMC3    C611048   0.340   3.874   1.420  0.0755 -0.4955  0.1595
  744TMC3     C11049   0.705   3.792   1.558  0.5282 -1.0943  0.1246
  744TMC3     O11050   0.765   3.732   1.472  0.9379 -0.4665  0.0437
  744TMC3     H11051   0.546   3.958   1.672  0.3873 -1.1788  0.2863
  744TMC3    H111052   0.583   3.633   1.400  0.6970  0.1009  0.0759
  744TMC3    H211053   0.253   3.923   1.377  0.1609  1.6057  2.4020
  744TMC3    C711054   0.370   3.696   1.261  0.0442  0.3236  0.2132
  744TMC3    C811055   0.312   4.056   1.578 -0.5008 -0.2589 -0.3510
  744TMC3    O111056   0.308   3.764   1.182 -0.4183  0.2935  0.0639
  744TMC3    O211057   0.218   4.092   1.512  0.2122  0.1887  0.1633
  745TMC3    C111058   3.702   2.500  13.710  0.1948  0.0354 -0.6665
  745TMC3    C211059   3.604   2.563  13.783 -0.1062 -0.1703 -0.3741
  745TMC3    C311060   3.498   2.606  13.715 -0.7960  0.0547  0.2481
  745TMC3    C411061   3.694   2.479  13.586  0.2362 -0.4132  0.3624
  745TMC3    C511062   3.587   2.519  13.518  0.4851 -0.0106  0.1507
  745TMC3    C611063   3.484   2.577  13.585 -0.0840  0.9635 -0.1795
  745TMC3     C11064   3.836   2.489  13.770  0.5087  0.1277  0.0160
  745TMC3     O11065   3.922   2.423  13.708 -0.3351 -0.3109  0.4392
  745TMC3     H11066   3.611   2.564  13.891 -0.0778 -1.3784 -0.3565
  745TMC3    H111067   3.778   2.434  13.536  0.4709  0.8118 -0.3462
  745TMC3    H211068   3.394   2.607  13.533  0.0712 -2.4082 -2.3829
  745TMC3    C711069   3.569   2.490  13.377  0.4659 -1.0611  0.3501
  745TMC3    C811070   3.392   2.677  13.779  0.1809  0.5672  0.0826
  745TMC3    O111071   3.459   2.464  13.334  0.2815 -0.8342 -0.1159
  745TMC3    O211072   3.274   2.665  13.749 -0.3765  0.2773 -0.2196
  746TMC3    C111073   0.332   0.037  11.011  0.4779 -0.0145  0.2761
  746TMC3    C211074   0.374   4.685  10.913  1.0055 -0.4477 -0.0438
  746TMC3    C311075   0.284   4.583  10.880 -0.2283  0.0788  0.4530
  746TMC3    C411076   0.215   0.027  11.085 -0.2217  0.3134 -0.0421
  746TMC3    C511077   0.137   4.658  11.052  0.2933  0.4665 -0.1633
  746TMC3    C611078   0.168   4.565  10.948 -0.0085  0.2499  0.7366
  746TMC3     C11079   0.417   0.159  11.027  0.1485 -0.2874 -0.1072
  746TMC3     O11080   0.403   0.216  11.135 -0.2745  0.1422 -0.0549
  746TMC3     H11081   0.469   4.683  10.862  1.1393 -0.3612  0.1985
  746TMC3    H111082   0.201   0.086  11.175  0.0134 -0.8004  0.7255
  746TMC3    H211083   0.099   4.484  10.929 -0.5964  0.8406  0.3520
  746TMC3    C711084   0.046   4.605  11.139 -1.2649  0.1211 -0.0386
  746TMC3    C811085   0.285   4.516  10.747  0.4408  0.5757  1.0776
  746TMC3    O111086   4.678   4.557  11.095 -0.1960  0.3519  0.0340
  746TMC3    O211087   0.208   4.424  10.713  0.0626  0.1540  0.2752
  747TMC3    C111088   3.262   4.492  11.168 -0.0515  0.9009 -0.1205
  747TMC3    C211089   3.188   4.439  11.271 -0.0318 -0.0875 -1.0493
  747TMC3    C311090   3.207   4.487  11.396 -0.9342 -0.3332 -0.2932
  747TMC3    C411091   3.339   4.608  11.182 -0.2504  0.5263 -0.0547
  747TMC3    C511092   3.339   4.662  11.308 -0.7093  0.2816  0.5236
  747TMC3    C611093   3.276   4.603  11.413 -0.4989  0.1632 -0.0923
  747TMC3     C11094   3.220   4.456  11.035 -0.1221  0.2576  0.0087
  747TMC3     O11095   3.215   4.555  10.962 -0.1594  0.3447 -0.0798
  747TMC3     H11096   3.124   4.354  11.254 -0.2201 -0.2987  0.7071
  747TMC3    H111097   3.381   4.657  11.094  0.3777  2.2818  1.2211
  747TMC3    H211098   3.302   4.641  11.511  1.4400  0.6416 -0.8069
  747TMC3    C711099   3.466   4.731  11.340 -0.0926 -0.0487 -0.4705
  747TMC3    C811100   3.097   4.456  11.490 -0.8568  0.7310 -0.6758
  747TMC3    O111101   3.459   0.083  11.425 -0.6768  0.3600  0.4696
  747TMC3    O211102   3.041   4.355  11.473  0.7972  0.0369  0.4860
  748MPD2     C11103   4.448   0.865   1.360 -0.5143 -0.3809 -0.2103
  748MPD2    C111104   4.478   0.730   1.348 -0.4963  0.5211 -0.0079
  748MPD2    C211105   4.602   0.693   1.293  0.5024  0.2978  0.9679
  748MPD2    C311106   4.702   0.793   1.258  0.3605 -0.2020  0.3281
  748MPD2    C411107   4.663   0.927   1.283  0.5997  0.6427 -0.1808
  748MPD2    C511108   4.539   0.959   1.330 -0.7220 -0.1254 -0.0094
  748MPD2     H11109   4.629   0.590   1.278 -2.9563 -0.5357  0.2933
  748MPD2    H111110   4.722   1.016   1.263  0.3318  0.6606 -0.8853
  748MPD2    H211111   4.356   0.896   1.409 -0.7163 -0.8286 -0.3025
  748MPD2    H311112   4.510   1.063   1.338 -1.5426 -0.4291  0.9007
  748MPD2     N11113   0.092   0.759   1.207  0.1558 -0.9661 -0.1849
  748MPD2    H511114   0.127   0.664   1.211 -0.3483 -1.0942  1.0983
  748MPD2    N111115   4.385   0.641   1.405  0.2330 -0.1564 -0.1992
  748MPD2    H711116   4.306   0.685   1.452  0.6557  2.5679 -2.0193
  749TMC3    C111117   0.320   0.798   1.161  0.3588 -0.1731  0.5145
  749TMC3    C211118   0.358   0.684   1.231  0.1283 -0.6927 -0.4291
  749TMC3    C311119   0.477   0.624   1.198 -0.4476 -0.2633 -0.2881
  749TMC3    C411120   0.390   0.840   1.054  0.4652 -0.5850  0.3815
  749TMC3    C511121   0.505   0.776   1.025  0.2887 -0.3101  0.3033
  749TMC3    C611122   0.553   0.666   1.094  0.5940 -0.3662  0.1775
  749TMC3     C11123   0.187   0.852   1.173 -0.7760  1.1629 -0.1937
  749TMC3     O11124   0.176   0.970   1.142 -0.5302  0.4878 -0.8583
  749TMC3     H11125   0.304   0.642   1.315 -1.7946  0.5220 -1.0453
  749TMC3    H111126   0.346   0.917   0.992  1.5428 -1.6274 -1.6468
  749TMC3    H211127   0.648   0.623   1.065  0.6731  1.2391 -1.8836
  749TMC3    C711128   0.596   0.819   0.924 -0.7586  0.6991  0.2011
  749TMC3    C811129   0.523   0.516   1.280 -1.2379 -0.6594  0.0127
  749TMC3    O111130   0.625   0.937   0.930 -0.4842 -0.3914  0.7949
  749TMC3    O211131   0.467   0.492   1.384  0.1909 -0.0958 -0.3652
  750MPD2     C11132   1.637   1.676  10.742 -0.1624 -0.1921 -0.1346
  750MPD2    C111133   1.502   1.680  10.777  0.2025  0.4660  0.0562
  750MPD2    C211134   1.434   1.556  10.783 -0.5838 -0.0109  0.1580
  750MPD2    C311135   1.502   1.434  10.759  0.5421 -0.1101  0.2165
  750MPD2    C411136   1.637   1.434  10.734  0.5046 -1.0511  0.3933
  750MPD2    C511137   1.697   1.551  10.727 -0.2035  0.7069 -0.3398
  750MPD2     H11138   1.333   1.555  10.821 -0.9321 -0.3447 -0.7812
  750MPD2    H111139   1.696   1.343  10.730  0.2597 -1.2363  0.9408
  750MPD2    H211140   1.697   1.766  10.751 -1.0693  0.4793 -0.8747
  750MPD2    H311141   1.806   1.550  10.723 -0.2236  1.7119 -1.1158
  750MPD2     N11142   1.437   1.315  10.762  0.2574  0.2860 -0.4545
  750MPD2    H511143   1.500   1.235  10.755 -0.1829  0.0871 -2.1338
  750MPD2    N111144   1.438   1.805  10.815 -0.3491  0.2761 -0.5511
  750MPD2    H711145   1.492   1.891  10.819 -2.0024  1.1669  2.4190
  751TMC3    C111146   1.273   1.154  10.767 -0.2594 -0.0483  0.1803
  751TMC3    C211147   1.150   1.126  10.828 -0.1332 -0.1648  0.2321
  751TMC3    C311148   1.071   1.033  10.767 -0.4075 -0.1553  0.2221
  751TMC3    C411149   1.306   1.092  10.651 -0.1754  0.4005  0.5349
  751TMC3    C511150   1.221   0.999  10.602 -0.7277 -0.0975  0.1365
  751TMC3    C611151   1.106   0.959  10.658 -0.3808  0.9862  0.4413
  751TMC3     C11152   1.303   1.289  10.782 -0.8835 -0.4131  0.1516
  751TMC3     O11153   1.210   1.355  10.817  0.2723 -0.2529 -0.5663
  751TMC3     H11154   1.118   1.185  10.913  3.7292  0.5056  1.2213
  751TMC3    H111155   1.394   1.121  10.594  0.1112  1.7537  1.6530
  751TMC3    H211156   1.034   0.890  10.615  0.1799  0.7239 -0.0889
  751TMC3    C711157   1.253   0.942  10.465  0.0643 -0.9544  0.1537
  751TMC3    C811158   0.925   1.019  10.802 -0.3754 -0.6605  0.7367
  751TMC3    O111159   1.362   0.963  10.419  0.4556 -1.3285  0.7028
  751TMC3    O211160   0.864   0.928  10.745 -0.6908  0.0864  0.1240
  752TMC3    C111161   4.110   2.058  17.464 -0.5734 -0.1988  0.2929
  752TMC3    C211162   4.125   1.921  17.464  0.4242  0.6555  0.3554
  752TMC3    C311163   4.055   1.851  17.558 -0.6225  0.3542 -0.6974
  752TMC3    C411164   4.020   2.112  17.549 -0.6012  0.8606 -0.7828
  752TMC3    C511165   3.940   2.033  17.632 -1.0440 -1.0065  0.0324
  752TMC3    C611166   3.963   1.898  17.642  0.2920 -0.4984  0.3333
  752TMC3     C11167   4.139   2.134  17.339 -0.1923  0.0795 -0.6500
  752TMC3     O11168   4.135   2.256  17.350  0.1429 -0.3123  0.0632
  752TMC3     H11169   4.200   1.874  17.401  0.4830 -1.6265  2.1219
  752TMC3    H111170   4.008   2.220  17.558 -1.0040  0.6502  1.2171
  752TMC3    H211171   3.908   1.829  17.705 -0.2366 -0.6557 -0.3040
  752TMC3    C711172   3.818   2.091  17.678  0.2007  0.8049 -0.7897
  752TMC3    C811173   4.069   1.703  17.551 -0.3422  0.9922  0.1766
  752TMC3    O111174   3.789   2.204  17.640 -0.0025  0.2692 -0.3567
  752TMC3    O211175   4.059   1.634  17.652  0.2762  0.1390  0.0570
  753TMC3    C111176   1.898   2.579  13.084 -0.3624  0.5176 -0.1152
  753TMC3    C211177   1.871   2.574  13.215 -0.0279  0.4159  0.0021
  753TMC3    C311178   1.888   2.457  13.280 -0.3405 -0.3313  0.4809
  753TMC3    C411179   1.957   2.480  13.013 -0.4725  0.7795 -0.0043
  753TMC3    C511180   1.978   2.365  13.084 -0.4880  0.4649 -0.3259
  753TMC3    C611181   1.947   2.349  13.218 -0.5705  0.3106 -0.2804
  753TMC3     C11182   1.877   2.706  13.020 -0.2427 -0.5035 -0.4943
  753TMC3     O11183   1.914   2.721  12.904  0.2798  0.3609  0.5333
  753TMC3     H11184   1.800   2.639  13.264 -0.4728 -0.0609 -0.0118
  753TMC3    H111185   1.983   2.495  12.909 -0.1749 -2.3613 -0.3658
  753TMC3    H211186   1.956   2.254  13.269  2.1318  1.3752  1.2222
  753TMC3    C711187   2.003   2.234  13.024  0.1849 -0.1187 -0.2342
  753TMC3    C811188   1.883   2.444  13.423  0.2380  0.6674 -0.4131
  753TMC3    O111189   2.054   2.144  13.087  0.0605  0.0832 -0.1630
  753TMC3    O211190   1.866   2.333  13.470  0.5699 -0.8193 -0.7390
  754MPD2     C11191   1.084   1.579  13.161 -0.4911 -0.1651  0.0357
  754MPD2    C111192   1.074   1.443  13.163 -0.7186 -0.7649 -1.4004
  754MPD2    C211193   0.949   1.382  13.149  1.0494  1.2792  0.4973
  754MPD2    C311194   0.836   1.455  13.131  0.0120 -0.7524  0.2069
  754MPD2    C411195   0.850   1.596  13.130 -0.5867 -0.5525  0.5689
  754MPD2    C511196   0.970   1.654  13.149 -0.3078  0.2487 -0.3936
  754MPD2     H11197   0.944   1.276  13.132  1.9383  0.6132  4.2210
  754MPD2    H111198   0.768   1.662  13.105 -1.7770 -1.2894  2.4935
  754MPD2    H211199   1.179   1.629  13.148 -2.8751  4.7347  1.7405
  754MPD2    H311200   0.961   1.762  13.137  2.5389  0.7193  1.8482
  754MPD2     N11201   0.707   1.398  13.103 -0.4256  0.2115 -0.9717
  754MPD2    H511202   0.628   1.462  13.099 -0.7057 -0.0428  0.4747
  754MPD2    N111203   1.198   1.377  13.156 -0.3349  1.1882 -0.2257
  754MPD2    H711204   1.277   1.433  13.126  1.0442  0.1516  1.4718
  755MPD2     C11205   4.723   1.796  13.161 -0.5733  0.2926 -0.1266
  755MPD2    C111206   4.673   1.698  13.084  0.0605  0.8359  0.5748
  755MPD2    C211207   0.027   1.609  13.029  0.6832 -0.0170  0.3283
  755MPD2    C311208   0.164   1.618  13.048 -0.1830  0.1778  0.5524
  755MPD2    C411209   0.214   1.722  13.132 -0.4367 -0.5779  0.2973
  755MPD2    C511210   0.122   1.806  13.189  0.3982  0.5667 -0.3239
  755MPD2     H11211   4.731   1.516  12.984 -0.3100  0.7481 -0.5295
  755MPD2    H111212   0.320   1.725  13.153 -0.3239 -3.1146  0.1175
  755MPD2    H211213   4.666   1.873  13.212 -0.0151  0.0864  0.7838
  755MPD2    H311214   0.145   1.890  13.254 -0.6116  1.5460 -1.2525
  755MPD2     N11215   0.250   1.510  13.014  0.3243 -0.5580  0.0660
  755MPD2    H511216   0.339   1.525  13.059  1.2733 -3.9100 -0.6611
  755MPD2    N111217   4.536   1.689  13.040 -0.4282  0.2151 -0.7807
  755MPD2    H711218   4.512   1.619  12.970 -1.5133  0.2904 -0.4843
  756MPD2     C11219   0.521   1.864   9.286  0.0827 -0.0273  0.8223
  756MPD2    C111220   0.536   1.868   9.427  0.0882  0.2659  0.0712
  756MPD2    C211221   0.503   1.992   9.488  0.6970  1.2153 -0.8388
  756MPD2    C311222   0.476   2.103   9.410 -0.2131  0.2279  0.6239
  756MPD2    C411223   0.469   2.095   9.274  0.4400 -0.1367  0.1578
  756MPD2    C511224   0.490   1.975   9.215 -0.5064 -0.8060 -0.2042
  756MPD2     H11225   0.502   2.003   9.596  0.6182  0.7210 -0.7880
  756MPD2    H111226   0.450   2.183   9.214  3.3371 -0.2875 -0.9831
  756MPD2    H211227   0.541   1.775   9.228 -0.0764  0.4514  0.0415
  756MPD2    H311228   0.483   1.966   9.107 -0.1956  2.2121 -0.4810
  756MPD2     N11229   0.435   2.221   9.485  0.5468 -0.4663  0.2235
  756MPD2    H511230   0.421   2.207   9.584 -1.1953  2.0821  0.3386
  756MPD2    N111231   0.570   1.751   9.505  0.4274  0.2003 -0.4866
  756MPD2    H711232   0.561   1.760   9.606 -1.5680 -1.0278 -0.5423
  757MPD2     C11233   0.087   2.070  10.136  0.0047  0.1906 -0.6398
  757MPD2    C111234   0.056   2.043  10.002 -0.3829 -0.2704 -0.5844
  757MPD2    C211235   0.092   2.134   9.909 -0.3385  0.2810  0.3743
  757MPD2    C311236   0.149   2.255   9.942  0.2456  0.1541  0.0841
  757MPD2    C411237   0.193   2.279  10.071 -1.2522  0.6236  0.4505
  757MPD2    C511238   0.164   2.187  10.165 -0.2463 -1.0642 -0.1108
  757MPD2     H11239   0.056   2.116   9.809  1.3869 -2.1913  0.1975
  757MPD2    H111240   0.253   2.364  10.104  0.5843 -0.1960 -0.8073
  757MPD2    H211241   0.062   2.011  10.224  0.9635  1.3444  0.4115
  757MPD2    H311242   0.197   2.199  10.267 -0.7392 -0.1745 -0.0579
  757MPD2     N11243   0.171   2.337   9.836  0.5436  0.1458 -0.5171
  757MPD2    H511244   0.158   2.301   9.742 -0.8096 -2.4777  0.6719
  757MPD2    N111245   4.720   1.925   9.979 -0.1314  1.1929 -0.0090
  757MPD2    H711246   4.672   1.882  10.057  1.1101  0.7407  0.5066
  758MPD2     C11247   0.004   0.600  15.712 -0.0488 -0.0815  0.4383
  758MPD2    C111248   0.116   0.659  15.765  0.5449  0.0135 -0.9514
  758MPD2    C211249   0.116   0.788  15.808  0.1690  0.5179  0.2279
  758MPD2    C311250   4.730   0.857  15.798  0.3594  0.0265 -0.7509
  758MPD2    C411251   4.614   0.792  15.761  0.0156  0.9818 -0.0300
  758MPD2    C511252   4.621   0.664  15.711  0.1191 -0.2112 -0.1558
  758MPD2     H11253   0.205   0.827  15.854  1.8342 -2.5666 -0.3680
  758MPD2    H111254   4.520   0.845  15.746  0.8327  2.6900  0.9000
  758MPD2    H211255   0.009   0.502  15.667  1.6831  0.9517 -1.6488
  758MPD2    H311256   4.539   0.606  15.670  1.4635 -1.5048 -0.9874
  758MPD2     N11257   4.727   0.985  15.853 -0.5886  0.0214 -0.7479
  758MPD2    H511258   4.634   1.011  15.885  0.8117  2.0501  1.7244
  758MPD2    N111259   0.241   0.595  15.774  0.5923 -0.0701  0.3667
  758MPD2    H711260   0.319   0.652  15.805  0.1387  0.0651  1.2428
  759MPD2     C11261   4.574   3.512   9.976  0.0962 -0.4852 -0.0684
  759MPD2    C111262   4.520   3.562  10.094  0.3996  0.7570 -0.6362
  759MPD2    C211263   4.510   3.703  10.114  0.1857 -0.0403 -0.0251
  759MPD2    C311264   4.539   3.789  10.013 -0.5686 -0.3507 -0.2486
  759MPD2    C411265   4.575   3.740   9.886 -0.5012 -0.1688  0.2843
  759MPD2    C511266   4.604   3.608   9.874 -0.1481  0.3973 -0.4674
  759MPD2     H11267   4.464   3.748  10.202  3.3557  1.9105  0.6284
  759MPD2    H111268   4.588   3.805   9.800 -1.2778  0.9157  0.9876
  759MPD2    H211269   4.590   3.407   9.953 -1.8390 -0.5807 -0.9725
  759MPD2    H311270   4.644   3.581   9.777  1.6910  3.6398 -0.6114
  759MPD2     N11271   4.512   3.930  10.026  0.2504  0.1943 -0.1932
  759MPD2    H511272   4.470   3.955  10.115  1.9914 -1.0091  0.9812
  759MPD2    N111273   4.481   3.478  10.199  0.4890  0.4566 -0.0021
  759MPD2    H711274   4.446   3.521  10.284 -0.4479  0.0330 -0.1771
  760MPD2     C11275   3.954   1.063  11.808  1.2845 -0.0310 -0.4486
  760MPD2    C111276   3.958   1.127  11.933 -0.4607 -0.1949  0.8350
  760MPD2    C211277   3.988   1.050  12.043 -0.7833 -0.3631  0.4107
  760MPD2    C311278   4.022   0.915  12.025 -0.4961  0.4163  0.2999
  760MPD2    C411279   4.030   0.859  11.903 -0.6109 -0.2031  0.1557
  760MPD2    C511280   3.998   0.931  11.794 -0.0804  0.3161  0.0573
  760MPD2     H11281   3.992   1.103  12.138  1.3810 -2.8981  1.7568
  760MPD2    H111282   4.053   0.754  11.894  0.7873  0.1398 -0.1771
  760MPD2    H211283   3.936   1.115  11.715  1.0356  0.5253 -0.0905
  760MPD2    H311284   4.021   0.894  11.695 -1.9033  0.2155 -0.3272
  760MPD2     N11285   4.070   0.837  12.129 -0.0867 -0.0234  0.2939
  760MPD2    H511286   4.127   0.758  12.100  0.7295  1.3333 -1.7957
  760MPD2    N111287   3.918   1.262  11.959 -0.8564 -0.6449 -0.7004
  760MPD2    H711288   3.895   1.291  12.053 -1.8905  1.5916 -1.6449
  761MPD2     C11289   0.530   1.097  11.120 -0.1712 -0.2549 -0.8189
  761MPD2    C111290   0.540   1.006  11.019  0.6388 -0.0632 -0.2823
  761MPD2    C211291   0.652   1.017  10.940 -0.6581 -0.6454 -0.6840
  761MPD2    C311292   0.757   1.106  10.959 -0.6802 -0.1974 -0.2159
  761MPD2    C411293   0.739   1.198  11.058  0.4023  0.2539 -0.5939
  761MPD2    C511294   0.629   1.184  11.137 -0.8454  0.4887 -0.0754
  761MPD2     H11295   0.663   0.946  10.858 -4.1651 -1.9398 -0.0368
  761MPD2    H111296   0.816   1.271  11.079 -1.2223  1.8876 -0.3272
  761MPD2    H211297   0.460   1.101  11.203  1.6220  0.8831  0.6420
  761MPD2    H311298   0.621   1.237  11.231  0.5140  0.3284  0.1175
  761MPD2     N11299   0.874   1.117  10.888  0.1551 -0.1613  0.0263
  761MPD2    H511300   0.933   1.192  10.922 -2.2500  0.9413  1.7614
  761MPD2    N111301   0.433   0.918  10.995 -0.0924  0.2797 -0.4626
  761MPD2    H711302   0.351   0.926  11.054 -0.5667  0.7648 -1.1883
  762MPD2     C11303   0.654   0.694  10.552  0.1049  0.2098  0.6360
  762MPD2    C111304   0.585   0.578  10.569  0.8836 -0.3983  0.2669
  762MPD2    C211305   0.611   0.470  10.486 -0.6514 -0.0840  0.6273
  762MPD2    C311306   0.719   0.479  10.399 -0.4566 -0.0876 -0.8976
  762MPD2    C411307   0.787   0.598  10.384 -0.2970  0.3657  0.4670
  762MPD2    C511308   0.751   0.701  10.459  0.1493  0.4543 -0.6144
  762MPD2     H11309   0.557   0.377  10.502 -1.4811  0.0885 -1.1516
  762MPD2    H111310   0.876   0.606  10.323 -0.9867 -2.8953 -0.9600
  762MPD2    H211311   0.621   0.778  10.613 -0.6587  0.7908 -0.5675
  762MPD2    H311312   0.814   0.789  10.464 -0.5561  0.8772  0.8403
  762MPD2     N11313   0.745   0.362  10.315  0.7275  0.0249  0.0494
  762MPD2    H511314   0.696   0.276  10.337  1.2421  0.0363  1.2694
  762MPD2    N111315   0.479   0.584  10.665 -0.4643 -0.0195 -0.7558
  762MPD2    H711316   0.478   0.667  10.723 -2.7335 -0.2641 -0.4628
  763MPD2     C11317   2.263   1.378  15.857 -0.2119  0.6249  0.2353
  763MPD2    C111318   2.141   1.442  15.817 -0.1291  0.0617 -0.1804
  763MPD2    C211319   2.140   1.579  15.836  0.3888  0.0761  0.1371
  763MPD2    C311320   2.236   1.655  15.906 -0.5367 -0.0593  0.3948
  763MPD2    C411321   2.355   1.584  15.947  0.1688  0.0033  1.0854
  763MPD2    C511322   2.355   1.442  15.937  0.1456  0.0125 -0.2155
  763MPD2     H11323   2.049   1.622  15.797  0.9055  0.0518 -1.1161
  763MPD2    H111324   2.434   1.637  15.999 -0.3671  0.0930  1.8007
  763MPD2    H211325   2.290   1.274  15.842 -0.8356  1.1538 -4.4818
  763MPD2    H311326   2.449   1.391  15.957  1.4383  2.7485  0.6058
  763MPD2     N11327   2.239   1.797  15.922  0.6941 -0.1779  0.2124
  763MPD2    H511328   2.317   1.844  15.967  0.6425  2.2732 -2.2412
  763MPD2    N111329   2.038   1.370  15.752 -0.7176 -0.1136  0.4065
  763MPD2    H711330   1.970   1.426  15.702 -1.0976 -1.6730 -0.8452
  764MPD2     C11331   0.301   2.677  17.428  0.1166 -0.0280 -0.4152
  764MPD2    C111332   0.173   2.624  17.416  0.2213  0.3462 -0.1888
  764MPD2    C211333   0.124   2.548  17.520 -0.2504 -0.3164 -0.6939
  764MPD2    C311334   0.200   2.538  17.638 -0.4080  0.3705  0.2066
  764MPD2    C411335   0.324   2.594  17.652 -0.5142  0.3627  0.1203
  764MPD2    C511336   0.373   2.658  17.542  0.4214 -0.2560  0.1678
  764MPD2     H11337   0.032   2.496  17.499 -0.2786 -0.1105 -1.0849
  764MPD2    H111338   0.372   2.608   0.004 -0.2747 -0.1853  0.0850
  764MPD2    H211339   0.359   2.726  17.351  1.0519 -1.3779 -0.5568
  764MPD2    H311340   0.469   2.707  17.548 -0.8262  1.8866  2.3003
  764MPD2     N11341   0.125   2.483   0.004 -0.4301  0.2408  0.1942
  764MPD2    H511342   0.025   2.476  17.730 -0.9813  1.0256  2.9591
  764MPD2    N111343   0.093   2.635  17.301 -0.3130 -0.0816  0.2772
  764MPD2    H711344   0.001   2.594  17.292 -0.3906  0.2390 -0.3937
  765MPD2     C11345   0.209   0.519  15.217  0.4397  0.0894 -0.6746
  765MPD2    C111346   0.264   0.594  15.322  0.8211 -0.1714  0.5058
  765MPD2    C211347   0.393   0.561  15.362  0.0520  0.4879  0.0099
  765MPD2    C311348   0.436   0.430  15.342 -0.0684 -0.2538 -0.6274
  765MPD2    C411349   0.366   0.340  15.256  0.2281 -0.1269 -0.5997
  765MPD2    C511350   0.255   0.390  15.190  0.7009  0.1726 -0.6127
  765MPD2     H11351   0.441   0.635  15.425  2.2686 -0.9028 -0.0330
  765MPD2    H111352   0.398   0.240  15.230 -3.0480 -0.5146 -3.1954
  765MPD2    H211353   0.128   0.554  15.154  0.0731  0.5131  0.0271
  765MPD2    H311354   0.203   0.330  15.116  1.2465 -0.4317 -0.5023
  765MPD2     N11355   0.553   0.393  15.414  0.1210 -0.0337  0.5841
  765MPD2    H511356   0.619   0.462  15.451 -0.1008  0.0664  0.7926
  765MPD2    N111357   0.203   0.715  15.370  0.4107 -0.4906  0.2568
  765MPD2    H711358   0.115   0.744  15.329 -0.3255 -1.6473  0.9979
  766MPD2     C11359   4.378   1.018  15.150 -0.6314  0.2554 -0.1367
  766MPD2    C111360   4.514   0.990  15.160  0.0989  0.2532  0.5014
  766MPD2    C211361   4.565   0.929  15.047  0.0617  0.1073 -0.5062
  766MPD2    C311362   4.498   0.902  14.931 -0.2257  0.2210  0.4360
  766MPD2    C411363   4.360   0.925  14.933 -0.6459 -0.5494 -0.0843
  766MPD2    C511364   4.303   0.984  15.042  0.7025  0.1344  0.9579
  766MPD2     H11365   4.672   0.913  15.034 -0.3168 -1.2052 -1.8969
  766MPD2    H111366   4.303   0.897  14.845 -2.1876  1.4235  0.2859
  766MPD2    H211367   4.328   1.073  15.229 -1.0963 -0.3898  0.0163
  766MPD2    H311368   4.196   0.999  15.048  0.2911 -2.6661  0.5015
  766MPD2     N11369   4.555   0.864  14.813  0.5525 -0.9499 -0.2836
  766MPD2    H511370   4.508   0.874  14.724 -0.3609 -0.7209  0.2281
  766MPD2    N111371   4.602   1.005  15.274  0.4202  0.2415 -0.4024
  766MPD2    H711372   4.700   0.980  15.263  0.6614  0.8754  0.2345
  767MPD2     C11373   4.194   1.204  14.697 -0.0840 -0.5325 -0.2660
  767MPD2    C111374   4.324   1.165  14.672 -0.1245 -0.4958  0.1367
  767MPD2    C211375   4.347   1.084  14.560  1.4650  0.5007  0.4580
  767MPD2    C311376   4.245   1.027  14.490 -0.1309  0.5532  0.7520
  767MPD2    C411377   4.116   1.062  14.523  0.3854  0.2967 -0.1449
  767MPD2    C511378   4.092   1.146  14.627  0.2833 -0.3960  0.1216
  767MPD2     H11379   4.448   1.062  14.529  1.1789 -0.5669  0.2720
  767MPD2    H111380   4.031   1.026  14.467 -1.0472  0.5629  1.8904
  767MPD2    H211381   4.175   1.267  14.784 -0.0025 -1.4095  0.3848
  767MPD2    H311382   3.990   1.167  14.658 -0.3071  2.1719 -3.5736
  767MPD2     N11383   4.283   0.954  14.375 -0.0486 -0.7510  0.0648
  767MPD2    H511384   4.379   0.932  14.351 -0.2273  1.1829 -2.3763
  767MPD2    N111385   4.434   1.223  14.749  0.0931  0.1567  0.8800
  767MPD2    H711386   4.411   1.278  14.832 -0.1548  0.0443  0.8838
  768MPD2     C11387   0.003   3.403  11.350  0.5437  0.6089 -0.0079
  768MPD2    C111388   0.034   3.537  11.372  0.5126  0.5248  0.3318
  768MPD2    C211389   0.171   3.576  11.381 -0.2465  0.1919 -0.2132
  768MPD2    C311390   0.270   3.482  11.364 -0.2587  0.1467 -0.1858
  768MPD2    C411391   0.237   3.348  11.349  0.9301 -0.1939  0.3975
  768MPD2    C511392   0.107   3.317  11.335  0.7321  0.4659  0.7776
  768MPD2     H11393   0.196   3.680  11.402 -0.4539  0.1988  0.0024
  768MPD2    H111394   0.309   3.267  11.346  2.9916  1.6936 -1.4606
  768MPD2    H211395   4.637   3.366  11.357 -0.2806  2.4050 -2.6286
  768MPD2    H311396   0.079   3.212  11.334  0.0247  0.6422  2.7149
  768MPD2     N11397   0.413   3.513  11.377 -0.0590 -0.4026 -0.4671
  768MPD2    H511398   0.476   3.433  11.378 -0.6547 -0.8553  0.7146
  768MPD2    N111399   4.678   3.636  11.385  0.4421 -0.4472 -0.3259
  768MPD2    H711400   4.711   3.732  11.387  0.0988 -0.2882 -1.8093
  769MPD2     C11401   1.757   1.962  14.768  0.2440  0.1108 -0.6913
  769MPD2    C111402   1.627   1.969  14.821  0.3543 -0.6966  0.0664
  769MPD2    C211403   1.601   2.055  14.923  0.0361  1.2367 -0.1072
  769MPD2    C311404   1.708   2.105  14.998  0.4228  0.8105 -0.6199
  769MPD2    C411405   1.836   2.095  14.946  0.1488  0.3693  0.0190
  769MPD2    C511406   1.863   2.023  14.832 -0.2166  0.3792 -0.0183
  769MPD2     H11407   1.499   2.075  14.953 -0.3421 -0.1064 -0.5169
  769MPD2    H111408   1.919   2.151  14.986 -0.1605  0.6888  0.2108
  769MPD2    H211409   1.789   1.901  14.684 -0.2903 -2.0245  0.6449
  769MPD2    H311410   1.967   2.002  14.806 -0.0658  1.6581 -0.4497
  769MPD2     N11411   1.692   2.164  15.126 -0.3493  0.0178 -0.4324
  769MPD2    H511412   1.595   2.155  15.157  0.2513 -0.4937  1.2721
  769MPD2    N111413   1.518   1.914  14.750  1.2779 -0.2019 -0.3586
  769MPD2    H711414   1.430   1.958  14.775  2.1189  0.9148  0.6701
  770MPD2     C11415   1.018   1.171  14.441  0.0820 -0.4243  0.1345
  770MPD2    C111416   1.069   1.218  14.560  0.2095 -0.2810  0.6139
  770MPD2    C211417   1.126   1.343  14.564  0.3595 -0.4157  0.9896
  770MPD2    C311418   1.134   1.423  14.449 -0.1148  0.4273 -0.6912
  770MPD2    C411419   1.090   1.374  14.331  0.3621 -1.2321  0.3992
  770MPD2    C511420   1.027   1.251  14.326  0.0634  0.3894 -0.5162
  770MPD2     H11421   1.179   1.379  14.652 -1.7865 -2.6236  3.1912
  770MPD2    H111422   1.095   1.426  14.236  0.6492  1.6539  2.0090
  770MPD2    H211423   0.978   1.072  14.427  1.3384 -0.9955  0.6610
  770MPD2    H311424   0.987   1.203  14.237 -1.1130 -1.1341  0.8386
  770MPD2     N11425   1.213   1.541  14.456  0.1726 -0.2762  0.4044
  770MPD2    H511426   1.265   1.564  14.540  0.5839 -0.2456  0.1411
  770MPD2    N111427   1.066   1.123  14.671  0.0322  0.6982  0.2224
  770MPD2    H711428   1.013   1.037  14.662 -0.9896  1.3515 -0.0690
  771MPD2     C11429   2.538   0.103  13.905 -0.4650  0.1183 -0.0081
  771MPD2    C111430   2.504   0.192  13.805 -0.5885 -0.3289  0.2683
  771MPD2    C211431   2.430   0.139  13.701 -0.2472 -0.0815  0.4816
  771MPD2    C311432   2.413   0.004  13.682  0.5605  0.3805 -0.3722
  771MPD2    C411433   2.463   4.658  13.775 -0.4157  0.5530 -0.0399
  771MPD2    C511434   2.522   4.702  13.890 -0.2190  0.2887 -0.1760
  771MPD2     H11435   2.383   0.196  13.621 -0.9862 -1.2289  0.1029
  771MPD2    H111436   2.448   4.551  13.770  0.7486  0.2708  2.4200
  771MPD2    H211437   2.584   0.138  13.997  0.6146  0.2431 -0.6018
  771MPD2    H311438   2.557   4.638  13.970 -1.0402 -1.1398 -0.9482
  771MPD2     N11439   2.325   4.698  13.582  0.8629 -0.0641 -0.7636
  771MPD2    H511440   2.267   0.027  13.532  0.9213  1.0496  0.5963
  771MPD2    N111441   2.536   0.324  13.803 -0.5092  0.3298 -0.1397
  771MPD2    H711442   2.500   0.389  13.734  2.0420  0.6190 -1.2087
  772MPD2     C11443   2.173   0.915  13.614 -0.2854  0.3236  0.3789
  772MPD2    C111444   2.198   0.847  13.734  0.3856  0.4876  0.0864
  772MPD2    C211445   2.106   0.845  13.831  0.0798 -0.3514 -0.2511
  772MPD2    C311446   1.981   0.905  13.811  0.4046 -0.0279  0.3338
  772MPD2    C411447   1.953   0.965  13.695 -0.5926  0.8682 -0.1022
  772MPD2    C511448   2.050   0.961  13.594  0.4273 -0.5702 -0.6956
  772MPD2     H11449   2.137   0.790  13.919 -0.1910  0.6066  0.4421
  772MPD2    H111450   1.849   0.994  13.684 -0.9306 -0.1124  0.4978
  772MPD2    H211451   2.242   0.914  13.531 -2.4650 -0.4457 -1.3983
  772MPD2    H311452   2.028   0.980  13.490 -0.4294  0.6610 -0.2964
  772MPD2     N11453   1.882   0.899  13.911  0.7410 -0.5471  0.3319
  772MPD2    H511454   1.793   0.942  13.890  1.4851  0.3472 -0.9869
  772MPD2    N111455   2.327   0.796  13.762  0.1833 -0.7378  0.0287
  772MPD2    H711456   2.330   0.760  13.856 -0.9612  1.3218  0.8414
  773MPD2     C11457   1.195   1.631  17.499  0.4893  0.3444 -0.4700
  773MPD2    C111458   1.084   1.564  17.544  0.5756  0.2519 -0.1954
  773MPD2    C211459   1.099   1.472  17.649  0.1189  0.3073  0.1499
  773MPD2    C311460   1.219   1.452  17.704  0.5296  0.2173 -0.3482
  773MPD2    C411461   1.332   1.520  17.663 -1.1560  0.0691  0.3499
  773MPD2    C511462   1.313   1.612  17.561 -0.1937 -0.8066 -0.1763
  773MPD2     H11463   1.015   1.411  17.679  2.1181 -0.7267  3.5940
  773MPD2    H111464   1.428   1.526  17.714 -1.4278  0.1861  0.8436
  773MPD2    H211465   1.191   1.704  17.419  1.6615  0.4094 -0.4595
  773MPD2    H311466   1.391   1.686  17.547  0.2341 -1.4715 -1.2525
  773MPD2     N11467   1.234   1.350   0.061  0.7553  0.3597  1.3070
  773MPD2    H511468   1.153   1.292   0.081  0.5591 -0.3315 -1.5739
  773MPD2    N111469   0.951   1.582  17.489  0.2035  0.3002  0.3753
  773MPD2    H711470   0.874   1.526  17.523  1.1256 -0.4342  1.2795
  774MPD2     C11471   0.676   0.471  13.511 -0.0291 -0.3673 -0.3167
  774MPD2    C111472   0.649   0.585  13.575  0.0217 -0.4660  0.4502
  774MPD2    C211473   0.683   0.707  13.521  0.2876 -0.4639 -0.3091
  774MPD2    C311474   0.762   0.713  13.409  0.1962 -0.1920  0.3367
  774MPD2    C411475   0.786   0.595  13.338 -0.4944 -0.0138 -0.4025
  774MPD2    C511476   0.742   0.481  13.393 -0.7060  0.1894  0.8322
  774MPD2     H11477   0.654   0.802  13.565 -2.4092 -1.3220 -0.2542
  774MPD2    H111478   0.846   0.597  13.248  0.1414  0.5826  0.0255
  774MPD2    H211479   0.642   0.374  13.546  0.6672 -0.9115 -1.1489
  774MPD2    H311480   0.769   0.384  13.351  0.3683  0.6423  0.4869
  774MPD2     N11481   0.803   0.843  13.377 -0.9521  0.5007 -0.6058
  774MPD2    H511482   0.747   0.916  13.420 -1.2077  1.2212 -2.1535
  774MPD2    N111483   0.568   0.576  13.693 -0.1876 -0.9346 -0.7539
  774MPD2    H711484   0.532   0.484  13.714 -1.0111  0.0481  2.1169
  775MPD2     C11485   1.847   2.006  15.561 -0.5104 -0.2818  0.7182
  775MPD2    C111486   1.828   2.122  15.629  0.9823  0.6464  0.0502
  775MPD2    C211487   1.933   2.216  15.626  0.0957 -0.0474  0.2577
  775MPD2    C311488   2.052   2.184  15.567 -0.4451  0.3475  0.0299
  775MPD2    C411489   2.073   2.057  15.514 -0.0783  0.1912 -0.1382
  775MPD2    C511490   1.965   1.974  15.506  0.0396  0.6078  0.1326
  775MPD2     H11491   1.915   2.319  15.656 -2.4107 -0.3894 -0.0661
  775MPD2    H111492   2.167   2.010  15.486 -0.1192 -0.9661  1.6221
  775MPD2    H211493   1.769   1.931  15.564  0.5628 -1.5597 -3.0730
  775MPD2    H311494   1.981   1.877  15.460  0.3926  0.8401 -0.2287
  775MPD2     N11495   2.157   2.273  15.555 -0.1920  0.6788  0.2619
  775MPD2    H511496   2.234   2.243  15.497 -0.1127 -3.1566  2.3589
  775MPD2    N111497   1.705   2.144  15.692  0.1169  0.2081 -0.0414
  775MPD2    H711498   1.632   2.074  15.687  0.0776  0.2283  0.2283
  776MPD2     C11499   0.834   2.416  10.831 -0.8530  0.1661 -0.5294
  776MPD2    C111500   0.975   2.424  10.852  0.2857 -0.5690 -0.2911
  776MPD2    C211501   1.041   2.541  10.880 -0.0383 -0.4395 -0.3005
  776MPD2    C311502   0.974   2.659  10.869  0.7031 -0.3989  0.2957
  776MPD2    C411503   0.840   2.657  10.836  1.0408 -0.1876  0.1077
  776MPD2    C511504   0.770   2.537  10.818  0.8128  0.3335  0.7312
  776MPD2     H11505   1.147   2.537  10.903 -0.3755  1.3134  1.5212
  776MPD2    H111506   0.781   2.747  10.827 -0.3608 -1.0744  0.3512
  776MPD2    H211507   0.770   2.330  10.817 -2.1717  1.2559 -1.2486
  776MPD2    H311508   0.664   2.536  10.794  0.7117  2.4100  1.1453
  776MPD2     N11509   1.039   2.780  10.896 -0.2831  0.1377 -1.0945
  776MPD2    H511510   0.982   2.860  10.869  0.4328  1.3444  0.9542
  776MPD2    N111511   1.056   2.301  10.867  0.0033 -0.5018 -0.5873
  776MPD2    H711512   1.144   2.307  10.918 -0.9608 -0.1204  1.0566
  777MPD2     C11513   0.560   4.453   0.513 -0.1239  0.1666  0.0895
  777MPD2    C111514   0.627   4.373   0.597  0.1242 -0.2046  0.5763
  777MPD2    C211515   0.598   4.237   0.594 -0.2732 -0.3869  0.3822
  777MPD2    C311516   0.502   4.195   0.505 -0.1814 -0.1135 -0.2185
  777MPD2    C411517   0.441   4.281   0.418 -0.6877 -0.4798 -0.0656
  777MPD2    C511518   0.474   4.407   0.425 -0.1462  0.9930  0.1067
  777MPD2     H11519   0.642   4.158   0.653  0.2768 -0.8621 -0.6698
  777MPD2    H111520   0.383   4.251   0.332 -1.7294  1.3791  0.0025
  777MPD2    H211521   0.576   4.560   0.524  2.6111 -0.2393  0.0741
  777MPD2    H311522   0.438   4.474   0.348 -2.2167  0.1331  0.3159
  777MPD2     N11523   0.478   4.055   0.494  0.3795 -0.1184 -0.1651
  777MPD2    H511524   0.528   4.002   0.565  0.0717 -1.8945 -1.3088
  777MPD2    N111525   0.707   4.432   0.693  0.0336  0.5532  0.2495
  777MPD2    H711526   0.726   4.532   0.699 -1.0148  0.7359  0.3924
  778MPD2     C11527   2.141   0.413  14.786 -0.3972 -0.1916 -0.9619
  778MPD2    C111528   2.158   0.287  14.719 -0.1104  0.1826  0.9022
  778MPD2    C211529   2.260   0.284  14.621 -0.4930  0.4486 -0.0887
  778MPD2    C311530   2.340   0.402  14.594 -0.0501 -0.3224  0.2291
  778MPD2    C411531   2.302   0.525  14.652 -0.4309  0.3355  0.8250
  778MPD2    C511532   2.219   0.521  14.764  0.1227  1.3811 -0.2402
  778MPD2     H11533   2.297   0.190  14.582  0.4773 -0.0089  1.9653
  778MPD2    H111534   2.365   0.611  14.632 -0.6699  0.2689 -0.2237
  778MPD2    H211535   2.062   0.432  14.858 -0.3076 -0.1220 -0.8818
  778MPD2    H311536   2.204   0.612  14.821  0.4624  0.3328  1.5367
  778MPD2     N11537   2.444   0.387  14.496  0.1120 -0.4130 -0.2542
  778MPD2    H511538   2.471   0.290  14.483 -0.9522 -0.5691 -1.3459
  778MPD2    N111539   2.097   0.165  14.759 -0.5943  0.6869 -0.1236
  778MPD2    H711540   2.120   0.085  14.702  0.6530  0.5752  0.5191
  779MPD2     C11541   2.100   3.526  13.616 -0.1760  0.5063 -0.4436
  779MPD2    C111542   2.143   3.524  13.748 -0.8430  0.3224 -0.0636
  779MPD2    C211543   2.186   3.645  13.807 -0.1273 -0.3147  0.3327
  779MPD2    C311544   2.210   3.757  13.723  0.1259  0.1379  0.4064
  779MPD2    C411545   2.178   3.743  13.588 -0.4409 -0.2123 -0.4194
  779MPD2    C511546   2.121   3.636  13.540  0.7643 -0.1651 -0.6652
  779MPD2     H11547   2.206   3.652  13.913  0.9686  0.2841  0.0862
  779MPD2    H111548   2.189   3.825  13.518 -1.6385 -1.4949 -2.0824
  779MPD2    H211549   2.058   3.442  13.563  0.5045  0.1291 -0.3948
  779MPD2    H311550   2.087   3.644  13.437 -2.7643 -0.6449  0.4583
  779MPD2     N11551   2.270   3.878  13.774  0.4122  0.5152  0.4103
  779MPD2    H511552   2.288   3.871  13.874  1.6769 -1.1575  0.0615
  779MPD2    N111553   2.109   3.399  13.818  0.7514  0.0080 -0.3500
  779MPD2    H711554   2.061   3.333  13.757  1.0793 -0.3662 -0.1994
  780MPD2     C11555   2.048   3.174   1.090 -0.0258 -1.1742 -0.1894
  780MPD2    C111556   1.911   3.206   1.075 -0.6611  0.1355  0.1161
  780MPD2    C211557   1.871   3.299   0.977 -0.0017  0.3192 -0.1926
  780MPD2    C311558   1.968   3.355   0.894 -1.1493 -0.2324 -0.4927
  780MPD2    C411559   2.103   3.318   0.909  0.6816  0.9740  0.5268
  780MPD2    C511560   2.142   3.224   1.006 -0.1112  0.2449  0.3671
  780MPD2     H11561   1.766   3.323   0.964 -0.2005 -1.0173 -0.9739
  780MPD2    H111562   2.185   3.366   0.856 -0.3228  1.2997 -0.7169
  780MPD2    H211563   2.073   3.096   1.161  1.0538 -2.7912 -2.3440
  780MPD2    H311564   2.246   3.218   1.036 -0.2771  1.9008  1.2915
  780MPD2     N11565   1.923   3.440   0.791  0.1753 -0.3642 -0.5584
  780MPD2    H511566   1.829   3.478   0.797  0.6233  0.5667  0.3922
  780MPD2    N111567   1.824   3.148   1.168  0.0325  0.5451  0.4300
  780MPD2    H711568   1.868   3.088   1.237  1.4630 -0.8509 -1.7132
  781MPD2     C11569   4.097   0.428  12.441  0.4773  0.8714 -0.0380
  781MPD2    C111570   3.982   0.444  12.368 -0.2730  0.4384 -0.8742
  781MPD2    C211571   4.002   0.447  12.230  0.7653 -0.3802  0.1520
  781MPD2    C311572   4.113   0.417  12.158  0.3587 -0.9737 -0.2712
  781MPD2    C411573   4.222   0.394  12.232 -0.2645 -0.0977 -0.3219
  781MPD2    C511574   4.214   0.403  12.372 -0.9154  0.4558  0.0195
  781MPD2     H11575   3.910   0.474  12.179  2.1397  2.4227 -0.8720
  781MPD2    H111576   4.313   0.357  12.187 -1.2819  0.1619 -2.6054
  781MPD2    H211577   4.089   0.447  12.548  3.0602  1.6255  0.0124
  781MPD2    H311578   4.310   0.381  12.416 -0.3755  0.3956 -1.2055
  781MPD2     N11579   4.120   0.410  12.016 -0.2015 -0.2635 -0.4700
  781MPD2    H511580   4.213   0.402  11.976 -0.2981  0.5256 -0.8654
  781MPD2    N111581   3.858   0.489  12.427  0.4217  0.4314  0.2749
  781MPD2    H711582   3.852   0.478  12.527 -4.0068  0.3848  0.0282
  782MPD2     C11583   1.814   1.009   9.580 -0.1899 -0.0421  0.6108
  782MPD2    C111584   1.840   0.935   9.689  0.5568 -0.4332  0.4548
  782MPD2    C211585   1.934   0.981   9.782 -0.1680  0.0479 -0.2686
  782MPD2    C311586   2.015   1.087   9.756 -0.2184 -0.6146 -0.0844
  782MPD2    C411587   1.978   1.172   9.649 -0.1113  0.2514 -0.0694
  782MPD2    C511588   1.880   1.123   9.564  0.1513 -0.2317  0.4674
  782MPD2     H11589   1.954   0.911   9.862 -0.0835 -0.2876 -0.5835
  782MPD2    H111590   2.026   1.266   9.624  2.5448 -0.4014  2.6601
  782MPD2    H211591   1.733   0.991   9.511  1.5005 -0.7923 -1.1830
  782MPD2    H311592   1.857   1.193   9.484 -0.3591  0.2311  1.0160
  782MPD2     N11593   2.094   1.136   9.857  0.1478 -0.0539 -0.1492
  782MPD2    H511594   2.066   1.102   9.949  0.5961 -0.9031 -0.3264
  782MPD2    N111595   1.782   0.808   9.709 -1.2583 -0.1686 -0.1211
  782MPD2    H711596   1.792   0.768   9.802 -1.4376 -2.5487 -1.1248
  783MPD2     C11597   1.017   0.810  10.227  0.0647  0.5876 -0.0173
  783MPD2    C111598   1.143   0.832  10.276 -0.2670  0.4362 -0.9557
  783MPD2    C211599   1.249   0.769  10.217  0.1027 -0.3531  0.6387
  783MPD2    C311600   1.234   0.709  10.092 -0.1235 -0.3917 -0.1685
  783MPD2    C411601   1.107   0.692  10.036 -0.5798  0.4728 -0.1285
  783MPD2    C511602   0.998   0.739  10.108  0.2464  0.8621  0.1108
  783MPD2     H11603   1.348   0.769  10.261  0.3244 -1.0419  0.1276
  783MPD2    H111604   1.085   0.627   9.952  0.7942  2.5134 -2.0924
  783MPD2    H211605   0.929   0.844  10.281 -0.7350 -3.8548  1.4528
  783MPD2    H311606   0.902   0.713  10.066  0.1542  0.6858  0.4381
  783MPD2     N11607   1.346   0.646  10.033 -0.3209  0.6246 -0.8199
  783MPD2    H511608   1.437   0.662  10.075 -0.7021  2.0167 -0.5471
  783MPD2    N111609   1.144   0.897  10.403  0.2665 -0.0926  0.2937
  783MPD2    H711610   1.055   0.916  10.446  0.6413 -1.1232  1.5172
  784MPD2     C11611   3.345   1.233   0.006  1.0716  0.2642 -0.5057
  784MPD2    C111612   3.306   1.248   0.139  0.5502 -0.5171 -0.4760
  784MPD2    C211613   3.178   1.285   0.168  0.1089  0.1593 -0.0058
  784MPD2    C311614   3.092   1.315   0.075  0.4539  0.2554  0.4460
  784MPD2    C411615   3.131   1.310  17.687 -0.6320 -0.2359  0.4132
  784MPD2    C511616   3.259   1.273  17.654 -0.8969  0.9274  0.2084
  784MPD2     H11617   3.130   1.305   0.262 -1.0334 -0.3774 -0.4710
  784MPD2    H111618   3.055   1.333  17.613  0.7440  1.4816 -0.4742
  784MPD2    H211619   3.439   1.188  17.721  0.8470  0.3308 -1.3411
  784MPD2    H311620   3.295   1.246  17.556  0.5624  0.9773  0.7327
  784MPD2     N11621   2.963   1.364   0.119 -0.3164  0.2062  0.0902
  784MPD2    H511622   2.950   1.385   0.217  0.2222  0.9423  0.0109
  784MPD2    N111623   3.388   1.220   0.251  0.1949 -0.3445  0.0567
  784MPD2    H711624   3.346   1.230   0.343 -0.9747 -0.9920 -0.4027
  785MPD2     C11625   3.966   4.451  10.506 -0.3775  0.7795 -0.1191
  785MPD2    C111626   3.902   4.521  10.603 -1.0324  0.1377 -0.1748
  785MPD2    C211627   3.767   4.511  10.609  0.4725 -0.0707  0.2816
  785MPD2    C311628   3.697   4.449  10.509 -0.2168 -0.0794  0.0911
  785MPD2    C411629   3.761   4.376  10.414  0.9658 -1.0912 -0.3667
  785MPD2    C511630   3.898   4.377  10.419 -0.4178 -0.8898 -0.4119
  785MPD2     H11631   3.710   4.557  10.689  0.8168 -0.9419  1.0274
  785MPD2    H111632   3.706   4.331  10.332 -0.1954  0.7010 -0.5675
  785MPD2    H211633   4.074   4.442  10.514 -0.4814  0.6997  1.1626
  785MPD2    H311634   3.955   4.319  10.348 -0.8094 -3.7909  1.6448
  785MPD2     N11635   3.556   4.451  10.525  0.1730  0.2927  0.2162
  785MPD2    H511636   3.516   4.503  10.602  0.6487 -0.0776  0.7053
  785MPD2    N111637   3.972   4.589  10.707  0.3395  0.4223  0.2736
  785MPD2    H711638   3.913   4.645  10.769  0.1320  1.2299 -0.6348
  786MPD2     C11639   2.346   2.858  14.913 -0.1465  0.4423  0.1411
  786MPD2    C111640   2.480   2.861  14.913  0.8743  0.7245 -0.1671
  786MPD2    C211641   2.546   2.907  15.023 -0.0874 -0.1737 -0.0998
  786MPD2    C311642   2.482   2.944  15.136 -0.2327  0.9871 -0.3555
  786MPD2    C411643   2.344   2.930  15.144 -0.3472 -0.5437 -0.9597
  786MPD2    C511644   2.279   2.890  15.028  0.2501  0.2651  0.6227
  786MPD2     H11645   2.654   2.920  15.017  0.2556 -2.3898  1.0783
  786MPD2    H111646   2.279   2.961  15.225  1.3175  0.8848 -0.1633
  786MPD2    H211647   2.282   2.835  14.828 -0.4409 -0.5061  0.6209
  786MPD2    H311648   2.171   2.880  15.035  0.3589 -0.6256  0.9885
  786MPD2     N11649   2.549   3.008  15.246  0.4371  0.0423  0.2881
  786MPD2    H511650   2.491   3.038  15.324  0.1888 -0.4284  0.2883
  786MPD2    N111651   2.565   2.827  14.808  0.2399 -0.1560 -0.9794
  786MPD2    H711652   2.663   2.827  14.835 -0.4284  0.7035  1.4833
  787MPD2     C11653   3.052   2.459  14.972  0.1497  0.3561 -0.4008
  787MPD2    C111654   3.014   2.412  14.847  0.4360  0.1291 -0.1002
  787MPD2    C211655   3.065   2.296  14.810 -0.4896 -0.3136 -0.1448
  787MPD2    C311656   3.158   2.224  14.884  0.0656 -0.2156 -0.0557
  787MPD2    C411657   3.198   2.274  15.011 -0.5436 -0.9796 -0.7963
  787MPD2    C511658   3.138   2.394  15.054  0.3530 -0.1485  0.4844
  787MPD2     H11659   3.041   2.256  14.712 -0.8589  0.7803 -0.5017
  787MPD2    H111660   3.281   2.240  15.071  0.6362  0.8662 -1.3857
  787MPD2    H211661   3.013   2.554  15.007  0.8138 -0.1519  1.7475
  787MPD2    H311662   3.176   2.426  15.150 -0.4473  1.2823  0.3189
  787MPD2     N11663   3.210   2.102  14.832 -0.3887  0.4133 -0.4841
  787MPD2    H511664   3.175   2.078  14.740 -0.5943  0.5543 -0.4428
  787MPD2    N111665   2.927   2.490  14.772  0.3982 -0.6184  0.3374
  787MPD2    H711666   2.898   2.578  14.812 -1.3678 -0.7099 -0.7272
  788MPD2     C11667   4.123   1.020   0.762  0.4912 -0.4165  0.5482
  788MPD2    C111668   4.127   1.011   0.623 -0.2038  0.5127 -0.1592
  788MPD2    C211669   4.068   1.108   0.543 -0.0059 -0.1485 -0.5959
  788MPD2    C311670   4.013   1.222   0.604  0.3053  0.0685 -0.3829
  788MPD2    C411671   4.017   1.230   0.739  0.3014  0.1558  1.0569
  788MPD2    C511672   4.067   1.131   0.820 -0.2364  0.3390 -0.0113
  788MPD2     H11673   4.083   1.103   0.435 -0.3658  1.0252 -0.6971
  788MPD2    H111674   3.983   1.319   0.791  0.1048  0.3482  0.5993
  788MPD2    H211675   4.159   0.949   0.835  0.0779 -0.3236  0.8392
  788MPD2    H311676   4.071   1.152   0.926 -0.9288  0.6511 -0.0512
  788MPD2     N11677   3.956   1.330   0.535 -0.4282 -0.5256 -0.8269
  788MPD2    H511678   3.937   1.417   0.584  1.6727  0.1288 -1.1771
  788MPD2    N111679   4.186   0.907   0.553 -0.3299  0.0766  0.3818
  788MPD2    H711680   4.198   0.922   0.454  0.7189 -2.0421  0.1906
  789MPD2     C11681   4.647   0.769  16.169 -0.2004 -1.2516 -0.1349
  789MPD2    C111682   4.514   0.765  16.120 -0.9206 -0.5630 -0.5774
  789MPD2    C211683   4.426   0.864  16.159  0.0634 -0.0601  0.1395
  789MPD2    C311684   4.466   0.972  16.241 -0.5773  0.1318  0.4889
  789MPD2    C411685   4.597   0.972  16.287  0.4837 -0.2486 -0.1513
  789MPD2    C511686   4.687   0.871  16.249  0.2746 -0.3335 -0.3777
  789MPD2     H11687   4.325   0.857  16.118  0.3259  1.7542 -0.7979
  789MPD2    H111688   4.637   1.052  16.348 -1.1399 -1.3216  2.3457
  789MPD2    H211689   4.719   0.693  16.142  1.6110 -0.1338  1.5565
  789MPD2    H311690   0.056   0.874  16.273  0.5524 -1.2039 -1.5127
  789MPD2     N11691   4.386   1.078  16.286  0.1941  0.2369  0.2431
  789MPD2    H511692   4.413   1.133  16.366  1.2108  0.2092 -0.0812
  789MPD2    N111693   4.464   0.658  16.044 -0.4114  0.1311  0.1063
  789MPD2    H711694   4.369   0.673  16.014  0.6949  2.3657 -2.3240
  790MPD2     C11695   1.552   2.630  13.505  0.0255  0.1616 -0.2422
  790MPD2    C111696   1.452   2.543  13.484 -0.2493 -0.0754 -0.1487
  790MPD2    C211697   1.375   2.547  13.366  0.1965 -0.4758 -0.1045
  790MPD2    C311698   1.418   2.638  13.262 -0.0586  0.0089  0.3253
  790MPD2    C411699   1.530   2.723  13.279 -0.0506  0.9532 -0.5631
  790MPD2    C511700   1.596   2.717  13.403  0.2181  0.0547  0.6210
  790MPD2     H11701   1.292   2.482  13.344 -1.3410  1.5719 -0.3235
  790MPD2    H111702   1.572   2.788  13.204  0.2186  2.5128  0.9326
  790MPD2    H211703   1.593   2.637  13.605 -1.0362  0.1976  0.1810
  790MPD2    H311704   1.673   2.785  13.439 -0.1771  1.0967 -0.5059
  790MPD2     N11705   1.353   2.625  13.132  0.0948 -0.0047 -0.0703
  790MPD2    H511706   1.282   2.555  13.114  0.9214 -1.5998  2.9051
  790MPD2    N111707   1.424   2.451  13.588 -0.1166  0.3606  0.1218
  790MPD2    H711708   1.463   2.465  13.680 -1.2398 -0.8445  0.7870
  791MPD2     C11709   0.745   2.545  13.001  0.1135  0.5696 -0.1884
  791MPD2    C111710   0.816   2.484  12.906 -0.5750 -0.6790  0.6790
  791MPD2    C211711   0.771   2.365  12.852  0.1969 -0.1560 -0.2494
  791MPD2    C311712   0.659   2.304  12.908  0.0839 -0.4663 -0.5718
  791MPD2    C411713   0.594   2.376  13.001  0.3779  0.4035  0.1026
  791MPD2    C511714   0.634   2.495  13.052 -0.0608 -0.6434 -0.3845
  791MPD2     H11715   0.821   2.310  12.773 -1.7009 -0.0221 -1.5394
  791MPD2    H111716   0.502   2.344  13.050  0.3317  0.4522  0.0470
  791MPD2    H211717   0.785   2.628  13.057  1.0295 -2.0744  3.0736
  791MPD2    H311718   0.574   2.541  13.130 -0.9388  0.5222 -1.7377
  791MPD2     N11719   0.609   2.180  12.852 -0.1641 -0.0168  0.3896
  791MPD2    H511720   0.666   2.117  12.797 -0.7142 -0.9031  0.8297
  791MPD2    N111721   0.937   2.543  12.873 -0.6309  0.3798  0.2736
  791MPD2    H711722   0.955   2.628  12.925 -1.3394  0.4733  0.3695
  792MPD2     C11723   1.046   2.120  10.358  0.2609  0.6228 -0.0732
  792MPD2    C111724   1.162   2.113  10.434  0.0552 -0.6070  0.0596
  792MPD2    C211725   1.229   1.995  10.427  0.5796  0.2696  0.6976
  792MPD2    C311726   1.174   1.878  10.372  0.1322  0.5214  0.2969
  792MPD2    C411727   1.070   1.887  10.300  0.4212  0.7263  0.0815
  792MPD2    C511728   1.006   2.013  10.285 -0.5367 -0.4478  0.6316
  792MPD2     H11729   1.313   1.977  10.494  0.0757  1.5405  1.6417
  792MPD2    H111730   1.030   1.809  10.236  0.9124 -0.2894  1.0129
  792MPD2    H211731   0.976   2.202  10.362 -0.4045  0.1914 -2.5836
  792MPD2    H311732   0.919   2.021  10.221 -0.5732 -0.6915  0.6503
  792MPD2     N11733   1.220   1.749  10.399  0.6516 -0.2731 -0.1724
  792MPD2    H511734   1.161   1.676  10.359  1.0178 -0.2335 -0.7832
  792MPD2    N111735   1.194   2.225  10.507  0.6146  0.3449  0.3720
  792MPD2    H711736   1.143   2.313  10.505 -1.0901 -0.5594  3.6662
  793MPD2     C11737   0.700   1.709  10.186  0.5030 -0.2541  0.0920
  793MPD2    C111738   0.742   1.576  10.153 -0.7455 -0.1007  0.2456
  793MPD2    C211739   0.823   1.505  10.239 -0.4394 -0.5035  0.1822
  793MPD2    C311740   0.848   1.557  10.367 -0.1304 -0.1434  0.9146
  793MPD2    C411741   0.794   1.676  10.406 -0.0753  0.2953 -0.0618
  793MPD2    C511742   0.730   1.753  10.314  0.1925  0.0556  0.2605
  793MPD2     H11743   0.865   1.411  10.205  0.6085  0.5568 -1.4691
  793MPD2    H111744   0.818   1.719  10.503  1.2439 -0.0260 -0.2462
  793MPD2    H211745   0.633   1.770  10.126 -2.0640 -2.4353  0.7541
  793MPD2    H311746   0.684   1.841  10.355 -1.7525 -0.1540 -1.4615
  793MPD2     N11747   0.942   1.505  10.456  0.1504  0.1251 -0.0808
  793MPD2    H511748   0.955   1.558  10.542  1.5002 -0.5771  0.1672
  793MPD2    N111749   0.724   1.518  10.025 -0.1980 -0.3771  0.1706
  793MPD2    H711750   0.780   1.435  10.008  0.1303  0.0119 -0.6625
  794MPD2     C11751   0.621   1.816  16.710  0.0415 -0.5714 -0.1866
  794MPD2    C111752   0.526   1.774  16.802  0.2347  0.4121  0.2678
  794MPD2    C211753   0.403   1.740  16.751 -0.8206  0.1690  0.4831
  794MPD2    C311754   0.368   1.747  16.615 -0.5961 -0.3010  0.2609
  794MPD2    C411755   0.460   1.798  16.527 -0.2015 -0.4015 -0.8853
  794MPD2    C511756   0.585   1.826  16.577  0.2697 -0.1959  0.2317
  794MPD2     H11757   0.332   1.696  16.819 -1.3877 -1.1857 -0.9656
  794MPD2    H111758   0.442   1.813  16.421  2.7022 -1.8124 -1.5769
  794MPD2    H211759   0.722   1.833  16.746 -1.0160 -0.7311  2.8452
  794MPD2    H311760   0.659   1.860  16.506 -1.9657 -1.4207 -2.6885
  794MPD2     N11761   0.236   1.728  16.576  0.0985  0.4627 -0.0090
  794MPD2    H511762   0.217   1.728  16.476  1.9243  1.3634 -0.3566
  794MPD2    N111763   0.548   1.752  16.944 -0.3187  0.6934  0.4398
  794MPD2    H711764   0.473   1.703  16.992  0.8181 -1.3940  0.0943
  795MPD2     C11765   3.438   3.715  14.216  0.8019 -0.6195 -1.2843
  795MPD2    C111766   3.430   3.646  14.097  0.1291 -0.6464 -0.5619
  795MPD2    C211767   3.532   3.547  14.075  0.1059  0.1635 -0.3171
  795MPD2    C311768   3.637   3.536  14.173 -0.0910  0.1113 -0.1216
  795MPD2    C411769   3.636   3.610  14.295 -0.3002 -0.1609 -0.4661
  795MPD2    C511770   3.542   3.698  14.308 -0.6842 -0.4030  0.1907
  795MPD2     H11771   3.532   3.497  13.978  0.0290  1.9383 -1.2333
  795MPD2    H111772   3.709   3.594  14.374 -1.4398 -2.1298  0.2008
  795MPD2    H211773   3.360   3.776  14.260 -0.0472 -1.0711 -2.1463
  795MPD2    H311774   3.526   3.757  14.397 -2.7325 -0.5832 -0.0685
  795MPD2     N11775   3.752   3.461  14.139  0.8984 -0.1387 -0.0820
  795MPD2    H511776   3.748   3.401  14.058 -0.2587  1.5857 -1.2845
  795MPD2    N111777   3.336   3.681  13.999 -0.2884 -0.3754 -0.1589
  795MPD2    H711778   3.334   3.618  13.919 -0.5183 -0.3067 -0.2067
  796MPD2     C11779   2.606   0.549  15.808  0.3565 -0.0851  0.0497
  796MPD2    C111780   2.675   0.651  15.872  0.5054  0.2605  0.1566
  796MPD2    C211781   2.670   0.776  15.832 -0.6796 -0.5567 -0.3073
  796MPD2    C311782   2.593   0.806  15.715  0.4163  0.6958  0.2307
  796MPD2    C411783   2.532   0.702  15.648 -0.0388  0.0799  0.3992
  796MPD2    C511784   2.532   0.573  15.697 -0.5578 -0.0365  0.7620
  796MPD2     H11785   2.730   0.855  15.876 -0.7948 -0.5155 -0.2231
  796MPD2    H111786   2.482   0.717  15.553  0.3621  3.7169  0.7361
  796MPD2    H211787   2.601   0.447  15.845  1.0618  0.6386  2.1236
  796MPD2    H311788   2.471   0.495  15.651 -2.2947  1.2069  0.9565
  796MPD2     N11789   2.587   0.940  15.674  0.1669 -0.0898 -0.0210
  796MPD2    H511790   2.661   0.998  15.711  0.4824  1.2577 -2.7295
  796MPD2    N111791   2.742   0.606  15.993 -0.0794 -0.2011  0.4477
  796MPD2    H711792   2.729   0.510  16.023 -1.9141 -0.4840 -1.2777
  797MPD2     C11793   4.090   4.698  17.010  0.0303  0.0659 -0.0441
  797MPD2    C111794   4.183   0.059  16.977  0.2296  0.1293  0.0911
  797MPD2    C211795   4.153   0.151  16.879  0.3112  0.2723  0.3145
  797MPD2    C311796   4.026   0.164  16.830 -1.0708  0.0233  0.4160
  797MPD2    C411797   3.933   0.066  16.863  0.2973 -0.1783  0.0126
  797MPD2    C511798   3.967   4.699  16.951  0.1800  0.0421  0.3719
  797MPD2     H11799   4.225   0.226  16.846 -0.9105 -0.5084 -4.0123
  797MPD2    H111800   3.828   0.057  16.838  0.3768  0.4459 -0.5276
  797MPD2    H211801   4.108   4.627  17.090 -0.9468  3.9889  3.7083
  797MPD2    H311802   3.887   4.635  16.987  0.0449  0.4124  0.7313
  797MPD2     N11803   3.996   0.270  16.745  0.0663  0.0508  0.7320
  797MPD2    H511804   4.070   0.339  16.735  2.2554 -2.5910 -1.3517
  797MPD2    N111805   4.292   0.089  17.060  0.6362 -0.2829 -0.2704
  797MPD2    H711806   4.344   0.174  17.041 -0.6122  0.4423 -0.4744
  798MPD2     C11807   4.360   0.821  16.907  0.0021 -0.5481 -0.3461
  798MPD2    C111808   4.310   0.698  16.867  0.3738 -0.3975 -0.5243
  798MPD2    C211809   4.338   0.589  16.948 -0.1260  0.6044 -0.7215
  798MPD2    C311810   4.419   0.601  17.060 -0.6020 -0.1051  0.3174
  798MPD2    C411811   4.461   0.724  17.104 -0.0225  0.6938 -0.0024
  798MPD2    C511812   4.432   0.836  17.023 -0.6960  0.0407  0.0584
  798MPD2     H11813   4.300   0.491  16.919 -2.1449  0.9830  0.5934
  798MPD2    H111814   4.505   0.731  17.203 -0.4326  0.7552  0.1736
  798MPD2    H211815   4.333   0.908  16.849 -1.0329 -0.1714  0.6873
  798MPD2    H311816   4.458   0.936  17.054 -0.1303 -0.2866  0.6465
  798MPD2     N11817   4.447   0.480  17.128 -0.8489  1.0503  0.2682
  798MPD2    H511818   4.433   0.396  17.073 -1.4598  1.8849 -0.8543
  798MPD2    N111819   4.232   0.688  16.744 -0.2088  0.4680 -0.2199
  798MPD2    H711820   4.202   0.772  16.695 -2.3215  0.5572  1.2824
  799MPD2     C11821   2.901   1.872  14.584 -0.1678 -0.4148 -0.0257
  799MPD2    C111822   2.863   1.809  14.465  0.3992 -0.0173 -0.3198
  799MPD2    C211823   2.784   1.881  14.380 -0.3861 -0.0564 -0.1820
  799MPD2    C311824   2.737   2.004  14.405  0.1790 -0.2528 -0.8277
  799MPD2    C411825   2.778   2.066  14.520 -0.4509  0.4047  0.5724
  799MPD2    C511826   2.859   2.001  14.610 -0.0027 -0.0111 -0.3937
  799MPD2     H11827   2.763   1.835  14.284  2.9141 -3.0144  0.5581
  799MPD2    H111828   2.758   2.167  14.553  0.4726  0.9372 -0.4648
  799MPD2    H211829   2.961   1.820  14.658 -1.5997  0.5214  1.8245
  799MPD2    H311830   2.896   2.059  14.695 -1.0748 -0.3391  0.2923
  799MPD2     N11831   2.659   2.078  14.316 -0.2159 -0.0942 -0.4129
  799MPD2    H511832   2.646   2.176  14.336  1.5057  0.0010  0.2706
  799MPD2    N111833   2.902   1.678  14.436 -0.0647  0.2230  0.0384
  799MPD2    H711834   2.872   1.649  14.343 -0.2741 -1.0010  0.4966
  800MPD2     C11835   3.305   3.023  14.159 -0.4286  0.2700 -0.2215
  800MPD2    C111836   3.439   2.985  14.158 -0.4709 -0.3237  0.2767
  800MPD2    C211837   3.483   2.903  14.058  0.1133 -0.0415  0.8179
  800MPD2    C311838   3.392   2.837  13.978  0.2908 -0.0461  0.4511
  800MPD2    C411839   3.253   2.854  13.989  0.8146 -0.6224  0.3974
  800MPD2    C511840   3.214   2.955  14.078  0.1159  0.7221 -0.0584
  800MPD2     H11841   3.587   2.872  14.060 -0.0577 -0.6664 -0.2183
  800MPD2    H111842   3.175   2.817  13.923  1.3801 -0.7218 -0.2118
  800MPD2    H211843   3.267   3.090  14.234  0.3499 -1.5712  1.8206
  800MPD2    H311844   3.114   2.995  14.070 -0.6392 -1.0460  0.4167
  800MPD2     N11845   3.451   2.748  13.881 -0.0952  0.0110 -0.7594
  800MPD2    H511846   3.551   2.766  13.874 -0.6229  3.2038 -0.0203
  800MPD2    N111847   3.524   3.050  14.252 -0.1826 -0.1897  0.5608
  800MPD2    H711848   3.481   3.128  14.302 -1.4843 -0.8553  0.4649
  801MPD2     C11849   3.576   3.610  14.684  0.2519 -0.1625 -0.0796
  801MPD2    C111850   3.534   3.478  14.688  0.4227  0.1266 -0.3973
  801MPD2    C211851   3.408   3.451  14.734  0.1193  0.2452  0.1420
  801MPD2    C311852   3.323   3.550  14.784 -0.7484  0.5766  0.5367
  801MPD2    C411853   3.373   3.676  14.786  0.3605  0.7267 -0.0701
  801MPD2    C511854   3.496   3.706  14.740 -0.2572 -0.2475  0.2937
  801MPD2     H11855   3.384   3.346  14.725  0.3918  0.1966 -0.0384
  801MPD2    H111856   3.308   3.758  14.813  0.9582  0.3838  2.4624
  801MPD2    H211857   3.674   3.638  14.649  0.8264 -0.1887  1.4822
  801MPD2    H311858   3.532   3.809  14.739  0.0423 -0.3547 -2.9003
  801MPD2     N11859   3.201   3.531  14.842  0.5144  0.2800  0.5591
  801MPD2    H511860   3.152   3.618  14.860  0.1811  0.2567 -0.2353
  801MPD2    N111861   3.607   3.379  14.622 -0.6321  0.0913  0.0116
  801MPD2    H711862   3.565   3.286  14.617  0.4318 -0.3182 -1.3510
  802MPD2     C11863   2.846   3.971   0.220  0.4268 -0.5476 -0.5883
  802MPD2    C111864   2.795   4.063   0.130 -0.1359 -0.1718  0.3069
  802MPD2    C211865   2.801   4.027  17.739 -0.1017  0.1901  0.4143
  802MPD2    C311866   2.834   3.899  17.695  0.5888  0.0367 -0.2704
  802MPD2    C411867   2.900   3.813   0.038 -0.6862  0.0626  0.0204
  802MPD2    C511868   2.899   3.852   0.172  1.0641 -0.3851 -0.8860
  802MPD2     H11869   2.749   4.089  17.667 -0.7946  0.2223  0.9359
  802MPD2    H111870   2.948   3.720   0.007  1.1263  0.9537  0.1664
  802MPD2    H211871   2.837   3.984   0.327  2.4214 -0.5966 -0.4061
  802MPD2    H311872   2.955   3.790   0.240  2.0615 -0.4751 -1.7942
  802MPD2     N11873   2.813   3.865  17.557 -0.3419 -0.1064  0.0805
  802MPD2    H511874   2.758   3.931  17.503  2.1267  1.2613 -0.7690
  802MPD2    N111875   2.718   4.169   0.185  0.2993 -0.0299 -0.1185
  802MPD2    H711876   2.702   4.165   0.285  0.0636  0.3753 -0.1398
  803MPD2     C11877   3.592   1.746  12.014  0.1159 -0.4670  0.5841
  803MPD2    C111878   3.599   1.888  12.024 -0.1558 -0.3548  0.0693
  803MPD2    C211879   3.663   1.953  12.130  0.4545 -0.4433  0.3351
  803MPD2    C311880   3.721   1.878  12.228  0.1911 -0.6825 -0.1342
  803MPD2    C411881   3.702   1.738  12.223 -0.0114  0.9833 -0.0019
  803MPD2    C511882   3.646   1.669  12.121  0.7144 -0.0783  0.5676
  803MPD2     H11883   3.674   2.061  12.124 -0.6523 -0.2499  1.7628
  803MPD2    H111884   3.747   1.668  12.292 -0.8991  1.2915  0.9011
  803MPD2    H211885   3.571   1.693  11.922  1.6281 -1.4108  0.7916
  803MPD2    H311886   3.656   1.562  12.112  0.0892 -0.1640  0.9139
  803MPD2     N11887   3.797   1.920  12.344 -0.1382  0.0068 -0.0796
  803MPD2    H511888   3.830   1.851  12.410  2.2350  0.4739 -0.7725
  803MPD2    N111889   3.560   1.962  11.907  0.3651 -0.5156 -0.0026
  803MPD2    H711890   3.583   2.061  11.909 -2.8018  0.2295 -0.3730
  804MPD2     C11891   3.011   3.649  16.989  0.1693  0.1002 -0.3999
  804MPD2    C111892   3.069   3.559  17.081 -0.2716 -0.2615 -0.8830
  804MPD2    C211893   3.168   3.609  17.160 -0.5680  0.4409 -0.2321
  804MPD2    C311894   3.228   3.730  17.144  0.6196  0.3418 -0.4680
  804MPD2    C411895   3.168   3.821  17.059 -0.5333  0.0172 -0.5425
  804MPD2    C511896   3.056   3.777  16.994 -0.2871 -0.5991 -0.0511
  804MPD2     H11897   3.197   3.544  17.242  0.4920  1.0200 -0.1469
  804MPD2    H111898   3.207   3.920  17.042  1.7794 -1.1489 -1.9548
  804MPD2    H211899   2.946   3.622  16.906 -2.0687  1.3133  0.9713
  804MPD2    H311900   3.015   3.855  16.932  2.1165 -0.1352 -1.0528
  804MPD2     N11901   3.334   3.760  17.232  0.2862  0.7274  0.4272
  804MPD2    H511902   3.355   3.690  17.303  2.7100  1.9836  0.9400
  804MPD2    N111903   3.023   3.432  17.107 -0.4357 -0.0331  0.0461
  804MPD2    H711904   3.064   3.380  17.184 -0.6839 -0.0529  0.1667
  805MPD2     C11905   2.540   1.423  15.231 -0.3725  0.5801 -0.6535
  805MPD2    C111906   2.472   1.543  15.229  0.5302  0.3190  0.1843
  805MPD2    C211907   2.536   1.650  15.278  0.3691 -0.7826 -0.1295
  805MPD2    C311908   2.664   1.649  15.333 -0.2781  0.1142  0.6438
  805MPD2    C411909   2.735   1.538  15.325  0.1690  0.3512 -0.3215
  805MPD2    C511910   2.672   1.424  15.278  0.0045 -0.4502  0.4512
  805MPD2     H11911   2.487   1.747  15.276  0.3724 -0.7123  2.6911
  805MPD2    H111912   2.839   1.527  15.355 -0.3442  1.1637  1.7521
  805MPD2    H211913   2.502   1.326  15.202  3.1058 -1.4829  1.8036
  805MPD2    H311914   2.736   1.338  15.287  1.2846  0.3767 -0.6966
  805MPD2     N11915   2.702   1.766  15.398 -0.2041 -0.2725 -0.4426
  805MPD2    H511916   2.647   1.851  15.388 -0.7852 -0.6202 -0.1840
  805MPD2    N111917   2.340   1.556  15.179  0.0312 -0.2809 -0.6415
  805MPD2    H711918   2.293   1.645  15.193  0.3439 -0.3384  0.6959
  806MPD2     C11919   2.275   1.218   0.018 -0.5267  0.2245 -0.3161
  806MPD2    C111920   2.401   1.236   0.068  0.3094 -0.5560  0.3612
  806MPD2    C211921   2.498   1.300  17.733  0.3355  0.0798 -0.7483
  806MPD2    C311922   2.467   1.347  17.603  0.1389  0.8928 -0.0242
  806MPD2    C411923   2.335   1.333  17.560 -0.1941  0.1352 -0.0608
  806MPD2    C511924   2.242   1.276  17.645 -0.6585  0.2181 -0.3749
  806MPD2     H11925   2.595   1.323   0.030 -0.1714 -0.7903  0.9323
  806MPD2    H111926   2.300   1.361  17.461  2.5839 -1.0694 -1.3681
  806MPD2    H211927   2.193   1.168   0.068 -0.5823 -0.4224 -1.0573
  806MPD2    H311928   2.144   1.246  17.609  0.3401 -1.3012 -1.7925
  806MPD2     N11929   2.563   1.417  17.526  0.5522 -0.3307 -0.0197
  806MPD2    H511930   2.659   1.421  17.559 -0.9017  0.7805  4.1032
  806MPD2    N111931   2.436   1.173   0.188 -0.1859  0.3118  0.1001
  806MPD2    H711932   2.361   1.126   0.238 -0.0676 -0.7248 -0.6911
  807MPD2     C11933   2.155   0.813   0.823  0.1251 -0.7364  0.5466
  807MPD2    C111934   2.283   0.846   0.851  0.1303  0.2741 -0.0643
  807MPD2    C211935   2.323   0.809   0.983  0.6665 -0.1255 -0.7835
  807MPD2    C311936   2.243   0.736   1.070 -0.6833 -0.0059  0.4239
  807MPD2    C411937   2.117   0.712   1.040  0.1110  0.6053  0.8525
  807MPD2    C511938   2.077   0.748   0.915  0.1896 -0.2274 -0.1032
  807MPD2     H11939   2.426   0.831   1.008 -0.1264  1.3051  1.1840
  807MPD2    H111940   2.041   0.660   1.097 -1.0975  0.2462 -1.1036
  807MPD2    H211941   2.102   0.844   0.734 -0.9189  1.7187  1.9993
  807MPD2    H311942   1.971   0.733   0.894 -0.3712  1.0212  1.8073
  807MPD2     N11943   2.305   0.694   1.196 -0.1357  0.4605  0.2955
  807MPD2    H511944   2.403   0.712   1.211  0.2169 -0.2305 -1.2057
  807MPD2    N111945   2.371   0.924   0.772 -0.4619 -0.0342 -0.2327
  807MPD2    H711946   2.463   0.942   0.811 -0.0180 -0.4659 -1.1014
  808MPD2     C11947   3.687   2.519  10.364  0.2779  0.1017  0.2593
  808MPD2    C111948   3.565   2.574  10.402 -0.6590  0.2458 -0.4384
  808MPD2    C211949   3.554   2.715  10.425  0.4311 -0.3838 -0.3173
  808MPD2    C311950   3.677   2.781  10.416  0.2324  0.1038  0.6353
  808MPD2    C411951   3.793   2.719  10.376 -0.0802  0.0352  0.4090
  808MPD2    C511952   3.795   2.594  10.337  0.0053  0.1690 -1.1678
  808MPD2     H11953   3.466   2.760  10.470  0.4882  0.1053 -0.6998
  808MPD2    H111954   3.881   2.775  10.345 -0.2399  0.0657  0.0033
  808MPD2    H211955   3.705   2.413  10.356  0.6357  0.1378  0.5500
  808MPD2    H311956   3.882   2.536  10.309 -0.2265 -0.2247 -1.0599
  808MPD2     N11957   3.694   2.912  10.440  0.0593  0.1328 -0.1129
  808MPD2    H511958   3.782   2.948  10.404  0.6001  0.7967  1.8714
  808MPD2    N111959   3.443   2.506  10.402  0.5153 -0.0044 -0.1054
  808MPD2    H711960   3.359   2.559  10.420 -0.5384 -1.0479 -2.0057
  809MPD2     C11961   4.178   3.666  10.056  0.6340 -0.6651 -0.5792
  809MPD2    C111962   4.155   3.534  10.022  0.0192 -0.5023  0.5449
  809MPD2    C211963   4.060   3.467  10.102 -0.2024  0.0898 -0.2296
  809MPD2    C311964   4.001   3.529  10.206 -0.3673  0.2233  0.4761
  809MPD2    C411965   4.028   3.662  10.238  0.0323 -0.1929 -0.0886
  809MPD2    C511966   4.116   3.731  10.158 -0.3250 -0.3440  0.0670
  809MPD2     H11967   4.032   3.367  10.072 -0.0987  0.0178 -0.0830
  809MPD2    H111968   3.967   3.711  10.313  0.0195  0.2993 -0.4142
  809MPD2    H211969   4.252   3.725  10.001 -0.2972 -0.5267 -1.6866
  809MPD2    H311970   4.147   3.830  10.189 -0.8839  0.3239 -1.4827
  809MPD2     N11971   3.893   3.474  10.285 -0.5303 -0.3403  0.0706
  809MPD2    H511972   3.869   3.529  10.367 -0.6175 -0.0741 -0.1329
  809MPD2    N111973   4.235   3.469   9.924  0.6143 -0.1586 -0.4885
  809MPD2    H711974   4.233   3.367   9.924  1.3272 -0.1617  0.8037
  810MPD2     C11975   2.406   1.871  10.884  0.3080  0.2005 -0.7206
  810MPD2    C111976   2.469   1.957  10.791 -0.0079  0.0179 -0.0956
  810MPD2    C211977   2.486   2.091  10.815  0.2769 -0.4992  0.1080
  810MPD2    C311978   2.456   2.140  10.938 -0.2165 -0.5935 -0.4330
  810MPD2    C411979   2.405   2.053  11.037 -0.9845 -0.1839 -0.7466
  810MPD2    C511980   2.373   1.921  11.007 -0.1112  0.5988  0.5241
  810MPD2     H11981   2.529   2.162  10.745  0.8238 -1.1352 -0.1912
  810MPD2    H111982   2.380   2.081  11.139 -0.0078 -1.7324 -0.0860
  810MPD2    H211983   2.374   1.768  10.875 -1.7138  0.7868 -0.2033
  810MPD2    H311984   2.320   1.859  11.079 -0.0397 -0.2559 -0.1636
  810MPD2     N11985   2.485   2.274  10.972 -0.1770 -0.3448 -0.0754
  810MPD2    H511986   2.535   2.325  10.901  0.3381 -1.4226 -0.4831
  810MPD2    N111987   2.512   1.915  10.663  0.3384 -0.2483 -0.1410
  810MPD2    H711988   2.515   1.979  10.584  1.2111  0.3410  0.3806
  811MPD2     C11989   2.379   2.143  10.013  0.5361 -0.0989 -0.1783
  811MPD2    C111990   2.445   2.159  10.134  0.4083  0.6221 -0.3584
  811MPD2    C211991   2.459   2.287  10.185  0.6160 -0.3372  0.8588
  811MPD2    C311992   2.397   2.395  10.128  0.1503 -0.0810  0.5913
  811MPD2    C411993   2.325   2.377  10.016  0.4149  0.1210  0.0514
  811MPD2    C511994   2.323   2.256   9.960  0.3400 -0.2919 -0.1895
  811MPD2     H11995   2.505   2.293  10.284  1.4187  0.3864  0.4433
  811MPD2    H111996   2.272   2.457   9.967  0.4808 -1.1940 -2.1556
  811MPD2    H211997   2.360   2.045   9.970 -0.3654  0.9937 -2.2851
  811MPD2    H311998   2.264   2.248   9.869 -2.2163  2.2223  1.2343
  811MPD2     N11999   2.400   2.523  10.194  0.3358  0.3756  0.1310
  811MPD2    H512000   2.461   2.515  10.274  0.8141 -0.4356 -0.3024
  811MPD2    N112001   2.483   2.048  10.216 -0.0392  0.0055  0.5719
  811MPD2    H712002   2.508   2.062  10.313 -0.9336 -1.5760  1.0204
  812MPD2     C12003   2.020   2.082  11.841 -0.2794  0.2829 -0.0031
  812MPD2    C112004   1.985   2.194  11.915  0.3338 -0.3498  0.0830
  812MPD2    C212005   2.029   2.212  12.043 -0.7125 -0.1211  0.5488
  812MPD2    C312006   2.101   2.106  12.100  0.0428  0.1196 -0.3965
  812MPD2    C412007   2.135   1.992  12.026 -0.2258  0.1760 -0.0710
  812MPD2    C512008   2.099   1.985  11.896  0.5660 -0.2789 -0.4334
  812MPD2     H12009   1.997   2.302  12.095 -3.5291 -0.3342 -0.7841
  812MPD2    H112010   2.211   1.920  12.054 -0.7882 -0.1944  0.5221
  812MPD2    H212011   1.992   2.072  11.737  1.6859 -2.1100 -0.3133
  812MPD2    H312012   2.145   1.909  11.835  0.8300 -0.4031 -0.0793
  812MPD2     N12013   2.138   2.122  12.232  0.2387  0.1998 -1.0577
  812MPD2    H512014   2.122   2.212  12.277  2.1885  0.5991 -1.1656
  812MPD2    N112015   1.890   2.286  11.874 -0.0584  0.3778  0.1094
  812MPD2    H712016   1.855   2.347  11.947 -1.0668 -2.3426  1.8895
  813MPD2     C12017   1.149   4.157  12.479  0.5168  0.2890  0.2387
  813MPD2    C112018   1.118   4.291  12.510  0.8554  0.2767 -0.5638
  813MPD2    C212019   1.132   4.342  12.642  0.2833  0.0024  0.0836
  813MPD2    C312020   1.160   4.250  12.744 -0.4668  0.2049 -0.3064
  813MPD2    C412021   1.185   4.117  12.710  0.4696  0.0656  0.7790
  813MPD2    C512022   1.181   4.071  12.580  0.0745 -0.4510  0.0507
  813MPD2     H12023   1.103   4.444  12.664 -0.0831 -0.0813 -0.0105
  813MPD2    H112024   1.202   4.043  12.788  2.2567  1.4851  1.7195
  813MPD2    H212025   1.146   4.120  12.377  2.8448 -0.7101  0.5374
  813MPD2    H312026   1.206   3.967  12.563  1.1646 -0.0687 -0.6633
  813MPD2     N12027   1.163   4.302  12.879  0.4571 -0.5065  0.4648
  813MPD2    H512028   1.136   4.399  12.890 -0.4596 -0.8725  1.4725
  813MPD2    N112029   1.090   4.363  12.387  0.1023  0.0301 -0.6702
  813MPD2    H712030   1.050   4.307  12.313  1.2908 -0.5235 -0.8907
  814MPD2     C12031   1.402   0.750  12.522 -0.1218  0.0990 -0.4742
  814MPD2    C112032   1.392   0.807  12.397 -0.9191  0.6457  0.3101
  814MPD2    C212033   1.468   0.923  12.380  0.6834  0.1733 -0.0502
  814MPD2    C312034   1.533   0.987  12.484  0.8394 -0.1033  0.6165
  814MPD2    C412035   1.543   0.925  12.607 -0.3270  0.5304 -0.4961
  814MPD2    C512036   1.485   0.802  12.620 -0.1324  0.0228  0.5759
  814MPD2     H12037   1.462   0.975  12.285  3.2652 -0.5307 -0.5827
  814MPD2    H112038   1.596   0.970  12.690 -0.9237 -0.6950  0.5483
  814MPD2    H212039   1.357   0.654  12.542 -0.6558  0.1442 -1.4605
  814MPD2    H312040   1.489   0.762  12.721 -0.5137 -0.8406  0.2471
  814MPD2     N12041   1.602   1.113  12.464  0.1853  0.4717 -0.1741
  814MPD2    H512042   1.669   1.129  12.539  1.0858 -1.2592 -0.6012
  814MPD2    N112043   1.311   0.761  12.286 -0.2574 -0.7365 -0.0571
  814MPD2    H712044   1.334   0.803  12.197 -1.2462  0.9548  0.4785
  815MPD2     C12045   1.846   3.736  11.808  0.2261  0.3684  0.2460
  815MPD2    C112046   1.819   3.603  11.820 -0.7334 -0.2628  0.2833
  815MPD2    C212047   1.738   3.569  11.926  0.3808  0.1767 -0.1980
  815MPD2    C312048   1.671   3.661  12.006  0.2157  0.4562 -0.3906
  815MPD2    C412049   1.703   3.790  11.989  0.2155  0.6572  0.1909
  815MPD2    C512050   1.792   3.834  11.891  0.3448 -0.1559 -0.3102
  815MPD2     H12051   1.719   3.465  11.949  0.5710  0.1682 -0.0698
  815MPD2    H112052   1.655   3.863  12.054  0.2122 -0.5314  1.5366
  815MPD2    H212053   1.924   3.768  11.739  0.1771  0.8755  0.4229
  815MPD2    H312054   1.817   3.939  11.883 -1.6723  0.2020 -1.9595
  815MPD2     N12055   1.588   3.617  12.115  0.0144 -0.4055  0.9196
  815MPD2    H512056   1.584   3.515  12.122 -2.0485 -0.3124  1.1293
  815MPD2    N112057   1.889   3.515  11.738 -0.1464 -0.2918  0.3507
  815MPD2    H712058   1.939   3.550  11.657  1.0846 -2.3871  0.2002
  816MPD2     C12059   1.263   2.963  17.440  0.0959 -0.6645  0.5397
  816MPD2    C112060   1.379   3.042  17.451 -0.0177  0.3609 -0.3875
  816MPD2    C212061   1.487   3.014  17.367  0.3859  0.5534 -0.0392
  816MPD2    C312062   1.489   2.899  17.295  0.3532  0.7343  0.1741
  816MPD2    C412063   1.376   2.814  17.293 -1.2011 -0.1352  0.2507
  816MPD2    C512064   1.260   2.844  17.367  0.2328 -0.1842 -0.1311
  816MPD2     H12065   1.576   3.075  17.356  0.9313 -0.0568  1.0555
  816MPD2    H112066   1.378   2.715  17.250 -0.4868  0.2910 -0.6950
  816MPD2    H212067   1.177   2.992  17.499  2.3697  0.3979  3.2947
  816MPD2    H312068   1.175   2.779  17.378  0.2275 -0.1644 -0.0534
  816MPD2     N12069   1.602   2.870  17.216  0.3980  0.7008 -0.6935
  816MPD2    H512070   1.681   2.932  17.232  0.3634  0.3511  0.8205
  816MPD2    N112071   1.373   3.161  17.524  1.0453 -0.8389  0.5503
  816MPD2    H712072   1.285   3.196  17.562 -0.4606 -1.9713 -1.9168
  817MPD2     C12073   0.955   4.588   9.841  0.2091  0.3427  0.0677
  817MPD2    C112074   1.049   4.569   9.745  0.1023  0.3745  0.2464
  817MPD2    C212075   1.062   4.665   9.646 -0.3616 -0.2990  0.5195
  817MPD2    C312076   0.989   0.040   9.635  0.6914 -0.6255 -0.7948
  817MPD2    C412077   0.898   0.059   9.726  0.2411  0.1406  0.4266
  817MPD2    C512078   0.885   4.707   9.830  0.8675  1.0217  0.9945
  817MPD2     H12079   1.142   4.643   9.576 -0.0952  1.9905  0.1271
  817MPD2    H112080   0.837   0.148   9.734  0.5671  0.3857  0.1892
  817MPD2    H212081   0.935   4.521   9.924 -1.0688  0.9137  0.2182
  817MPD2    H312082   0.807   4.731   9.900  1.4444 -2.1961  2.7744
  817MPD2     N12083   1.025   0.127   9.533 -0.2071  0.3014  0.2635
  817MPD2    H512084   1.107   0.111   9.475 -0.9298 -0.1818 -0.6311
  817MPD2    N112085   1.125   4.452   9.742 -0.1566  0.0855  0.5003
  817MPD2    H712086   1.182   4.445   9.658  2.5873 -0.0851  2.3816
  818MPD2     C12087   0.172   4.350  10.061 -0.4093 -0.9263  0.8726
  818MPD2    C112088   0.127   4.278  10.162 -0.0032 -0.0580 -0.6150
  818MPD2    C212089   0.133   4.142  10.162  0.5630 -0.3688  0.7709
  818MPD2    C312090   0.192   4.077  10.056 -0.1273 -0.1414  0.6619
  818MPD2    C412091   0.254   4.149   9.959  0.7849  0.0452 -0.3628
  818MPD2    C512092   0.236   4.286   9.956 -0.1831  0.2675 -0.3871
  818MPD2     H12093   0.086   4.091  10.245  3.0230 -0.0794  2.3413
  818MPD2    H112094   0.312   4.104   9.879 -0.1795 -0.6913 -0.6494
  818MPD2    H212095   0.169   4.458  10.062 -2.3958 -0.9784  0.3313
  818MPD2    H312096   0.270   4.354   9.879  0.7367  1.8552  1.4336
  818MPD2     N12097   0.187   3.937  10.039  0.6291  0.2762  0.1906
  818MPD2    H512098   0.221   3.900   9.950  1.3245 -1.0779  1.0263
  818MPD2    N112099   0.055   4.333  10.274  0.4659  0.1876 -0.5813
  818MPD2    H712100   0.028   4.269  10.348 -1.4673  0.4951 -1.0161
  819MPD2     C12101   3.012   1.912  15.129  0.5801  0.5480  0.1236
  819MPD2    C112102   2.989   1.778  15.123 -0.8295  0.3972  0.5988
  819MPD2    C212103   3.031   1.697  15.226 -1.1483 -0.0923  0.3688
  819MPD2    C312104   3.119   1.746  15.322 -0.2775  0.2550  0.4067
  819MPD2    C412105   3.148   1.882  15.315  0.6524  0.2461 -0.3560
  819MPD2    C512106   3.087   1.964  15.223 -0.1294 -0.0258 -0.3821
  819MPD2     H12107   2.993   1.597  15.241 -0.9195 -0.5596 -2.1388
  819MPD2    H112108   3.228   1.930  15.370 -0.7887  0.7955  1.2716
  819MPD2    H212109   2.975   1.977  15.050  1.1785 -1.2334 -1.6179
  819MPD2    H312110   3.107   2.070  15.213 -3.6000  0.4002 -2.6679
  819MPD2     N12111   3.177   1.659  15.409 -0.6664  0.2264 -0.2638
  819MPD2    H512112   3.154   1.563  15.388 -0.6495  0.0661  0.4727
  819MPD2    N112113   2.908   1.739  15.020  0.2673 -0.3053  0.0493
  819MPD2    H712114   2.857   1.807  14.964 -0.7127 -1.3644 -0.3381
  820MPD2     C12115   2.195   2.074  15.132  0.0599 -0.4224  0.6744
  820MPD2    C112116   2.149   1.954  15.084  0.7529  0.6618 -0.0188
  820MPD2    C212117   2.231   1.879  14.995  0.5084  0.0180 -0.3457
  820MPD2    C312118   2.362   1.921  14.972  0.1935  0.3239  0.1077
  820MPD2    C412119   2.405   2.042  15.033 -0.3376 -0.5100  0.0933
  820MPD2    C512120   2.323   2.115  15.112  0.1827  0.5115 -0.3435
  820MPD2     H12121   2.185   1.801  14.936 -1.4423  1.2794 -0.5204
  820MPD2    H112122   2.509   2.072  15.023 -0.4294 -0.0998  0.3701
  820MPD2    H212123   2.133   2.143  15.189 -0.2323  0.0349 -0.1934
  820MPD2    H312124   2.357   2.212  15.146  0.7269  0.1392  0.1783
  820MPD2     N12125   2.461   1.841  14.908 -0.2834  0.0419 -0.2579
  820MPD2    H512126   2.554   1.881  14.917  0.1828 -0.4094 -2.9827
  820MPD2    N112127   2.015   1.925  15.133  0.4053  0.0018 -0.3044
  820MPD2    H712128   1.965   2.002  15.175  2.9655  1.1892  0.5458
  821MPD2     C12129   3.572   2.547  13.086  0.7030  0.1242  0.3076
  821MPD2    C112130   3.679   2.559  13.172  0.1634 -0.2846  0.5333
  821MPD2    C212131   3.800   2.580  13.108  0.3221  0.1964 -0.6244
  821MPD2    C312132   3.816   2.608  12.975 -0.0232  0.7197 -0.8312
  821MPD2    C412133   3.703   2.601  12.889 -0.6319  0.7569 -0.9707
  821MPD2    C512134   3.581   2.570  12.950  0.1506 -0.4902  0.2152
  821MPD2     H12135   3.886   2.603  13.170  1.9591 -0.4572 -2.6756
  821MPD2    H112136   3.709   2.604  12.781  1.2090 -1.3485 -0.9314
  821MPD2    H212137   3.475   2.521  13.126  0.2207  0.3071 -0.7387
  821MPD2    H312138   3.497   2.538  12.890 -0.1535  0.1638  0.2989
  821MPD2     N12139   3.939   2.642  12.912  0.0147 -0.6757  0.0314
  821MPD2    H512140   3.932   2.695  12.826 -0.3705  1.0530  1.1098
  821MPD2    N112141   3.681   2.533  13.310  0.0426 -0.0106 -0.3742
  821MPD2    H712142   3.759   2.579  13.356 -1.8188  2.8622 -0.0763
  822MPD2     C12143   4.039   3.022  15.690  0.3807 -0.3155  0.1759
  822MPD2    C112144   3.981   2.961  15.801  0.0238 -0.7354 -0.9386
  822MPD2    C212145   3.866   3.016  15.861  0.0783  0.3236 -0.1719
  822MPD2    C312146   3.815   3.134  15.813 -0.6132  0.7669  0.5392
  822MPD2    C412147   3.868   3.198  15.696 -0.1619 -0.5790 -0.0696
  822MPD2    C512148   3.974   3.132  15.638 -0.1873 -0.2072  0.1946
  822MPD2     H12149   3.832   2.966  15.950  1.4546  1.8734  1.2370
  822MPD2    H112150   3.827   3.289  15.653 -1.7182 -0.4412  1.7050
  822MPD2    H212151   4.131   3.000  15.638  1.9148  0.9503  2.3672
  822MPD2    H312152   4.014   3.178  15.548 -1.5071  1.0980  0.2694
  822MPD2     N12153   3.706   3.182  15.893  0.5698 -0.7915 -0.1264
  822MPD2    H512154   3.670   3.128  15.970  0.9012 -0.2029  0.4384
  822MPD2    N112155   4.025   2.841  15.870  0.5007  0.0367 -0.0101
  822MPD2    H712156   3.986   2.816  15.959 -1.0517  2.8534  0.1098
  823MPD2     C12157   3.322   3.290  16.640 -0.3526  0.8461  0.1080
  823MPD2    C112158   3.378   3.210  16.540 -0.2697 -0.7205  0.1990
  823MPD2    C212159   3.415   3.080  16.576 -0.9169  0.7019 -0.8227
  823MPD2    C312160   3.384   3.032  16.699 -0.0015 -0.4737  0.0755
  823MPD2    C412161   3.308   3.108  16.793  0.2940 -0.0803  0.6608
  823MPD2    C512162   3.283   3.235  16.759 -0.4070 -0.3797  0.2705
  823MPD2     H12163   3.468   3.018  16.505  0.0090  0.3247  0.1837
  823MPD2    H112164   3.278   3.071  16.890  0.4459 -0.6862  0.4756
  823MPD2    H212165   3.301   3.395  16.620  0.3036  1.0983  0.7297
  823MPD2    H312166   3.227   3.291  16.833 -1.5812 -0.1700 -0.7799
  823MPD2     N12167   3.425   2.902  16.733 -0.1732 -0.4090  0.0652
  823MPD2    H512168   3.392   2.857  16.817  0.3866  1.2045  1.1609
  823MPD2    N112169   3.414   3.272  16.417  0.2562 -0.3717 -0.3324
  823MPD2    H712170   3.410   3.373  16.411 -2.1791 -0.5880 -2.3528
  824MPD2     C12171   4.456   2.103  15.844 -0.6820 -0.1947  0.3298
  824MPD2    C112172   4.459   2.230  15.785 -0.0798 -0.5850 -0.5234
  824MPD2    C212173   4.526   2.236  15.666  0.0015  0.0292  0.4431
  824MPD2    C312174   4.572   2.122  15.605  0.1602 -0.0299 -0.1885
  824MPD2    C412175   4.568   2.001  15.669 -0.0953  0.4290  0.0119
  824MPD2    C512176   4.496   1.985  15.785  0.8758  0.0189 -0.1132
  824MPD2     H12177   4.524   2.330  15.612 -0.3548 -0.6619 -0.7554
  824MPD2    H112178   4.615   1.912  15.628 -2.0858 -0.9369  0.6706
  824MPD2    H212179   4.412   2.098  15.943  1.8223  1.1930  1.5269
  824MPD2    H312180   4.475   1.892  15.836 -0.2228 -0.0220 -0.6489
  824MPD2     N12181   4.642   2.136  15.480  0.4774  0.6006 -0.4154
  824MPD2    H512182   4.667   2.233  15.462 -0.4183  0.3544 -2.9700
  824MPD2    N112183   4.392   2.344  15.837 -0.0559 -0.5257 -0.2001
  824MPD2    H712184   4.382   2.425  15.777  1.7011 -0.7124 -0.7366
  825MPD2     C12185   0.530   2.476  14.970  0.0806  0.5724  0.0541
  825MPD2    C112186   0.459   2.484  15.086  0.6241  0.6750  0.5630
  825MPD2    C212187   0.468   2.597  15.169 -0.4241 -0.2878 -1.1202
  825MPD2    C312188   0.561   2.700  15.142  0.1379  0.3487 -0.6944
  825MPD2    C412189   0.634   2.684  15.023 -0.7506  0.1785  0.6189
  825MPD2    C512190   0.618   2.575  14.936  0.0459 -0.1004  0.6860
  825MPD2     H12191   0.399   2.613  15.250 -1.3884  0.7843 -2.1578
  825MPD2    H112192   0.703   2.761  14.991 -2.8392  1.1504 -1.5914
  825MPD2    H212193   0.523   2.391  14.903 -0.5106  0.7236 -0.0713
  825MPD2    H312194   0.676   2.580  14.845 -1.2620 -0.2966 -0.1702
  825MPD2     N12195   0.575   2.822  15.217  0.2453  0.3839  0.0824
  825MPD2    H512196   0.624   2.897  15.169 -0.4260  2.0483  2.0146
  825MPD2    N112197   0.384   2.368  15.116  0.3549 -0.4439  0.1430
  825MPD2    H712198   0.399   2.285  15.059  3.3868 -0.7499  1.4210
  826MPD2     C12199   0.290   2.108  13.148  0.0183 -0.8138  0.6338
  826MPD2    C112200   0.335   2.172  13.258 -0.0973 -0.8335 -0.9628
  826MPD2    C212201   0.250   2.234  13.346 -0.8296  0.3441  0.5172
  826MPD2    C312202   0.118   2.238  13.310  0.0254  0.6447 -0.1342
  826MPD2    C412203   0.073   2.179  13.194  0.2273  0.2700 -0.4086
  826MPD2    C512204   0.156   2.107  13.120  0.7894 -0.5555 -0.1714
  826MPD2     H12205   0.297   2.285  13.429 -0.3781 -0.1915  0.5890
  826MPD2    H112206   4.705   2.189  13.166  0.0160 -1.8490 -0.3748
  826MPD2    H212207   0.345   2.057  13.070  1.2871  0.6891  0.5248
  826MPD2    H312208   0.130   2.048  13.033  1.1306 -0.2616 -0.4750
  826MPD2     N12209   0.025   2.303  13.395 -0.3071  0.0232 -0.4380
  826MPD2    H512210   4.663   2.291  13.376 -0.3653 -1.4260  0.8085
  826MPD2    N112211   0.480   2.180  13.270 -0.0194 -0.0749  0.0481
  826MPD2    H712212   0.540   2.118  13.216  0.4334 -0.4881  1.0244
  827MPD2     C12213   0.815   3.566  10.093 -0.0669 -0.3029  0.1779
  827MPD2    C112214   0.766   3.448  10.138  0.3611  0.1698 -0.2510
  827MPD2    C212215   0.734   3.351  10.042  0.0275  0.3815  0.1071
  827MPD2    C312216   0.739   3.379   9.905  0.0014  0.5456 -0.3121
  827MPD2    C412217   0.792   3.495   9.864  0.3730 -0.4651 -0.5474
  827MPD2    C512218   0.830   3.588   9.960  0.1379 -0.1446 -0.6188
  827MPD2     H12219   0.690   3.258  10.076 -0.0351  0.4977  0.3472
  827MPD2    H112220   0.799   3.526   9.760 -0.9722 -0.5391 -0.6593
  827MPD2    H212221   0.830   3.648  10.162 -1.6891  0.7725 -0.7619
  827MPD2    H312222   0.869   3.682   9.924 -1.4910  1.3433  1.4719
  827MPD2     N12223   0.693   3.278   9.816  0.0796 -0.3092  0.1584
  827MPD2    H512224   0.649   3.195   9.854 -1.6700 -0.0542 -1.2712
  827MPD2    N112225   0.744   3.437  10.279  0.3962  0.4603 -0.2277
  827MPD2    H712226   0.759   3.516  10.341 -0.6063  0.2171  0.3186
  828MPD2     C12227   4.040   3.269  12.197  0.6078 -0.5653 -0.4313
  828MPD2    C112228   3.929   3.338  12.156 -0.5622  0.1395  0.5098
  828MPD2    C212229   3.903   3.337  12.021  0.4296  0.1689  0.8299
  828MPD2    C312230   3.979   3.268  11.932  0.7002 -0.0343 -1.0109
  828MPD2    C412231   4.090   3.201  11.980  0.6114 -0.0829 -0.7036
  828MPD2    C512232   4.124   3.207  12.115  0.2077 -0.0666  0.1103
  828MPD2     H12233   3.829   3.403  11.977 -0.0543 -0.7352  0.2976
  828MPD2    H112234   4.156   3.143  11.917  1.2263  0.4876 -0.5784
  828MPD2    H212235   4.075   3.277  12.299  1.8576  1.6114 -1.0361
  828MPD2    H312236   4.212   3.157  12.155  0.6628 -0.5758 -1.4987
  828MPD2     N12237   3.953   3.249  11.791 -0.2684 -0.3670  0.5943
  828MPD2    H512238   4.015   3.198  11.729 -1.1993  0.6886 -1.1974
  828MPD2    N112239   3.845   3.411  12.248  0.3014  0.1467 -0.4893
  828MPD2    H712240   3.777   3.473  12.206  0.0518  0.8926  1.0084
  829MPD2     C12241   3.048   3.631  12.080  0.2084 -0.3639  0.5937
  829MPD2    C112242   3.027   3.593  12.210  0.0672 -0.3214  0.7268
  829MPD2    C212243   3.140   3.582  12.295 -0.3808  0.8732 -0.2973
  829MPD2    C312244   3.264   3.605  12.246 -0.0011  0.8153  0.9929
  829MPD2    C412245   3.281   3.642  12.116  0.0089  0.5976 -0.2755
  829MPD2    C512246   3.175   3.655  12.036  0.0009  0.4338  0.1865
  829MPD2     H12247   3.123   3.555  12.399  0.3757 -4.8833 -1.6987
  829MPD2    H112248   3.381   3.660  12.078 -0.0212 -1.8847 -1.5283
  829MPD2    H212249   2.967   3.648  12.011  1.4910  0.7641 -0.6306
  829MPD2    H312250   3.194   3.677  11.931  0.3926  0.3881  0.2497
  829MPD2     N12251   3.382   3.575  12.317  0.0394 -0.0386  0.5548
  829MPD2    H512252   3.472   3.584  12.270 -0.2165  0.7726  0.2221
  829MPD2    N112253   2.890   3.566  12.244 -0.4524  0.3843  0.0637
  829MPD2    H712254   2.825   3.575  12.166  0.5170 -0.1830 -0.8199
  830MPD2     C12255   3.791   1.246  15.701  0.6108  0.2385  0.0423
  830MPD2    C112256   3.693   1.289  15.618  0.2932  0.2604  1.0510
  830MPD2    C212257   3.730   1.367  15.505 -0.1819  0.1302  0.0210
  830MPD2    C312258   3.861   1.400  15.478 -0.0204 -0.6307 -0.3689
  830MPD2    C412259   3.959   1.348  15.562  0.2361  0.2694 -0.4084
  830MPD2    C512260   3.921   1.274  15.672 -0.0495  0.2081  0.0957
  830MPD2     H12261   3.651   1.408  15.442  0.2143  0.5287 -0.2203
  830MPD2    H112262   4.064   1.367  15.546  0.5691  0.3766  1.8325
  830MPD2    H212263   3.765   1.188  15.789 -0.1443 -1.0529 -1.0388
  830MPD2    H312264   3.999   1.239  15.738  0.0453 -0.4920 -0.3929
  830MPD2     N12265   3.910   1.485  15.374  0.6838 -0.1373 -0.0792
  830MPD2    H512266   4.006   1.516  15.389 -0.6925  3.2213  1.7516
  830MPD2    N112267   3.558   1.258  15.648 -0.2255 -0.3638 -0.3647
  830MPD2    H712268   3.539   1.236  15.745 -3.6666 -0.1894 -1.0156
  831MPD2     C12269   3.925   3.263  16.279 -0.0351  0.7779 -0.0742
  831MPD2    C112270   3.974   3.155  16.207 -0.6723  0.0177 -0.1840
  831MPD2    C212271   3.899   3.036  16.214 -0.3885  0.0224  0.0753
  831MPD2    C312272   3.793   3.023  16.300  0.8175 -0.4466  0.0623
  831MPD2    C412273   3.769   3.125  16.388 -0.1319  0.1153 -0.0241
  831MPD2    C512274   3.821   3.245  16.370  0.5466 -0.1099  0.1540
  831MPD2     H12275   3.927   2.952  16.153  0.3850  0.8935 -0.7612
  831MPD2    H112276   3.692   3.108  16.462  0.5273 -0.9633  0.4171
  831MPD2    H212277   3.979   3.356  16.272  0.6651  0.3012 -0.9532
  831MPD2    H312278   3.795   3.334  16.427  1.6411 -0.7267  1.6232
  831MPD2     N12279   3.702   2.914  16.296 -0.1218  0.2415 -0.0156
  831MPD2    H512280   3.626   2.918  16.362  0.4079 -3.0269  0.7743
  831MPD2    N112281   4.089   3.175  16.127  0.0285  0.0686 -0.0030
  831MPD2    H712282   4.111   3.272  16.108 -0.6210 -0.0971 -1.5713
  832MPD2     C12283   2.272   4.209  17.362  0.4447 -0.1733  0.3656
  832MPD2    C112284   2.243   4.330  17.303  1.1091  0.2628 -0.3132
  832MPD2    C212285   2.116   4.351  17.253  0.0240  0.1388  0.1386
  832MPD2    C312286   2.020   4.262  17.282  0.1117 -0.1533 -0.4405
  832MPD2    C412287   2.041   4.141  17.339  0.2109 -0.2077  0.3821
  832MPD2    C512288   2.172   4.109  17.376 -0.4936  0.5969  0.3313
  832MPD2     H12289   2.091   4.444  17.203  0.5354 -0.2559 -0.8323
  832MPD2    H112290   1.965   4.066  17.354  1.1388 -1.1841  0.2657
  832MPD2    H212291   2.366   4.171  17.402  0.4718 -0.9639 -0.4440
  832MPD2    H312292   2.195   4.018  17.429  0.2776  2.1399  2.6013
  832MPD2     N12293   1.889   4.280  17.230  0.2056  0.5743 -0.9433
  832MPD2    H512294   1.832   4.196  17.224  2.4825 -0.8715 -2.2447
  832MPD2    N112295   2.352   4.428  17.296  0.0380 -0.3324 -0.0131
  832MPD2    H712296   2.436   4.387  17.335 -0.1824 -2.5368 -1.8213
  833MPD2     C12297   0.351   0.707  12.725  0.6471  0.0879  0.2719
  833MPD2    C112298   0.361   0.771  12.605  0.5129  0.9271 -0.6107
  833MPD2    C212299   0.392   0.695  12.492  1.1273 -0.0184  0.1846
  833MPD2    C312300   0.421   0.565  12.510  0.4775  0.2318  0.6306
  833MPD2    C412301   0.407   0.500  12.628 -0.2669 -0.3629  0.0872
  833MPD2    C512302   0.367   0.574  12.739  0.0341 -0.2458  0.2186
  833MPD2     H12303   0.393   0.741  12.393 -3.8052  1.9355  1.0291
  833MPD2    H112304   0.433   0.396  12.641 -0.6943 -0.5551 -0.6424
  833MPD2    H212305   0.331   0.760  12.817  1.4656  1.0873 -0.1118
  833MPD2    H312306   0.348   0.530  12.836 -3.1848  0.1534 -0.2348
  833MPD2     N12307   0.463   0.492  12.397  0.5375  0.6333  0.5946
  833MPD2    H512308   0.484   0.550  12.317  1.8896  2.2399  2.1199
  833MPD2    N112309   0.351   0.911  12.583 -0.8812  0.2135 -0.2575
  833MPD2    H712310   0.362   0.945  12.488  0.0729 -0.1653 -0.2862
  834MPD2     C12311   0.068   4.437  11.918 -0.0005 -0.6669  0.1644
  834MPD2    C112312   0.051   4.553  11.854 -0.0309  0.2078  0.6089
  834MPD2    C212313   0.112   4.671  11.898 -0.3858 -0.2461  0.0987
  834MPD2    C312314   0.203   4.675  12.004 -0.0634 -0.0766 -0.1476
  834MPD2    C412315   0.234   4.548  12.050  0.2575  0.0649  0.6070
  834MPD2    C512316   0.163   4.434  12.019 -0.2174  0.6661  0.6312
  834MPD2     H12317   0.101   0.025  11.839  0.6560 -1.1242 -1.4412
  834MPD2    H112318   0.312   4.540  12.126  0.4075  0.2177  0.4683
  834MPD2    H212319   0.024   4.341  11.892  1.6852 -0.8763 -1.9641
  834MPD2    H312320   0.192   4.346  12.074 -6.2070 -1.5242  0.3483
  834MPD2     N12321   0.272   0.042  12.052  0.2135  0.0878 -0.1304
  834MPD2    H512322   0.346   0.023  12.119  1.2203 -1.1425 -1.5902
  834MPD2    N112323   4.693   4.552  11.752 -0.1067 -0.0356 -0.7455
  834MPD2    H712324   4.664   4.468  11.704 -4.3251  1.4004 -0.6914
  835MPD2     C12325   4.523   2.994  10.942 -0.7492  0.1533 -0.2316
  835MPD2    C112326   4.430   3.036  11.037 -0.4166  0.9432 -0.3958
  835MPD2    C212327   4.469   3.027  11.170  0.3374 -0.3412 -0.2165
  835MPD2    C312328   4.591   2.984  11.211 -0.3282  0.2184 -0.6811
  835MPD2    C412329   4.672   2.918  11.118  0.2700 -0.2969 -0.2478
  835MPD2    C512330   4.639   2.926  10.987 -0.3742 -0.4596  0.6964
  835MPD2     H12331   4.399   3.072  11.239 -0.2966 -1.5440 -0.0787
  835MPD2    H112332   0.033   2.877  11.142  0.6270  0.3346 -0.6206
  835MPD2    H212333   4.505   3.006  10.836 -0.1141  1.1921 -0.2188
  835MPD2    H312334   4.701   2.881  10.911  0.4472 -2.1394  2.3702
  835MPD2     N12335   4.638   2.987  11.347  0.5487 -0.4711  0.0062
  835MPD2    H512336   0.001   2.990  11.370  0.4332 -0.7938  0.5604
  835MPD2    N112337   4.299   3.083  11.003 -0.4267  0.5604 -0.0440
  835MPD2    H712338   4.255   3.140  11.075 -0.2215 -0.7080  1.0905
  836MPD2     C12339   4.197   3.522  11.608 -0.0875 -0.1229  0.1131
  836MPD2    C112340   4.288   3.496  11.706  0.7939  0.6787 -0.1276
  836MPD2    C212341   4.252   3.532  11.838  0.2967 -0.8085 -0.0803
  836MPD2    C312342   4.135   3.599  11.861  0.1660  0.3239 -0.1073
  836MPD2    C412343   4.050   3.633  11.754 -0.6787  0.3390  0.3854
  836MPD2    C512344   4.081   3.593  11.633  0.1841 -0.2470 -0.7899
  836MPD2     H12345   4.332   3.520  11.911  1.1974  0.3345 -0.8617
  836MPD2    H112346   3.963   3.696  11.774 -1.0363 -0.5804  1.6826
  836MPD2    H212347   4.213   3.480  11.510 -0.0360 -0.8666  0.4356
  836MPD2    H312348   4.017   3.623  11.551  0.3430  4.1727  0.6749
  836MPD2     N12349   4.109   3.656  11.987  0.0479 -0.1319  0.3612
  836MPD2    H512350   4.050   3.739  11.990  2.2529  1.4895 -1.4503
  836MPD2    N112351   4.412   3.439  11.663 -0.8945  0.9257  0.2316
  836MPD2    H712352   4.441   3.440  11.566 -0.4306 -0.5100  0.3504
  837MPD2     C12353   2.942   3.060  10.318  0.5631 -0.2392  0.2272
  837MPD2    C112354   2.824   3.092  10.385  0.0500  0.3033  0.2027
  837MPD2    C212355   2.804   3.223  10.417 -0.2355 -0.0858  0.5693
  837MPD2    C312356   2.893   3.324  10.387  0.1521 -1.0563 -0.5232
  837MPD2    C412357   3.017   3.296  10.321 -0.4553  0.3819 -0.0261
  837MPD2    C512358   3.031   3.159  10.288  1.6506  0.2005  0.1564
  837MPD2     H12359   2.720   3.245  10.482 -2.8055 -0.6765 -2.6008
  837MPD2    H112360   3.068   3.377  10.270 -0.0498 -0.5410 -1.0823
  837MPD2    H212361   2.958   2.956  10.291  2.7287 -0.3227  1.8402
  837MPD2    H312362   3.112   3.109  10.236  0.6274  0.5851 -1.7722
  837MPD2     N12363   2.844   3.455  10.421  0.4373 -0.0585 -0.6412
  837MPD2    H512364   2.753   3.448  10.466  0.3231 -1.0364 -1.0189
  837MPD2    N112365   2.724   3.000  10.414 -0.4504 -0.0568  0.1922
  837MPD2    H712366   2.643   3.025  10.469 -0.1898  2.8969 -0.7526
  838MPD2     C12367   2.028   1.564  11.481  0.1410  0.2139 -0.5092
  838MPD2    C112368   1.906   1.505  11.463 -0.0369  0.0258 -0.1495
  838MPD2    C212369   1.797   1.541  11.543  0.0327 -0.4872  0.8510
  838MPD2    C312370   1.813   1.639  11.640  0.0226 -0.3850  0.5412
  838MPD2    C412371   1.931   1.711  11.645 -0.4831  0.5064  0.0245
  838MPD2    C512372   2.037   1.668  11.570  0.6130 -0.3252  0.9450
  838MPD2     H12373   1.704   1.486  11.529 -0.1853  0.0276  0.2991
  838MPD2    H112374   1.955   1.776  11.729  1.9046 -0.6462  0.2472
  838MPD2    H212375   2.122   1.535  11.435 -0.2696 -1.3282 -0.3719
  838MPD2    H312376   2.132   1.720  11.572  1.4054 -1.7452  0.6450
  838MPD2     N12377   1.701   1.663  11.725 -0.4568 -0.3159  0.0845
  838MPD2    H512378   1.627   1.594  11.730 -2.0588  1.3646 -0.2856
  838MPD2    N112379   1.890   1.399  11.375  0.2115 -0.6891  0.3010
  838MPD2    H712380   1.798   1.359  11.361 -1.3528  2.8841  0.2351
  839MPD2     C12381   1.181   1.286  11.176  0.6133  0.4118 -0.2926
  839MPD2    C112382   1.221   1.153  11.188  1.0396  0.2223  0.2960
  839MPD2    C212383   1.352   1.119  11.158 -0.0232  0.0168 -0.5637
  839MPD2    C312384   1.442   1.219  11.132  0.2865 -0.2890 -0.8060
  839MPD2    C412385   1.392   1.346  11.121 -0.0592 -0.1361 -0.5632
  839MPD2    C512386   1.263   1.376  11.125  0.5410 -0.6982 -0.0684
  839MPD2     H12387   1.391   1.020  11.176 -0.5017 -0.0748 -0.0302
  839MPD2    H112388   1.469   1.417  11.090 -0.1460 -0.9535 -2.6302
  839MPD2    H212389   1.082   1.327  11.193  0.0460 -0.7889 -0.7354
  839MPD2    H312390   1.232   1.479  11.112  3.0212 -0.2148 -2.0180
  839MPD2     N12391   1.577   1.187  11.116 -0.2777 -0.0664 -0.0637
  839MPD2    H512392   1.644   1.261  11.099 -0.0863 -0.6664 -1.9224
  839MPD2    N112393   1.128   1.050  11.203  0.1123 -0.2226 -0.1685
  839MPD2    H712394   1.160   0.954  11.206  2.3915  0.5444 -0.2645
  840MPD2     C12395   0.989   3.842  10.665  0.5947 -0.9121 -0.3411
  840MPD2    C112396   0.996   3.720  10.729 -0.1703  0.3769 -1.5340
  840MPD2    C212397   1.089   3.693  10.829 -0.7567 -0.0175 -0.0912
  840MPD2    C312398   1.179   3.787  10.867  0.6317  0.2057  0.0132
  840MPD2    C412399   1.180   3.916  10.798 -0.0327 -0.2500 -0.1981
  840MPD2    C512400   1.080   3.938  10.707  0.4251  0.2284  0.5094
  840MPD2     H12401   1.096   3.592  10.869  2.2629  1.0608  2.0980
  840MPD2    H112402   1.251   3.991  10.830 -1.5048 -1.2206  5.3408
  840MPD2    H212403   0.919   3.854  10.584 -0.0223  0.6747  0.4390
  840MPD2    H312404   1.062   4.037  10.666  2.4999  0.2318 -0.3915
  840MPD2     N12405   1.281   3.776  10.962  0.2871 -0.7151  0.1255
  840MPD2    H512406   1.339   3.853  10.995  2.2299 -0.7643 -3.1892
  840MPD2    N112407   0.901   3.625  10.691 -0.4759 -0.1100  0.2530
  840MPD2    H712408   0.844   3.648  10.611 -1.3167 -1.0340  0.5788
  841MPD2     C12409   0.867   3.318  14.508 -0.7027  0.2856  0.1942
  841MPD2    C112410   0.985   3.248  14.482 -0.1594  0.4009  0.0404
  841MPD2    C212411   1.103   3.294  14.531 -0.6495  0.2531  0.2630
  841MPD2    C312412   1.113   3.415  14.592 -0.5510 -0.3078 -0.0768
  841MPD2    C412413   1.000   3.488  14.612  0.0827 -0.1129 -0.2558
  841MPD2    C512414   0.879   3.443  14.566 -0.3497 -0.7184  0.3348
  841MPD2     H12415   1.200   3.255  14.502 -1.3628 -1.0712 -0.3035
  841MPD2    H112416   1.000   3.589  14.652 -0.2517  0.0669 -0.7049
  841MPD2    H212417   0.770   3.279  14.480  0.0950 -0.7978 -1.0620
  841MPD2    H312418   0.785   3.495  14.584  0.4467 -0.2756  3.2470
  841MPD2     N12419   1.237   3.462  14.635 -0.5137 -0.3149  0.6047
  841MPD2    H512420   1.311   3.392  14.633  0.9766  1.3015 -1.3659
  841MPD2    N112421   0.993   3.130  14.410  0.1443 -0.2458  0.1076
  841MPD2    H712422   1.080   3.098  14.369  0.6413  2.0013 -0.5920
  842MPD2     C12423   1.411   4.622  17.176 -0.1093 -0.2977  0.0398
  842MPD2    C112424   1.301   4.546  17.149  0.3379 -0.2413 -0.5632
  842MPD2    C212425   1.243   4.469  17.250 -0.1518 -0.0995 -0.4573
  842MPD2    C312426   1.306   4.466  17.378  0.9293  0.1225  0.5229
  842MPD2    C412427   1.425   4.538  17.400  0.7366 -0.0824 -0.3637
  842MPD2    C512428   1.464   4.622  17.299 -1.2022  0.8422 -0.0123
  842MPD2     H12429   1.143   4.429  17.240 -1.0834  1.6686  1.9960
  842MPD2    H112430   1.471   4.544  17.498  0.7867  2.6563 -0.5446
  842MPD2    H212431   1.450   4.683  17.095  2.9010 -0.2313  1.5599
  842MPD2    H312432   1.544   4.694  17.314 -0.4424 -0.2069  0.9837
  842MPD2     N12433   1.238   4.398  17.481 -0.1502  0.5339 -0.2131
  842MPD2    H512434   1.141   4.374  17.464  0.1371  0.8853 -2.3718
  842MPD2    N112435   1.247   4.543  17.015 -0.0989 -0.0948  0.1221
  842MPD2    H712436   1.300   4.607  16.956  0.6284  0.8462  1.7882
  843MPD2     C12437   3.756   0.134  17.139 -0.5212  0.4348 -0.4299
  843MPD2    C112438   3.876   0.150  17.209  0.0927 -0.7795 -0.1355
  843MPD2    C212439   3.929   0.277  17.207  0.2197 -0.3044  0.1253
  843MPD2    C312440   3.874   0.393  17.141 -0.7365 -0.1092  0.0401
  843MPD2    C412441   3.760   0.370  17.067 -0.9068 -0.3969  0.5068
  843MPD2    C512442   3.703   0.245  17.068 -0.6466  0.5651 -0.1490
  843MPD2     H12443   4.013   0.293  17.275 -1.5359 -1.0040  2.4782
  843MPD2    H112444   3.715   0.443  17.002  4.3989  0.9930 -1.5897
  843MPD2    H212445   3.704   0.039  17.146 -2.7973  1.7773  1.0866
  843MPD2    H312446   3.612   0.219  17.016 -1.1940  1.2618  0.4596
  843MPD2     N12447   3.924   0.526  17.153  0.2930  0.0501 -0.1278
  843MPD2    H512448   3.869   0.604  17.117 -0.1829 -1.5637 -2.8836
  843MPD2    N112449   3.926   0.033  17.266  0.5808 -0.4310  0.2914
  843MPD2    H712450   3.876   4.685  17.240  0.5701 -0.3185 -0.0450
  844MPD2     C12451   1.678   3.870  16.628 -0.3788 -0.4667  0.0632
  844MPD2    C112452   1.802   3.851  16.587 -0.2789 -0.3381 -0.6923
  844MPD2    C212453   1.894   3.953  16.609  0.0397  0.3673 -0.1250
  844MPD2    C312454   1.852   4.072  16.669 -0.2216  0.1776  0.3180
  844MPD2    C412455   1.719   4.095  16.709  0.5560  0.0441 -0.7443
  844MPD2    C512456   1.635   3.987  16.690 -0.3122  0.5230  0.7122
  844MPD2     H12457   1.993   3.935  16.570  0.2215  0.8624  0.1152
  844MPD2    H112458   1.668   4.185  16.741 -2.8384 -2.0816 -0.1432
  844MPD2    H212459   1.590   3.811  16.605  0.4304 -2.5505  2.4756
  844MPD2    H312460   1.530   3.997  16.714 -0.5579  2.3417 -1.1760
  844MPD2     N12461   1.953   4.157  16.705 -0.3198 -0.2922 -0.4561
  844MPD2    H512462   2.048   4.120  16.705  0.6054  2.1286 -0.2040
  844MPD2    N112463   1.852   3.747  16.509  0.4249  0.6820  0.0526
  844MPD2    H712464   1.942   3.747  16.463  0.2468  1.8399 -0.2988
  845MPD2     C12465   1.959   0.437  16.802  0.5424  0.4911 -0.4859
  845MPD2    C112466   2.045   0.386  16.899 -0.1262  0.0010  0.1125
  845MPD2    C212467   2.080   0.249  16.899  0.1031  0.2215  0.5906
  845MPD2    C312468   2.029   0.171  16.804 -0.0561  0.4941  0.0770
  845MPD2    C412469   1.930   0.219  16.718 -1.4106  0.2672  0.9554
  845MPD2    C512470   1.907   0.354  16.707 -0.1527 -0.4731  0.6126
  845MPD2     H12471   2.150   0.209  16.972  0.1540  0.0489  0.4472
  845MPD2    H112472   1.884   0.156  16.642 -0.0860 -1.0325  1.2154
  845MPD2    H212473   1.943   0.544  16.797 -0.4515  0.3128 -1.0922
  845MPD2    H312474   1.830   0.390  16.639  0.9867 -0.5617 -0.7379
  845MPD2     N12475   2.049   0.029  16.809  0.8030  0.6731 -0.2003
  845MPD2    H512476   1.991   4.708  16.748  2.3057  0.7858 -1.7212
  845MPD2    N112477   2.086   0.484  16.991 -0.0896  0.4012  0.0148
  845MPD2    H712478   2.065   0.580  16.963  0.7684  0.4490 -0.4728
  846MPD2     C12479   4.009   0.581  14.133  0.5816  0.0380  0.5476
  846MPD2    C112480   3.902   0.564  14.047 -1.3220  0.5031  0.0193
  846MPD2    C212481   3.778   0.551  14.100  0.5118  0.3029  0.0275
  846MPD2    C312482   3.763   0.537  14.240 -0.4084 -0.5926  0.3739
  846MPD2    C412483   3.876   0.540  14.323 -0.0530  0.6564 -0.4076
  846MPD2    C512484   3.996   0.572  14.269  0.2739  0.0640 -0.6482
  846MPD2     H12485   3.689   0.554  14.039  0.3347 -0.8900  0.2330
  846MPD2    H112486   3.869   0.531  14.431  2.3233  1.4662 -0.1880
  846MPD2    H212487   4.108   0.610  14.100  0.5591  0.6523  1.0129
  846MPD2    H312488   4.079   0.568  14.338 -0.2763  0.3295  0.0321
  846MPD2     N12489   3.646   0.508  14.313 -0.0965 -0.6160  0.4205
  846MPD2    H512490   3.656   0.467  14.405  2.9139  0.6436  0.6559
  846MPD2    N112491   3.912   0.564  13.909 -0.4330 -0.0054  0.0216
  846MPD2    H712492   3.827   0.555  13.855  0.8419 -0.8418 -1.8277
  847MPD2     C12493   3.890   1.301  14.223 -0.6708  0.1401 -0.3323
  847MPD2    C112494   3.894   1.280  14.083 -0.5144  0.4462  0.7126
  847MPD2    C212495   4.014   1.255  14.016 -0.0145  0.2807  0.3081
  847MPD2    C312496   4.130   1.260  14.088  0.0171  0.8509  0.4923
  847MPD2    C412497   4.119   1.258  14.225 -0.1395  0.0507 -0.2298
  847MPD2    C512498   4.004   1.282  14.292  0.0575 -0.1089 -0.2663
  847MPD2     H12499   4.011   1.229  13.911  0.7110  0.4808  0.2385
  847MPD2    H112500   4.203   1.226  14.285 -1.0280  1.3024  1.6878
  847MPD2    H212501   3.806   1.329  14.286  0.5040 -0.8490  1.6693
  847MPD2    H312502   4.011   1.287  14.400 -1.7111 -1.6416 -0.0806
  847MPD2     N12503   4.261   1.251  14.037  0.7750  0.3361 -1.1209
  847MPD2    H512504   4.342   1.255  14.098 -1.2938  2.0224  1.5574
  847MPD2    N112505   3.785   1.297  14.001 -0.2462 -1.0529 -0.3378
  847MPD2    H712506   3.793   1.281  13.901  1.8011  0.3916 -0.3952
  848MPD2     C12507   1.485   4.500  16.535  0.3881 -0.3912 -0.1465
  848MPD2    C112508   1.530   4.577  16.642  0.5699  1.4317 -0.1694
  848MPD2    C212509   1.566   4.712  16.620 -0.2696 -0.0848  0.1583
  848MPD2    C312510   1.569   0.026  16.491 -0.0085 -0.0818  0.8400
  848MPD2    C412511   1.539   4.674  16.390 -0.1770  0.4348 -0.3116
  848MPD2    C512512   1.491   4.550  16.413  0.4880  0.7950 -0.5512
  848MPD2     H12513   1.591   0.043  16.702  0.2290 -0.8009  0.5950
  848MPD2    H112514   1.527   4.715  16.291  2.1464  1.5395 -0.1355
  848MPD2    H212515   1.464   4.394  16.546  1.8487 -0.8132 -1.5164
  848MPD2    H312516   1.461   4.486  16.332  1.6802  2.8113 -2.5842
  848MPD2     N12517   1.594   0.161  16.446  0.4675  0.4292  0.3717
  848MPD2    H512518   1.603   0.184  16.348 -1.4165 -0.4890 -0.0136
  848MPD2    N112519   1.553   4.513  16.768 -0.5917  0.2406 -0.5154
  848MPD2    H712520   1.621   4.550  16.833 -0.3296  0.8021 -1.1068
  849MPD2     C12521   1.116   4.663  13.741 -0.5626  0.2757 -0.4053
  849MPD2    C112522   1.233   4.581  13.749 -0.3016  0.0637  0.6904
  849MPD2    C212523   1.263   4.519  13.869  0.3829  0.4128 -0.6121
  849MPD2    C312524   1.179   4.533  13.978  0.4384  0.1470 -0.1332
  849MPD2    C412525   1.064   4.605  13.967  0.3941  0.8854  0.2099
  849MPD2    C512526   1.038   4.671  13.849 -0.3944  0.5500  0.1723
  849MPD2     H12527   1.360   4.472  13.885  0.4594  0.6007 -0.5249
  849MPD2    H112528   0.996   4.621  14.050  0.4020 -2.4167  0.8595
  849MPD2    H212529   1.096   4.722  13.652  1.6787  0.5845 -0.6990
  849MPD2    H312530   0.956   0.005  13.856 -1.1593 -0.3092 -0.2363
  849MPD2     N12531   1.213   4.469  14.101  0.0819  0.2958  0.1380
  849MPD2    H512532   1.302   4.420  14.099  0.3092  0.6544  1.6016
  849MPD2    N112533   1.332   4.575  13.649  0.0637  0.2094 -0.1402
  849MPD2    H712534   1.416   4.520  13.658 -1.1711 -1.9509 -1.7632
  850MPD2     C12535   4.105   3.179  15.270  0.5227  0.4746 -0.1312
  850MPD2    C112536   4.115   3.038  15.261 -0.2295 -0.4291  0.1825
  850MPD2    C212537   4.230   2.982  15.215  0.3897 -0.6106 -0.0090
  850MPD2    C312538   4.337   3.053  15.168  0.2126 -0.3574  0.7155
  850MPD2    C412539   4.329   3.187  15.183 -0.3639  0.5412  0.0076
  850MPD2    C512540   4.213   3.251  15.224  0.5875 -0.5864 -0.8271
  850MPD2     H12541   4.243   2.874  15.214 -0.3894 -0.6921 -1.9038
  850MPD2    H112542   4.416   3.250  15.168  0.0906  0.0533  0.6450
  850MPD2    H212543   4.015   3.222  15.311 -0.2432 -0.8243 -0.4444
  850MPD2    H312544   4.220   3.359  15.236 -0.0448 -0.4687 -1.4965
  850MPD2     N12545   4.458   2.996  15.124 -0.1558  0.6053 -0.4621
  850MPD2    H512546   4.532   3.062  15.104  1.5112 -1.1336 -0.0141
  850MPD2    N112547   4.005   2.960  15.313 -0.0414 -1.0035 -0.4848
  850MPD2    H712548   4.030   2.863  15.330  2.6454 -0.5731 -1.9993
  851MPD2     C12549   4.030   2.300  15.734 -0.3467  0.3786  0.3666
  851MPD2    C112550   3.979   2.345  15.613  0.0104 -0.3321 -0.3351
  851MPD2    C212551   3.996   2.256  15.507  0.3262  0.4387 -0.0060
  851MPD2    C312552   4.049   2.130  15.515 -0.2955  0.9770  0.0808
  851MPD2    C412553   4.106   2.093  15.636 -0.0402  0.6499  0.7703
  851MPD2    C512554   4.086   2.175  15.748  0.4265 -0.4619  0.6611
  851MPD2     H12555   3.970   2.280  15.404  2.1138 -1.9068 -0.9987
  851MPD2    H112556   4.144   1.992  15.640 -1.6306  0.0330  0.3610
  851MPD2    H212557   4.010   2.356  15.825  0.9501  0.6320  0.5066
  851MPD2    H312558   4.127   2.129  15.838 -0.3075  1.0339  1.7530
  851MPD2     N12559   4.044   2.057  15.397 -0.3146  0.1313 -0.2661
  851MPD2    H512560   3.980   2.081  15.322 -2.1122 -1.1602  0.8483
  851MPD2    N112561   3.929   2.471  15.597  0.5419  0.1783 -0.7144
  851MPD2    H712562   3.919   2.526  15.681  2.9172  0.8868 -0.8692
  852MPD2     C12563   3.307   0.263  10.073 -0.3641 -0.2921 -0.7684
  852MPD2    C112564   3.358   0.259  10.199  0.0874  0.0120 -1.1467
  852MPD2    C212565   3.447   0.359  10.242 -0.5656 -0.0504 -0.2408
  852MPD2    C312566   3.491   0.458  10.164 -0.1894 -0.2763  0.2713
  852MPD2    C412567   3.435   0.458  10.035 -0.3755  0.0543  0.0081
  852MPD2    C512568   3.343   0.364   9.992  0.3584 -0.0817 -0.1735
  852MPD2     H12569   3.476   0.348  10.346 -0.3958  0.3132 -0.2521
  852MPD2    H112570   3.461   0.536   9.964 -1.0352  2.6542  2.6319
  852MPD2    H212571   3.235   0.192  10.034 -1.4067  0.3668 -0.0353
  852MPD2    H312572   3.300   0.386   9.894  1.1624 -2.3555 -1.0452
  852MPD2     N12573   3.586   0.554  10.210 -0.0883  0.3628 -0.4036
  852MPD2    H512574   3.630   0.538  10.300 -0.6565 -1.7924 -0.4994
  852MPD2    N112575   3.331   0.162  10.297  0.0096 -0.7291  0.4285
  852MPD2    H712576   3.360   0.189  10.390 -0.2250  0.9954  0.0081
  853MPD2     C12577   1.144   0.222  12.193 -0.3638 -0.5184 -0.0745
  853MPD2    C112578   1.013   0.263  12.207  0.3400  0.5712  0.1865
  853MPD2    C212579   0.915   0.240  12.111  0.1879  0.2141 -0.1882
  853MPD2    C312580   0.945   0.169  12.003 -1.3273  1.2861 -0.6096
  853MPD2    C412581   1.082   0.131  11.984  0.0751 -0.2245  0.4322
  853MPD2    C512582   1.181   0.155  12.078  0.1289  0.4743  0.0270
  853MPD2     H12583   0.814   0.276  12.128 -0.3902 -0.4826 -2.1705
  853MPD2    H112584   1.111   0.082  11.892 -0.9764  0.9639 -0.5218
  853MPD2    H212585   1.225   0.232  12.264 -2.2168  0.5582  1.9110
  853MPD2    H312586   1.285   0.128  12.072  0.1376  0.4728  0.1801
  853MPD2     N12587   0.848   0.115  11.915  0.2525 -0.4266 -0.1633
  853MPD2    H512588   0.888   0.054  11.844 -2.0427  0.8365 -2.5343
  853MPD2    N112589   0.984   0.325  12.331  0.4194  0.6677 -0.0853
  853MPD2    H712590   1.065   0.330  12.392  0.4487  1.9054 -0.2333
  854MPD2     C12591   2.684   0.498  13.171 -0.1519 -0.1502 -0.1948
  854MPD2    C112592   2.663   0.409  13.066 -0.9055  0.2619  0.0745
  854MPD2    C212593   2.739   0.297  13.071 -0.3440 -0.1239  0.0766
  854MPD2    C312594   2.827   0.263  13.174 -0.2459 -0.1634  0.0921
  854MPD2    C412595   2.842   0.352  13.273 -0.5248 -0.8699  0.0754
  854MPD2    C512596   2.768   0.470  13.273  0.3008  0.0396 -0.1275
  854MPD2     H12597   2.714   0.215  13.004 -0.6232 -1.3492  1.6950
  854MPD2    H112598   2.907   0.327  13.356 -1.6850 -1.7038  0.7401
  854MPD2    H212599   2.616   0.582  13.177 -1.1443 -1.0411  1.1019
  854MPD2    H312600   2.788   0.545  13.349  1.1241  1.5935 -1.8566
  854MPD2     N12601   2.894   0.137  13.194 -1.0166  0.0750  0.4678
  854MPD2    H512602   2.960   0.121  13.269 -2.6639 -2.0793  1.4609
  854MPD2    N112603   2.571   0.447  12.970  0.2202  0.7207  0.2796
  854MPD2    H712604   2.508   0.527  12.977 -2.3868 -1.2743 -0.2180
  855MPD2     C12605   3.228   4.588  13.929 -0.2301  0.4804  0.2943
  855MPD2    C112606   3.190   4.468  13.871  0.1383 -0.5641  0.0162
  855MPD2    C212607   3.172   4.465  13.732  0.5027 -0.4201  0.0387
  855MPD2    C312608   3.160   4.582  13.659  0.1268  0.0005 -0.8090
  855MPD2    C412609   3.183   4.697  13.728 -0.0238  0.0834  0.9768
  855MPD2    C512610   3.223   4.702  13.860  0.4653  0.6498  0.5972
  855MPD2     H12611   3.159   4.369  13.683  0.8279  0.2937 -1.4313
  855MPD2    H112612   3.176   0.058  13.681 -0.9158 -0.0984  0.7389
  855MPD2    H212613   3.249   4.605  14.034  0.3858  2.2546 -0.1145
  855MPD2    H312614   3.228   0.061  13.912 -1.3690  0.3409  1.3125
  855MPD2     N12615   3.123   4.588  13.524 -0.2671 -0.0898  0.0097
  855MPD2    H512616   3.081   4.675  13.496 -2.5222 -1.3383 -0.4938
  855MPD2    N112617   3.172   4.345  13.946 -0.2008  0.1857 -0.1680
  855MPD2    H712618   3.128   4.268  13.897 -0.2397  0.4518 -0.5434
  856MPD2     C12619   0.254   0.829  13.973 -0.1779 -0.2057 -0.3830
  856MPD2    C112620   0.308   0.950  13.951  0.0993 -0.6770  0.7068
  856MPD2    C212621   0.271   1.008  13.826 -0.7686  0.1641  0.5899
  856MPD2    C312622   0.203   0.947  13.727 -0.5873 -0.1077  0.1577
  856MPD2    C412623   0.150   0.820  13.757  0.6624  0.0536  0.0396
  856MPD2    C512624   0.181   0.761  13.880 -0.4771  0.4012 -0.0254
  856MPD2     H12625   0.299   1.112  13.820 -0.5530  0.0499 -0.3015
  856MPD2    H112626   0.105   0.768  13.674 -0.2290  3.3411 -1.5135
  856MPD2    H212627   0.278   0.772  14.062 -1.3772  1.6223  1.1111
  856MPD2    H312628   0.145   0.662  13.906  1.7181 -0.7779 -1.5095
  856MPD2     N12629   0.179   0.998  13.596  0.0229 -0.4423  0.0885
  856MPD2    H512630   0.107   0.949  13.543 -1.0948  0.3970  0.8292
  856MPD2    N112631   0.386   1.013  14.049  0.4645  0.0529 -0.3471
  856MPD2    H712632   0.414   1.107  14.023  2.2982 -0.0061  1.3656
  857MPD2     C12633   2.119   3.197  12.343 -0.1054  0.1041  0.3515
  857MPD2    C112634   2.214   3.131  12.407 -0.4312  0.4241 -0.0311
  857MPD2    C212635   2.283   3.206  12.506  0.2827  0.1950 -0.1689
  857MPD2    C312636   2.247   3.335  12.541  0.2844  0.2875  0.2435
  857MPD2    C412637   2.151   3.395  12.462  0.1765 -0.4757 -0.1375
  857MPD2    C512638   2.086   3.328  12.363  0.1765 -0.8117 -0.4707
  857MPD2     H12639   2.362   3.164  12.567  0.8158 -1.3045 -1.8902
  857MPD2    H112640   2.120   3.498  12.476 -2.3766 -1.4459  1.4119
  857MPD2    H212641   2.064   3.160  12.257 -1.0344  2.5043 -0.0777
  857MPD2    H312642   2.011   3.371  12.298 -0.8843 -0.1327  1.1926
  857MPD2     N12643   2.319   3.408  12.643  0.7303  0.0590  0.1960
  857MPD2    H512644   2.397   3.355  12.680 -0.0496 -0.6290  0.8527
  857MPD2    N112645   2.245   2.994  12.380  0.5012  0.2119 -0.2155
  857MPD2    H712646   2.178   2.957  12.314  0.9136 -2.4041  0.8441
  858MPD2     C12647   2.515   2.423  16.382  0.2735 -0.1977 -0.6491
  858MPD2    C112648   2.420   2.322  16.361  0.3746 -0.5593 -0.2508
  858MPD2    C212649   2.347   2.283  16.469 -0.5134 -0.0613  0.3196
  858MPD2    C312650   2.369   2.329  16.597  0.5118  0.0502  0.0772
  858MPD2    C412651   2.462   2.430  16.620 -0.1769  0.7869 -0.2165
  858MPD2    C512652   2.534   2.464  16.510 -0.3473  0.2255  0.1122
  858MPD2     H12653   2.269   2.209  16.455 -0.3522 -0.6103  2.3328
  858MPD2    H112654   2.476   2.486  16.711 -1.1910 -1.0190  1.0591
  858MPD2    H212655   2.577   2.479  16.313  1.5487 -1.0147 -0.1775
  858MPD2    H312656   2.599   2.548  16.536  1.3964 -1.7264  2.0414
  858MPD2     N12657   2.303   2.291  16.718 -0.0438  0.6135  0.1636
  858MPD2    H512658   2.326   2.339  16.804 -3.0898 -0.8893  1.8163
  858MPD2    N112659   2.400   2.289  16.225 -0.1611  0.0006  0.3363
  858MPD2    H712660   2.470   2.319  16.158 -0.3282 -3.3879 -1.4051
  859MPD2     C12661   0.684   4.318  15.390  0.7438 -0.0544 -0.4000
  859MPD2    C112662   0.817   4.295  15.403  0.5996  0.8352  0.4192
  859MPD2    C212663   0.860   4.200  15.488  0.2077 -0.3557 -0.0932
  859MPD2    C312664   0.780   4.127  15.577  0.6014  0.0950 -0.0986
  859MPD2    C412665   0.646   4.162  15.574  0.3540 -0.0746  0.7940
  859MPD2    C512666   0.594   4.247  15.477 -0.0658  0.6389  0.6689
  859MPD2     H12667   0.966   4.186  15.508  0.6917  1.1000 -1.6371
  859MPD2    H112668   0.579   4.130  15.653  1.0095  0.4285  1.5534
  859MPD2    H212669   0.644   4.394  15.324 -1.7128 -0.0283  1.0807
  859MPD2    H312670   0.493   4.282  15.462 -0.1991 -1.0689 -2.4983
  859MPD2     N12671   0.829   4.025  15.661 -0.0422  0.3308 -0.4153
  859MPD2    H512672   0.782   3.993  15.745  1.0716  1.9267  0.8087
  859MPD2    N112673   0.924   4.348  15.333  0.0814 -0.1851  0.4028
  859MPD2    H712674   1.018   4.315  15.351  0.5582  1.2476  0.5499
  860MPD2     C12675   3.933   4.546  11.712  0.1922  0.3581  0.4562
  860MPD2    C112676   3.924   4.499  11.839 -0.1909 -0.1017  0.8722
  860MPD2    C212677   3.797   4.470  11.891  0.6965 -0.8750  0.1226
  860MPD2    C312678   3.681   4.496  11.823 -0.1153 -1.1244  0.0648
  860MPD2    C412679   3.697   4.535  11.690 -0.1941  0.6426  0.2100
  860MPD2    C512680   3.819   4.545  11.636  0.2289  0.6948  0.3712
  860MPD2     H12681   3.791   4.445  11.996 -1.5488 -1.4168 -0.1168
  860MPD2    H112682   3.617   4.543  11.617  0.9409 -0.8125 -1.2182
  860MPD2    H212683   4.029   4.571  11.669  1.0578 -2.1839  0.8944
  860MPD2    H312684   3.823   4.573  11.532 -0.9773 -1.8387 -0.3496
  860MPD2     N12685   3.554   4.484  11.885 -0.0119  0.2199 -0.6804
  860MPD2    H512686   3.561   4.458  11.983  0.9404 -0.7947 -1.0074
  860MPD2    N112687   4.035   4.480  11.923 -0.4401  0.5209 -0.1054
  860MPD2    H712688   4.012   4.441  12.014 -0.8953  0.1641 -0.3755
  861MPD2     C12689   2.018   1.978  11.136 -1.0434  0.1297  0.1850
  861MPD2    C112690   2.083   2.103  11.158 -0.2245 -0.1742 -0.9039
  861MPD2    C212691   2.070   2.206  11.060 -0.2667 -0.5803  0.2287
  861MPD2    C312692   1.988   2.188  10.952 -0.7414 -0.4392 -0.1027
  861MPD2    C412693   1.922   2.071  10.945 -0.2507 -0.1653  0.0933
  861MPD2    C512694   1.928   1.965  11.028 -0.5192  0.2744 -0.2520
  861MPD2     H12695   2.122   2.300  11.069  0.5733 -1.4546  4.2840
  861MPD2    H112696   1.857   2.061  10.858  0.5887  2.0386 -0.7833
  861MPD2    H212697   2.022   1.902  11.212  0.8658  0.6292  0.5765
  861MPD2    H312698   1.885   1.873  10.989 -0.9341 -0.4161  1.8354
  861MPD2     N12699   1.968   2.284  10.852  0.2260 -0.5178 -0.1539
  861MPD2    H512700   1.899   2.264  10.779 -1.6297  1.9637  0.9089
  861MPD2    N112701   2.155   2.136  11.271  0.7618  0.1652  0.4131
  861MPD2    H712702   2.199   2.227  11.275 -1.8340  1.5098 -1.5401
  862MPD2     C12703   1.495   2.389  10.330 -0.8887 -0.0319  0.5350
  862MPD2    C112704   1.615   2.325  10.365 -0.7814 -0.5347 -0.2702
  862MPD2    C212705   1.641   2.202  10.319 -0.4885 -0.2617 -0.4408
  862MPD2    C312706   1.558   2.142  10.225  0.3018  0.2632 -0.0696
  862MPD2    C412707   1.441   2.203  10.189  0.3392  0.1679 -0.3140
  862MPD2    C512708   1.407   2.321  10.246 -0.3926  0.0435  0.0360
  862MPD2     H12709   1.730   2.149  10.351 -0.8804  0.7233  2.2557
  862MPD2    H112710   1.377   2.158  10.114 -0.4086  0.4694  0.1463
  862MPD2    H212711   1.448   2.476  10.375  3.3735  1.2376  2.4718
  862MPD2    H312712   1.318   2.377  10.218  0.8733  1.1421 -1.7720
  862MPD2     N12713   1.583   2.016  10.173  0.3235 -0.0072 -0.1061
  862MPD2    H512714   1.526   1.995  10.092 -0.2043 -1.5634  0.6652
  862MPD2    N112715   1.699   2.380  10.465  0.6512  0.3270 -0.0361
  862MPD2    H712716   1.763   2.316  10.510  0.2536 -0.0302  0.0230
  863MPD2     C12717   0.696   1.338  16.091 -0.3061 -1.0595  0.1678
  863MPD2    C112718   0.594   1.292  16.176  0.2640  0.2774 -0.0219
  863MPD2    C212719   0.631   1.260  16.306  0.2661 -0.3777 -0.5808
  863MPD2    C312720   0.768   1.255  16.347  0.2123  0.5761  0.2095
  863MPD2    C412721   0.860   1.294  16.254  0.2078  0.6990 -0.2271
  863MPD2    C512722   0.825   1.331  16.126  0.5329 -0.5968  0.7368
  863MPD2     H12723   0.560   1.234  16.384 -0.1529 -0.5135 -1.0102
  863MPD2    H112724   0.966   1.290  16.275  0.4933  1.4204 -1.5527
  863MPD2    H212725   0.665   1.390  16.001  2.1432  0.1924  0.0403
  863MPD2    H312726   0.913   1.366  16.073  0.6672  0.4072  1.6182
  863MPD2     N12727   0.810   1.212  16.477 -0.6238 -0.2077  0.3601
  863MPD2    H512728   0.911   1.207  16.487 -0.4532 -0.3069 -1.3308
  863MPD2    N112729   0.458   1.306  16.138 -0.3175 -0.2166 -0.1251
  863MPD2    H712730   0.442   1.345  16.046  0.2529  0.1397 -0.0744
  864MPD2     C12731   1.025   2.038  17.000 -0.3364  0.3743  0.4210
  864MPD2    C112732   1.090   1.980  16.895 -0.2222 -0.0747 -0.2585
  864MPD2    C212733   1.174   2.059  16.822 -0.0144 -0.0894  0.2465
  864MPD2    C312734   1.211   2.187  16.849  0.0433  0.4103 -0.3690
  864MPD2    C412735   1.145   2.242  16.959 -0.5081 -0.5783 -0.2743
  864MPD2    C512736   1.053   2.170  17.026  0.3109  0.0793  0.2157
  864MPD2     H12737   1.222   2.014  16.737  0.2230 -0.2333  0.4578
  864MPD2    H112738   1.174   2.339  16.996 -4.0162  0.9528 -1.5030
  864MPD2    H212739   0.956   1.975  17.055 -1.9770  0.4562 -1.5684
  864MPD2    H312740   1.005   2.214  17.113 -1.5487 -0.8407 -0.3346
  864MPD2     N12741   1.293   2.272  16.769  0.7007  0.5417 -0.5832
  864MPD2    H512742   1.312   2.365  16.805  1.6917  0.7090 -1.5651
  864MPD2    N112743   1.062   1.846  16.861  0.5318 -0.4836  0.0610
  864MPD2    H712744   1.012   1.786  16.925 -2.3093  2.2566  0.3932
  865MPD2     C12745   1.489   2.778  16.112 -0.3420 -0.7930  0.4802
  865MPD2    C112746   1.464   2.657  16.174  0.2575  0.0871  0.3253
  865MPD2    C212747   1.454   2.662  16.314  0.1794 -0.7798  0.0632
  865MPD2    C312748   1.482   2.777  16.392 -0.3200 -1.1727  0.3517
  865MPD2    C412749   1.516   2.885  16.321  0.0285  0.5098 -0.3342
  865MPD2    C512750   1.533   2.881  16.188 -0.0367  0.4699 -0.1559
  865MPD2     H12751   1.432   2.568  16.364 -0.9010 -0.6407 -0.1444
  865MPD2    H112752   1.561   2.970  16.371 -1.5837  1.8642 -1.1600
  865MPD2    H212753   1.496   2.781  16.004 -1.0222 -2.2362  0.4013
  865MPD2    H312754   1.574   2.967  16.136 -1.8626  0.9707 -0.7304
  865MPD2     N12755   1.467   2.800  16.532 -0.5008  0.1078 -0.2445
  865MPD2    H512756   1.455   2.898  16.554  0.3209  0.3216 -0.7401
  865MPD2    N112757   1.452   2.546  16.091  0.3470  0.3556 -0.1038
  865MPD2    H712758   1.493   2.552  15.998 -0.9770 -1.2775 -0.7940
  866MPD2     C12759   2.772   2.343  11.551 -0.6003 -0.5784 -0.3410
  866MPD2    C112760   2.807   2.437  11.449  0.3502 -0.1915  0.3073
  866MPD2    C212761   2.721   2.544  11.433 -0.3161  0.5162  0.1962
  866MPD2    C312762   2.601   2.561  11.500 -0.0152  0.1572 -0.1010
  866MPD2    C412763   2.568   2.456  11.592  0.0797 -0.3855 -0.6554
  866MPD2    C512764   2.655   2.356  11.617  0.9677  0.2649 -0.0421
  866MPD2     H12765   2.750   2.615  11.356 -2.0226  1.7972  0.7610
  866MPD2    H112766   2.475   2.460  11.648  0.0187 -3.6804 -0.5189
  866MPD2    H212767   2.827   2.254  11.578  0.2135  0.2454  0.7635
  866MPD2    H312768   2.626   2.285  11.694 -0.1327 -0.1296 -0.8130
  866MPD2     N12769   2.503   2.643  11.455  0.0709 -0.2043  0.5818
  866MPD2    H512770   2.413   2.636  11.503  0.1928  1.9327  1.1603
  866MPD2    N112771   2.916   2.414  11.377 -0.7829  0.0163 -0.8868
  866MPD2    H712772   2.955   2.321  11.381 -1.2020 -0.2232 -2.3287
  867MPD2     C12773   4.426   2.295  16.415  0.2010 -0.3606  0.1051
  867MPD2    C112774   4.474   2.224  16.521  0.3059 -0.0379  0.5657
  867MPD2    C212775   4.513   2.303  16.638 -0.0113 -0.4473  0.2094
  867MPD2    C312776   4.512   2.444  16.637 -0.2568  0.2746  0.1899
  867MPD2    C412777   4.460   2.505  16.529 -0.2209  0.2243 -0.1905
  867MPD2    C512778   4.417   2.433  16.426 -0.2090 -0.1049 -0.6036
  867MPD2     H12779   4.559   2.263  16.727 -2.0661 -1.7611  0.6947
  867MPD2    H112780   4.460   2.613  16.517  3.2039  0.5009  2.3422
  867MPD2    H212781   4.392   2.254  16.321  0.6313 -1.2347  0.3353
  867MPD2    H312782   4.374   2.484  16.340  0.8037  0.2988 -0.8665
  867MPD2     N12783   4.545   2.529  16.745 -0.2843  0.6929  0.3701
  867MPD2    H512784   4.544   2.628  16.722  0.1726  1.2848  2.9554
  867MPD2    N112785   4.473   2.085  16.510 -0.2964  0.6516  0.4092
  867MPD2    H712786   4.442   2.039  16.425  0.4571  1.1733 -0.1502
  868MPD2     C12787   2.194   1.334  12.662  0.2331  0.0797  0.4716
  868MPD2    C112788   2.247   1.323  12.790  0.0805 -0.3809  0.2565
  868MPD2    C212789   2.198   1.398  12.896 -0.2678  0.2998 -0.1361
  868MPD2    C312790   2.087   1.469  12.884 -0.5424  0.0465 -0.2097
  868MPD2    C412791   2.024   1.474  12.760  0.8315 -0.6310  0.2216
  868MPD2    C512792   2.074   1.407  12.653  0.1206 -0.3187  0.3994
  868MPD2     H12793   2.246   1.400  12.993 -0.5848 -2.6622  0.0874
  868MPD2    H112794   1.939   1.537  12.739  1.5451  0.2082 -0.1537
  868MPD2    H212795   2.236   1.276  12.581  0.0684 -0.6800  0.9325
  868MPD2    H312796   2.020   1.413  12.560  1.9641  0.0894 -0.6495
  868MPD2     N12797   2.051   1.545  12.993  0.4018 -0.2900  0.1991
  868MPD2    H512798   2.113   1.553  13.072  1.6891  1.3937 -0.9894
  868MPD2    N112799   2.362   1.239  12.802 -0.6054  0.2099 -0.7461
  868MPD2    H712800   2.392   1.192  12.717 -0.4645  2.7100 -2.0877
  869MPD2     C12801   3.033   3.383  17.735 -0.3814 -0.2672 -0.6660
  869MPD2    C112802   2.980   3.462   0.093 -0.1726  0.0000  0.2668
  869MPD2    C212803   3.064   3.529   0.183 -0.6116 -0.8279  0.4129
  869MPD2    C312804   3.205   3.536   0.156 -0.5981 -0.3313 -0.3884
  869MPD2    C412805   3.249   3.468   0.042  0.2112 -0.2255 -0.0583
  869MPD2    C512806   3.171   3.380  17.725  0.8925  1.2133 -0.1094
  869MPD2     H12807   3.023   3.602   0.251  0.7159  0.2628  0.0431
  869MPD2    H112808   3.353   3.469   0.013  0.6421 -0.1739  1.4822
  869MPD2    H212809   2.975   3.312  17.678 -0.4393 -0.2815 -0.5888
  869MPD2    H312810   3.214   3.323  17.643  1.5729 -0.3834  1.3558
  869MPD2     N12811   3.296   3.636   0.208 -0.8327 -0.8709 -0.7780
  869MPD2    H512812   3.386   3.636   0.161 -0.1055 -2.4417  0.6283
  869MPD2    N112813   2.837   3.462   0.104 -0.0563 -0.2987 -0.0350
  869MPD2    H712814   2.789   3.427   0.021  1.9297 -0.9652 -0.8924
  870MPD2     C12815   2.902   2.635   1.897 -0.0380 -0.1233  0.4791
  870MPD2    C112816   2.947   2.714   1.788  0.0970 -0.0382  0.3978
  870MPD2    C212817   2.852   2.788   1.712 -0.4645  0.2875 -0.3397
  870MPD2    C312818   2.717   2.771   1.735 -0.3375  1.5562  0.0211
  870MPD2    C412819   2.676   2.686   1.833 -0.0202 -0.2181  0.0472
  870MPD2    C512820   2.767   2.629   1.921  0.3629  0.1535 -0.4663
  870MPD2     H12821   2.880   2.844   1.623 -0.0473  2.5091  1.2114
  870MPD2    H112822   2.572   2.661   1.847  0.5076 -2.4930 -0.0627
  870MPD2    H212823   2.973   2.573   1.950  0.6408 -0.1587 -0.4815
  870MPD2    H312824   2.723   2.554   1.987 -0.1728  1.7179  0.9428
  870MPD2     N12825   2.625   2.827   1.644 -0.8237 -0.6658  0.1551
  870MPD2    H512826   2.670   2.874   1.566 -2.4138 -0.7725 -0.8331
  870MPD2    N112827   3.080   2.713   1.753  0.9134  0.3735  0.3869
  870MPD2    H712828   3.133   2.633   1.787 -1.5400 -0.4546  2.1829
  871MPD2     C12829   3.559   2.282  16.284  0.6700  0.2625 -0.3402
  871MPD2    C112830   3.628   2.288  16.406 -0.3859 -0.7384 -0.2012
  871MPD2    C212831   3.726   2.196  16.429  0.3065 -0.4826  0.1893
  871MPD2    C312832   3.760   2.102  16.335 -0.3795 -0.3585 -0.1630
  871MPD2    C412833   3.697   2.108  16.208  0.4952 -1.2288  0.1590
  871MPD2    C512834   3.595   2.195  16.184  0.3537 -0.3890 -0.6072
  871MPD2     H12835   3.780   2.193  16.523 -0.9215  2.0215  0.9579
  871MPD2    H112836   3.720   2.039  16.129 -0.5686 -0.0779 -1.1531
  871MPD2    H212837   3.479   2.353  16.267  0.2040 -0.7451 -2.3836
  871MPD2    H312838   3.537   2.201  16.093 -3.5997 -1.1226  1.8643
  871MPD2     N12839   3.849   1.999  16.375  0.0030  0.4407  0.0577
  871MPD2    H512840   3.877   1.993  16.473  0.5562 -0.9720 -0.1973
  871MPD2    N112841   3.576   2.373  16.504  0.0494 -0.1025 -0.3333
  871MPD2    H712842   3.503   2.438  16.479 -0.1332 -1.6710 -3.8230
  872MPD2     C12843   0.292   0.101  14.189 -0.2336 -0.0024  0.3367
  872MPD2    C112844   0.253   0.202  14.111  0.0558 -0.0382  0.2472
  872MPD2    C212845   0.118   0.210  14.085 -0.4880 -1.0129  0.1489
  872MPD2    C312846   0.034   0.108  14.130 -0.1715  0.8188 -0.4806
  872MPD2    C412847   0.078   0.015  14.207  0.2369 -0.4039  0.6130
  872MPD2    C512848   0.208   0.009  14.245 -0.5737  0.0244  0.7207
  872MPD2     H12849   0.084   0.297  14.030  0.4495  0.5101  1.9768
  872MPD2    H112850   0.014   4.671  14.244  0.4747 -1.5321 -1.4689
  872MPD2    H212851   0.397   0.087  14.213 -0.1867 -2.4618 -1.3765
  872MPD2    H312852   0.249   4.661  14.300  1.5185 -0.1715 -1.1285
  872MPD2     N12853   4.633   0.115  14.113 -0.1400 -0.1452  0.1958
  872MPD2    H512854   4.579   0.047  14.165 -0.3824  0.2939  0.5182
  872MPD2    N112855   0.343   0.295  14.047 -0.0394 -0.0625 -0.9166
  872MPD2    H712856   0.300   0.361  13.983 -1.3429  0.8888  0.9458
  873MPD2     C12857   1.515   4.477   0.330  0.3336  0.3636  0.3000
  873MPD2    C112858   1.429   4.512   0.443 -0.4215  0.4113 -0.8740
  873MPD2    C212859   1.316   4.434   0.452 -0.0514  0.1981  0.0269
  873MPD2    C312860   1.282   4.329   0.366 -0.3897  0.3041 -0.0993
  873MPD2    C412861   1.355   4.301   0.252  0.5826 -0.7947  0.1869
  873MPD2    C512862   1.470   4.376   0.240 -0.1683 -0.3364 -0.0869
  873MPD2     H12863   1.263   4.442   0.546 -1.8811 -0.0938 -1.0001
  873MPD2    H112864   1.336   4.221   0.180 -0.6525 -1.5727  1.3700
  873MPD2    H212865   1.607   4.533   0.318 -0.2015  2.0818  4.3390
  873MPD2    H312866   1.534   4.348   0.157 -1.0648 -0.8771 -0.5950
  873MPD2     N12867   1.173   4.246   0.399 -0.0108  0.0963  0.4844
  873MPD2    H512868   1.162   4.161   0.346 -0.7793  0.4799  0.0398
  873MPD2    N112869   1.462   4.613   0.539  0.1717 -0.3734 -0.2721
  873MPD2    H712870   1.544   4.670   0.521  0.9788 -0.7319  2.3058
  874MPD2     C12871   0.960   0.111  16.256 -0.0442  0.2218 -0.2439
  874MPD2    C112872   1.043   0.096  16.364 -0.3318 -0.2198  0.6019
  874MPD2    C212873   1.151   0.176  16.365  0.1720  0.4921  0.6282
  874MPD2    C312874   1.181   0.273  16.274  0.1424  0.7767 -0.8887
  874MPD2    C412875   1.092   0.293  16.171 -0.0274 -0.6330 -0.0751
  874MPD2    C512876   0.982   0.214  16.160 -0.2502 -0.0982  0.2250
  874MPD2     H12877   1.213   0.162  16.453  1.4174  2.5316  0.0652
  874MPD2    H112878   1.107   0.364  16.090  1.8123 -0.7591  0.1485
  874MPD2    H212879   0.883   0.040  16.229  1.0458 -0.3728 -1.7763
  874MPD2    H312880   0.927   0.222  16.067 -0.2764  2.0036  0.4200
  874MPD2     N12881   1.291   0.355  16.298 -0.5367 -0.4216 -1.0901
  874MPD2    H512882   1.327   0.347  16.392 -0.6075 -1.4994 -1.1588
  874MPD2    N112883   1.020   4.736  16.463 -0.6231 -0.5401 -0.1817
  874MPD2    H712884   0.942   4.671  16.452 -0.4920 -0.7928  0.3813
  875MPD2     C12885   1.944   3.069  14.601  0.5815 -0.2577 -0.0706
  875MPD2    C112886   2.019   3.164  14.541  0.0768 -0.7279 -0.2212
  875MPD2    C212887   2.089   3.255  14.619  0.1606 -0.3972  0.0658
  875MPD2    C312888   2.062   3.253  14.758 -0.5403  0.1516 -0.3956
  875MPD2    C412889   1.994   3.149  14.816 -0.4555  0.1018  0.2716
  875MPD2    C512890   1.949   3.056  14.738  0.6925 -0.2911 -0.6514
  875MPD2     H12891   2.157   3.326  14.571  0.6669 -0.6691  0.3794
  875MPD2    H112892   1.965   3.150  14.920 -0.3211  1.0532  0.3022
  875MPD2    H212893   1.880   2.994  14.556  0.8104 -0.5738  0.1294
  875MPD2    H312894   1.873   2.990  14.777 -0.1838  1.7136  1.0332
  875MPD2     N12895   2.103   3.356  14.845 -0.3609  0.2088 -0.6758
  875MPD2    H512896   2.075   3.361  14.942 -0.5874  0.3256 -0.7466
  875MPD2    N112897   2.026   3.174  14.396  0.1841  0.1733 -0.4490
  875MPD2    H712898   2.090   3.247  14.364  2.1114 -1.6568 -0.8073
  876MPD2     C12899   1.055   4.482  16.177 -0.6727  0.6299 -0.2076
  876MPD2    C112900   1.191   4.487  16.145  0.1298 -0.6792 -1.0573
  876MPD2    C212901   1.265   4.389  16.198 -0.2027  0.5454 -0.1785
  876MPD2    C312902   1.223   4.290  16.283 -0.0287  0.5974 -0.3024
  876MPD2    C412903   1.090   4.287  16.313 -0.6539 -0.4233 -0.1113
  876MPD2    C512904   1.008   4.380  16.256  0.1236  0.0366  0.4222
  876MPD2     H12905   1.370   4.392  16.172  0.2155  1.4948  1.6738
  876MPD2    H112906   1.046   4.212  16.378 -0.4677 -0.2136  0.2569
  876MPD2    H212907   0.990   4.560  16.140  1.3410  2.2757 -0.2851
  876MPD2    H312908   0.900   4.373  16.268  0.1001  2.3512  1.6267
  876MPD2     N12909   1.319   4.189  16.319  0.1918 -0.1089 -0.0805
  876MPD2    H512910   1.408   4.183  16.270 -0.6145 -0.7658 -1.4399
  876MPD2    N112911   1.238   4.608  16.069  0.1222  0.2363 -0.2923
  876MPD2    H712912   1.169   4.662  16.018  2.5931  1.5502 -2.2104
  877MPD2     C12913   1.074   0.130  15.482 -0.1347 -0.3788  0.1024
  877MPD2    C112914   1.201   0.173  15.504  0.3246 -0.3264  0.9380
  877MPD2    C212915   1.271   0.212  15.393  0.0685  0.2482 -0.2755
  877MPD2    C312916   1.224   0.211  15.265  0.1506 -0.4927 -0.9352
  877MPD2    C412917   1.101   0.162  15.247 -1.1281 -0.3703  0.2220
  877MPD2    C512918   1.026   0.118  15.355  0.5627 -0.4647  0.1320
  877MPD2     H12919   1.374   0.242  15.405  0.6169 -1.6296 -0.2854
  877MPD2    H112920   1.053   0.169  15.150 -1.2617  1.6432  0.4359
  877MPD2    H212921   1.007   0.106  15.564 -1.8717  0.2941 -1.1043
  877MPD2    H312922   0.926   0.077  15.345  0.0209  1.2707 -1.6156
  877MPD2     N12923   1.298   0.256  15.153  0.2269  0.5692  0.1496
  877MPD2    H512924   1.257   0.221  15.067 -0.3727 -2.2943  1.5920
  877MPD2    N112925   1.269   0.204  15.626  0.5793  0.3460 -1.2538
  877MPD2    H712926   1.366   0.234  15.617  0.6705  0.0187 -1.3777
  878MPD2     C12927   1.554   4.214  12.803  0.6302 -0.5888  0.1259
  878MPD2    C112928   1.512   4.342  12.812 -0.0250 -0.1971  0.1073
  878MPD2    C212929   1.498   4.396  12.939  0.8074 -0.3801  0.1862
  878MPD2    C312930   1.535   4.331  13.055  0.2972  0.1693  0.3634
  878MPD2    C412931   1.577   4.196  13.042 -0.1581  0.4821  0.1374
  878MPD2    C512932   1.590   4.141  12.916  0.7502  0.4102 -0.4392
  878MPD2     H12933   1.464   4.498  12.948 -0.2185 -0.4904 -2.2272
  878MPD2    H112934   1.624   4.146  13.126  2.0071  1.0162 -0.7636
  878MPD2    H212935   1.561   4.166  12.706 -1.5963 -1.3277  0.3309
  878MPD2    H312936   1.638   4.044  12.908  1.4728  0.5985  1.5704
  878MPD2     N12937   1.525   4.400  13.173 -0.1815  0.5216 -0.4686
  878MPD2    H512938   1.489   4.495  13.175  1.5270  1.1453  0.7548
  878MPD2    N112939   1.484   4.408  12.687  0.3062  0.0596  0.6993
  878MPD2    H712940   1.498   4.352  12.603  2.3313  3.6930 -1.3914
  879MPD2     C12941   1.281   0.181  17.441 -0.5893 -0.3568  0.4820
  879MPD2    C112942   1.286   0.278  17.345  0.5739  0.0034 -0.1792
  879MPD2    C212943   1.208   0.266  17.231 -0.0529  0.2129 -0.2132
  879MPD2    C312944   1.129   0.157  17.217  0.5455 -0.1711  0.6314
  879MPD2    C412945   1.120   0.060  17.314 -0.0567 -0.1555  0.2040
  879MPD2    C512946   1.191   0.080  17.427 -0.4234  0.0410 -0.1851
  879MPD2     H12947   1.212   0.336  17.149  1.7930  0.6204  0.2179
  879MPD2    H112948   1.069   4.701  17.309 -1.8517  0.7598  1.1932
  879MPD2    H212949   1.349   0.185  17.525  0.2674  2.2041 -0.3193
  879MPD2    H312950   1.190   4.732  17.496  1.4656  0.6721  0.6151
  879MPD2     N12951   1.042   0.132  17.106  0.1357  0.2706  0.2914
  879MPD2    H512952   0.965   0.065  17.113 -0.7226  1.2301  0.0006
  879MPD2    N112953   1.371   0.387  17.356 -0.4941 -0.6903 -0.1226
  879MPD2    H712954   1.423   0.394  17.443  1.8386  0.8524 -1.6188
  880MPD2     C12955   2.893   2.323   0.011  0.6193 -0.6081  0.1960
  880MPD2    C112956   2.806   2.313   0.118  0.1503 -0.7647  0.1950
  880MPD2    C212957   2.767   2.195   0.178  0.0911 -0.0185 -0.3806
  880MPD2    C312958   2.796   2.078   0.115 -0.3186 -0.0344 -0.4007
  880MPD2    C412959   2.889   2.086   0.017 -0.1232  0.2131 -0.2464
  880MPD2    C512960   2.939   2.201  17.709  0.1299  0.5520 -0.1937
  880MPD2     H12961   2.695   2.191   0.260  0.6884  0.7147  0.1837
  880MPD2    H112962   2.928   1.999  17.710 -1.3655 -0.9863  0.8326
  880MPD2    H212963   2.920   2.414  17.703  0.7888 -0.7329  0.0656
  880MPD2    H312964   3.012   2.198  17.629  0.2024  1.6437 -0.1579
  880MPD2     N12965   2.738   1.959   0.160  0.5024 -0.4323 -0.0288
  880MPD2    H512966   2.696   1.962   0.252 -0.1934  1.7294 -0.4204
  880MPD2    N112967   2.756   2.435   0.169 -0.5318  0.0986 -0.2276
  880MPD2    H712968   2.787   2.521   0.126  1.3777 -0.4182  0.1328
  881MPD2     C12969   2.549   3.284  17.560 -0.4532  0.0992 -0.4938
  881MPD2    C112970   2.655   3.197  17.558  0.5997 -0.5005 -0.9624
  881MPD2    C212971   2.667   3.104  17.660 -0.4141 -0.4090  0.0021
  881MPD2    C312972   2.593   3.123   0.036  0.6959 -0.3406  0.4456
  881MPD2    C412973   2.502   3.224   0.044 -0.0556 -0.2611  0.4547
  881MPD2    C512974   2.478   3.305  17.678  0.6136  0.6336 -0.2176
  881MPD2     H12975   2.728   3.015  17.652  1.2609  0.7791 -0.4580
  881MPD2    H112976   2.446   3.244   0.135  0.4526  0.8483  0.5165
  881MPD2    H212977   2.531   3.366  17.491  0.0132  0.1166 -0.5980
  881MPD2    H312978   2.409   3.388  17.680  1.6582  1.4776  0.6244
  881MPD2     N12979   2.600   3.034   0.143 -0.3981 -0.2638 -0.3879
  881MPD2    H512980   2.538   3.035   0.223 -0.5462  0.1040 -0.5083
  881MPD2    N112981   2.716   3.172  17.427  0.2544  0.1550 -0.4439
  881MPD2    H712982   2.687   3.238  17.355 -0.8595  2.7682  2.3852
  882MPD2     C12983   1.428   0.245  14.376 -0.4137 -0.0308  0.1466
  882MPD2    C112984   1.342   0.263  14.485 -0.2050 -0.1753  0.0909
  882MPD2    C212985   1.222   0.202  14.488  0.1168  0.4559 -0.6949
  882MPD2    C312986   1.178   0.121  14.386 -0.3442 -0.8183 -1.0344
  882MPD2    C412987   1.255   0.115  14.270  0.3356  0.4906  0.0470
  882MPD2    C512988   1.385   0.169  14.273  0.5423  0.6333 -0.1656
  882MPD2     H12989   1.169   0.213  14.582  1.2468 -2.9281  0.3535
  882MPD2    H112990   1.227   0.052  14.187  1.8646 -0.7181  0.4471
  882MPD2    H212991   1.524   0.295  14.376 -0.2951 -0.2455  1.4190
  882MPD2    H312992   1.454   0.144  14.193  0.9293 -0.1256  0.3984
  882MPD2     N12993   1.047   0.058  14.395 -0.1405 -0.3616 -0.7471
  882MPD2    H512994   1.000   0.018  14.314  1.0340  0.8155 -1.9907
  882MPD2    N112995   1.390   0.341  14.595  0.0359  0.3770 -0.3023
  882MPD2    H712996   1.492   0.345  14.601 -0.0683  0.9328  1.1323
  883MPD2     C12997   2.691   4.605  15.612 -0.0184  0.2201 -0.3181
  883MPD2    C112998   2.799   4.669  15.562 -0.3940  0.6240  0.0619
  883MPD2    C212999   2.908   4.694  15.641  0.1743  0.1995 -0.5625
  883MPD2    C313000   2.907   4.663  15.777  0.0465 -0.4038  0.8766
  883MPD2    C413001   2.808   4.584  15.823  0.0412 -0.5764  1.0935
  883MPD2    C513002   2.695   4.562  15.747 -0.7006  0.5657  0.3034
  883MPD2     H13003   2.988   0.020  15.603  0.3232  1.1791  1.3608
  883MPD2    H113004   2.820   4.544  15.923  3.7675 -0.4826  0.6532
  883MPD2    H213005   2.603   4.581  15.554  0.2815  0.7032 -0.9639
  883MPD2    H313006   2.609   4.512  15.790 -1.3895  0.4307 -1.2360
  883MPD2     N13007   3.021   4.709  15.853 -0.2331  0.1904 -0.1978
  883MPD2    H513008   3.089   0.026  15.800  2.3423 -1.4785  1.4763
  883MPD2    N113009   2.805   4.713  15.427  0.1123 -0.1284  0.5180
  883MPD2    H713010   2.885   0.029  15.391  1.5338 -1.3783  1.8602
  884MPD2     C13011   0.526   0.762  14.992  0.0069  0.6766  0.2738
  884MPD2    C113012   0.582   0.876  14.944 -1.2006 -0.4848  0.0470
  884MPD2    C213013   0.500   0.985  14.908 -0.0408  0.0613  0.5833
  884MPD2    C313014   0.368   0.980  14.944  0.3288 -0.5867  0.1732
  884MPD2    C413015   0.311   0.866  15.000  0.1493  0.3584 -0.2650
  884MPD2    C513016   0.391   0.755  15.014 -0.3353  0.5633 -0.4579
  884MPD2     H13017   0.553   1.075  14.880  0.4769 -0.2868  0.4445
  884MPD2    H113018   0.210   0.858  15.036  0.3771  0.1975  0.3433
  884MPD2    H213019   0.585   0.675  15.018 -1.8394  0.1380  2.6646
  884MPD2    H313020   0.351   0.660  15.048 -0.0695  0.1652 -1.2542
  884MPD2     N13021   0.289   1.093  14.923  0.2019  0.7630 -0.2910
  884MPD2    H513022   0.316   1.168  14.861  1.6742  0.9394  0.5741
  884MPD2    N113023   0.726   0.882  14.928  0.0818  0.0559 -0.5925
  884MPD2    H713024   0.762   0.977  14.926 -2.3980  1.0944  3.8669
  885MPD2     C13025   2.988   1.088  17.458  0.6766 -0.0631 -0.4172
  885MPD2    C113026   3.106   1.056  17.395 -0.7867  0.2110 -0.6634
  885MPD2    C213027   3.126   1.085  17.259  0.8755  0.1025  0.4706
  885MPD2    C313028   3.040   1.174  17.197  0.2054  0.7255  0.2658
  885MPD2    C413029   2.922   1.207  17.264  0.5324 -0.0213 -0.3776
  885MPD2    C513030   2.899   1.166  17.392  0.2110  0.2876 -0.7616
  885MPD2     H13031   3.214   1.056  17.203  0.4419  1.3593 -0.8713
  885MPD2    H113032   2.849   1.270  17.214 -0.2159 -1.1832 -0.7319
  885MPD2    H213033   2.958   1.066  17.560 -0.2098  2.0016 -0.2410
  885MPD2    H313034   2.801   1.178  17.435 -0.1028 -0.9205 -1.1256
  885MPD2     N13035   3.081   1.234  17.077  0.2868 -0.0345  0.0299
  885MPD2    H513036   3.161   1.190  17.031  2.0794  3.2346  0.0458
  885MPD2    N113037   3.206   0.993  17.474  0.0651  0.1247  0.7074
  885MPD2    H713038   3.180   0.968  17.569 -1.5249  0.9657  0.4958
  886MPD2     C13039   4.703   4.221  15.269 -1.0479  0.2710 -0.5314
  886MPD2    C113040   0.073   4.304  15.304  0.6167 -0.8984 -0.4610
  886MPD2    C213041   0.093   4.427  15.247  0.1821  0.2731  0.1920
  886MPD2    C313042   0.015   4.461  15.137 -0.5015  0.5218 -0.4660
  886MPD2    C413043   4.641   4.379  15.107  0.0615  0.4862 -0.2061
  886MPD2    C513044   4.613   4.263  15.170 -0.2909  0.8749 -0.1904
  886MPD2     H13045   0.183   4.471  15.287  0.1781  0.3466  0.1190
  886MPD2    H113046   4.575   4.403  15.024 -0.9296 -1.0725  0.1398
  886MPD2    H213047   4.669   4.133  15.321 -3.6956  1.1137 -0.8445
  886MPD2    H313048   4.527   4.201  15.145  0.4389 -0.6555  1.0889
  886MPD2     N13049   0.059   4.576  15.070  0.0587  0.2894 -0.0697
  886MPD2    H513050   0.136   4.628  15.112 -0.0071 -1.1979  1.8798
  886MPD2    N113051   0.155   4.254  15.409 -0.3194 -0.0696  0.5276
  886MPD2    H713052   0.218   4.316  15.460 -0.3744 -0.9511  1.6789
  887MPD2     C13053   0.485   4.379  16.032  0.0269 -0.0335 -0.0348
  887MPD2    C113054   0.463   4.386  15.893 -0.0670  1.0453  0.1863
  887MPD2    C213055   0.536   4.479  15.823 -0.1313 -0.0254  0.1675
  887MPD2    C313056   0.608   4.578  15.880  0.7312  0.3187  0.8875
  887MPD2    C413057   0.628   4.575  16.018  0.3468 -0.1719 -0.7170
  887MPD2    C513058   0.561   4.480  16.094 -0.2579  0.0123 -0.2285
  887MPD2     H13059   0.532   4.484  15.715  1.7668 -0.6072  0.0685
  887MPD2    H113060   0.692   4.642  16.074  1.1243 -2.0248  0.6060
  887MPD2    H213061   0.433   4.314  16.102 -2.3615 -1.5953 -3.2364
  887MPD2    H313062   0.565   4.471  16.202  0.0187 -3.2010 -0.4925
  887MPD2     N13063   0.659   4.686  15.801  0.6513  0.7082  0.4557
  887MPD2    H513064   0.645   4.683  15.701  0.5665  1.5202  0.4483
  887MPD2    N113065   0.386   4.297  15.816 -0.0789 -0.6519 -0.1974
  887MPD2    H713066   0.377   4.304  15.716 -1.4368  3.1821  0.1883
  888MPD2     C13067   2.215   4.413  14.800 -1.0249  0.2019  0.0149
  888MPD2    C113068   2.188   4.426  14.933 -0.0708  0.4057  0.1635
  888MPD2    C213069   2.223   4.539  14.997  0.0926 -0.0861 -0.8863
  888MPD2    C313070   2.282   4.645  14.937 -0.2615  0.6577 -0.8954
  888MPD2    C413071   2.305   4.634  14.802 -0.1268  0.0854  0.9326
  888MPD2    C513072   2.266   4.519  14.731  0.3964  0.2485  0.2077
  888MPD2     H13073   2.211   4.553  15.104  0.5366 -0.4371 -0.7905
  888MPD2    H113074   2.352   4.717  14.751 -1.3674 -0.0642 -0.4503
  888MPD2    H213075   2.190   4.322  14.747 -2.1433 -0.6991  2.0933
  888MPD2    H313076   2.278   4.509  14.624 -2.3578  0.7859 -0.1403
  888MPD2     N13077   2.328   0.019  15.023 -0.9857  0.6322  0.7130
  888MPD2    H513078   2.302   0.024  15.121 -1.6950 -0.7482  0.5946
  888MPD2    N113079   2.139   4.318  15.013 -0.2771 -0.3596 -0.1801
  888MPD2    H713080   2.140   4.328  15.114  0.2364 -1.8028 -0.0496
  889MPD2     C13081   2.448   4.196  12.697 -0.8199  0.3297 -0.5211
  889MPD2    C113082   2.452   4.129  12.817 -0.3868 -0.9498  0.3099
  889MPD2    C213083   2.416   4.191  12.934 -0.0456 -0.2535 -0.2711
  889MPD2    C313084   2.386   4.323  12.934  1.0144  0.0643  0.0034
  889MPD2    C413085   2.391   4.397  12.821  0.7719  0.1725 -0.2967
  889MPD2    C513086   2.420   4.334  12.701  0.0497 -0.2489 -0.3387
  889MPD2     H13087   2.414   4.139  13.028 -0.1858  0.1808 -0.0332
  889MPD2    H113088   2.369   4.501  12.799  0.4598  0.0700 -0.4657
  889MPD2    H213089   2.482   4.147  12.607  0.4292  0.1986  0.0195
  889MPD2    H313090   2.427   4.385  12.606 -0.8344 -0.8967 -0.7454
  889MPD2     N13091   2.329   4.387  13.051  0.7096  0.1122 -0.0607
  889MPD2    H513092   2.318   4.331  13.135 -0.7115  0.8430  0.2376
  889MPD2    N113093   2.455   3.986  12.817 -0.1546  0.3280 -0.0428
  889MPD2    H713094   2.442   3.937  12.729  1.2258 -1.0109  0.5096
  890MPD2     C13095   1.211   0.970  14.297  0.3538  0.0942  0.1266
  890MPD2    C113096   1.328   1.022  14.337  0.4372 -1.0695  0.3753
  890MPD2    C213097   1.364   0.991  14.468 -0.1677  0.7787  0.1783
  890MPD2    C313098   1.297   0.895  14.546  0.1169 -0.0277  0.1654
  890MPD2    C413099   1.177   0.844  14.507  0.2361 -0.5510  0.0309
  890MPD2    C513100   1.137   0.878  14.374  0.7391 -0.3731  0.2626
  890MPD2     H13101   1.457   1.023  14.514 -0.1031  1.7103 -0.6022
  890MPD2    H113102   1.115   0.778  14.567  0.9146 -0.9958  0.2417
  890MPD2    H213103   1.168   1.011  14.207  2.1578 -1.3690 -1.3836
  890MPD2    H313104   1.046   0.838  14.332 -0.4601  0.0137  2.4767
  890MPD2     N13105   1.364   0.857  14.663 -0.2304  0.7610  0.4351
  890MPD2    H513106   1.448   0.910  14.681  0.8352 -0.6932 -0.2155
  890MPD2    N113107   1.398   1.098  14.238  0.7008  0.1395 -0.2421
  890MPD2    H713108   1.345   1.130  14.157 -0.1874  2.3227  1.2055
  891MPD2     C13109   3.926   3.772  16.712 -0.2099 -0.7648  0.4655
  891MPD2    C113110   3.975   3.884  16.651  1.0681 -0.0639 -0.2443
  891MPD2    C213111   4.107   3.924  16.670  0.3461  0.9078  0.1470
  891MPD2    C313112   4.199   3.862  16.756  0.0223 -0.3393  0.0857
  891MPD2    C413113   4.147   3.750  16.821 -0.7018 -0.0218 -0.7901
  891MPD2    C513114   4.017   3.702  16.792  0.3104 -0.5518 -0.1492
  891MPD2     H13115   4.138   4.016  16.621  3.0430 -0.0659 -0.0001
  891MPD2    H113116   4.207   3.689  16.889  0.3889  1.7377 -0.1639
  891MPD2    H213117   3.822   3.743  16.708  0.1422 -2.1939  1.6161
  891MPD2    H313118   3.989   3.606  16.835 -0.4926 -0.0261  0.5100
  891MPD2     N13119   4.324   3.926  16.778 -0.2656 -0.2617 -0.8059
  891MPD2    H513120   4.339   4.016  16.733  0.9647 -0.4176 -0.6982
  891MPD2    N113121   3.879   3.969  16.585  0.3619 -0.5199  0.7496
  891MPD2    H713122   3.782   3.938  16.581  0.6531 -1.6287  2.3829
  892MPD2     C13123   0.605   0.699  14.553 -1.3074  0.0312 -0.7854
  892MPD2    C113124   0.496   0.623  14.558 -0.5640  0.8422  0.3068
  892MPD2    C213125   0.505   0.487  14.548  0.1896  1.3210  0.0768
  892MPD2    C313126   0.629   0.427  14.512 -0.3343  0.1270 -0.1032
  892MPD2    C413127   0.740   0.509  14.510  0.2896 -0.3544  0.3311
  892MPD2    C513128   0.724   0.646  14.532  0.0500 -0.2795 -1.0164
  892MPD2     H13129   0.424   0.419  14.574 -0.8414  2.3838 -0.3440
  892MPD2    H113130   0.843   0.475  14.501  0.0259 -0.8138 -1.0745
  892MPD2    H213131   0.605   0.802  14.587  0.3115 -0.0860 -0.3896
  892MPD2    H313132   0.808   0.714  14.538  1.0983 -1.4529 -2.2229
  892MPD2     N13133   0.646   0.287  14.484  0.8731 -0.1491  0.2234
  892MPD2    H513134   0.739   0.251  14.465 -0.0984 -1.8881 -1.2668
  892MPD2    N113135   0.371   0.672  14.593  0.0439 -0.2696  0.4072
  892MPD2    H713136   0.292   0.613  14.617  0.5233 -1.6136 -1.2785
  893MPD2     C13137   1.488   3.429   1.520 -0.0389  0.9936  1.0757
  893MPD2    C113138   1.521   3.441   1.390 -0.3902 -0.1054  0.0012
  893MPD2    C213139   1.425   3.410   1.293 -0.5322 -0.5504 -0.3700
  893MPD2    C313140   1.299   3.359   1.329  0.3791  0.0234  0.4109
  893MPD2    C413141   1.270   3.344   1.466 -0.2441 -0.3568  0.1406
  893MPD2    C513142   1.364   3.386   1.561  0.2991  0.0704  0.2505
  893MPD2     H13143   1.452   3.429   1.190 -2.3398  2.1203 -0.3335
  893MPD2    H113144   1.172   3.315   1.501 -0.6308 -1.2009 -1.6238
  893MPD2    H213145   1.557   3.463   1.596  1.1294 -0.0622  0.4927
  893MPD2    H313146   1.338   3.371   1.666  3.0370 -0.6598  0.8137
  893MPD2     N13147   1.195   3.324   1.240 -0.0217 -0.0110 -0.6417
  893MPD2    H513148   1.114   3.275   1.276  1.6696 -0.2904  2.7549
  893MPD2    N113149   1.650   3.483   1.357  0.6076 -0.0370  0.5353
  893MPD2    H713150   1.717   3.496   1.432  2.6252 -2.2761 -0.8575
  894MPD2     C13151   0.146   0.631   0.735  0.5334 -0.3651 -0.3893
  894MPD2    C113152   0.058   0.720   0.804 -0.2260  0.5122 -0.7412
  894MPD2    C213153   0.093   0.857   0.796 -0.2468 -0.0605  0.5860
  894MPD2    C313154   0.208   0.906   0.737 -0.4381  0.3819  0.0969
  894MPD2    C413155   0.288   0.817   0.676 -0.3065  0.2405 -0.7163
  894MPD2    C513156   0.258   0.688   0.680  0.6940 -0.7635 -0.2694
  894MPD2     H13157   0.031   0.931   0.845  0.2943  1.2381 -0.7016
  894MPD2    H113158   0.377   0.848   0.622 -0.0123 -1.2670 -1.0934
  894MPD2    H213159   0.133   0.523   0.737 -1.5758 -0.0961  0.9493
  894MPD2    H313160   0.336   0.620   0.648 -0.0947 -2.4255  1.3493
  894MPD2     N13161   0.235   1.043   0.744 -0.0345  0.4560 -0.1900
  894MPD2    H513162   0.173   1.100   0.801  0.6531  0.8734  0.1423
  894MPD2    N113163   4.672   0.678   0.856  0.4328  0.5984 -0.3068
  894MPD2    H713164   4.611   0.747   0.898  0.8526  2.0572 -2.1262
  895MPD2     C13165   4.531   4.547  13.901 -0.2665 -0.5833 -0.2056
  895MPD2    C113166   4.455   4.441  13.865 -0.2730  0.3083  0.2001
  895MPD2    C213167   4.509   4.318  13.849 -0.2061 -0.2732  0.2394
  895MPD2    C313168   4.647   4.303  13.857  0.1590 -0.3205  0.3688
  895MPD2    C413169   4.730   4.413  13.885  0.1667  0.3269 -0.4541
  895MPD2    C513170   4.673   4.535  13.907  0.5817  0.8261  0.0717
  895MPD2     H13171   4.448   4.237  13.810  0.9398 -0.3000 -1.5420
  895MPD2    H113172   0.102   4.407  13.891  0.1129 -0.2398 -0.0633
  895MPD2    H213173   4.493   4.646  13.924 -1.6960 -1.3284  0.6097
  895MPD2    H313174   0.001   4.617  13.937  2.4469 -0.9592  1.0263
  895MPD2     N13175   4.716   4.190  13.819 -0.8857  0.7885 -0.0518
  895MPD2    H513176   0.081   4.196  13.815 -0.8863  0.3126 -1.0144
  895MPD2    N113177   4.314   4.456  13.841  0.7933  0.3561  0.1040
  895MPD2    H713178   4.266   4.373  13.810  0.8223 -0.2204  1.5846
  896MPD2     C13179   2.629   1.481   1.445 -0.5884 -0.4314 -0.2299
  896MPD2    C113180   2.566   1.534   1.335  0.2066  0.1269  0.5138
  896MPD2    C213181   2.429   1.519   1.325  0.4169 -0.2941 -0.1981
  896MPD2    C313182   2.364   1.438   1.414 -0.2141 -0.1870  0.3184
  896MPD2    C413183   2.431   1.368   1.512  0.0085 -0.1980 -0.3935
  896MPD2    C513184   2.564   1.401   1.533  0.7676  0.0047  0.3850
  896MPD2     H13185   2.366   1.559   1.246  2.2485  1.2972 -0.8610
  896MPD2    H113186   2.385   1.296   1.578 -4.0311  0.6840 -2.2994
  896MPD2    H213187   2.736   1.497   1.453 -0.3081 -1.7540 -1.3602
  896MPD2    H313188   2.618   1.359   1.618  0.3674 -2.5914 -0.6442
  896MPD2     N13189   2.229   1.409   1.392  0.4950 -0.9139  0.0943
  896MPD2    H513190   2.178   1.449   1.314  0.1748 -2.0523 -0.2734
  896MPD2    N113191   2.637   1.630   1.257  0.3119 -0.1777 -0.0933
  896MPD2    H713192   2.725   1.650   1.303  1.1546 -2.3743 -0.7424
  897MPD2     C13193   2.939   3.111  10.723  0.3267 -1.2274 -0.4956
  897MPD2    C113194   2.956   3.238  10.768  0.8005  0.7057 -0.1429
  897MPD2    C213195   2.876   3.280  10.876  0.0148  0.6280  0.5516
  897MPD2    C313196   2.784   3.192  10.928 -0.1982 -0.4759 -0.3701
  897MPD2    C413197   2.756   3.066  10.874 -0.4392  0.9328  0.5696
  897MPD2    C513198   2.845   3.027  10.775 -0.0133  0.5058  0.3103
  897MPD2     H13199   2.908   3.364  10.936 -0.4901 -0.4574  2.3449
  897MPD2    H113200   2.688   2.994  10.919  0.5244 -0.8856 -0.9162
  897MPD2    H213201   3.000   3.069  10.644 -1.8395 -2.6480 -1.3827
  897MPD2    H313202   2.843   2.926  10.735  1.5288  0.6803 -0.2479
  897MPD2     N13203   2.715   3.237  11.045  0.4238  0.3168  0.2312
  897MPD2    H513204   2.733   3.332  11.074 -1.1773  0.3298  1.2151
  897MPD2    N113205   3.056   3.323  10.714  0.2078  0.3673 -0.0219
  897MPD2    H713206   3.123   3.277  10.653  0.2124 -1.6848  1.5023
  898MPD2     C13207   0.496   0.177  17.623 -0.0735  0.0563  0.7120
  898MPD2    C113208   0.372   0.220  17.678 -0.1209 -0.2590  0.3063
  898MPD2    C213209   0.291   0.301  17.598  0.6401  0.0288  0.0935
  898MPD2    C313210   0.338   0.331  17.466  0.7000 -0.4381 -0.5672
  898MPD2    C413211   0.466   0.292  17.421  0.4814 -0.8436 -0.3029
  898MPD2    C513212   0.542   0.220  17.502 -0.0743  0.3175 -0.8646
  898MPD2     H13213   0.195   0.341  17.628  0.7247 -0.7171  1.3473
  898MPD2    H113214   0.509   0.306  17.322 -0.9760  1.5023 -0.6168
  898MPD2    H213215   0.563   0.122  17.689 -0.0132 -0.6677  0.0456
  898MPD2    H313216   0.639   0.184  17.471  0.1231 -0.9398  1.2081
  898MPD2     N13217   0.257   0.415  17.384  1.2006 -0.2511 -0.3248
  898MPD2    H513218   0.180   0.460  17.433  0.3382 -0.0544 -1.8797
  898MPD2    N113219   0.314   0.176   0.058 -0.0614 -0.1509 -0.8711
  898MPD2    H713220   0.223   0.219   0.072 -0.0956 -0.2828 -0.6873
  899MPD2     C13221   0.886   0.578  17.073  0.5539  0.5007  0.4531
  899MPD2    C113222   0.804   0.685  17.077 -0.0219 -0.5583 -0.1620
  899MPD2    C213223   0.702   0.690  17.177 -0.2334 -0.0753  0.5018
  899MPD2    C313224   0.684   0.592  17.273 -0.0114 -0.3859 -1.1830
  899MPD2    C413225   0.770   0.487  17.266  0.1118 -0.0411  0.5753
  899MPD2    C513226   0.873   0.482  17.168  0.8672  0.3650  0.2984
  899MPD2     H13227   0.649   0.784  17.190  0.8129  0.7274 -0.9992
  899MPD2    H113228   0.773   0.400  17.331  1.1779 -0.2903  0.1913
  899MPD2    H213229   0.967   0.575  17.001 -0.5051 -1.6842 -0.6324
  899MPD2    H313230   0.944   0.400  17.164 -2.1434 -2.2322  0.4455
  899MPD2     N13231   0.593   0.609  17.380 -1.2823 -0.4525  0.0470
  899MPD2    H513232   0.603   0.557  17.467 -1.0912 -0.4106  0.0510
  899MPD2    N113233   0.829   0.804  16.996 -0.0842  0.6766  0.4598
  899MPD2    H713234   0.917   0.809  16.945 -0.8752 -0.3631 -1.0410
  900MPD2     C13235   0.699   2.371  12.473  0.1778  0.1024 -0.0862
  900MPD2    C113236   0.717   2.240  12.509 -0.0099 -0.4868  0.0620
  900MPD2    C213237   0.608   2.153  12.493 -0.1582 -1.0623  0.2239
  900MPD2    C313238   0.483   2.191  12.452  0.4919  0.8361  0.4076
  900MPD2    C413239   0.473   2.309  12.392 -0.1273  0.2614  0.1237
  900MPD2    C513240   0.579   2.396  12.407 -0.0264 -0.5516  0.5749
  900MPD2     H13241   0.622   2.050  12.524  1.4849 -0.6712  0.7982
  900MPD2    H113242   0.383   2.346  12.344  0.1948  1.9648  0.8341
  900MPD2    H213243   0.779   2.444  12.480  1.2884 -1.3953  2.6361
  900MPD2    H313244   0.572   2.496  12.368 -1.6324 -0.6376  0.6456
  900MPD2     N13245   0.367   2.106  12.447  0.1424  0.4118  0.1917
  900MPD2    H513246   0.286   2.154  12.408  0.9004  2.9488  1.6958
  900MPD2    N113247   0.846   2.196  12.545  0.0746  0.4416  0.2487
  900MPD2    H713248   0.928   2.251  12.521  0.0598  0.5006  0.3359
  901MPD2     C13249   1.412   1.470  12.949  0.5250  0.1315 -0.1039
  901MPD2    C113250   1.291   1.462  12.876 -0.1507 -0.3078 -0.0979
  901MPD2    C213251   1.235   1.579  12.834  0.0943  0.0048 -0.3319
  901MPD2    C313252   1.283   1.703  12.866  0.0791  0.1125  0.8124
  901MPD2    C413253   1.394   1.699  12.953  0.4460  0.4195  0.7350
  901MPD2    C513254   1.460   1.587  13.001  0.0709  0.0990 -0.0944
  901MPD2     H13255   1.140   1.582  12.781 -0.0649 -0.1285 -0.0566
  901MPD2    H113256   1.425   1.795  12.993  1.5118  0.3086  0.1955
  901MPD2    H213257   1.462   1.381  12.987 -0.5383  0.3576  1.8294
  901MPD2    H313258   1.551   1.588  13.059 -0.6369 -0.3826  1.0076
  901MPD2     N13259   1.222   1.816  12.803 -0.2952  0.0964 -0.3702
  901MPD2    H513260   1.136   1.801  12.750  0.1568 -2.3623 -0.3832
  901MPD2    N113261   1.251   1.330  12.826 -0.1391  0.9490  0.2306
  901MPD2    H713262   1.312   1.252  12.845 -1.0558  0.9908  3.3736
  902MPD2     C13263   4.547   4.476  13.520 -0.8099  0.5282 -0.1988
  902MPD2    C113264   4.638   4.558  13.456 -0.3101 -0.1370  0.1760
  902MPD2    C213265   4.713   4.496  13.359 -0.3467 -0.0248 -0.0435
  902MPD2    C313266   4.694   4.366  13.317  0.7873  0.2496 -0.0762
  902MPD2    C413267   4.600   4.285  13.382  0.3937 -0.0286 -0.9022
  902MPD2    C513268   4.533   4.349  13.485 -0.2716 -0.6444  0.5033
  902MPD2     H13269   0.053   4.552  13.306  0.7930  0.4421  2.1084
  902MPD2    H113270   4.577   4.183  13.351 -0.3290 -0.2228  0.2924
  902MPD2    H213271   4.484   4.520  13.596 -0.4460  0.8417 -0.0780
  902MPD2    H313272   4.463   4.291  13.544 -0.1326 -1.2534  0.0711
  902MPD2     N13273   0.030   4.310  13.203 -0.0949  0.8287 -0.5367
  902MPD2    H513274   0.006   4.218  13.168  2.0177 -0.6367  1.8341
  902MPD2    N113275   4.629   4.694  13.472  0.1968  0.1664  0.7513
  902MPD2    H713276   4.552   4.721  13.532  0.9402  1.8830  0.9357
  903MPD2     C13277   0.156   4.661  12.531 -0.5666 -0.7314  0.0318
  903MPD2    C113278   0.103   4.533  12.537  0.4317  0.1832  0.2504
  903MPD2    C213279   0.018   4.487  12.436 -0.0701  0.0176 -0.2563
  903MPD2    C313280   4.723   4.575  12.331 -0.1349 -0.3896  0.8300
  903MPD2    C413281   0.045   4.693  12.317 -0.2955  0.5575  0.3497
  903MPD2    C513282   0.127   4.736  12.420  0.0245 -0.6568  0.4718
  903MPD2     H13283   4.705   4.391  12.437  2.3643 -1.2124  0.7752
  903MPD2    H113284   0.033   0.029  12.236 -0.3204  0.7852  0.5560
  903MPD2    H213285   0.223   4.703  12.605  1.1469 -0.2728 -1.7792
  903MPD2    H313286   0.185   0.090  12.406 -0.0745 -0.4678  1.3226
  903MPD2     N13287   4.633   4.523  12.239 -0.0828 -0.2730 -0.4285
  903MPD2    H513288   4.610   4.425  12.252  1.7930 -0.7438 -0.6277
  903MPD2    N113289   0.135   4.456  12.654 -0.4357  0.3323 -0.4915
  903MPD2    H713290   0.189   4.497  12.729  1.2657 -0.6470 -1.1704
  904MPD2     C13291   4.616   4.158  14.175  0.0136 -0.1839 -0.5083
  904MPD2    C113292   4.618   4.028  14.145  0.1543 -0.2496  0.6458
  904MPD2    C213293   0.004   3.967  14.125 -0.4973  0.0904 -0.1944
  904MPD2    C313294   0.119   4.036  14.122  0.2993 -0.0499  0.4082
  904MPD2    C413295   0.124   4.170  14.155  0.2004 -0.3625 -0.1608
  904MPD2    C513296   4.736   4.228  14.182 -0.6335 -0.2152  0.4695
  904MPD2     H13297   0.008   3.859  14.112 -0.8033  0.4068 -3.0202
  904MPD2    H113298   0.216   4.227  14.151  0.0070 -0.0541 -0.2071
  904MPD2    H213299   4.524   4.214  14.187 -0.0975 -0.7362  1.2029
  904MPD2    H313300   4.735   4.335  14.203  1.0632 -0.1863  0.3965
  904MPD2     N13301   0.234   3.965  14.079  0.3742  0.0385  0.0912
  904MPD2    H513302   0.222   3.865  14.061 -0.1326 -0.3428  2.4813
  904MPD2    N113303   4.494   3.962  14.107  0.1312 -0.6131  0.2988
  904MPD2    H713304   4.404   4.010  14.110  0.5205  0.2157 -1.3521
  905MPD2     C13305   4.341   3.797  13.396  0.0631  0.2227  0.7028
  905MPD2    C113306   4.422   3.867  13.484  0.3912  0.4083  0.1999
  905MPD2    C213307   4.554   3.898  13.459  0.2053  0.3231  0.1709
  905MPD2    C313308   4.617   3.863  13.336 -0.0166  0.3408  0.6502
  905MPD2    C413309   4.534   3.799  13.242 -0.3427  0.4558  0.5732
  905MPD2    C513310   4.402   3.769  13.272  0.0489 -0.5144 -0.1828
  905MPD2     H13311   4.606   3.966  13.525  2.1868 -0.2055 -0.8300
  905MPD2    H113312   4.571   3.768  13.145 -0.6717 -0.8305  0.8654
  905MPD2    H213313   4.241   3.762  13.418  0.7201 -1.1829  1.4633
  905MPD2    H313314   4.345   3.722  13.192 -1.5993 -2.6447  2.2576
  905MPD2     N13315   0.008   3.907  13.293 -0.2432  0.3029  0.7982
  905MPD2    H513316   0.021   3.895  13.193 -0.8029 -0.4560  0.8168
  905MPD2    N113317   4.372   3.921  13.609  0.3197 -0.1277  0.2525
  905MPD2    H713318   4.439   3.961  13.674 -0.2241  2.3838 -0.7403
  906MPD2     C13319   1.449   3.478  11.715 -0.2318  0.4821  0.1166
  906MPD2    C113320   1.379   3.465  11.605  0.0690 -0.3218 -0.4255
  906MPD2    C213321   1.254   3.407  11.598  0.1885 -0.0761 -0.3065
  906MPD2    C313322   1.197   3.356  11.717  0.5847 -0.3394 -0.3233
  906MPD2    C413323   1.279   3.359  11.827 -0.3774  0.2368  0.3752
  906MPD2    C513324   1.397   3.422  11.828  0.0768  0.0258 -0.2027
  906MPD2     H13325   1.197   3.397  11.506 -0.6561 -1.6208  0.3775
  906MPD2    H113326   1.244   3.309  11.917 -1.0575 -0.4733 -0.2790
  906MPD2    H213327   1.544   3.529  11.719  0.6980 -1.3120  0.8472
  906MPD2    H313328   1.442   3.434  11.925 -1.4049 -1.1088  0.6379
  906MPD2     N13329   1.070   3.293  11.731 -0.5302 -0.2254  0.2753
  906MPD2    H513330   1.068   3.251  11.823 -1.0525  0.2345  0.4723
  906MPD2    N113331   1.424   3.495  11.471 -0.3295 -0.1400  0.2426
  906MPD2    H713332   1.357   3.478  11.397 -0.1213  2.2701 -0.5032
  907MPD2     C13333   0.223   3.026  15.969  0.4138  0.6012  0.3977
  907MPD2    C113334   0.347   3.005  15.911 -0.4020 -0.3348  0.2214
  907MPD2    C213335   0.442   2.951  15.984  0.3456  0.0352 -0.0286
  907MPD2    C313336   0.425   2.929  16.117  0.0484  0.0570  0.0242
  907MPD2    C413337   0.304   2.963  16.178  0.9409 -0.0249 -0.5954
  907MPD2    C513338   0.202   3.007  16.101  0.2120 -0.6228  0.5124
  907MPD2     H13339   0.539   2.927  15.942  0.2952 -3.3921  1.7547
  907MPD2    H113340   0.286   2.959  16.285  1.3230 -0.7945 -0.5573
  907MPD2    H213341   0.145   3.080  15.916 -0.6307  0.2001  1.5371
  907MPD2    H313342   0.115   3.048  16.149  0.2535  0.6871 -0.5412
  907MPD2     N13343   0.538   2.872  16.182  0.0872  0.0276 -0.1952
  907MPD2    H513344   0.621   2.844  16.130 -1.4176 -2.4885 -1.2275
  907MPD2    N113345   0.379   3.029  15.776 -0.3188 -0.0834 -0.1748
  907MPD2    H713346   0.470   3.002  15.739 -0.5726 -0.2859 -0.6439
  908MPD2     C13347   3.510   3.137  10.029 -0.0043 -0.1073  0.3608
  908MPD2    C113348   3.437   3.075  10.128 -0.0864  0.4392 -0.1129
  908MPD2    C213349   3.385   3.148  10.232  0.2691 -0.4796 -0.8161
  908MPD2    C313350   3.401   3.289  10.235 -0.5416  0.1090 -0.6373
  908MPD2    C413351   3.480   3.347  10.134 -0.4122  0.1905 -0.1665
  908MPD2    C513352   3.528   3.269  10.035 -0.3029  0.4079 -0.0969
  908MPD2     H13353   3.334   3.093  10.310 -0.7038  1.9873  0.2814
  908MPD2    H113354   3.503   3.453  10.128 -2.0153  0.6111  1.1938
  908MPD2    H213355   3.554   3.077   9.950  0.2460 -2.1453  2.0402
  908MPD2    H313356   3.593   3.312   9.959  0.7477 -1.1104 -0.0666
  908MPD2     N13357   3.347   3.358  10.341  0.7216 -0.0079  0.2093
  908MPD2    H513358   3.292   3.303  10.405  0.0893 -0.2167 -0.5159
  908MPD2    N113359   3.421   2.932  10.122 -0.8049 -0.2062 -0.2030
  908MPD2    H713360   3.470   2.889  10.044 -1.3218  2.0270 -1.7438
  909MPD2     C13361   3.550   1.239  12.028 -0.8339 -0.3773  0.4967
  909MPD2    C113362   3.483   1.320  11.936  0.3748  0.1786 -0.2459
  909MPD2    C213363   3.394   1.413  11.975 -0.6745  0.2391 -0.4823
  909MPD2    C313364   3.362   1.429  12.109 -0.5109  0.0606  0.3566
  909MPD2    C413365   3.418   1.344  12.203 -0.2254  0.1106 -0.4260
  909MPD2    C513366   3.509   1.254  12.158  0.1920 -0.2884  1.0471
  909MPD2     H13367   3.348   1.474  11.897 -0.5033  0.3333 -0.5090
  909MPD2    H113368   3.391   1.347  12.308  0.9945  0.2731 -0.1117
  909MPD2    H213369   3.616   1.157  12.000  2.3102  2.0392  0.9211
  909MPD2    H313370   3.562   1.188  12.226  0.0477 -0.2996  1.1495
  909MPD2     N13371   3.260   1.524  12.142 -0.0113  0.5223  0.0143
  909MPD2    H513372   3.232   1.596  12.076  0.2665 -2.1199 -3.0129
  909MPD2    N113373   3.503   1.322  11.799  0.3398 -0.1116 -0.2122
  909MPD2    H713374   3.444   1.375  11.735 -1.3996  0.2779  1.7230
  910MPD2     C13375   4.557   3.785  16.507  0.1180 -0.2764  0.1945
  910MPD2    C113376   4.586   3.674  16.428 -0.0391 -0.1713  0.6022
  910MPD2    C213377   4.554   3.670  16.287  0.0762  0.2246  0.4761
  910MPD2    C313378   4.476   3.773  16.238 -0.5354 -0.4768  0.0830
  910MPD2    C413379   4.444   3.879  16.321 -0.9822  0.3895  0.1696
  910MPD2    C513380   4.477   3.886  16.452 -0.5801 -0.3602  0.3978
  910MPD2     H13381   4.587   3.586  16.228  1.3484  0.3074  1.0716
  910MPD2    H113382   4.374   3.955  16.288  0.3900  1.4037 -0.3689
  910MPD2    H213383   4.588   3.793  16.611  0.3224 -1.6252  0.2426
  910MPD2    H313384   4.455   3.972  16.515 -1.1240 -0.2415  0.0510
  910MPD2     N13385   4.409   3.775  16.104  0.3460  0.0085  0.0664
  910MPD2    H513386   4.376   3.864  16.068  0.3030 -0.0349 -0.0007
  910MPD2    N113387   4.641   3.554  16.473 -0.0275 -0.1085  0.0007
  910MPD2    H713388   4.669   3.487  16.402  1.2106 -0.1894  0.5743
  911MPD2     C13389   2.314   3.990  16.203 -0.4825 -0.9033  0.2557
  911MPD2    C113390   2.351   4.069  16.305  0.0326  0.4910 -0.0535
  911MPD2    C213391   2.253   4.157  16.360 -0.4655 -0.1403 -0.6737
  911MPD2    C313392   2.124   4.160  16.307  0.4640 -1.2059  0.1278
  911MPD2    C413393   2.095   4.080  16.201 -0.1583 -0.2643  0.0565
  911MPD2    C513394   2.187   3.993  16.152 -0.9800 -0.7321 -0.9185
  911MPD2     H13395   2.268   4.210  16.453  1.1560 -0.7562 -0.5717
  911MPD2    H113396   2.001   4.085  16.146  0.0610 -1.4557 -0.4386
  911MPD2    H213397   2.391   3.919  16.174 -0.0927 -0.4410  0.1617
  911MPD2    H313398   2.162   3.931  16.068  1.9976 -0.0195 -2.3322
  911MPD2     N13399   2.016   4.237  16.351  0.3027  0.0374 -0.1942
  911MPD2    H513400   1.931   4.225  16.297  0.6914 -2.5193 -0.2446
  911MPD2    N113401   2.475   4.037  16.368 -0.3883  0.1307 -0.1852
  911MPD2    H713402   2.530   3.971  16.314  1.3074  0.7305  0.8023
  912MPD2     C13403   1.812   4.168  15.870 -0.0761 -0.2068  0.0038
  912MPD2    C113404   1.760   4.164  15.993  0.3550  0.4278 -0.3266
  912MPD2    C213405   1.756   4.041  16.057 -0.4726 -0.0319 -0.4763
  912MPD2    C313406   1.819   3.925  15.999 -0.7510 -0.0042 -0.2397
  912MPD2    C413407   1.871   3.935  15.867  0.0839 -0.5203 -0.9291
  912MPD2    C513408   1.860   4.058  15.799  0.4862  0.0958  0.1109
  912MPD2     H13409   1.719   4.031  16.158 -1.4595  0.3038 -0.7994
  912MPD2    H113410   1.919   3.848  15.823  0.7830 -0.3691 -0.4648
  912MPD2    H213411   1.818   4.261  15.815 -0.5097 -0.2362 -0.0925
  912MPD2    H313412   1.895   4.063  15.697 -3.5419 -0.2912 -1.3133
  912MPD2     N13413   1.826   3.804  16.075  0.0323  0.4180 -0.1235
  912MPD2    H513414   1.791   3.808  16.170 -1.5996  0.8944 -0.7237
  912MPD2    N113415   1.742   4.283  16.061 -0.1530 -0.2558 -0.0594
  912MPD2    H713416   1.764   4.367  16.008  0.0300  0.4970  1.1897
  913MPD2     C13417   2.892   4.606  10.543 -0.6843  0.4919 -0.0922
  913MPD2    C113418   2.931   4.713  10.620  0.3812  0.5873  0.1509
  913MPD2    C213419   2.975   0.093  10.552  0.1216 -0.2123  0.4602
  913MPD2    C313420   2.961   0.097  10.413 -0.5069 -0.0744  0.4828
  913MPD2    C413421   2.911   4.724  10.343 -0.4495 -0.6658  0.4549
  913MPD2    C513422   2.879   4.608  10.406 -0.2348 -0.0846  0.1692
  913MPD2     H13423   2.992   0.182  10.613  1.7579  0.0278 -0.3505
  913MPD2    H113424   2.899   4.719  10.235  0.2216  0.5235  0.3155
  913MPD2    H213425   2.860   4.513  10.590 -0.2659 -1.1287 -3.0081
  913MPD2    H313426   2.828   4.527  10.356 -1.3692  1.3699 -1.0170
  913MPD2     N13427   2.992   0.214  10.336  0.7671  0.1024 -0.0351
  913MPD2    H513428   2.972   0.213  10.236 -2.1471 -0.5146  0.5403
  913MPD2    N113429   2.940   4.697  10.762 -0.0724  0.6498 -0.1089
  913MPD2    H713430   2.907   4.612  10.806  2.5935 -0.5113 -0.3746
  914MPD2     C13431   1.079   1.261  11.929  0.2700  0.5347 -0.2512
  914MPD2    C113432   1.177   1.314  12.016 -0.3344  0.2228  1.0511
  914MPD2    C213433   1.186   1.267  12.144 -0.2328 -0.2371  0.0128
  914MPD2    C313434   1.114   1.156  12.183 -0.2212  0.3213 -0.7760
  914MPD2    C413435   1.030   1.092  12.092  0.1132 -0.5978 -0.3412
  914MPD2    C513436   1.017   1.141  11.968 -0.0643 -0.2682 -0.1316
  914MPD2     H13437   1.261   1.314  12.206 -0.3130  0.3960 -0.3784
  914MPD2    H113438   0.980   1.001  12.124 -0.7777  0.1641  0.3982
  914MPD2    H213439   1.070   1.303  11.830  1.2909  0.0667 -0.5435
  914MPD2    H313440   0.947   1.095  11.899 -1.4911  2.4902 -0.5224
  914MPD2     N13441   1.135   1.110  12.310  0.4211 -0.0044 -0.0708
  914MPD2    H513442   1.193   1.179  12.358  2.1660 -1.8984  0.5057
  914MPD2    N113443   1.254   1.426  11.976 -0.2719 -0.1246  0.1927
  914MPD2    H713444   1.223   1.475  11.893 -1.8727 -1.2694  0.1146
  915MPD2     C13445   3.467   0.835  15.599 -0.4392  0.3181  0.1711
  915MPD2    C113446   3.330   0.833  15.620  0.4468  0.6112  0.3225
  915MPD2    C213447   3.271   0.887  15.734 -0.0188 -0.0297 -0.1975
  915MPD2    C313448   3.353   0.962  15.816 -0.1438  0.3684  0.1907
  915MPD2    C413449   3.489   0.959  15.802  0.1910  0.0823 -0.4456
  915MPD2    C513450   3.543   0.888  15.702  0.3868 -0.7897 -0.1514
  915MPD2     H13451   3.163   0.896  15.734 -0.0038  0.1344 -0.9634
  915MPD2    H113452   3.558   1.009  15.870 -0.3623  0.3479 -0.0814
  915MPD2    H213453   3.521   0.796  15.514 -1.7613  0.7617 -0.8785
  915MPD2    H313454   3.650   0.869  15.706  0.6772  0.1983 -3.4635
  915MPD2     N13455   3.285   1.037  15.920 -0.0987  0.3989  0.5176
  915MPD2    H513456   3.185   1.021  15.931  0.1621 -0.6318  1.3960
  915MPD2    N113457   3.263   0.772  15.510 -0.0669  0.0929 -0.5747
  915MPD2    H713458   3.326   0.722  15.448  0.1278  0.4732 -0.6827
  916MPD2     C13459   1.420   3.955  15.785  0.1534 -0.0852  0.3924
  916MPD2    C113460   1.476   3.856  15.863  0.2164  0.2902 -0.6449
  916MPD2    C213461   1.572   3.772  15.811  0.6207 -0.0380 -0.0346
  916MPD2    C313462   1.604   3.781  15.679  0.3282 -0.4563 -0.2548
  916MPD2    C413463   1.548   3.881  15.601 -0.2320 -0.3420  0.1055
  916MPD2    C513464   1.449   3.960  15.649 -0.0351 -0.0769 -0.4586
  916MPD2     H13465   1.614   3.691  15.869 -2.0011  0.4299  2.5155
  916MPD2    H113466   1.571   3.896  15.496 -0.3668 -2.2202 -0.1969
  916MPD2    H213467   1.343   4.026  15.814  1.3738  1.3380  0.1295
  916MPD2    H313468   1.398   4.028  15.582 -1.7792  0.3498  1.2957
  916MPD2     N13469   1.684   3.679  15.626 -0.4159  0.1996  0.1183
  916MPD2    H513470   1.699   3.604  15.693 -3.9060 -0.4373  0.1843
  916MPD2    N113471   1.435   3.849  15.999 -0.3427 -0.4651 -0.4508
  916MPD2    H713472   1.358   3.909  16.029 -0.5326 -0.8442 -0.1732
  917MPD2     C13473   2.025   0.727  11.179 -0.3182  0.3769  0.7625
  917MPD2    C113474   2.079   0.837  11.242  0.1458 -0.3311  0.1480
  917MPD2    C213475   2.176   0.904  11.172 -0.4324  0.3559  0.5110
  917MPD2    C313476   2.203   0.877  11.034 -0.4408  0.3801 -0.2863
  917MPD2    C413477   2.140   0.774  10.970 -0.5335  0.1243 -0.5798
  917MPD2    C513478   2.057   0.694  11.050  0.5293  0.0881 -0.0362
  917MPD2     H13479   2.230   0.984  11.223  0.9396 -1.2458  1.5650
  917MPD2    H113480   2.162   0.746  10.868  0.5432 -2.9159  0.4863
  917MPD2    H213481   1.964   0.662  11.241 -0.6716  1.2608  1.3427
  917MPD2    H313482   2.003   0.611  11.007  2.3274 -0.4954 -1.1891
  917MPD2     N13483   2.301   0.963  10.972  0.0792 -0.1790 -0.5244
  917MPD2    H513484   2.318   0.949  10.873  1.0202  0.4968 -0.4530
  917MPD2    N113485   2.020   0.885  11.364 -0.0939 -0.5264 -0.0768
  917MPD2    H713486   1.939   0.831  11.395  0.2839 -0.2769  1.3570
  918MPD2     C13487   2.261   1.616  12.037 -0.0123 -0.5570 -0.0338
  918MPD2    C113488   2.337   1.550  11.940  0.5343 -0.0438  0.2178
  918MPD2    C213489   2.269   1.470  11.852 -0.5368 -0.4091 -0.4062
  918MPD2    C313490   2.131   1.463  11.854 -0.2297  0.6668  0.7767
  918MPD2    C413491   2.056   1.549  11.928 -0.3112 -0.1015  0.0267
  918MPD2    C513492   2.127   1.627  12.018  0.2382 -0.3759 -0.2233
  918MPD2     H13493   2.319   1.393  11.794  2.1619  2.1599 -1.4783
  918MPD2    H113494   1.948   1.552  11.926 -0.4117 -3.3025 -0.1612
  918MPD2    H213495   2.305   1.669  12.120  2.2416  0.4430 -1.8866
  918MPD2    H313496   2.078   1.694  12.088  1.6084 -1.9566  2.2467
  918MPD2     N13497   2.072   1.364  11.770  0.5785  0.6431  0.5763
  918MPD2    H513498   2.132   1.318  11.702 -1.6853 -1.3507 -0.0963
  918MPD2    N113499   2.477   1.552  11.955 -0.1902 -0.6373  0.5454
  918MPD2    H713500   2.519   1.612  12.025  0.9038  1.1189 -1.6220
  919MPD2     C13501   2.730   0.485  11.415  0.1324  0.2444  0.5211
  919MPD2    C113502   2.668   0.364  11.448  0.0738 -0.2878 -0.7422
  919MPD2    C213503   2.631   0.272  11.353  0.3605  0.5718 -0.2182
  919MPD2    C313504   2.670   0.292  11.220 -0.8014 -0.5497 -0.5591
  919MPD2    C413505   2.741   0.405  11.193 -0.1079 -0.1504  0.1437
  919MPD2    C513506   2.774   0.499  11.288 -0.2699  0.6873 -0.1408
  919MPD2     H13507   2.574   0.187  11.389 -0.1095 -0.1505 -2.6698
  919MPD2    H113508   2.772   0.421  11.090  0.1975  2.2848  0.6278
  919MPD2    H213509   2.749   0.568  11.482 -0.1348  0.7205  0.0032
  919MPD2    H313510   2.797   0.600  11.258  1.9659 -0.7077 -3.1547
  919MPD2     N13511   2.631   0.214  11.105  0.2600 -0.2080  0.2866
  919MPD2    H513512   2.690   0.233  11.024 -1.0036  2.0143 -0.0940
  919MPD2    N113513   2.630   0.338  11.581  0.1062 -0.6040 -0.4185
  919MPD2    H713514   2.596   0.243  11.595 -2.0281 -0.0746 -1.9182
  920MPD2     C13515   2.436   0.135  10.182  0.2079 -0.3971 -0.0830
  920MPD2    C113516   2.354   0.044  10.244  0.8636  0.1022  0.7612
  920MPD2    C213517   2.396   4.725  10.369 -0.2162  0.7378  0.4113
  920MPD2    C313518   2.500   0.044  10.432  0.5079  0.2251 -0.1529
  920MPD2    C413519   2.572   0.143  10.376 -0.0404  0.0361  0.2306
  920MPD2    C513520   2.543   0.188  10.252 -0.0974  0.7958  0.2050
  920MPD2     H13521   2.343   4.644  10.419  2.4378 -2.3666 -1.8145
  920MPD2    H113522   2.654   0.195  10.425 -1.4687  0.8597  1.7188
  920MPD2    H213523   2.413   0.172  10.083  1.3455 -0.5929 -0.4127
  920MPD2    H313524   2.609   0.257  10.201  2.2277 -0.9095  0.9013
  920MPD2     N13525   2.530   4.720  10.552 -0.6675  0.5607 -0.0895
  920MPD2    H513526   2.469   4.645  10.585  0.6029 -1.3479 -2.1109
  920MPD2    N113527   2.240   4.730  10.179 -0.4059 -0.6509  1.6549
  920MPD2    H713528   2.197   4.650  10.225 -1.5787 -0.7766  0.3268
  921MPD2     C13529   3.203   4.505  16.739 -0.7268  1.1455  0.3493
  921MPD2    C113530   3.249   4.372  16.712  0.2538  0.3380 -0.1784
  921MPD2    C213531   3.161   4.265  16.721  0.0153  0.7326  1.5598
  921MPD2    C313532   3.024   4.291  16.739  0.6207 -0.1270 -0.0199
  921MPD2    C413533   2.987   4.421  16.756 -0.1488 -0.3294 -0.3014
  921MPD2    C513534   3.072   4.528  16.760 -0.3102 -0.5351 -0.7972
  921MPD2     H13535   3.199   4.167  16.696 -2.6384 -0.1755  1.0312
  921MPD2    H113536   2.880   4.437  16.765  0.1864  2.1239 -0.4900
  921MPD2    H213537   3.267   4.592  16.740 -0.9172  1.3099 -1.1464
  921MPD2    H313538   3.025   4.626  16.768 -0.9815 -0.8121 -1.3193
  921MPD2     N13539   2.918   4.193  16.729  0.6235  0.6545 -0.0210
  921MPD2    H513540   2.823   4.228  16.738  0.1187  0.4326 -4.2690
  921MPD2    N113541   3.386   4.367  16.684 -0.6344  0.1517 -0.0091
  921MPD2    H713542   3.432   4.456  16.670  1.2783 -0.8892 -0.3275
  922MPD2     C13543   3.852   2.118  17.068  1.2057 -0.4716  0.4050
  922MPD2    C113544   3.800   2.149  17.192  0.2436 -0.3931  0.3489
  922MPD2    C213545   3.741   2.047  17.260 -0.3001 -0.7395  0.3592
  922MPD2    C313546   3.713   1.925  17.206 -0.4367 -0.8960 -0.9109
  922MPD2    C413547   3.755   1.902  17.070  0.6520  0.4902 -0.6134
  922MPD2    C513548   3.828   2.000  17.005  0.0735 -0.3042 -0.0091
  922MPD2     H13549   3.719   2.067  17.365  0.1929  1.2466  0.0919
  922MPD2    H113550   3.743   1.805  17.023  2.7624 -0.1165  0.1027
  922MPD2    H213551   3.915   2.181  17.007 -2.2274  1.1348 -1.4604
  922MPD2    H313552   3.890   1.976  16.920  1.4312  1.0015  0.6076
  922MPD2     N13553   3.638   1.831  17.274  0.0598 -0.0552 -0.2397
  922MPD2    H513554   3.605   1.863  17.365  3.1090 -0.8173  1.1401
  922MPD2    N113555   3.816   2.260  17.273  0.5782  0.4516  0.3550
  922MPD2    H713556   3.782   2.273  17.368 -0.2644 -0.5640  0.1955
  923MPD2     C13557   0.819   3.982   8.921 -0.1424  0.0554  0.4917
  923MPD2    C113558   0.810   4.007   9.054  0.0611  0.0319 -0.6052
  923MPD2    C213559   0.863   3.911   9.144 -0.0294 -0.1577 -0.5533
  923MPD2    C313560   0.920   3.791   9.092  0.0424 -0.1077  0.1805
  923MPD2    C413561   0.921   3.765   8.950  0.0592 -0.8089  0.3889
  923MPD2    C513562   0.878   3.869   8.871  0.6873  0.2036  1.1326
  923MPD2     H13563   0.859   3.921   9.252  0.3791  2.4173 -0.7653
  923MPD2    H113564   0.956   3.673   8.906 -0.2633 -0.1745 -1.1983
  923MPD2    H213565   0.772   4.057   8.859  0.0907 -0.4952 -0.3506
  923MPD2    H313566   0.876   3.853   8.764 -1.4464  0.6024  1.1238
  923MPD2     N13567   0.973   3.686   9.167  0.3516  0.2019  0.1039
  923MPD2    H513568   1.017   3.612   9.114  3.2295 -0.9013  4.0526
  923MPD2    N113569   0.732   4.124   9.093  0.1881 -0.0408 -0.1879
  923MPD2    H713570   0.701   4.188   9.021  1.2194  1.2994  0.5670
  924MPD2     C13571   0.446   2.128  15.934 -0.3214  0.1862 -0.5477
  924MPD2    C113572   0.430   2.121  16.067 -0.8345 -0.2310  0.1550
  924MPD2    C213573   0.498   2.208  16.154 -0.5820 -0.0736  0.0640
  924MPD2    C313574   0.574   2.304  16.092  0.2792  0.8926  0.4752
  924MPD2    C413575   0.583   2.314  15.953 -0.2262  0.2610 -0.3931
  924MPD2    C513576   0.518   2.223  15.875  0.0800  0.2175 -0.2675
  924MPD2     H13577   0.508   2.195  16.261  2.5224  0.7513 -0.1316
  924MPD2    H113578   0.647   2.386  15.904  0.0011  0.5317  0.2930
  924MPD2    H213579   0.394   2.058  15.870  0.6117 -0.9549 -0.0514
  924MPD2    H313580   0.528   2.239  15.768  0.6092  3.2359  0.2128
  924MPD2     N13581   0.647   2.397  16.171  0.0741  0.4790  0.1325
  924MPD2    H513582   0.704   2.457  16.112 -1.2348  0.7506 -0.8435
  924MPD2    N113583   0.349   2.009  16.109 -0.5238 -0.0138 -0.4279
  924MPD2    H713584   0.349   1.928  16.047  1.1069 -0.3012 -0.0668
  925MPD2     C13585   4.220   0.618  14.553  0.4914  0.0597  0.5357
  925MPD2    C113586   4.192   0.482  14.551  0.1416  0.0856  1.0583
  925MPD2    C213587   4.129   0.430  14.661 -0.7298 -0.9064 -0.3962
  925MPD2    C313588   4.089   0.511  14.768  0.2561 -0.0523  0.5249
  925MPD2    C413589   4.132   0.637  14.774 -0.6823 -0.1963  0.0671
  925MPD2    C513590   4.191   0.692  14.662  0.1797 -0.4302  0.0059
  925MPD2     H13591   4.094   0.327  14.654  0.1924 -1.4711  3.0099
  925MPD2    H113592   4.092   0.711  14.841 -1.5787 -0.2531 -0.4139
  925MPD2    H213593   4.271   0.663  14.469 -1.1975  0.8971 -0.0413
  925MPD2    H313594   4.215   0.798  14.659 -0.5327 -0.2986 -1.2303
  925MPD2     N13595   4.018   0.449  14.873  0.1364  0.7553 -0.2904
  925MPD2    H513596   4.027   0.348  14.876 -0.0597  0.7806  1.0060
  925MPD2    N113597   4.211   0.391  14.446 -0.2588 -0.3057 -0.1215
  925MPD2    H713598   4.161   0.303  14.448  2.1490 -1.6856 -0.7933
  926MPD2     C13599   2.585   2.971  13.507 -0.2003 -0.6317  0.2052
  926MPD2    C113600   2.655   3.009  13.621  0.5923  0.7637 -0.3550
  926MPD2    C213601   2.784   3.054  13.606  0.3119 -0.0700 -0.5482
  926MPD2    C313602   2.856   3.044  13.486  0.0277 -0.4745 -0.2200
  926MPD2    C413603   2.797   2.992  13.381 -0.0224  0.2782 -0.0211
  926MPD2    C513604   2.662   2.954  13.391 -0.0418  0.4252  0.2305
  926MPD2     H13605   2.832   3.090  13.696 -0.7812  1.4491 -0.5778
  926MPD2    H113606   2.845   2.990  13.284  0.2714 -0.8546  0.1459
  926MPD2    H213607   2.481   2.941  13.513 -1.4687  3.2510 -2.8293
  926MPD2    H313608   2.614   2.929  13.297  0.9181  0.9622 -0.3980
  926MPD2     N13609   2.974   3.116  13.452 -0.0740  0.4484 -0.0308
  926MPD2    H513610   3.004   3.122  13.355 -2.0006  1.2818 -0.5769
  926MPD2    N113611   2.589   3.021  13.748  0.2302 -0.0245  0.6702
  926MPD2    H713612   2.647   3.055  13.824 -1.0787 -1.1033  2.1436
  927MPD2     C13613   2.313   0.987  17.419  0.5109 -0.1275 -0.5833
  927MPD2    C113614   2.361   0.857  17.409  0.1829 -0.0478 -0.3790
  927MPD2    C213615   2.461   0.827  17.328  0.0558 -0.1042  0.5850
  927MPD2    C313616   2.519   0.929  17.253 -0.0684 -0.7521 -0.4953
  927MPD2    C413617   2.481   1.060  17.264  0.6363 -0.6011  0.0047
  927MPD2    C513618   2.368   1.082  17.335 -0.3096 -0.3090  0.0835
  927MPD2     H13619   2.494   0.725  17.312  0.1183  0.2673 -1.5697
  927MPD2    H113620   2.508   1.143  17.200 -0.3303  0.1941  0.6152
  927MPD2    H213621   2.235   1.016  17.488  1.4814  1.1120  0.0001
  927MPD2    H313622   2.332   1.184  17.331  2.0230  0.5712  1.4421
  927MPD2     N13623   2.620   0.895  17.155 -0.1232 -0.1347 -0.1139
  927MPD2    H513624   2.653   0.799  17.145  0.0683 -0.1598  0.8157
  927MPD2    N113625   2.302   0.762  17.499  0.0380 -0.4251 -0.3723
  927MPD2    H713626   2.239   0.796  17.572  0.7435 -1.5895  0.7851
  928MPD2     C13627   0.414   3.348   1.155  0.1117  0.5335  0.6887
  928MPD2    C113628   0.416   3.487   1.144 -0.1782  0.1923 -0.4220
  928MPD2    C213629   0.428   3.547   1.018  0.0945  0.0543 -0.7341
  928MPD2    C313630   0.425   3.474   0.905  0.5241  0.1511 -0.1610
  928MPD2    C413631   0.403   3.339   0.916  0.0609 -0.2065  0.1771
  928MPD2    C513632   0.406   3.281   1.039 -0.0621  0.6353 -0.1684
  928MPD2     H13633   0.462   3.649   1.032  1.1118 -0.3113 -0.5282
  928MPD2    H113634   0.397   3.278   0.828 -1.3355  2.1163 -1.3374
  928MPD2    H213635   0.401   3.294   1.248  0.4577  3.4095  2.4141
  928MPD2    H313636   0.394   3.173   1.045 -0.9756  0.6208 -2.4032
  928MPD2     N13637   0.436   3.527   0.777  0.0814 -0.3077 -0.0172
  928MPD2    H513638   0.426   3.469   0.694  0.6229 -0.6868  0.1777
  928MPD2    N113639   0.415   3.566   1.257  1.1387 -0.3473 -0.1893
  928MPD2    H713640   0.423   3.524   1.349  0.8192  0.5945  0.2718
  929MPD2     C13641   0.516   3.914  10.108  0.2454  0.2807  0.9558
  929MPD2    C113642   0.477   3.789  10.157  0.4937 -0.1585 -0.0367
  929MPD2    C213643   0.471   3.678  10.072 -0.2583 -0.5540 -0.3557
  929MPD2    C313644   0.477   3.702   9.933  1.0097  0.6453 -0.4295
  929MPD2    C413645   0.511   3.826   9.886 -0.0209  0.3667 -0.3611
  929MPD2    C513646   0.530   3.932   9.975  0.0463 -0.6901  0.0019
  929MPD2     H13647   0.435   3.583  10.109 -2.4970  0.0090 -1.0458
  929MPD2    H113648   0.520   3.850   9.781  0.3167  1.5291 -0.0678
  929MPD2    H213649   0.527   4.001  10.172  0.4718  0.3962  0.7622
  929MPD2    H313650   0.552   4.031   9.939  0.5105  0.0590  2.2996
  929MPD2     N13651   0.441   3.601   9.837 -0.2238 -0.0091  0.0395
  929MPD2    H513652   0.489   3.607   9.748  0.0090 -2.9457 -0.0170
  929MPD2    N113653   0.444   3.786  10.298  0.2030 -0.0463 -0.5770
  929MPD2    H713654   0.454   3.874  10.348 -1.6846  0.3335 -0.8838
  930MPD2     C13655   2.338   1.460  13.872  0.7004 -0.4979 -0.0255
  930MPD2    C113656   2.442   1.457  13.780  0.9029  0.2635 -0.9305
  930MPD2    C213657   2.447   1.362  13.686 -0.1841 -0.3384 -0.8555
  930MPD2    C313658   2.345   1.265  13.683 -0.0765  0.6122 -0.3811
  930MPD2    C413659   2.248   1.267  13.780  0.2438  0.1083  0.5149
  930MPD2    C513660   2.236   1.370  13.871  0.3775 -0.3421 -0.1175
  930MPD2     H13661   2.534   1.356  13.621  1.0524  2.0327  0.6082
  930MPD2    H113662   2.165   1.197  13.783 -1.5295  2.1619 -0.5971
  930MPD2    H213663   2.323   1.541  13.943  1.4158 -0.8861  0.5787
  930MPD2    H313664   2.152   1.380  13.939  0.8405  0.9033  0.2529
  930MPD2     N13665   2.321   1.172  13.568 -0.1429 -0.0308  0.2554
  930MPD2    H513666   2.264   1.091  13.589 -1.9611  1.1172 -0.3241
  930MPD2    N113667   2.532   1.563  13.781  0.8448  0.2002  0.6263
  930MPD2    H713668   2.526   1.630  13.858 -1.1214  0.0637  0.5827
  931MPD2     C13669   2.793   0.325   0.140  0.2640 -0.3855 -0.2675
  931MPD2    C113670   2.665   0.292   0.169  0.4584  0.5018  0.0094
  931MPD2    C213671   2.652   0.205   0.273  0.1753 -0.6501 -0.2427
  931MPD2    C313672   2.756   0.137   0.339  0.3818 -0.0420 -0.0054
  931MPD2    C413673   2.884   0.165   0.303  0.1888 -0.2757  0.1959
  931MPD2    C513674   2.903   0.263   0.208  0.6260 -0.5387 -0.9449
  931MPD2     H13675   2.553   0.164   0.285 -1.1255  2.6149  0.1859
  931MPD2    H113676   2.971   0.121   0.350 -0.5072 -2.3796 -0.4778
  931MPD2    H213677   2.817   0.391   0.058 -0.1416 -2.1399 -1.7897
  931MPD2    H313678   3.004   0.291   0.181  0.9699 -0.0544  0.8426
  931MPD2     N13679   2.739   0.022   0.419  0.4165  0.3951 -0.0675
  931MPD2    H513680   2.819   4.700   0.439  1.4547  1.7795 -0.1719
  931MPD2    N113681   2.558   0.358   0.103  0.0850 -0.4259 -0.3241
  931MPD2    H713682   2.580   0.422   0.027 -2.2220 -0.5601 -1.1012
  932MPD2     C13683   4.193   4.094  11.554  0.4723  0.4727  0.5937
  932MPD2    C113684   4.257   4.169  11.652 -0.4455 -0.2505 -0.0892
  932MPD2    C213685   4.322   4.101  11.756 -0.3628 -0.4674  0.0394
  932MPD2    C313686   4.320   3.962  11.761  0.2966 -0.3743  0.2140
  932MPD2    C413687   4.255   3.890  11.661  0.7964  0.0412  0.4124
  932MPD2    C513688   4.191   3.957  11.563  0.9413 -0.0723  0.9696
  932MPD2     H13689   4.376   4.163  11.827  0.2535 -0.5489 -0.3638
  932MPD2    H113690   4.267   3.782  11.653  1.4628  0.0985  0.6399
  932MPD2    H213691   4.149   4.132  11.463 -0.2338  2.0339  1.5993
  932MPD2    H313692   4.145   3.904  11.481 -2.5769  1.4941  1.9257
  932MPD2     N13693   4.391   3.877  11.856 -0.8701  0.2971 -0.2607
  932MPD2    H513694   4.399   3.778  11.838  1.6354  0.1909  1.4187
  932MPD2    N113695   4.282   4.309  11.646  0.1415  0.4535  0.3562
  932MPD2    H713696   4.327   4.350  11.727  1.8267 -2.1037  0.7230
  933MPD2     C13697   0.338   4.228   1.906  0.2021 -0.0460  0.0045
  933MPD2    C113698   0.307   4.221   1.771 -0.0122 -0.4945 -0.6165
  933MPD2    C213699   0.248   4.330   1.703 -0.5697 -0.2010  0.0716
  933MPD2    C313700   0.207   4.439   1.781  0.3822  0.4411 -0.1561
  933MPD2    C413701   0.244   4.444   1.914 -0.8406  0.8086 -0.7302
  933MPD2    C513702   0.318   4.342   1.975  0.0677 -0.6459 -0.3219
  933MPD2     H13703   0.213   4.313   1.602 -0.0855  0.0100 -0.1345
  933MPD2    H113704   0.239   4.531   1.979 -1.5762 -1.8760  2.8139
  933MPD2    H213705   0.385   4.147   1.961 -0.3061  0.4283  1.1450
  933MPD2    H313706   0.367   4.345   2.071  0.6947  1.6053 -0.7097
  933MPD2     N13707   0.146   4.544   1.713  0.5761  0.4698 -0.6280
  933MPD2    H513708   0.142   4.541   1.612  0.5317  1.0020 -0.6404
  933MPD2    N113709   0.347   4.100   1.703  0.4174 -0.6793 -0.3505
  933MPD2    H713710   0.398   4.034   1.762  0.7613 -0.0469  0.0553
  934MPD2     C13711   1.702   1.181   1.618  0.2625 -0.4718 -0.5200
  934MPD2    C113712   1.734   1.081   1.528  0.5724 -0.0960  0.3848
  934MPD2    C213713   1.641   1.045   1.431 -0.0058 -0.0383 -0.2466
  934MPD2    C313714   1.522   1.112   1.426  0.0257 -0.0847  0.2934
  934MPD2    C413715   1.486   1.208   1.517 -0.5740 -0.4150  0.7617
  934MPD2    C513716   1.583   1.241   1.607 -0.3606  0.2950 -0.1840
  934MPD2     H13717   1.665   0.957   1.372 -0.7368 -0.0473 -0.5232
  934MPD2    H113718   1.405   1.279   1.509 -1.0817 -0.8668  1.8593
  934MPD2    H213719   1.776   1.226   1.684  0.7597  1.0340 -2.1108
  934MPD2    H313720   1.551   1.330   1.660  1.0505 -0.5308  2.0523
  934MPD2     N13721   1.427   1.070   1.331  0.1687 -0.4086 -0.4280
  934MPD2    H513722   1.339   1.122   1.331 -0.0156 -0.7271 -0.9100
  934MPD2    N113723   1.852   1.011   1.529 -0.2264 -0.1379  0.3381
  934MPD2    H713724   1.855   0.938   1.460  1.2110 -0.3976  0.6672
  935MPD2     C13725   1.596   0.350   0.691  0.2341  0.1345  0.2864
  935MPD2    C113726   1.466   0.382   0.653 -0.8673 -0.8421 -0.3386
  935MPD2    C213727   1.398   0.477   0.735  0.6909  1.1250  0.3324
  935MPD2    C313728   1.457   0.540   0.847  0.9370  0.6115 -0.4798
  935MPD2    C413729   1.582   0.490   0.885  0.3717 -0.5444  0.7095
  935MPD2    C513730   1.649   0.407   0.807  0.4688  0.5658 -0.1665
  935MPD2     H13731   1.297   0.498   0.702  0.4738  0.1431  0.3728
  935MPD2    H113732   1.624   0.520   0.981  2.0080  0.3263 -0.2716
  935MPD2    H213733   1.646   0.271   0.636 -1.7712 -1.9968  1.5325
  935MPD2    H313734   1.749   0.383   0.843 -0.0673  1.2720  1.7727
  935MPD2     N13735   1.394   0.635   0.929  0.3279  0.1130  0.0619
  935MPD2    H513736   1.429   0.671   1.018 -2.3168 -0.3306  1.2955
  935MPD2    N113737   1.391   0.334   0.540 -0.3059  0.4940  0.2575
  935MPD2    H713738   1.296   0.364   0.524 -0.4433  0.5396  1.1701
  936MPD2     C13739   0.413   2.971  12.361 -0.1967  0.6799  0.9519
  936MPD2    C113740   0.425   2.993  12.494  0.4111  0.3765 -0.4238
  936MPD2    C213741   0.383   3.114  12.548 -0.1720 -0.0844 -0.7528
  936MPD2    C313742   0.331   3.213  12.465 -0.2875  0.6691  0.5918
  936MPD2    C413743   0.312   3.182  12.331  0.1246  0.4036 -0.7817
  936MPD2    C513744   0.353   3.067  12.284  0.0238  0.4811  0.0412
  936MPD2     H13745   0.395   3.142  12.652  0.7532 -1.4981 -0.4742
  936MPD2    H113746   0.264   3.256  12.268  0.0626 -0.1445 -1.3783
  936MPD2    H213747   0.446   2.878  12.315 -1.1980 -0.3935  2.3798
  936MPD2    H313748   0.332   3.048  12.180 -0.3929  0.1777  0.1811
  936MPD2     N13749   0.288   3.328  12.533  0.2760  0.3972 -0.4323
  936MPD2    H513750   0.306   3.323  12.632 -0.0528  0.4873 -0.3685
  936MPD2    N113751   0.484   2.900  12.583 -0.2131 -0.4530  0.2885
  936MPD2    H713752   0.494   2.935  12.678 -2.1977 -1.1087  0.7384
  937MPD2     C13753   2.819   4.549  11.892  0.4342 -0.0038  0.2540
  937MPD2    C113754   2.885   4.666  11.861 -0.5614 -0.7541  0.9156
  937MPD2    C213755   2.979   4.663  11.761 -0.2193  0.4110 -0.3395
  937MPD2    C313756   3.006   4.542  11.704 -0.2274  0.2050  0.0621
  937MPD2    C413757   2.956   4.417  11.751 -1.2092 -0.6928 -0.1261
  937MPD2    C513758   2.871   4.432  11.855 -0.2326 -0.2752 -0.1993
  937MPD2     H13759   3.010   0.019  11.715  1.5590 -1.0763 -2.1167
  937MPD2    H113760   2.974   4.320  11.707  3.1960  0.0684 -0.0134
  937MPD2    H213761   2.729   4.552  11.953  0.0173  0.8851 -0.3885
  937MPD2    H313762   2.812   4.347  11.890 -1.4099 -0.3753 -2.4229
  937MPD2     N13763   3.083   4.550  11.587  0.0845 -0.3124  0.2601
  937MPD2    H513764   3.121   4.641  11.562 -1.3473  0.1178 -0.3381
  937MPD2    N113765   2.828   0.054  11.899 -0.1543 -0.3770  0.4464
  937MPD2    H713766   2.879   0.132  11.858  0.1964  0.3161  2.1799
  938MPD2     C13767   0.849   0.764   0.487  0.5908  0.0869  0.2802
  938MPD2    C113768   0.879   0.847   0.591 -0.1382  0.2673  0.0868
  938MPD2    C213769   0.814   0.831   0.713 -0.3032 -0.4682  0.6064
  938MPD2    C313770   0.707   0.741   0.721  0.4591 -0.8219  0.0506
  938MPD2    C413771   0.686   0.651   0.619 -0.1616 -0.0686 -0.4967
  938MPD2    C513772   0.761   0.664   0.504 -0.4092 -0.2065  0.4501
  938MPD2     H13773   0.827   0.892   0.802 -1.3194  0.6398 -0.0015
  938MPD2    H113774   0.602   0.586   0.638 -0.0697  0.5326  1.9931
  938MPD2    H213775   0.894   0.773   0.389 -1.1667 -0.7013 -0.5963
  938MPD2    H313776   0.737   0.602   0.418 -1.2279 -0.6947  1.0386
  938MPD2     N13777   0.627   0.723   0.834  0.1952  0.0358  0.0909
  938MPD2    H513778   0.574   0.637   0.835 -2.4393  1.6582  0.6837
  938MPD2    N113779   0.968   0.957   0.590  0.1006  0.1356 -0.6648
  938MPD2    H713780   0.987   1.002   0.680  0.2476 -1.4185  0.0776
  939MPD2     C13781   1.962   2.332   0.512 -0.2432 -0.3553  0.0548
  939MPD2    C113782   2.000   2.213   0.572 -0.1927 -0.1575  0.7732
  939MPD2    C213783   1.971   2.091   0.504  0.6440  0.5227  0.9733
  939MPD2    C313784   1.903   2.092   0.381 -0.1602 -0.0027  0.4996
  939MPD2    C413785   1.863   2.214   0.329 -0.2865 -0.1964  0.0786
  939MPD2    C513786   1.894   2.329   0.394 -0.3111 -0.3264 -0.3036
  939MPD2     H13787   1.998   1.995   0.546  4.1963  1.5781  1.1019
  939MPD2    H113788   1.807   2.226   0.237 -0.3301  1.2121  0.2795
  939MPD2    H213789   1.980   2.432   0.551  2.4315 -1.4091  1.5637
  939MPD2    H313790   1.858   2.421   0.351 -1.1766  0.7741  2.7488
  939MPD2     N13791   1.858   1.968   0.330  0.0523  0.0348 -0.3832
  939MPD2    H513792   1.876   1.885   0.386 -0.8330  1.0897  1.4387
  939MPD2    N113793   2.057   2.222   0.696  0.2015  0.0897  0.3578
  939MPD2    H713794   2.062   2.317   0.731  1.2547  0.3032 -0.3664
  940MPD2     C13795   1.416   3.446  12.749  0.0094  0.1513  0.2175
  940MPD2    C113796   1.384   3.332  12.820 -0.1816  0.4846 -0.3002
  940MPD2    C213797   1.389   3.210  12.747 -0.9079 -0.0899  0.5871
  940MPD2    C313798   1.392   3.214  12.603  0.1674  0.4318 -0.0708
  940MPD2    C413799   1.421   3.336  12.538  0.5454  0.5593 -0.3234
  940MPD2    C513800   1.440   3.443  12.615 -0.7204  0.0081 -0.0963
  940MPD2     H13801   1.367   3.123  12.808 -1.9290 -0.3482 -0.1547
  940MPD2    H113802   1.423   3.358  12.432 -1.9252  0.2951 -0.4300
  940MPD2    H213803   1.424   3.542  12.799  0.7026  1.5629 -2.5428
  940MPD2    H313804   1.481   3.530  12.566  1.0065 -2.1624 -2.4721
  940MPD2     N13805   1.392   3.097  12.519 -0.1344 -0.5751 -0.7750
  940MPD2    H513806   1.403   3.112  12.419  2.2041  2.4040 -0.0960
  940MPD2    N113807   1.362   3.329  12.955 -0.0982 -0.2764 -0.3402
  940MPD2    H713808   1.327   3.242  12.994 -2.1762  1.2966  1.2691
  941MPD2     C13809   0.950   2.145   9.979 -0.2896 -0.0603  0.4779
  941MPD2    C113810   0.854   2.049   9.954 -0.6482 -0.4107 -0.5586
  941MPD2    C213811   0.739   2.046  10.029  0.0059  0.4847 -0.5611
  941MPD2    C313812   0.711   2.143  10.125  0.2676  0.2557  0.1759
  941MPD2    C413813   0.803   2.242  10.144  0.3367 -0.1013 -0.1578
  941MPD2    C513814   0.916   2.245  10.067  0.0371 -0.3023  0.5587
  941MPD2     H13815   0.669   1.964  10.015  1.7398 -1.2896  1.1512
  941MPD2    H113816   0.794   2.323  10.215 -2.4565 -0.0896 -0.5520
  941MPD2    H213817   1.049   2.146   9.934 -0.9738  1.3937 -0.9577
  941MPD2    H313818   0.991   2.322  10.080 -0.3629 -0.2682  2.5132
  941MPD2     N13819   0.605   2.130  10.221  0.1696 -0.0930  0.1947
  941MPD2    H513820   0.621   2.161  10.316 -0.1742 -1.2382  0.6156
  941MPD2    N113821   0.864   1.946   9.857 -0.1744 -0.0997  0.2131
  941MPD2    H713822   0.784   1.898   9.819 -1.8124  2.1409  0.8223
  942MPD2     C13823   0.133   4.473   9.045  0.0443 -0.5478 -0.5935
  942MPD2    C113824   0.120   4.414   9.167  0.1448 -0.5218 -0.1727
  942MPD2    C213825   0.181   4.292   9.190 -0.7054 -0.7705 -0.3323
  942MPD2    C313826   0.246   4.222   9.089  0.1417 -0.3830  0.2045
  942MPD2    C413827   0.241   4.265   8.957  0.4984 -0.2437  0.2403
  942MPD2    C513828   0.195   4.397   8.945 -0.2543 -0.2550  0.3300
  942MPD2     H13829   0.173   4.245   9.287 -0.8500  0.2538  0.1556
  942MPD2    H113830   0.286   4.213   8.873 -0.5540 -0.5352 -0.1335
  942MPD2    H213831   0.084   4.567   9.023 -1.8722 -1.3453  0.3050
  942MPD2    H313832   0.205   4.441   8.846 -0.3633 -0.2698  0.3126
  942MPD2     N13833   0.315   4.094   9.106 -0.1673  0.0811 -0.0403
  942MPD2    H513834   0.372   4.051   9.033  1.0730  1.0946  0.3335
  942MPD2    N113835   0.036   4.461   9.272 -0.1972  0.0474  0.0109
  942MPD2    H713836   0.008   4.396   9.345 -0.5795  0.2662  0.0532
  943MPD2     C13837   3.360   2.059  10.629 -0.4261  0.2192  0.7508
  943MPD2    C113838   3.273   1.952  10.599 -1.0851 -0.1303  0.0480
  943MPD2    C213839   3.147   1.962  10.647 -0.7227  0.0567 -1.4717
  943MPD2    C313840   3.109   2.056  10.745 -0.2027  0.1907 -0.4990
  943MPD2    C413841   3.199   2.159  10.766 -0.2618  0.0198  0.6115
  943MPD2    C513842   3.319   2.165  10.703 -0.1557 -0.4769  0.2734
  943MPD2     H13843   3.074   1.886  10.621 -0.6075 -0.4017 -0.4282
  943MPD2    H113844   3.167   2.238  10.834  1.8180  0.1761  1.4367
  943MPD2    H213845   3.461   2.056  10.588  0.1950 -0.0324  2.2990
  943MPD2    H313846   3.379   2.254  10.717 -1.6046  0.2687  1.7046
  943MPD2     N13847   2.979   2.056  10.809  0.0408 -0.3265  0.1949
  943MPD2    H513848   2.976   2.125  10.883 -2.1761 -0.9997  0.7259
  943MPD2    N113849   3.328   1.852  10.511 -0.9124  0.4288  0.1131
  943MPD2    H713850   3.419   1.866  10.469 -0.4033 -2.3043  0.3087
  944MPD2     C13851   4.263   0.926  11.338 -0.5840 -0.8009  0.3754
  944MPD2    C113852   4.215   0.966  11.218 -0.4947 -0.0436  0.0390
  944MPD2    C213853   4.075   0.960  11.203 -0.1058 -0.6095 -0.5514
  944MPD2    C313854   3.997   0.920  11.309 -0.1916  0.1351 -0.3046
  944MPD2    C413855   4.050   0.885  11.432  1.2691  0.6456 -0.1624
  944MPD2    C513856   4.184   0.881  11.443  0.0817  0.7150 -0.0466
  944MPD2     H13857   4.029   0.989  11.110  1.3104 -1.1212 -1.4067
  944MPD2    H113858   3.989   0.863  11.518  0.4596  1.6132 -0.4901
  944MPD2    H213859   4.369   0.919  11.355 -0.1295 -1.5740 -2.7870
  944MPD2    H313860   4.227   0.863  11.541 -2.1635  0.1659  0.8149
  944MPD2     N13861   3.857   0.936  11.283  0.0038 -0.3485  0.3132
  944MPD2    H513862   3.826   0.954  11.188  2.3970 -1.7851 -0.7296
  944MPD2    N113863   4.306   1.018  11.126  0.2942 -0.3812 -0.3020
  944MPD2    H713864   4.402   1.025  11.157 -0.3356  0.2273  1.5352
    1TMC1    C113865   2.283   1.806  14.453  0.7059  0.1117 -0.2831
    1TMC1    C213866   2.394   1.728  14.446  0.1988  0.4567 -0.5672
    1TMC1    C313867   2.399   1.643  14.339  0.0012  0.3952 -0.0540
    1TMC1    C413868   2.177   1.785  14.369 -0.1113 -0.5878  0.1813
    1TMC1    C513869   2.183   1.691  14.270  0.7242 -1.6091 -0.3632
    1TMC1    C613870   2.290   1.615  14.255 -0.3590  0.1385  0.0895
    1TMC1     C13871   2.290   1.924  14.540  0.6836  0.4116  0.1860
    1TMC1     O13872   2.385   1.930  14.620 -0.3454  0.0719 -0.1629
    1TMC1     H13873   2.480   1.745  14.510  0.8143  0.4812 -1.3975
    1TMC1    H113874   2.098   1.858  14.355  0.1000 -0.0475  1.7848
    1TMC1    H213875   2.292   1.549  14.168 -1.2430 -1.7903  1.5375
    1TMC1    C713876   2.080   1.675  14.180  0.8480  0.5186 -0.2573
    1TMC1    C813877   2.507   1.548  14.343  0.3921  0.2483  0.2838
    1TMC1    O113878   2.084   1.610  14.079  0.1480  0.3866  0.8345
    1TMC1    O213879   2.562   1.510  14.443 -0.0036 -0.3193  0.2388
    1TMC1    O313880   1.963   1.709  14.241 -0.2645 -0.1863 -0.0352
    1TMC1    H313881   1.965   1.762  14.324 -0.9146 -1.6046  0.8783
    1TMC1    O513882   2.543   1.541  14.213 -0.3742  0.0203 -0.1083
    1TMC1    H513883   2.489   1.606  14.164  1.3135  0.2362 -1.6666
    2MPD2     C13884   2.022   2.310  14.749  0.4808  0.2704  0.4655
    2MPD2    C113885   1.977   2.287  14.624 -0.2467  0.1150 -0.1376
    2MPD2    C213886   2.034   2.190  14.540 -0.1129 -0.1758  0.3018
    2MPD2    C313887   2.147   2.123  14.592 -0.1623  0.2275 -1.1698
    2MPD2    C413888   2.203   2.153  14.718 -0.9578  0.5686 -1.2251
    2MPD2    C513889   2.134   2.241  14.792 -0.3006  0.0468 -0.2444
    2MPD2     H13890   1.987   2.156  14.448  0.2664  0.1115  0.0014
    2MPD2    H113891   2.293   2.109  14.758 -0.3409  1.0774 -2.0493
    2MPD2    H213892   1.972   2.386  14.807  2.2155  1.0098  0.9878
    2MPD2    H313893   2.167   2.258  14.894 -0.3185  0.6411 -0.3360
    2MPD2     N13894   2.179   2.003  14.521 -0.8297 -0.0475 -0.6569
    2MPD2    H513895   2.123   1.977  14.440 -0.4660 -0.7744 -0.6773
    2MPD2    N113896   1.879   2.379  14.582  0.3140 -0.4075  0.9372
    2MPD2    H713897   1.852   2.449  14.650  0.6324  0.0117  0.6327
    3TMC2    C113898   1.733   2.502  14.444 -0.2696 -0.3371 -0.1301
    3TMC2    C213899   1.686   2.566  14.549 -0.0711 -0.4254 -0.8063
    3TMC2    C313900   1.649   2.695  14.541 -0.5769 -0.0538 -0.1762
    3TMC2    C413901   1.728   2.555  14.325 -0.3456 -0.0638  0.0663
    3TMC2    C513902   1.692   2.688  14.308 -0.4045  1.0868 -0.5109
    3TMC2    C613903   1.649   2.761  14.418  0.3539 -0.0533  0.3295
    3TMC2     C13904   1.819   2.386  14.459  0.0465  0.7032  0.5039
    3TMC2     O13905   1.839   2.320  14.359 -0.1668  0.1998 -0.4942
    3TMC2     H13906   1.666   2.526  14.648  1.2318  2.1642  0.4853
    3TMC2    H113907   1.760   2.500  14.237 -0.3634 -0.5212  0.3443
    3TMC2    H213908   1.597   2.854  14.400  0.3835 -0.1972 -0.5176
    3TMC2    C713909   1.659   2.728  14.176  0.2170  0.8179  0.2262
    3TMC2    C813910   1.684   2.781  14.662  0.2034 -0.3683 -0.3655
    3TMC2    O113911   1.631   2.650  14.086 -0.3715 -0.0636 -0.0994
    3TMC2    O213912   1.774   2.751  14.737 -0.6443  0.1296  0.0469
    3TMC2    O513913   1.612   2.894  14.647  0.3171 -0.0531  0.2468
    3TMC2    H513914   1.549   2.881  14.573  2.1014 -0.1108 -1.2611
    4TMC2    C113915   1.797   3.681  13.878 -0.1825 -0.7249 -0.5256
    4TMC2    C213916   1.888   3.749  13.953 -0.0480  0.8653  0.5437
    4TMC2    C313917   1.906   3.686  14.074  0.0112  0.2918  0.2043
    4TMC2    C413918   1.742   3.563  13.899  0.1131  0.7961 -0.4075
    4TMC2    C513919   1.765   3.500  14.017 -0.3276  0.2578 -0.5183
    4TMC2    C613920   1.844   3.568  14.102  0.4486  0.4255  0.6141
    4TMC2     C13921   1.787   3.745  13.749  0.2445  1.0629 -0.1772
    4TMC2     O13922   1.861   3.832  13.716 -0.1515 -0.9045  0.1302
    4TMC2     H13923   1.958   3.827  13.926 -0.6487  0.5713 -1.8270
    4TMC2    H113924   1.675   3.520  13.825 -1.3737  2.5072 -0.0514
    4TMC2    H213925   1.849   3.536  14.205  0.2069 -0.4411  0.3551
    4TMC2    C713926   1.711   3.373  14.054 -0.0717 -0.3090 -0.1284
    4TMC2    C813927   1.995   3.751  14.170  0.3251  0.0560 -0.8486
    4TMC2    O113928   1.708   3.344  14.172  0.1613 -0.2405  0.0109
    4TMC2    O213929   2.083   3.826  14.129 -0.0947  0.5211  0.6443
    4TMC2    O513930   1.905   3.787  14.265  0.4753 -0.0824 -0.0580
    4TMC2    H513931   1.811   3.760  14.264  0.4251  0.0388  1.5968
    5MPD2     C13932   1.550   3.865  13.306 -0.1384  0.2193 -0.2633
    5MPD2    C113933   1.459   3.800  13.389 -0.5195  0.3353  0.2749
    5MPD2    C213934   1.502   3.755  13.517 -0.5934  0.2169  0.0012
    5MPD2    C313935   1.634   3.776  13.556  0.0878  0.7477 -0.3521
    5MPD2    C413936   1.727   3.832  13.466 -0.0150  0.0293 -0.0260
    5MPD2    C513937   1.685   3.870  13.339  0.1372 -0.1715  0.1579
    5MPD2     H13938   1.434   3.704  13.585 -0.9285  0.0300 -0.4770
    5MPD2    H113939   1.832   3.827  13.491 -0.1645  1.5849  0.8961
    5MPD2    H213940   1.525   3.899  13.206 -1.0658  0.6579  0.1211
    5MPD2    H313941   1.758   3.891  13.261 -0.5971 -1.1831 -0.8114
    5MPD2     N13942   1.667   3.719  13.682 -0.1194  0.2790 -0.1734
    5MPD2    H513943   1.603   3.655  13.728  0.1549  2.0246  2.6028
    5MPD2    N113944   1.319   3.782  13.344 -0.3062  0.3698 -0.4906
    5MPD2    H713945   1.288   3.828  13.259 -0.7788 -0.2167 -0.6392
    6MPD1     C13946   0.228   0.480  13.657  1.2389 -0.2286  0.6227
    6MPD1    C113947   0.150   0.386  13.728  0.5843 -0.0334 -0.2023
    6MPD1    C213948   0.194   0.256  13.720 -0.4735 -0.5878  0.2951
    6MPD1    C313949   0.281   0.215  13.623  0.9262  0.2806  0.2492
    6MPD1    C413950   0.336   0.312  13.532  0.0534  0.5827  0.6363
    6MPD1    C513951   0.316   0.445  13.558  0.0356  0.3707 -0.6008
    6MPD1     H13952   0.157   0.180  13.788  0.3619 -2.2545 -1.1258
    6MPD1    H113953   0.401   0.286  13.449 -0.5099  1.4519 -0.0602
    6MPD1    H213954   0.212   0.587  13.670  0.3647 -0.0128 -2.3105
    6MPD1    H313955   0.373   0.518  13.502 -2.1544  0.3670 -2.8527
    6MPD1     N13956   0.313   0.083  13.594  0.4715 -0.1632  0.4673
    6MPD1    H513957   0.385   0.071  13.525 -1.0753 -0.7356 -1.0323
    6MPD1    N113958   0.066   0.431  13.833  0.3762 -0.0242  0.3240
    6MPD1    H613959   4.718   0.375  13.845  1.1763 -1.1415  0.7316
    6MPD1    H713960   0.030   0.526  13.824 -1.1210 -0.7190 -0.9409
    7MPD2     C13961   0.402   3.955  13.731  0.0077  0.5137 -0.0603
    7MPD2    C113962   0.479   4.046  13.662 -0.2790  0.3036  0.6986
    7MPD2    C213963   0.585   3.990  13.591  0.8800  0.1035  0.2916
    7MPD2    C313964   0.619   3.860  13.591  0.6175 -0.0631 -0.2989
    7MPD2    C413965   0.554   3.773  13.675 -0.1347  0.4407  0.3388
    7MPD2    C513966   0.439   3.820  13.738  0.4978 -0.2039  0.4449
    7MPD2     H13967   0.648   4.052  13.528  0.5863  0.4855  0.3689
    7MPD2    H113968   0.563   3.665  13.676 -0.1416  0.4334 -0.0992
    7MPD2    H213969   0.304   3.972  13.774 -0.1430  1.6632 -0.8517
    7MPD2    H313970   0.376   3.745  13.784  0.8679 -0.6209  0.2756
    7MPD2     N13971   0.730   3.818  13.518 -0.0008 -0.6047 -0.4901
    7MPD2    H513972   0.771   3.884  13.453 -0.4546  0.5893  0.4319
    7MPD2    N113973   0.454   4.181  13.639 -0.5686 -0.8086 -0.3000
    7MPD2    H713974   0.516   4.229  13.574 -0.2303 -0.4160  0.3166
    8TMC3    C113975   0.855   3.665  13.388  0.1864  0.2180 -0.1574
    8TMC3    C213976   0.989   3.637  13.416  0.1071  0.6453 -0.0340
    8TMC3    C313977   1.085   3.728  13.374  0.4874 -0.7777  0.9488
    8TMC3    C413978   0.822   3.761  13.299  0.9246  0.4828  0.7858
    8TMC3    C513979   0.918   3.851  13.258 -0.2528  0.4170 -0.2123
    8TMC3    C613980   1.048   3.831  13.299  0.0388  0.2865 -0.5641
    8TMC3     C13981   0.766   3.680  13.501  0.4690  0.3138 -0.2960
    8TMC3     O13982   0.781   3.594  13.585 -0.5472 -0.0914 -0.1958
    8TMC3     H13983   1.013   3.572  13.499  1.1260  0.0930 -0.7683
    8TMC3    H113984   0.719   3.789  13.282  0.4528  0.0145  2.8649
    8TMC3    H213985   1.118   3.913  13.284  1.0427 -0.4619  0.0507
    8TMC3    C713986   0.874   3.981  13.260 -0.3295  0.1411 -0.2731
    8TMC3    C813987   1.221   3.726  13.427  0.1320 -0.2071  0.0892
    8TMC3    O113988   0.828   4.008  13.370  0.2136  0.0516 -0.3030
    8TMC3    O213989   1.241   3.637  13.511 -0.5509  0.6400 -0.3582
    9TMC3    C113990   0.289   4.591  13.580  0.1316  0.1204 -0.2558
    9TMC3    C213991   0.339   4.589  13.455  0.7267 -0.7974 -0.2935
    9TMC3    C313992   0.377   4.478  13.393 -0.8182 -0.2922 -0.8116
    9TMC3    C413993   0.279   4.482  13.652  0.3365 -0.3285 -0.1611
    9TMC3    C513994   0.323   4.368  13.594  0.4658 -0.7838 -0.6113
    9TMC3    C613995   0.371   4.362  13.465  0.0832  0.1737 -0.6755
    9TMC3     C13996   0.242   4.711  13.645 -0.8036  0.1352  0.0278
    9TMC3     O13997   0.176   4.702  13.749  0.5905 -0.1755 -0.5082
    9TMC3     H13998   0.345   4.680  13.396 -2.6667 -1.3276 -1.4994
    9TMC3    H113999   0.234   4.488  13.751 -0.1736 -0.9291 -0.3561
    9TMC3    H214000   0.368   4.264  13.417 -0.4803 -0.0102 -0.2633
    9TMC3    C714001   0.349   4.252  13.678  0.1939  0.5980 -0.8642
    9TMC3    C814002   0.452   4.480  13.267  0.1056  0.2627  0.9980
    9TMC3    O114003   0.265   4.229  13.762  0.1708  0.5976 -0.4231
    9TMC3    O214004   0.449   4.566  13.178 -0.5410 -0.3025  0.2267
   10MPD2     C14005   0.837   4.243  13.007 -0.1104  0.0463  0.7188
   10MPD2    C114006   0.824   4.180  13.128  0.1212  0.1923 -0.4532
   10MPD2    C214007   0.723   4.227  13.213 -0.5088  0.0362  0.0454
   10MPD2    C314008   0.639   4.332  13.181  0.5505 -0.3209  0.4960
   10MPD2    C414009   0.658   4.396  13.057 -0.2802  0.5048  0.2174
   10MPD2    C514010   0.758   4.354  12.974 -0.2948 -0.3025 -0.4115
   10MPD2     H14011   0.715   4.176  13.309 -2.1084 -0.7655 -0.5217
   10MPD2    H114012   0.589   4.472  13.023  0.0404  0.6558 -0.0894
   10MPD2    H214013   0.898   4.212  12.923 -1.0374  2.0131 -0.6746
   10MPD2    H314014   0.752   4.393  12.872  2.6386 -0.5793 -0.6819
   10MPD2     N14015   0.541   4.376  13.278 -0.6217 -0.2172 -0.4957
   10MPD2    H514016   0.563   4.334  13.367 -0.0819 -0.9834 -0.9925
   10MPD2    N114017   0.893   4.054  13.148 -0.1844 -0.2950  0.3424
   10MPD2    H714018   0.940   4.010  13.069 -0.2699  1.1660 -0.5161
   11MPD2     C14019   1.602   2.885  13.923 -0.7914  0.5133  0.7141
   11MPD2    C114020   1.640   2.938  14.045  0.1342  0.3346  0.8541
   11MPD2    C214021   1.669   3.074  14.052 -0.1774 -0.1900  0.3873
   11MPD2    C314022   1.656   3.157  13.942 -0.1680  0.0142 -0.1869
   11MPD2    C414023   1.621   3.100  13.821  0.8820 -1.2092  0.3883
   11MPD2    C514024   1.587   2.971  13.815  0.5110  0.4772  0.3906
   11MPD2     H14025   1.699   3.120  14.146  2.3403  0.6930 -0.8267
   11MPD2    H114026   1.603   3.166  13.736 -1.7321 -1.0413  1.0625
   11MPD2    H214027   1.573   2.782  13.914 -1.1705  0.8158 -1.5724
   11MPD2    H314028   1.548   2.937  13.720 -1.0367  2.3357  0.3707
   11MPD2     N14029   1.693   3.296  13.942  0.4370 -0.4541  0.9166
   11MPD2    H514030   1.699   3.354  13.858 -0.8463 -2.3264 -0.4725
   11MPD2    N114031   1.674   2.863  14.166 -0.2469 -0.3596  0.2582
   11MPD2    H714032   1.725   2.914  14.238 -0.0859 -0.1384 -0.0122
    1MPD1     C14033   3.734   4.230  16.965  0.4259  0.6562  0.0774
    1MPD1    C114034   3.677   4.352  16.937 -0.6582 -0.8490 -0.5539
    1MPD1    C214035   3.752   4.433  16.848  0.4174  0.4238 -0.8022
    1MPD1    C314036   3.873   4.394  16.796  0.4155 -0.3653  0.3901
    1MPD1    C414037   3.933   4.274  16.842 -0.9435 -0.5797 -0.5953
    1MPD1    C514038   3.855   4.189  16.917 -0.0023 -0.1993 -0.6032
    1MPD1     H14039   3.701   4.525  16.820 -2.5645 -1.0577 -0.2842
    1MPD1    H114040   4.032   4.246  16.808 -1.2961 -0.6943 -1.5252
    1MPD1    H214041   3.691   4.168  17.042  2.6250  0.6536  1.2956
    1MPD1    H314042   3.900   4.092  16.935 -0.2466 -0.4665 -1.4202
    1MPD1     N14043   3.929   4.463  16.686 -0.3793  0.1950  0.5881
    1MPD1    H514044   4.018   4.430  16.650 -0.9124 -2.1608  1.4495
    1MPD1    N114045   3.563   4.395  16.994 -0.3959  0.1349  0.5893
    1MPD1    H614046   3.524   4.477  16.947 -1.4355 -0.2465  0.7969
    1MPD1    H714047   3.493   4.322  16.988 -0.2410 -0.0055  0.5137
    2MPD1     C14048   3.522   0.509  16.269  0.5236  0.6168  0.2529
    2MPD1    C114049   3.484   0.407  16.350  0.7780  0.1644  0.8529
    2MPD1    C214050   3.582   0.314  16.377  0.5434  0.4466 -0.2710
    2MPD1    C314051   3.706   0.318  16.321  0.6459  0.3296 -0.8149
    2MPD1    C414052   3.749   0.421  16.247  0.4096 -0.3049  0.9078
    2MPD1    C514053   3.652   0.515  16.222 -0.1035  0.3069 -0.5996
    2MPD1     H14054   3.555   0.229  16.437  2.4071  0.8148  1.0977
    2MPD1    H114055   3.843   0.445  16.198 -0.5022 -0.5807 -1.0054
    2MPD1    H214056   3.454   0.588  16.237 -0.0425 -0.3280 -0.8992
    2MPD1    H314057   3.668   0.601  16.157 -2.7304  0.9361 -0.4342
    2MPD1     N14058   3.793   0.219  16.363 -0.3381  0.0441 -0.0336
    2MPD1    H514059   3.764   0.144  16.425  0.9755 -0.7415 -0.3655
    2MPD1    N114060   3.355   0.384  16.396 -0.5007  0.8766  0.4957
    2MPD1    H614061   3.311   0.467  16.436 -0.6210  0.3666  1.4140
    2MPD1    H714062   3.346   0.310  16.465 -0.9338  1.7688  1.3818
    3TMC3    C114063   3.990   0.084  16.375 -0.5455 -0.0912  0.6823
    3TMC3    C214064   4.130   0.093  16.399  0.9321  0.3032 -0.4692
    3TMC3    C314065   4.174   4.736  16.490  0.4117  0.1367 -0.5549
    3TMC3    C414066   3.908   4.725  16.434 -0.0474  0.2359 -0.4695
    3TMC3    C514067   3.958   4.636  16.524 -0.0390  0.7029  0.3561
    3TMC3    C614068   4.090   4.654  16.563  0.3454  0.0088 -0.0206
    3TMC3     C14069   3.921   0.203  16.312  1.0341 -0.6456 -0.4630
    3TMC3     O14070   3.992   0.262  16.228 -0.0134 -0.3092 -0.1022
    3TMC3     H14071   4.197   0.157  16.342  1.7603 -0.7754 -0.7108
    3TMC3    H114072   3.803   4.716  16.408 -0.2974  0.3508  0.5076
    3TMC3    H214073   4.140   4.606  16.647 -0.0667 -0.0256  0.2033
    3TMC3    C714074   3.866   4.568  16.616 -0.4813  0.2403  0.2225
    3TMC3    C814075   4.315   0.010  16.539  0.1781  0.0741  0.1538
    3TMC3    O114076   3.749   4.600  16.613  0.1198 -0.2410 -0.3816
    3TMC3    O214077   4.337   0.007  16.659 -0.3601 -0.1364  0.1612
    4MPD1     C14078   0.090   0.006  16.491  0.9584  0.2823  0.0541
    4MPD1    C114079   0.037   4.706  16.367 -0.2657  0.2654  0.5203
    4MPD1    C214080   4.634   4.707  16.356 -0.2454  0.3728  0.0933
    4MPD1    C314081   4.550   0.009  16.459  0.2547  0.7125 -0.1003
    4MPD1    C414082   4.612   0.057  16.574  0.8122  0.0645  0.4953
    4MPD1    C514083   0.010   0.041  16.589  0.4743 -0.3085  0.0691
    4MPD1     H14084   4.595   4.690  16.256  0.8201 -0.4331 -0.1884
    4MPD1    H114085   4.557   0.102  16.656 -0.7711 -1.0967  0.0669
    4MPD1    H214086   0.197   0.017  16.501  1.1712 -2.2373  0.5230
    4MPD1    H314087   0.052   0.080  16.681  0.9244 -2.5043  0.7948
    4MPD1     N14088   4.408   0.016  16.437  0.1912  0.2520  0.2242
    4MPD1    H514089   4.379   4.735  16.342 -0.6596 -3.8502  1.2511
    4MPD1    N114090   0.127   4.690  16.259 -1.0996  0.0529 -0.3159
    4MPD1    H614091   0.220   4.660  16.286 -0.3460  1.9739 -0.7361
    4MPD1    H714092   0.098   4.622  16.189 -2.1739 -0.6865  0.8667
    1TCq1    O114093   1.132   4.226  10.408  0.3378 -0.1359 -0.0244
    1TCq1    C114094   1.094   4.276  10.525  0.6433  0.0477 -0.6860
    1TCq1    O214095   1.156   4.270  10.629 -0.1452  0.0665 -0.3236
    1TCq1    C214096   0.951   4.263  10.527  0.4406  0.8479 -0.4047
    1TCq1    C314097   0.883   4.156  10.460 -0.2345 -0.0074  0.2826
    1TCq1    C414098   0.758   4.112  10.511 -0.3198 -0.3175  0.9716
    1TCq1    C514099   0.692   4.182  10.607  0.2115  0.4962 -0.2863
    1TCq1    C614100   0.749   4.291  10.660 -0.6282  0.6643 -0.2759
    1TCq1    C714101   0.881   4.323  10.631 -0.1472  0.2438 -0.5616
    1TCq1    C814102   0.705   4.320  10.799 -0.3829 -1.0813 -0.5763
    1TCq1    O414103   0.764   4.409  10.851  0.2839  0.1338 -0.0984
    1TCq1    C914104   0.672   4.033  10.429 -0.0557 -0.2541  0.0360
    1TCq1    O514105   0.728   3.991  10.326 -0.0380  0.2741 -0.3567
    1TCq1    O614106   0.564   3.986  10.481  0.1358 -0.2193  0.3136
    1TCq1    H114107   1.057   4.250  10.349 -1.1132 -0.6364  1.5938
    1TCq1    H214108   0.933   4.096  10.384 -1.1935  0.9435 -1.0830
    1TCq1    H314109   0.585   4.171  10.612  0.3124  0.6130  2.1009
    1TCq1    H414110   0.930   4.406  10.681  0.1828 -1.0321  1.2475
    2MPD1     C14111   0.365   4.323  11.181  0.7060  1.2278 -0.1703
    2MPD1    C114112   0.356   4.198  11.117 -0.5755 -0.2113  0.8757
    2MPD1    C214113   0.429   4.183  10.996  0.2660 -0.0006  0.7288
    2MPD1    C314114   0.520   4.281  10.955 -0.1064  0.4696  0.3579
    2MPD1    C414115   0.532   4.397  11.028  0.3427 -0.5925 -0.5559
    2MPD1    C514116   0.458   4.416  11.147  0.8003 -0.0857  0.1909
    2MPD1     H14117   0.405   4.105  10.924 -0.4731  2.0511 -1.2508
    2MPD1    H114118   0.601   4.476  11.002 -0.8358  0.7315  0.3360
    2MPD1    H214119   0.311   4.342  11.273 -1.1886 -1.0733 -0.7893
    2MPD1    H314120   0.470   4.511  11.198  3.3144  0.5247 -1.5293
    2MPD1     N14121   0.587   4.259  10.837 -0.0221 -0.1001 -0.3644
    2MPD1    H514122   0.553   4.180  10.783 -1.9150  1.2701 -1.1771
    2MPD1    N114123   0.243   4.123  11.143 -0.9469 -0.7588 -0.2363
    2MPD1    H614124   0.214   4.113  11.240  0.7353 -0.9602  0.2440
    2MPD1    H714125   0.268   4.029  11.114 -0.2719 -0.7396  0.2854
    1TMC1    C114126   2.729   0.539   0.521  0.0860 -0.1056  0.9546
    1TMC1    C214127   2.867   0.549   0.508 -0.2875 -0.1193  0.6584
    1TMC1    C314128   2.945   0.475   0.587 -0.7769 -0.0962  0.2462
    1TMC1    C414129   2.663   0.450   0.602  0.4204  0.7758  0.0046
    1TMC1    C514130   2.748   0.372   0.680  0.0462 -0.2876 -0.9050
    1TMC1    C614131   2.884   0.387   0.674 -0.8246 -0.0726  0.7703
    1TMC1     C14132   2.641   0.623   0.441  0.3173  0.5704  0.0870
    1TMC1     O14133   2.526   0.643   0.475  0.6024 -0.2343  0.3045
    1TMC1     H14134   2.908   0.624   0.442  2.4969 -0.5772  1.8558
    1TMC1    H114135   2.556   0.434   0.595  0.9795 -1.8978 -2.1700
    1TMC1    H214136   2.952   0.321   0.725  0.9158  0.8188 -0.3740
    1TMC1    C714137   2.700   0.244   0.726 -0.4071 -0.5656 -0.8353
    1TMC1    C814138   3.089   0.479   0.560  0.5767  0.1777 -0.5035
    1TMC1    O114139   2.769   0.144   0.738 -0.1297  0.2083  0.3595
    1TMC1    O214140   3.134   0.468   0.450 -0.3494 -1.0764  0.1422
    1TMC1    O314141   2.573   0.258   0.769  0.6643 -0.2689  0.8634
    1TMC1    H314142   2.548   0.353   0.771  2.8253  0.2870  0.6692
    1TMC1    O514143   3.152   0.450   0.675 -0.2658 -0.3888  0.1699
    1TMC1    H514144   3.083   0.460   0.744  0.3776  1.6393  0.5100
    2MPD1     C14145   2.552   0.867  17.735 -0.0849  0.2821  0.1029
    2MPD1    C114146   2.681   0.825  17.740 -0.1397  0.3341  0.5249
    2MPD1    C214147   2.728   0.753   0.097 -0.6357  0.0741  0.2319
    2MPD1    C314148   2.644   0.723   0.208  0.4358  0.3706  0.0583
    2MPD1    C414149   2.511   0.765   0.196 -0.7397 -0.0874 -0.2209
    2MPD1    C514150   2.467   0.838   0.092 -1.0098 -0.2274 -0.3244
    2MPD1     H14151   2.827   0.711   0.086  0.0839  2.0437 -0.9017
    2MPD1    H114152   2.431   0.750   0.268 -1.2529  2.4741 -0.2608
    2MPD1    H214153   2.517   0.921  17.649 -0.8766  0.5645  0.5979
    2MPD1    H314154   2.363   0.867   0.084 -1.2729 -1.9179 -2.9450
    2MPD1     N14155   2.703   0.647   0.318 -0.3467 -0.7345  0.7149
    2MPD1    H514156   2.799   0.615   0.311 -0.4375 -1.6441  3.9266
    2MPD1    N114157   2.772   0.866  17.637 -0.6834 -0.0440 -0.3457
    2MPD1    H614158   2.733   0.895  17.548  0.4225 -1.6856 -1.3562
    2MPD1    H714159   2.830   0.784  17.623 -1.1946 -0.4546 -0.0740
    1MPD1     C14160   2.018   4.057  13.200  0.5711 -1.2686  0.3616
    1MPD1    C114161   2.079   4.042  13.074  0.5686 -0.4047 -0.3175
    1MPD1    C214162   2.067   4.151  12.991  0.1149  0.2728  0.1053
    1MPD1    C314163   1.990   4.257  13.023 -0.1110 -0.3209 -0.9788
    1MPD1    C414164   1.930   4.272  13.143  0.5065  0.0666  0.2811
    1MPD1    C514165   1.950   4.173  13.236  0.5140 -0.6312  0.5563
    1MPD1     H14166   2.123   4.159  12.898 -1.3448  0.0432 -0.7967
    1MPD1    H114167   1.859   4.349  13.169  0.2409  0.2971 -1.1287
    1MPD1    H214168   2.027   3.986  13.281  2.4159  0.7063  1.8788
    1MPD1    H314169   1.905   4.185  13.334  2.2003 -0.4759  1.3208
    1MPD1     N14170   1.978   4.349  12.917 -0.6183 -0.1720 -1.1052
    1MPD1    H514171   2.029   4.334  12.831  1.2040  0.5084 -0.1497
    1MPD1    N114172   2.162   3.929  13.045  0.0313  0.0624 -0.1903
    1MPD1    H614173   2.169   3.890  12.952  1.1998 -0.3686  0.0738
    1MPD1    H714174   2.134   3.850  13.103 -0.9149  0.2141 -0.4483
    2MPD1     C14175   1.229   3.818  11.493 -0.8755 -0.5646 -0.6484
    2MPD1    C114176   1.177   3.842  11.370  0.1853  0.0942 -0.0037
    2MPD1    C214177   1.256   3.930  11.294  0.1735  0.1449 -0.2114
    2MPD1    C314178   1.385   3.962  11.330  0.3560 -0.1398 -0.9760
    2MPD1    C414179   1.432   3.925  11.454  0.6793 -0.0841 -0.5152
    2MPD1    C514180   1.357   3.847  11.537  0.3440 -0.1191 -0.2777
    2MPD1     H14181   1.207   3.967  11.204 -0.9132 -0.2206  0.2304
    2MPD1    H114182   1.528   3.964  11.486 -0.3761  1.3952  0.8525
    2MPD1    H214183   1.171   3.755  11.560 -0.0307  1.0363  1.6085
    2MPD1    H314184   1.399   3.826  11.635 -3.0043  2.0801  1.6177
    2MPD1     N14185   1.467   4.038  11.248 -0.0768 -0.2210 -0.4480
    2MPD1    H514186   1.550   4.075  11.293  1.0804 -0.6008 -2.2630
    2MPD1    N114187   1.039   3.810  11.335  0.0883 -0.7831  0.0052
    2MPD1    H614188   1.018   3.811  11.236  1.1510 -1.2301 -0.2289
    2MPD1    H714189   1.010   3.724  11.381 -2.2597 -0.0420 -0.1125
    3MPD1     C14190   2.105   4.057  10.464  0.3648  0.1567  0.4291
    3MPD1    C114191   2.074   3.949  10.540 -0.3232 -1.0649  0.3746
    3MPD1    C214192   2.002   3.964  10.650 -0.2793 -0.1049 -0.3969
    3MPD1    C314193   1.942   4.084  10.681 -0.7179  0.3446 -0.0606
    3MPD1    C414194   1.964   4.196  10.599 -0.4090 -0.3183  0.0780
    3MPD1    C514195   2.050   4.177  10.498  0.7486  0.0458  0.2249
    3MPD1     H14196   1.982   3.883  10.720  0.0537 -0.7250 -1.0246
    3MPD1    H114197   1.913   4.289  10.619 -1.8567 -0.9885 -0.5480
    3MPD1    H214198   2.171   4.055  10.378 -2.6909 -2.8497 -1.9031
    3MPD1    H314199   2.054   4.256  10.424 -0.3367 -1.3177 -1.2924
    3MPD1     N14200   1.858   4.102  10.797 -0.3506  0.1884  0.6271
    3MPD1    H514201   1.832   4.020  10.851  2.0763 -0.6975  0.4663
    3MPD1    N114202   2.166   3.839  10.539 -0.1979  0.2638  0.3370
    3MPD1    H614203   2.213   3.824  10.449  1.0972  0.2263  1.0163
    3MPD1    H714204   2.128   3.752  10.574  0.1673  0.1961  0.5695
    4MPD2     C14205   1.577   0.278  12.482 -0.7080  0.4951 -0.3818
    4MPD2    C114206   1.669   0.187  12.440 -0.0268 -0.0886  0.3518
    4MPD2    C214207   1.708   0.188  12.307  0.0005  0.5034 -0.3805
    4MPD2    C314208   1.654   0.286  12.218 -0.3915 -0.3895 -0.3914
    4MPD2    C414209   1.540   0.351  12.259 -0.4990  0.4032 -0.0638
    4MPD2    C514210   1.507   0.348  12.394  0.0424  0.1878  0.5755
    4MPD2     H14211   1.789   0.123  12.275 -1.0843 -1.2661  0.4279
    4MPD2    H114212   1.475   0.419  12.205 -1.5205 -0.5290 -0.0058
    4MPD2    H214213   1.540   0.280  12.583  1.6327 -0.9404  0.4982
    4MPD2    H314214   1.421   0.398  12.437 -1.2129 -0.8847 -0.6795
    4MPD2     N14215   1.709   0.319  12.090 -0.0095 -0.2329 -0.9097
    4MPD2    H514216   1.660   0.395  12.043 -1.4548  0.1674  1.2329
    4MPD2    N114217   1.728   0.090  12.519 -0.4177  0.1260 -0.3981
    4MPD2    H714218   1.782   0.012  12.482 -1.5131 -0.4166 -0.8281
    5TMC3    C114219   1.844   0.004  12.701 -0.0779  0.0715 -0.1215
    5TMC3    C214220   1.813   4.637  12.788  0.2326  0.3197 -0.4673
    5TMC3    C314221   1.924   4.561  12.820  0.2585 -0.7301 -0.0160
    5TMC3    C414222   1.959   0.019  12.634  0.1184 -0.1735 -1.1998
    5TMC3    C514223   2.054   4.668  12.662  0.2385 -0.7311 -0.4768
    5TMC3    C614224   2.046   4.573  12.758 -0.0718 -0.1100 -0.4863
    5TMC3     C14225   1.737   0.090  12.657  0.6475 -0.1285  0.2074
    5TMC3     O14226   1.662   0.140  12.742 -0.1808  0.3166 -0.7013
    5TMC3     H14227   1.716   4.624  12.836  0.1814 -1.9936 -1.1602
    5TMC3    H114228   1.976   0.102  12.565 -1.2315  1.4576  0.4441
    5TMC3    H214229   2.133   4.512  12.776  0.0653  0.0905 -0.4754
    5TMC3    C714230   2.164   4.666  12.572 -0.5980  0.0974  0.5157
    5TMC3    C814231   1.895   4.459  12.917 -0.0246 -0.3234 -0.0902
    5TMC3    O114232   2.266   4.608  12.607 -0.6328  0.3381  0.0162
    5TMC3    O214233   1.805   4.488  12.992  0.1010 -0.2585 -0.3378
    6TMC3    C114234   1.558   4.159  11.085  0.0899 -0.1166  0.1325
    6TMC3    C214235   1.632   4.148  10.970  0.2126  0.0599  0.1784
    6TMC3    C314236   1.751   4.222  10.969  0.0715  0.1929  0.0579
    6TMC3    C414237   1.570   4.255  11.176 -0.6883  0.5287 -0.5174
    6TMC3    C514238   1.671   4.340  11.152  0.7612 -0.3718 -0.4867
    6TMC3    C614239   1.766   4.332  11.056 -0.3655 -0.1659  0.8974
    6TMC3     C14240   1.455   4.072  11.118  0.0714 -0.5606 -0.0160
    6TMC3     O14241   1.363   4.043  11.043 -0.9828 -0.4232  0.1829
    6TMC3     H14242   1.603   4.077  10.894  2.2730 -2.1938  1.4849
    6TMC3    H114243   1.503   4.269  11.260  1.7129 -0.3125  1.5226
    6TMC3    H214244   1.833   4.414  11.035 -0.4053  0.0427  1.5598
    6TMC3    C714245   1.686   4.458  11.239 -0.4774 -0.5348 -0.2339
    6TMC3    C814246   1.827   4.227  10.851  0.7713  0.0155  0.3064
    6TMC3    O114247   1.800   4.495  11.271  0.3120 -0.3288  0.6467
    6TMC3    O214248   1.881   4.330  10.836 -0.5614  0.1162  0.2938
    7MPD2     C14249   2.324   4.684  12.091  0.1364  0.0543 -0.1668
    7MPD2    C114250   2.205   0.017  12.111 -0.2056  0.7572  0.2117
    7MPD2    C214251   2.138   0.027  12.231 -0.5114 -0.8624  0.1721
    7MPD2    C314252   2.201   4.704  12.334  1.1999  0.4468  0.9855
    7MPD2    C414253   2.317   4.636  12.322 -0.4767 -0.5964 -0.1983
    7MPD2    C514254   2.378   4.629  12.203  0.0981  0.0481 -0.4000
    7MPD2     H14255   2.048   0.084  12.251 -1.0460 -1.2994 -1.0293
    7MPD2    H114256   2.369   4.576  12.395 -0.0984  0.1577  0.1590
    7MPD2    H214257   2.373   4.697  11.995  1.0212  0.6636  0.3723
    7MPD2    H314258   2.474   4.578  12.196 -1.4754 -2.8347 -0.6251
    7MPD2     N14259   2.130   4.715  12.452 -0.3095 -0.2040  0.0383
    7MPD2    H514260   2.039   0.023  12.450 -0.1177  0.0995 -2.1372
    7MPD2    N114261   2.141   0.095  12.011 -0.1199 -0.6170  0.1585
    7MPD2    H714262   2.060   0.146  12.044 -1.3465 -2.2220 -0.3308
    8TMC3    C114263   2.075   0.203  11.831 -0.5668  0.1007  0.2737
    8TMC3    C214264   2.010   0.147  11.731  0.4902  0.2791  0.4029
    8TMC3    C314265   1.873   0.147  11.737  0.2408  0.2370  0.4646
    8TMC3    C414266   2.010   0.287  11.922  0.2781 -0.1431 -0.0807
    8TMC3    C514267   1.873   0.305  11.916 -0.2371 -0.2683  0.4245
    8TMC3    C614268   1.805   0.236  11.826  0.5444  0.0847  0.0139
    8TMC3     C14269   2.175   0.112  11.882 -0.0304  1.4045  0.6968
    8TMC3     O14270   2.244   0.039  11.810 -0.1595 -0.6097 -0.0168
    8TMC3     H14271   2.058   0.071  11.670  1.1500  0.2101  1.0185
    8TMC3    H114272   2.066   0.338  12.000 -2.8521  1.9740  0.7767
    8TMC3    H214273   1.697   0.235  11.834  0.6521 -3.1136  0.8079
    8TMC3    C714274   1.831   0.273  12.051 -0.0851  0.0757  0.1619
    8TMC3    C814275   1.801   0.066  11.644  0.5255  0.0049  0.0834
    8TMC3    O114276   1.923   0.221  12.115  0.1566 -0.2831  0.4394
    8TMC3    O214277   1.862   0.020  11.551 -0.6972  0.1191 -0.1924
    9MPD2     C14278   1.445   0.020  11.581  0.4934  0.2945  0.5544
    9MPD2    C114279   1.576   0.003  11.558 -0.1687  0.0329  0.0671
    9MPD2    C214280   1.617   4.653  11.457  0.6667 -0.2127 -0.0281
    9MPD2    C314281   1.525   4.584  11.380  0.3509 -0.9722 -0.5492
    9MPD2    C414282   1.393   4.595  11.410 -0.0572 -0.1185 -0.3099
    9MPD2    C514283   1.356   4.684  11.505 -0.4102  0.2958 -0.2106
    9MPD2     H14284   1.721   4.650  11.425  0.5060  0.3740 -0.6162
    9MPD2    H114285   1.324   4.541  11.345  0.0852  0.5162 -0.9852
    9MPD2    H214286   1.412   0.082  11.663  0.3427  0.0597  0.6708
    9MPD2    H314287   1.257   4.670  11.544 -0.4061 -0.1980 -0.3736
    9MPD2     N14288   1.560   4.496  11.276 -0.2146 -0.4605 -0.2688
    9MPD2    H514289   1.480   4.460  11.225  1.7732 -4.6050 -0.4825
    9MPD2    N114290   1.666   0.072  11.647  0.4272  0.2932 -0.3222
    9MPD2    H714291   1.627   0.118  11.729 -0.0708 -1.2689  0.3251
    1MPD1     C14292   2.144   3.264  16.925 -0.2567 -0.3290  0.3306
    1MPD1    C114293   2.070   3.304  17.035 -0.0117 -0.2984 -0.3354
    1MPD1    C214294   1.939   3.254  17.044 -0.3429 -0.0883 -0.1457
    1MPD1    C314295   1.880   3.190  16.937  0.3709 -0.3245 -0.0003
    1MPD1    C414296   1.963   3.155  16.829 -0.6459  0.7429 -0.1247
    1MPD1    C514297   2.094   3.185  16.822  0.1469  0.0234 -0.6809
    1MPD1     H14298   1.882   3.272  17.135 -0.9970 -0.7675 -0.4233
    1MPD1    H114299   1.920   3.102  16.744  1.5622 -0.9616 -0.1712
    1MPD1    H214300   2.249   3.290  16.918 -0.7355  1.6401  0.3573
    1MPD1    H314301   2.149   3.166  16.731  1.1175 -1.0317  0.1361
    1MPD1     N14302   1.740   3.164  16.928 -0.3349 -0.5325  0.0660
    1MPD1    H514303   1.708   3.121  16.842  1.6430  1.0597 -1.4570
    1MPD1    N114304   2.128   3.398  17.128  0.4983  0.1932 -0.3122
    1MPD1    H614305   2.079   3.426  17.213 -0.7435 -0.7203 -0.7249
    1MPD1    H714306   2.228   3.381  17.134  0.3429 -0.6838 -0.2888
    2TMC2    C114307   1.338   3.069  16.848  0.3666 -0.6212 -0.3520
    2TMC2    C214308   1.243   3.093  16.944  0.4159 -0.2479  0.9931
    2TMC2    C314309   1.281   3.146  17.062  0.4156 -0.0405  0.0953
    2TMC2    C414310   1.463   3.115  16.872  0.0225 -0.1291 -0.3133
    2TMC2    C514311   1.499   3.171  16.989  0.6859 -0.0450 -0.8002
    2TMC2    C614312   1.409   3.182  17.089  0.3639  0.0097 -0.4201
    2TMC2     C14313   1.303   3.057  16.705 -1.2311  0.6384  0.0197
    2TMC2     O14314   1.398   3.065  16.627 -0.1542 -0.9363 -0.5481
    2TMC2     H14315   1.135   3.088  16.932  0.5182 -0.7853  0.2611
    2TMC2    H114316   1.538   3.114  16.793  0.5198 -1.4624  0.1675
    2TMC2    H214317   1.447   3.187  17.191 -2.3734 -0.7904  0.6648
    2TMC2    C714318   1.644   3.204  17.020  0.3268 -0.3832  0.3820
    2TMC2    C814319   1.181   3.165  17.161 -0.1004 -0.1171  0.6511
    2TMC2    O114320   1.658   3.273  17.124 -0.0638 -0.2510 -0.0018
    2TMC2    O214321   1.063   3.137  17.144  0.0268  0.6199  0.0588
    2TMC2    O514322   1.228   3.248  17.256  0.3308 -0.3708 -0.7216
    2TMC2    H514323   1.318   3.285  17.244  0.7970 -1.3780 -0.3272
    3MPD1     C14324   0.964   3.047  16.314 -0.2005 -0.0369  0.2537
    3MPD1    C114325   1.099   3.079  16.318 -0.6827 -0.5810 -0.1513
    3MPD1    C214326   1.174   3.057  16.435 -0.4393  0.4174 -0.3472
    3MPD1    C314327   1.111   3.026  16.557 -0.3737 -0.4424 -0.0886
    3MPD1    C414328   0.983   2.987  16.548  0.3568  0.1298 -0.4605
    3MPD1    C514329   0.907   3.002  16.430 -0.0202  0.3351  0.0233
    3MPD1     H14330   1.282   3.065  16.422 -0.2677  1.3040  1.6720
    3MPD1    H114331   0.927   2.977  16.640  0.6532  0.7808 -0.2071
    3MPD1    H214332   0.907   3.063  16.223  0.3148  1.3888  0.1824
    3MPD1    H314333   0.799   3.013  16.434  0.1220  1.5425  0.8216
    3MPD1     N14334   1.172   3.025  16.684  0.7522  0.8131 -0.4565
    3MPD1    H514335   1.121   3.015  16.771 -0.1297 -0.9331 -1.1793
    3MPD1    N114336   1.169   3.090  16.200 -0.2664  0.2409 -0.0206
    3MPD1    H614337   1.257   3.141  16.205 -0.0902 -0.2096  1.3343
    3MPD1    H714338   1.107   3.135  16.133  1.5262  0.7891 -1.3230
    1TMC1    C114339   4.494   2.445  13.092 -0.6031 -0.1556  0.4483
    1TMC1    C214340   4.365   2.437  13.138  0.2232 -0.0004 -0.4252
    1TMC1    C314341   4.280   2.332  13.111 -0.4947  0.1931  0.0922
    1TMC1    C414342   4.541   2.342  13.019 -0.2817 -0.6014 -0.5662
    1TMC1    C514343   4.456   2.238  12.993 -0.7609 -0.5270 -0.6027
    1TMC1    C614344   4.327   2.224  13.040  0.3318  0.1257 -0.0550
    1TMC1     C14345   4.569   2.563  13.111 -0.2522 -0.6510 -0.5532
    1TMC1     O14346   4.506   2.667  13.139 -0.1330 -0.0701  0.0260
    1TMC1     H14347   4.326   2.521  13.193  2.2038  1.2135 -0.8685
    1TMC1    H114348   4.640   2.326  12.978  0.4317  2.1132  0.1347
    1TMC1    H214349   4.275   2.133  13.011  0.6164 -0.4961  1.3495
    1TMC1    C714350   4.499   2.146  12.888  0.4288 -0.2615 -0.0043
    1TMC1    C814351   4.204   2.284  13.221 -0.6250  0.3407 -0.1715
    1TMC1    O114352   4.423   2.072  12.828  0.7404 -0.1522 -0.6147
    1TMC1    O214353   4.235   2.177  13.270 -0.7115 -0.2513  0.1576
    1TMC1    O314354   4.626   2.112  12.911  0.2197  0.9491  0.0469
    1TMC1    H314355   4.682   2.058  12.851  0.3477  0.2204  0.8280
    1TMC1    O514356   4.112   2.375  13.269 -0.3255 -0.0774 -0.3165
    1TMC1    H514357   4.106   2.456  13.213  0.8730 -0.4619 -1.0010
    2MPD2     C14358   0.049   2.777  13.164 -0.2945 -0.6511 -0.4513
    2MPD2    C114359   0.065   2.635  13.174 -0.8727  0.8564 -0.3761
    2MPD2    C214360   0.186   2.602  13.233  0.7661  0.4417 -0.4432
    2MPD2    C314361   0.282   2.696  13.271 -0.2640 -0.7168 -0.3414
    2MPD2    C414362   0.261   2.827  13.260 -0.0431 -0.2230 -0.3753
    2MPD2    C514363   0.144   2.863  13.206 -0.0885  0.6002  0.3696
    2MPD2     H14364   0.197   2.495  13.250  0.5937  0.7358  1.5328
    2MPD2    H114365   0.329   2.904  13.296  1.2953 -2.1100  1.1289
    2MPD2    H214366   4.699   2.821  13.115  0.1852  1.8444  0.9263
    2MPD2    H314367   0.116   2.967  13.197 -0.4381  0.4919  0.2156
    2MPD2     N14368   0.393   2.639  13.334  0.0375 -1.2755 -0.3375
    2MPD2    H514369   0.383   2.551  13.385 -3.1713 -1.6922 -1.6978
    2MPD2    N114370   4.702   2.538  13.142  0.6748  0.0708 -0.4593
    2MPD2    H714371   4.732   2.442  13.158  0.3275  0.2566  1.3691
    3TCq1    O114372   1.041   2.759  13.598 -0.1548  0.6338 -0.2709
    3TCq1    C114373   0.959   2.754  13.490  0.5774 -0.3279 -0.2013
    3TCq1    O214374   0.977   2.836  13.401 -0.1620  0.7293  0.3294
    3TCq1    C214375   0.826   2.698  13.518 -0.3141  0.2654 -0.0322
    3TCq1    C314376   0.777   2.670  13.643 -0.0166 -0.3272  0.4490
    3TCq1    C414377   0.639   2.659  13.664  0.1952 -0.1904 -0.7010
    3TCq1    C514378   0.553   2.647  13.560 -0.1586  0.1704  0.0430
    3TCq1    C614379   0.608   2.658  13.439 -0.5019 -0.1805  0.2358
    3TCq1    C714380   0.738   2.697  13.415 -0.3328 -0.0924  0.3242
    3TCq1    C814381   0.515   2.710  13.339 -0.1426  0.6244  0.2839
    3TCq1    O414382   0.549   2.801  13.264  0.1740 -0.3286  0.8265
    3TCq1    C914383   0.579   2.683  13.795  0.2179  0.1950  0.5741
    3TCq1    O514384   0.637   2.770  13.867 -0.1928 -0.0880 -0.0135
    3TCq1    O614385   0.468   2.636  13.821 -0.1679 -0.3469 -0.3041
    3TCq1    H114386   1.018   2.694  13.667  3.0544  0.7760  0.9340
    3TCq1    H214387   0.839   2.672  13.732  1.7145  0.7985 -0.7997
    3TCq1    H314388   0.448   2.634  13.585  0.3621 -1.2219  1.5105
    3TCq1    H414389   0.775   2.740  13.322  1.5292 -0.4333  0.8971
    1MPD2     C14390   4.502   3.221  14.852  0.3107  0.0805 -0.9752
    1MPD2    C114391   4.364   3.212  14.839 -0.1000 -0.8675 -0.7999
    1MPD2    C214392   4.309   3.089  14.809 -0.6038 -0.4387 -0.7321
    1MPD2    C314393   4.386   2.978  14.780  0.2737  0.1025 -0.4317
    1MPD2    C414394   4.523   2.985  14.794 -0.1083 -0.0217  0.5390
    1MPD2    C514395   4.578   3.107  14.831 -0.3257  0.4869 -0.1444
    1MPD2     H14396   4.201   3.077  14.806 -0.6049 -0.0355 -2.2711
    1MPD2    H114397   4.599   2.913  14.764 -0.7895 -0.3201 -0.4516
    1MPD2    H214398   4.543   3.317  14.879 -0.5119  0.1142  0.1849
    1MPD2    H314399   4.686   3.113  14.831 -0.3206  0.5798  1.5084
    1MPD2     N14400   4.319   2.862  14.748 -0.7895  0.4976 -0.0325
    1MPD2    H514401   4.218   2.876  14.752 -0.6808  0.9408  1.1270
    1MPD2    N114402   4.291   3.330  14.868  0.1301  0.0036  0.0349
    1MPD2    H714403   4.343   3.413  14.896  0.0199  0.6565 -1.6580
    2TMC3    C114404   4.099   3.455  14.903  0.2906 -0.2048 -0.1592
    2TMC3    C214405   4.012   3.409  14.998 -0.1381 -0.3822 -0.1435
    2TMC3    C314406   3.893   3.475  15.007 -0.2958 -0.4178  0.0672
    2TMC3    C414407   4.083   3.566  14.831 -0.9455 -0.2550 -0.2073
    2TMC3    C514408   3.969   3.633  14.847 -0.1395 -0.0643  0.0338
    2TMC3    C614409   3.874   3.592  14.940 -0.3575 -0.0222  0.4001
    2TMC3     C14410   4.158   3.339  14.847 -0.4913  0.8269 -0.0376
    2TMC3     O14411   4.071   3.257  14.810  0.1762  0.3198 -0.4485
    2TMC3     H14412   4.031   3.312  15.042 -0.6801 -1.1288 -1.5251
    2TMC3    H114413   4.158   3.603  14.762  0.4359  1.0098  1.9576
    2TMC3    H214414   3.780   3.644  14.955  0.3052  0.7238  1.9871
    2TMC3    C714415   3.961   3.765  14.799 -0.2600  0.3636  0.8345
    2TMC3    C814416   3.780   3.381  15.002  0.2920 -0.6172 -0.0368
    2TMC3    O114417   3.985   3.861  14.876 -0.0795 -0.8615 -0.1873
    2TMC3    O214418   3.675   3.410  15.061 -0.1549  0.7295 -0.2516
    3TCq1    O114419   3.839   0.086  14.385 -0.3833 -0.1616 -0.1685
    3TCq1    C114420   3.970   0.094  14.427  0.6694  0.3569  0.2614
    3TCq1    O214421   4.029   0.198  14.453 -0.1905  0.6996 -0.3408
    3TCq1    C214422   4.011   4.700  14.486  0.3646 -0.9152 -0.0208
    3TCq1    C314423   4.096   4.706  14.588  0.1076 -0.3577  0.0539
    3TCq1    C414424   4.128   4.591  14.656  0.3265 -0.2294  0.1570
    3TCq1    C514425   4.065   4.474  14.627 -0.2105 -0.1029 -0.4266
    3TCq1    C614426   3.987   4.469  14.511  0.1838 -0.4121 -0.3250
    3TCq1    C714427   3.968   4.584  14.433  1.1394 -0.1040 -0.4176
    3TCq1    C814428   3.940   4.342  14.453 -0.3127  0.0359  0.3395
    3TCq1    O414429   3.873   4.346  14.351  0.2681  0.2616 -0.0019
    3TCq1    C914430   4.232   4.605  14.758 -0.0285  0.1999  0.7122
    3TCq1    O514431   4.281   4.497  14.800 -0.2519 -0.1349  0.3252
    3TCq1    O614432   4.260   4.723  14.799  0.7441 -0.1466  0.6073
    3TCq1    H114433   3.800   4.734  14.397  0.3369 -0.2154  1.6718
    3TCq1    H214434   4.156   0.054  14.618  0.5505 -0.6855  0.0849
    3TCq1    H314435   4.103   4.379  14.664 -1.5576 -0.5250 -0.1105
    3TCq1    H414436   3.914   4.594  14.340 -2.3576  0.6072  1.6860
    4MPD2     C14437   3.869   4.064  14.390 -0.4461  0.0933  0.8013
    4MPD2    C114438   3.920   4.098  14.510 -0.3249  0.4907 -0.2475
    4MPD2    C214439   3.947   3.998  14.603  0.4082  0.2782  0.9886
    4MPD2    C314440   3.905   3.862  14.582  0.1648  1.2873 -0.2016
    4MPD2    C414441   3.863   3.834  14.458  0.0441 -0.7349  0.4111
    4MPD2    C514442   3.840   3.932  14.361  0.5862 -0.4065 -0.2270
    4MPD2     H14443   4.002   4.022  14.693  1.8114 -2.4971  0.8758
    4MPD2    H114444   3.826   3.738  14.422 -0.2334 -0.2574 -0.5866
    4MPD2    H214445   3.844   4.133  14.311  0.8935 -0.6098 -0.2341
    4MPD2    H314446   3.792   3.909  14.267 -1.1519 -1.0413  0.8190
    4MPD2     N14447   3.938   3.758  14.665  0.1034 -0.2175 -0.4533
    4MPD2    H514448   3.925   3.661  14.636  1.2032 -0.9200  1.4461
    4MPD2    N114449   3.957   4.232  14.538 -0.2099 -0.3310 -0.0239
    4MPD2    H714450   4.010   4.250  14.623 -0.0762 -0.8512  0.0009
    5TMC2    C114451   4.032   2.671  14.789 -0.6830  0.3323  0.2620
    5TMC2    C214452   4.042   2.598  14.907 -0.4058 -0.3562  0.0130
    5TMC2    C314453   4.164   2.531  14.928 -0.4812  0.7439  0.3768
    5TMC2    C414454   4.146   2.690  14.706  1.1399 -0.8798  0.0329
    5TMC2    C514455   4.262   2.628  14.737  0.1118  0.1387 -0.3444
    5TMC2    C614456   4.272   2.544  14.839 -0.2178  0.3064  0.1385
    5TMC2     C14457   3.971   2.793  14.802  0.6812 -0.6708  0.0010
    5TMC2     O14458   4.030   2.889  14.760 -0.0064 -0.1468  0.0468
    5TMC2     H14459   3.961   2.590  14.979  0.0709  0.8721  0.6867
    5TMC2    H114460   4.137   2.756  14.621 -0.8300  0.9592  1.6779
    5TMC2    H214461   4.365   2.497  14.867 -1.2641 -1.6450  0.3642
    5TMC2    C714462   4.368   2.731  14.728  0.0780 -0.1017 -0.6152
    5TMC2    C814463   4.211   2.452  15.039  0.2805 -0.2010  0.4937
    5TMC2    O114464   4.483   2.694  14.741 -0.2642  0.1789 -0.4211
    5TMC2    O214465   4.132   2.376  15.103 -0.3231  0.5912  0.3308
    5TMC2    O514466   4.316   2.514  15.096  0.3499  0.0076 -0.1966
    5TMC2    H514467   4.339   2.599  15.052 -1.0952  0.8425  0.6540
    6MPD2     C14468   3.640   3.099  15.026 -0.2159  0.9936 -0.3801
    6MPD2    C114469   3.752   3.134  14.958  1.0798  0.3680  0.2101
    6MPD2    C214470   3.820   3.030  14.899 -0.5791 -1.0008 -0.5943
    6MPD2    C314471   3.781   2.896  14.916 -0.6579  0.2695  0.6435
    6MPD2    C414472   3.666   2.864  14.992  0.6458 -0.0023  0.0690
    6MPD2    C514473   3.588   2.973  15.037 -0.2767  0.5561 -0.0913
    6MPD2     H14474   3.908   3.058  14.843  0.9211 -0.2490  2.1533
    6MPD2    H114475   3.627   2.764  15.002 -2.2858  1.1504  0.2545
    6MPD2    H214476   3.587   3.176  15.081 -1.1330 -0.0141  0.1497
    6MPD2    H314477   3.497   2.957  15.095 -1.5381  1.8813 -1.7050
    6MPD2     N14478   3.863   2.787  14.875  0.2554  1.0413 -0.0356
    6MPD2    H514479   3.828   2.695  14.900 -1.5769  2.1098  1.2918
    6MPD2    N114480   3.819   3.261  14.956  0.8048  0.0513  0.0813
    6MPD2    H714481   3.906   3.261  14.904  0.7223  1.8772 -0.0297
  945NH4     N114482   2.893   3.353  16.130  0.0058  0.5110  0.6808
  945NH4     H214483   2.878   3.421  16.208 -1.2358 -0.4620  1.2915
  945NH4     H314484   2.827   3.278  16.161 -0.2945 -0.4921 -2.4347
  945NH4     H414485   2.984   3.304  16.137 -1.0838 -1.4998  0.9250
  945NH4     H514486   2.874   3.385  16.033  1.5816  2.5276  1.0346
  946SOD     NA14487   2.764   1.623  12.963 -0.4184  0.1720  0.2279
  947SOD     NA14488   0.065   0.415  16.184 -0.0170  0.3154 -0.0162
  948SOD     NA14489   3.656   4.250  13.985  0.3355  0.0948 -0.0788
  949SOD     NA14490   2.755   0.922   5.401 -0.0647  0.1054 -0.1475
  950SOD     NA14491   4.513   2.867   7.332  0.1533  0.2000 -0.2937
  951SOD     NA14492   2.295   1.247  11.317 -0.1091 -0.2167  0.2999
  952SOD     NA14493   0.283   2.054   8.761  0.0068  0.1677  0.4248
  953SOL     OW14494   1.664   2.491   7.161  0.2651  0.2024  0.1364
  953SOL    HW114495   1.726   2.426   7.131 -0.7479 -0.8112  0.2374
  953SOL    HW214496   1.605   2.447   7.222  1.8631  2.3724  3.2627
  954SOL     OW14497   4.285   2.620  10.090 -0.8919 -0.0074  0.5491
  954SOL    HW114498   4.191   2.600  10.083 -1.6197  3.3575  0.6313
  954SOL    HW214499   4.290   2.601  10.184  0.9901 -1.8729  0.0754
  955SOL     OW14500   2.863   0.028   4.527 -0.2731  0.0397 -0.2410
  955SOL    HW114501   2.915   4.725   4.457  3.6009 -0.0761  2.7064
  955SOL    HW214502   2.913   0.108   4.542 -0.8137  0.3190  0.0961
  956SOL     OW14503   1.825   3.781   4.151 -0.1742 -0.1631  0.2308
  956SOL    HW114504   1.783   3.823   4.076  1.7188  0.3297 -0.5694
  956SOL    HW214505   1.893   3.848   4.162 -0.4994 -0.0365  1.4726
  957SOL     OW14506   3.539   1.357   1.880 -0.3027  0.4375  0.1200
  957SOL    HW114507   3.600   1.300   1.928  1.1549 -0.5635 -2.9394
  957SOL    HW214508   3.477   1.359   1.953 -0.6297  0.5944 -0.1613
  958SOL     OW14509   4.446   0.019  14.969 -0.0679 -0.0981  0.4833
  958SOL    HW114510   4.388   4.724  14.899  0.8430  2.9298 -1.6052
  958SOL    HW214511   4.517   4.698  14.939 -0.3464  0.8425 -1.9755
  959SOL     OW14512   1.297   2.036   8.624  0.2255  0.2524 -0.7720
  959SOL    HW114513   1.284   2.098   8.552 -1.5629  1.2690  0.4089
  959SOL    HW214514   1.271   2.083   8.704  1.7140  2.5725 -1.6571
  960SOL     OW14515   1.190   0.971  16.653  0.2523  0.8193  0.4873
  960SOL    HW114516   1.251   0.978  16.726  0.2779  0.3896  0.5095
  960SOL    HW214517   1.240   1.010  16.582 -1.4671  1.2597 -0.4813
  961SOL     OW14518   3.458   1.056  14.060 -0.4190  0.0092  0.3923
  961SOL    HW114519   3.546   1.053  14.096 -0.7964  1.8204  1.4521
  961SOL    HW214520   3.439   0.963  14.069  1.3226 -0.2110  1.6178
  962SOL     OW14521   0.419   4.056  13.200  0.5805  0.4104  0.9280
  962SOL    HW114522   0.332   4.072  13.237 -0.2899 -1.1014 -0.4822
  962SOL    HW214523   0.421   3.965  13.229  1.8108  0.1459 -0.0097
  963SOL     OW14524   0.502   4.192   1.292  0.0148  0.5634 -0.7828
  963SOL    HW114525   0.416   4.152   1.275 -0.6276  1.6324 -0.0314
  963SOL    HW214526   0.571   4.128   1.273 -0.8601 -0.7519  0.4681
  964SOL     OW14527   0.051   0.552  16.364  0.2538  0.2471 -0.1262
  964SOL    HW114528   4.693   0.552  16.377  0.3484  0.8647  0.6234
  964SOL    HW214529   0.080   0.625  16.419 -1.0159  1.1127 -0.6001
  965SOL     OW14530   4.091   4.671   6.248 -0.0170  0.1543 -0.2903
  965SOL    HW114531   4.076   4.578   6.264  0.4676  0.0855 -0.2376
  965SOL    HW214532   4.012   4.697   6.200 -0.7635 -0.1698  0.7545
  966SOL     OW14533   2.597   0.702  13.387  0.2185 -0.2297 -0.3563
  966SOL    HW114534   2.570   0.751  13.309  1.6543 -0.6597 -1.1054
  966SOL    HW214535   2.532   0.741  13.446  0.1266 -0.1616 -0.5025
  967SOL     OW14536   2.673   2.265   5.287 -0.2385  0.0801  0.2025
  967SOL    HW114537   2.615   2.268   5.363 -0.7660  2.6203 -0.2893
  967SOL    HW214538   2.733   2.335   5.312 -0.1791  0.1906 -0.2497
  968SOL     OW14539   0.882   3.602  16.911 -0.0653 -0.2305  0.4135
  968SOL    HW114540   0.914   3.566  16.994  2.5632 -3.8249 -2.1253
  968SOL    HW214541   0.957   3.647  16.873  1.5090 -2.6994  0.5380
  969SOL     OW14542   1.989   3.450   3.599  0.0550 -0.0232 -0.4091
  969SOL    HW114543   2.079   3.420   3.588 -0.3455 -1.4398  0.2625
  969SOL    HW214544   1.997   3.546   3.597  2.7698 -0.2158  1.2263
  970SOL     OW14545   2.270   2.031   3.999  0.5730  0.0606  0.3666
  970SOL    HW114546   2.242   2.122   3.996  1.6711  0.3388 -1.6416
  970SOL    HW214547   2.213   1.999   3.929  1.0064  0.5567 -0.2106
  971SOL     OW14548   3.819   4.353   9.983  0.2212  0.2898  0.9114
  971SOL    HW114549   3.728   4.326   9.997  0.0576  1.1164  1.4806
  971SOL    HW214550   3.877   4.291  10.027  0.2975 -0.4212 -0.2146
  972SOL     OW14551   1.276   1.737   2.046 -0.5115  0.3508 -0.3014
  972SOL    HW114552   1.269   1.648   2.011  0.6542  0.1301  0.0322
  972SOL    HW214553   1.308   1.786   1.971  0.3803 -1.7664 -1.3187
  973SOL     OW14554   2.321   0.877   4.777  0.1362 -0.0613 -0.0384
  973SOL    HW114555   2.317   0.829   4.694 -3.0691  2.1671 -1.1593
  973SOL    HW214556   2.231   0.880   4.810 -0.5919  0.4261 -2.0655
  974SOL     OW14557   0.341   3.809   6.377 -0.6611  0.2496  0.4469
  974SOL    HW114558   0.429   3.824   6.343 -1.2448 -0.2043 -1.2771
  974SOL    HW214559   0.314   3.730   6.330  0.9951 -0.6963  1.1002
  975SOL     OW14560   4.047   3.546  11.299 -0.4085 -0.4276 -0.5849
  975SOL    HW114561   4.087   3.587  11.222 -0.3507 -1.9852 -1.3790
  975SOL    HW214562   4.099   3.470  11.324  0.8321  1.1723  1.6644
  976SOL     OW14563   0.022   3.260   1.865 -0.5057  0.3568 -0.0243
  976SOL    HW114564   0.065   3.175   1.877 -2.1243 -0.5345 -0.6177
  976SOL    HW214565   0.031   3.308   1.947  1.2959 -0.6305  0.3599
  977SOL     OW14566   3.291   1.816   5.444 -0.4845 -0.0228 -0.0673
  977SOL    HW114567   3.244   1.780   5.519  0.2651  1.0016  0.8896
  977SOL    HW214568   3.263   1.751   5.380 -1.8060  0.1899  0.2961
  978SOL     OW14569   1.564   2.395   9.424 -0.4143 -0.4318 -0.0921
  978SOL    HW114570   1.552   2.489   9.416  1.0907 -0.2846 -0.5588
  978SOL    HW214571   1.518   2.374   9.342  1.0299  0.6183 -1.1618
  979SOL     OW14572   1.837   0.942  10.161 -0.5237  0.3475  0.5714
  979SOL    HW114573   1.860   1.035  10.150 -1.1010  0.2949 -1.0444
  979SOL    HW214574   1.758   0.954  10.214 -0.2182  0.9386  0.8898
  980SOL     OW14575   4.301   4.063   5.059 -0.3023 -0.1526  0.0252
  980SOL    HW114576   4.214   4.069   5.018 -0.8045 -1.8349  0.8115
  980SOL    HW214577   4.308   3.968   5.046 -1.7892 -0.4050  1.0184
  981SOL     OW14578   0.678   3.981   1.206  0.4169 -0.1750 -0.1029
  981SOL    HW114579   0.751   3.955   1.262  0.3355 -2.3234 -0.9677
  981SOL    HW214580   0.682   3.912   1.139 -0.7654 -0.1017 -0.2441
  982SOL     OW14581   1.357   4.498   3.088  0.1455 -0.2521  0.0236
  982SOL    HW114582   1.295   4.547   3.034  1.2073  0.9430 -0.0996
  982SOL    HW214583   1.309   4.496   3.171  1.0890 -0.4458  0.5664
  983SOL     OW14584   4.727   4.623  16.909  0.3167 -0.9611  0.8042
  983SOL    HW114585   4.651   4.576  16.876  1.2519 -2.0268  0.1651
  983SOL    HW214586   0.057   4.571  16.863  0.6231 -0.2649  0.4663
  984SOL     OW14587   3.331   2.034   3.798 -0.4812 -0.0680 -0.8766
  984SOL    HW114588   3.236   2.033   3.812 -0.2878  0.3485  0.4526
  984SOL    HW214589   3.345   2.129   3.796 -1.8220  0.1057 -2.1316
  985SOL     OW14590   1.538   2.221   3.816  0.3607 -0.2796  0.1960
  985SOL    HW114591   1.545   2.132   3.783  1.2648 -0.6703  1.4305
  985SOL    HW214592   1.631   2.236   3.833  0.2904  0.4314 -0.0534
  986SOL     OW14593   0.466   0.539   5.558  0.1997  0.3224  0.2293
  986SOL    HW114594   0.462   0.620   5.508 -0.8972 -1.3071 -2.3443
  986SOL    HW214595   0.534   0.494   5.509 -1.9944 -0.8926 -1.7269
  987SOL     OW14596   1.243   2.789  15.178  0.1737 -0.6512 -0.2243
  987SOL    HW114597   1.241   2.879  15.146 -0.5140 -0.1058  1.3487
  987SOL    HW214598   1.181   2.748  15.118  0.3424 -0.9434 -0.1992
  988SOL     OW14599   2.552   1.512   5.270  0.7314 -0.2290 -0.2902
  988SOL    HW114600   2.507   1.576   5.325 -1.8416 -0.6857 -1.8850
  988SOL    HW214601   2.635   1.558   5.257  0.1711  0.2693 -2.1169
  989SOL     OW14602   2.250   1.314   3.687 -0.0080 -0.1770  0.3419
  989SOL    HW114603   2.155   1.303   3.689 -0.0259  0.3173  2.1163
  989SOL    HW214604   2.278   1.298   3.597 -0.6666  3.5415 -0.4969
  990SOL     OW14605   3.592   2.823   9.882  0.4005  0.2658 -0.3191
  990SOL    HW114606   3.573   2.843   9.790 -1.6398  2.3625  0.5627
  990SOL    HW214607   3.668   2.876   9.909  0.1586  0.0808  0.7243
  991SOL     OW14608   4.573   4.548  12.713  0.1255  0.2596 -0.2406
  991SOL    HW114609   4.599   4.523  12.624 -1.9180  0.4650 -0.8988
  991SOL    HW214610   4.609   4.637  12.712  0.1442  0.2334 -2.2573
  992SOL     OW14611   1.764   2.854  10.380 -0.3498  0.4389  0.5794
  992SOL    HW114612   1.789   2.947  10.386 -2.7423  1.1731 -0.8956
  992SOL    HW214613   1.692   2.851  10.444 -1.1391  1.8721 -0.2320
  993SOL     OW14614   4.185   1.949   2.022  0.5036  0.1722  0.4384
  993SOL    HW114615   4.201   1.885   1.953 -2.1370  1.8138 -1.6895
  993SOL    HW214616   4.156   2.019   1.964 -0.1045 -1.1134 -0.8107
  994SOL     OW14617   1.710   0.683  16.095 -0.0102 -0.2744  1.3461
  994SOL    HW114618   1.725   0.603  16.045  0.0707 -0.3484  1.4909
  994SOL    HW214619   1.622   0.704  16.064 -0.1033  1.2214  2.6032
  995SOL     OW14620   1.307   2.539   3.203  0.1349  0.2969  0.2254
  995SOL    HW114621   1.241   2.476   3.175 -0.0172  0.7238 -0.3808
  995SOL    HW214622   1.274   2.621   3.165 -2.3103 -0.3158  0.9886
  996SOL     OW14623   0.901   3.011  10.803 -0.9079  0.0636  0.7230
  996SOL    HW114624   0.828   3.000  10.743 -1.9143  1.4504  1.6645
  996SOL    HW214625   0.867   3.050  10.884  0.1938 -0.9574  1.6793
  997SOL     OW14626   2.793   1.964  10.446 -0.1647  0.2321  0.2712
  997SOL    HW114627   2.865   1.924  10.397  0.5526  0.9217  0.7546
  997SOL    HW214628   2.807   1.930  10.535  0.7231 -0.6346 -0.1991
  998SOL     OW14629   2.593   3.028   4.861  0.7298  0.1698 -0.2760
  998SOL    HW114630   2.545   3.064   4.786  0.4809  3.7343  1.6096
  998SOL    HW214631   2.583   3.089   4.934 -1.5741 -1.2064  0.5357
  999SOL     OW14632   3.521   1.914  15.204  0.3890 -0.0692 -0.6637
  999SOL    HW114633   3.454   1.937  15.140  0.1531  0.6231 -0.1666
  999SOL    HW214634   3.494   1.827  15.234  1.1997  0.0645  0.4982
 1000SOL     OW14635   0.517   3.301  17.353  0.5874  0.3652 -0.0409
 1000SOL    HW114636   0.481   3.220  17.317  0.3313  1.0739 -1.3951
 1000SOL    HW214637   0.574   3.265  17.420 -0.2634  1.0556  1.0493
 1001SOL     OW14638   2.746   4.214   2.020  0.7985 -0.0970  0.3841
 1001SOL    HW114639   2.815   4.148   2.014  2.9769  2.1856  0.1280
 1001SOL    HW214640   2.677   4.183   1.961 -0.6933  1.2027  1.4685
 1002SOL     OW14641   1.543   1.438   3.748  0.0175 -0.4690 -0.0814
 1002SOL    HW114642   1.477   1.499   3.781  0.6913 -0.8138  1.9266
 1002SOL    HW214643   1.497   1.354   3.750 -1.4744  0.3797  1.2624
 1003SOL     OW14644   1.856   3.155   0.426 -0.2628  0.5297 -0.5624
 1003SOL    HW114645   1.783   3.212   0.401 -0.1508  1.9088  2.2239
 1003SOL    HW214646   1.918   3.190   0.362  1.0119  0.8364  0.8566
 1004SOL     OW14647   3.498   0.649  11.792  0.0249  0.4214 -0.1752
 1004SOL    HW114648   3.566   0.603  11.841  0.4757 -0.4843 -1.6324
 1004SOL    HW214649   3.543   0.728  11.762 -0.4884  0.9865  0.5583
 1005SOL     OW14650   0.813   4.707   4.066 -0.1600  0.4580 -0.4951
 1005SOL    HW114651   0.719   4.724   4.061 -0.5000 -0.8537  1.1721
 1005SOL    HW214652   0.819   4.666   4.153  3.1893  0.8268 -0.5336
 1006SOL     OW14653   1.079   3.187   5.454  1.0701  0.3989  0.9008
 1006SOL    HW114654   1.070   3.237   5.535  1.3412 -0.5813  1.5316
 1006SOL    HW214655   1.063   3.096   5.478  0.9201 -0.1808 -1.4109
 1007SOL     OW14656   4.112   3.800   8.409 -0.1310  1.3462 -0.0755
 1007SOL    HW114657   4.140   3.752   8.486 -2.0098  0.3685 -0.0053
 1007SOL    HW214658   4.056   3.733   8.369  1.9371 -1.5612  1.9780
 1008SOL     OW14659   4.106   0.377   4.097  0.1422 -0.0366  0.3775
 1008SOL    HW114660   4.150   0.460   4.084  1.0926 -0.2954  2.0144
 1008SOL    HW214661   4.032   0.391   4.157  1.5347 -1.6978  2.4691
 1009SOL     OW14662   0.467   2.037   3.479  0.1912  0.1533  0.1181
 1009SOL    HW114663   0.449   1.993   3.562  2.0025 -0.6315  0.0962
 1009SOL    HW214664   0.387   2.011   3.433 -0.8254  1.3308  1.2289
 1010SOL     OW14665   1.494   0.059   7.916 -0.0273  0.9411 -0.5227
 1010SOL    HW114666   1.520   0.133   7.971  1.0076  1.9949 -2.4777
 1010SOL    HW214667   1.418   0.031   7.967  0.4136 -1.4868 -1.2146
 1011SOL     OW14668   0.886   0.147   4.740  0.1815  0.1001  0.0258
 1011SOL    HW114669   0.842   0.165   4.657 -0.9089  0.0373  0.5827
 1011SOL    HW214670   0.933   0.230   4.749  1.4944 -0.5838 -0.5126
 1012SOL     OW14671   3.492   0.167  17.395  0.7782 -0.0202  0.2725
 1012SOL    HW114672   3.521   0.229  17.462  1.4160  0.6636 -0.6449
 1012SOL    HW214673   3.569   0.111  17.382  0.2321 -0.8355  0.5585
 1013SOL     OW14674   1.106   4.392   6.270 -0.1465  0.5364 -0.1357
 1013SOL    HW114675   1.103   4.488   6.274  1.6296  0.5513  0.7961
 1013SOL    HW214676   1.033   4.382   6.209 -0.5075  0.5359  0.2932
 1014SOL     OW14677   3.356   1.617   2.228  0.0438  0.0552  0.1229
 1014SOL    HW114678   3.353   1.570   2.145 -0.8989  0.1833  0.0879
 1014SOL    HW214679   3.409   1.559   2.284  0.4863  0.3617  0.0196
 1015SOL     OW14680   0.317   3.311  10.441 -0.4067 -0.2211  0.0045
 1015SOL    HW114681   0.230   3.351  10.428 -0.8275 -0.3382  2.4198
 1015SOL    HW214682   0.365   3.347  10.367  2.9475 -2.5289  1.0738
 1016SOL     OW14683   1.239   2.946   0.060  0.0312 -0.0112 -0.4530
 1016SOL    HW114684   1.334   2.954   0.066  0.1402 -0.5932 -1.5126
 1016SOL    HW214685   1.213   3.031   0.024  0.6625  0.3948  0.0446
 1017SOL     OW14686   3.552   1.467   2.957  0.0405 -0.7425  0.0329
 1017SOL    HW114687   3.646   1.480   2.944  0.1565 -0.2011  1.4421
 1017SOL    HW214688   3.531   1.432   2.870  0.6629 -3.2379  0.9161
 1018SOL     OW14689   1.294   1.651   3.386 -0.0916 -0.1517 -0.0844
 1018SOL    HW114690   1.389   1.648   3.373 -0.2828 -0.3134 -1.4688
 1018SOL    HW214691   1.281   1.576   3.445  0.6921 -0.5889 -0.4685
 1019SOL     OW14692   2.182   1.915   5.520 -0.0642 -0.1696  0.4837
 1019SOL    HW114693   2.198   1.941   5.610  0.5686  1.7621 -0.1767
 1019SOL    HW214694   2.187   1.995   5.467  0.8133 -0.2325  0.4867
 1020SOL     OW14695   3.063   0.446   6.350 -0.2757 -0.2978 -0.1094
 1020SOL    HW114696   2.968   0.443   6.362 -0.3118 -1.5548 -0.7073
 1020SOL    HW214697   3.065   0.491   6.266 -1.6236  0.9826  0.5529
 1021SOL     OW14698   3.981   2.713   1.040 -0.1557 -0.5360 -0.6095
 1021SOL    HW114699   4.054   2.742   0.986  1.8801 -1.8378  1.4507
 1021SOL    HW214700   4.009   2.627   1.069  0.6822 -0.1665 -0.3409
 1022SOL     OW14701   4.468   4.458   2.061  0.1812 -0.1859  0.1847
 1022SOL    HW114702   4.400   4.510   2.018  0.9366  1.3085  0.8004
 1022SOL    HW214703   4.461   4.489   2.151  0.5162  0.5363 -0.0425
 1023SOL     OW14704   0.445   1.303   0.354 -0.3017 -0.0349  0.3316
 1023SOL    HW114705   0.501   1.233   0.386 -2.3440 -2.5943 -1.7557
 1023SOL    HW214706   0.492   1.372   0.402  1.8667 -1.0501 -0.3491
 1024SOL     OW14707   4.549   2.151   9.776 -0.6441 -0.4484  0.1023
 1024SOL    HW114708   4.542   2.142   9.681  0.2943  1.8215 -0.1908
 1024SOL    HW214709   4.560   2.246   9.785 -0.0835 -0.2763 -2.4332
 1025SOL     OW14710   2.625   2.135  16.551 -0.3712 -0.2498 -0.2434
 1025SOL    HW114711   2.714   2.160  16.576 -0.3324  0.2466 -0.8806
 1025SOL    HW214712   2.574   2.208  16.586 -0.5426 -1.1964  1.4927
 1026SOL     OW14713   2.380   3.138  12.827 -0.0406 -0.4771 -0.4567
 1026SOL    HW114714   2.397   3.086  12.906 -0.3364  0.3998  0.1786
 1026SOL    HW214715   2.284   3.136  12.830 -0.0122 -2.9530 -0.4474
 1027SOL     OW14716   0.330   2.408  16.962  0.3440 -0.6192 -0.3168
 1027SOL    HW114717   0.259   2.362  16.917 -0.7085  0.7749 -0.0604
 1027SOL    HW214718   0.306   2.500  16.953 -1.3122 -1.0923 -0.7080
 1028SOL     OW14719   2.862   3.027   8.792  0.5030 -0.1632  0.0937
 1028SOL    HW114720   2.801   2.998   8.860 -0.0770  1.1200  0.1216
 1028SOL    HW214721   2.797   3.051   8.726  0.1363  1.7746  1.1544
 1029SOL     OW14722   4.561   3.934   5.141  0.1287  0.5098  0.4283
 1029SOL    HW114723   4.482   3.926   5.088  0.4389 -0.4321  0.0984
 1029SOL    HW214724   4.550   3.870   5.211  1.5256  0.6520  0.7854
 1030SOL     OW14725   1.588   1.913   8.044  0.0028  0.4528 -0.2615
 1030SOL    HW114726   1.680   1.932   8.065  0.3468  0.3689 -1.6641
 1030SOL    HW214727   1.561   1.883   8.130 -1.5560  0.9171 -0.5903
 1031SOL     OW14728   0.391   1.791   4.140  0.0036  0.3138 -0.0897
 1031SOL    HW114729   0.297   1.806   4.128 -0.1526  0.5918  1.4686
 1031SOL    HW214730   0.398   1.706   4.098 -0.7957  0.4436 -0.4973
 1032SOL     OW14731   2.558   0.314   5.037 -0.1898 -0.2966  0.2928
 1032SOL    HW114732   2.525   0.321   4.948 -0.2724 -0.8355  0.2786
 1032SOL    HW214733   2.477   0.296   5.085 -0.0958 -0.4898  0.3821
 1033SOL     OW14734   2.026   4.662  10.956  0.1798 -0.0767 -0.1125
 1033SOL    HW114735   2.047   0.013  10.923 -1.6787  0.7870  0.9895
 1033SOL    HW214736   2.059   4.612  10.881  0.2167 -1.2139  0.6641
 1034SOL     OW14737   4.146   0.729   7.130 -0.0362 -0.2126 -0.0074
 1034SOL    HW114738   4.182   0.807   7.172  0.8950 -0.4078 -0.4528
 1034SOL    HW214739   4.201   0.728   7.052  1.1164 -2.4780  0.8007
 1035SOL     OW14740   0.277   1.791   7.007 -0.4486 -0.2115  0.5260
 1035SOL    HW114741   0.198   1.844   7.016 -0.2729 -0.1207  1.5095
 1035SOL    HW214742   0.251   1.713   7.056 -0.9705 -0.8952 -0.8425
 1036SOL     OW14743   3.542   2.251  15.041 -0.3116 -0.0418  0.1203
 1036SOL    HW114744   3.626   2.223  15.078  0.4950  0.2208 -1.5306
 1036SOL    HW214745   3.487   2.174  15.050  0.1385 -0.2308  1.2901
 1037SOL     OW14746   2.545   3.681   3.654 -0.0373  0.1627  0.7735
 1037SOL    HW114747   2.587   3.644   3.576  1.0949  0.1968  1.3697
 1037SOL    HW214748   2.456   3.682   3.617 -1.1479 -0.1801  3.4468
 1038SOL     OW14749   2.455   3.890   4.356  0.0207  0.2245 -0.0846
 1038SOL    HW114750   2.500   3.842   4.425 -1.8528  0.3681  1.2362
 1038SOL    HW214751   2.486   3.850   4.275  1.0570 -0.0241  0.4451
 1039SOL     OW14752   2.027   4.341   6.727  0.3873 -0.2656  0.2252
 1039SOL    HW114753   1.941   4.376   6.749 -0.3468 -2.5312  0.9602
 1039SOL    HW214754   2.014   4.303   6.640  0.6207 -1.4795  0.7294
 1040SOL     OW14755   0.796   3.602  11.119 -0.0352 -0.1993 -0.5933
 1040SOL    HW114756   0.869   3.544  11.141 -0.5666 -0.3523  0.7568
 1040SOL    HW214757   0.832   3.686  11.093  2.3332 -0.2058  2.7029
 1041SOL     OW14758   0.471   0.012  12.501 -0.4876 -0.3317  0.2086
 1041SOL    HW114759   0.404   0.080  12.513  0.5465  0.4909  1.3479
 1041SOL    HW214760   0.534   0.047  12.438 -0.8028 -2.8298 -1.5103
 1042SOL     OW14761   1.461   3.656  13.871  0.1041  0.3491 -0.3855
 1042SOL    HW114762   1.380   3.611  13.894  0.6735 -1.4286 -1.8095
 1042SOL    HW214763   1.436   3.749  13.868  1.2792  0.6916  0.5306
 1043SOL     OW14764   1.733   4.162   7.857 -0.0234 -0.0621  0.2874
 1043SOL    HW114765   1.808   4.129   7.906 -0.5160 -0.3802  0.8328
 1043SOL    HW214766   1.684   4.080   7.855  1.9776 -1.1968 -0.8902
 1044SOL     OW14767   2.410   0.561   6.249  0.1111 -0.4398 -0.1453
 1044SOL    HW114768   2.484   0.540   6.192  0.2324  0.7061 -0.4113
 1044SOL    HW214769   2.349   0.618   6.203 -1.6636 -1.3853  1.0587
 1045SOL     OW14770   0.962   2.049   4.517 -0.2386 -0.1851  0.4984
 1045SOL    HW114771   1.042   2.075   4.564 -0.3577 -0.0682  0.6371
 1045SOL    HW214772   0.962   2.111   4.444 -1.2115  0.2634  0.8838
 1046SOL     OW14773   1.305   0.468  13.938 -0.4276  0.3315  0.5402
 1046SOL    HW114774   1.265   0.478  14.024 -1.3085 -1.4920  0.3449
 1046SOL    HW214775   1.283   0.377  13.919  0.2121  0.0180  1.3292
 1047SOL     OW14776   3.149   3.776   8.702 -0.1427  0.1446  0.3504
 1047SOL    HW114777   3.223   3.800   8.646 -2.0159  0.3639 -2.0173
 1047SOL    HW214778   3.128   3.854   8.754  0.0623  0.5705 -0.2111
 1048SOL     OW14779   3.659   2.614   2.427 -0.1018 -0.0298  0.1589
 1048SOL    HW114780   3.732   2.675   2.423  0.4937 -0.6950  1.1689
 1048SOL    HW214781   3.695   2.527   2.442 -0.8895 -0.9981 -3.5892
 1049SOL     OW14782   1.831   0.714   3.644  0.6127 -0.1042 -0.0743
 1049SOL    HW114783   1.871   0.647   3.587 -0.0325  0.6268 -1.3913
 1049SOL    HW214784   1.784   0.765   3.578  2.8197  0.2659 -1.3685
 1050SOL     OW14785   3.125   0.673   1.584 -0.0612 -0.0993  0.1105
 1050SOL    HW114786   3.146   0.687   1.677 -0.3861 -0.8552  0.2972
 1050SOL    HW214787   3.105   0.761   1.552  1.3430 -0.6090 -2.1087
 1051SOL     OW14788   3.425   0.544   1.671 -0.7700  0.7243 -0.3050
 1051SOL    HW114789   3.405   0.622   1.723 -0.1424 -0.7381  2.1317
 1051SOL    HW214790   3.338   0.510   1.689 -0.0732  0.2779  2.1967
 1052SOL     OW14791   2.854   1.733   9.066  0.1808 -0.0489  0.6256
 1052SOL    HW114792   2.921   1.692   9.012  1.2341 -0.2912  2.1096
 1052SOL    HW214793   2.807   1.652   9.088 -4.0584  2.2682  0.1063
 1053SOL     OW14794   1.435   0.086   1.829  0.7818  0.2161 -0.0638
 1053SOL    HW114795   1.465   0.003   1.793  2.2597  0.3673  0.8456
 1053SOL    HW214796   1.469   0.144   1.761  1.6862  1.1557  1.1884
 1054SOL     OW14797   3.557   3.988  12.211 -0.1429 -0.1496  0.2347
 1054SOL    HW114798   3.498   3.965  12.283 -1.1772  1.5203 -0.0813
 1054SOL    HW214799   3.630   3.941  12.252 -1.0176 -2.1058 -0.4517
 1055SOL     OW14800   0.982   1.678  11.125  0.0725  0.3335  0.1871
 1055SOL    HW114801   0.971   1.711  11.214 -1.6725  2.0168 -0.6599
 1055SOL    HW214802   0.985   1.584  11.144 -0.7091  0.4327  0.7980
 1056SOL     OW14803   2.376   0.838   6.658  0.1550  0.2119  0.3563
 1056SOL    HW114804   2.318   0.764   6.638 -3.3585  3.1920 -0.4129
 1056SOL    HW214805   2.362   0.852   6.752  2.9958 -0.0142  0.8157
 1057SOL     OW14806   4.449   2.310   2.309 -0.3263  0.4516  0.2438
 1057SOL    HW114807   4.536   2.272   2.321  0.1027  1.4008  0.1082
 1057SOL    HW214808   4.416   2.256   2.237  0.1341 -0.3273  0.6093
 1058SOL     OW14809   1.055   4.629   7.666  0.1983 -0.6181 -0.0377
 1058SOL    HW114810   0.972   4.677   7.671  1.6958  1.8875  0.5476
 1058SOL    HW214811   1.056   4.605   7.573  1.9327  1.3233 -0.5130
 1059SOL     OW14812   2.664   3.833   3.883  0.0126  0.0509 -0.1292
 1059SOL    HW114813   2.626   3.779   3.814 -0.0520 -1.7882  1.3429
 1059SOL    HW214814   2.628   3.919   3.866 -0.9338 -0.0563  1.3730
 1060SOL     OW14815   3.072   4.401   2.269 -0.3260  0.3340 -0.0342
 1060SOL    HW114816   2.992   4.347   2.272 -0.6793  0.9441  1.5533
 1060SOL    HW214817   3.061   4.464   2.199 -3.3307 -0.1503  0.0113
 1061SOL     OW14818   3.365   1.512   3.171 -0.0573 -0.2775  0.4866
 1061SOL    HW114819   3.417   1.490   3.093 -0.7153 -0.8390  0.2102
 1061SOL    HW214820   3.409   1.461   3.240 -0.1970 -0.5346  0.3863
 1062SOL     OW14821   3.246   4.404   9.546 -0.2017  0.2954 -0.1748
 1062SOL    HW114822   3.186   4.479   9.535 -0.4988  0.0676 -0.1026
 1062SOL    HW214823   3.176   4.341   9.563 -0.7283  0.7452 -0.6446
 1063SOL     OW14824   3.628   1.954   9.752  0.0251  0.0986 -0.7214
 1063SOL    HW114825   3.544   2.001   9.752  0.6002  1.1291 -0.0288
 1063SOL    HW214826   3.647   1.966   9.659 -0.9604 -1.5752 -1.1435
 1064SOL     OW14827   3.251   0.559   9.280  0.5072 -0.5983  0.2335
 1064SOL    HW114828   3.320   0.622   9.259 -0.4573 -0.3046 -1.9894
 1064SOL    HW214829   3.212   0.590   9.362  3.4800  0.7017  1.1500
 1065SOL     OW14830   0.328   1.151   5.428  0.2038 -1.2628 -0.4423
 1065SOL    HW114831   0.247   1.152   5.479 -0.6420 -0.5116 -1.8016
 1065SOL    HW214832   0.397   1.159   5.493 -0.0796  1.0613 -0.4223
 1066SOL     OW14833   3.207   4.132   5.391 -0.5062  0.6357  0.2363
 1066SOL    HW114834   3.127   4.115   5.341 -1.0805  0.2023  1.3035
 1066SOL    HW214835   3.249   4.183   5.321  1.4667 -0.9661  0.2573
 1067SOL     OW14836   2.135   3.517   8.419  0.0114 -0.1172 -0.8408
 1067SOL    HW114837   2.168   3.605   8.404 -1.1566  0.5604  0.5342
 1067SOL    HW214838   2.208   3.469   8.382  0.7666  0.0943  0.3557
 1068SOL     OW14839   2.349   0.543  15.996 -0.4489 -0.1383 -0.1517
 1068SOL    HW114840   2.284   0.578  16.058 -2.1347 -1.1380 -1.3685
 1068SOL    HW214841   2.365   0.624  15.947 -0.6034  0.9412  1.5562
 1069SOL     OW14842   0.022   3.133   7.541 -0.7649 -0.1873  0.2918
 1069SOL    HW114843   4.692   3.200   7.560 -1.3432 -1.2187  1.9542
 1069SOL    HW214844   4.712   3.052   7.522 -1.0532 -0.1362  0.7791
 1070SOL     OW14845   3.358   2.693   7.677  0.2094 -0.2412 -0.0445
 1070SOL    HW114846   3.406   2.776   7.686 -1.3734  0.5087  1.4479
 1070SOL    HW214847   3.330   2.681   7.768 -0.0590  1.4873  0.1045
 1071SOL     OW14848   2.194   4.310   8.793  0.1638 -0.1443  0.1244
 1071SOL    HW114849   2.234   4.314   8.880 -0.3341 -0.2767  0.3570
 1071SOL    HW214850   2.143   4.230   8.804 -0.1417  0.0753  0.3048
 1072SOL     OW14851   2.079   1.911   6.390  0.8014  0.3759 -0.9377
 1072SOL    HW114852   1.998   1.931   6.342  0.3481  2.1402  0.5300
 1072SOL    HW214853   2.048   1.877   6.474  0.5079  1.0572 -0.7664
 1073SOL     OW14854   1.979   4.717  17.201  0.0750  0.1920  0.4459
 1073SOL    HW114855   2.071   4.691  17.192 -0.2517 -0.5066 -0.8539
 1073SOL    HW214856   1.942   4.631  17.181  0.6683 -0.0825  0.5092
 1074SOL     OW14857   1.136   0.633   5.557  0.5234  0.8654 -0.1334
 1074SOL    HW114858   1.065   0.621   5.621 -0.1930  0.5656 -0.9837
 1074SOL    HW214859   1.196   0.666   5.623 -0.2206  2.0536 -0.0408
 1075SOL     OW14860   3.386   0.054   0.820  0.5788 -0.2134  0.1971
 1075SOL    HW114861   3.447   4.717   0.810  0.2451 -0.5003  0.2677
 1075SOL    HW214862   3.424   0.090   0.900  0.2957  0.6542 -0.0611
 1076SOL     OW14863   1.948   0.737   2.665 -0.5198 -0.0736 -0.1074
 1076SOL    HW114864   1.884   0.802   2.693 -2.1516 -0.3256 -3.2763
 1076SOL    HW214865   1.927   0.659   2.717  0.7448 -1.0439 -1.0640
 1077SOL     OW14866   3.653   3.052   0.870 -0.2346  0.4022  0.5822
 1077SOL    HW114867   3.678   3.123   0.928 -0.8742 -1.1113  2.7069
 1077SOL    HW214868   3.558   3.059   0.879 -0.4759 -0.4572 -1.1357
 1078SOL     OW14869   3.377   3.496  15.144  0.0322 -0.8155 -0.3102
 1078SOL    HW114870   3.454   3.493  15.087 -0.4043 -0.6193 -0.9161
 1078SOL    HW214871   3.395   3.580  15.187 -1.5687  0.0670 -1.3298
 1079SOL     OW14872   1.468   1.889   3.012 -0.0694 -0.0733  0.7590
 1079SOL    HW114873   1.456   1.795   3.010  0.6268 -0.1268 -1.4426
 1079SOL    HW214874   1.379   1.922   3.020  0.5205  2.3615 -2.4389
 1080SOL     OW14875   3.955   2.461   6.600  0.6265 -0.4707 -0.6155
 1080SOL    HW114876   4.037   2.412   6.609  0.1192 -1.1486  0.3421
 1080SOL    HW214877   3.942   2.475   6.694  1.5351 -0.0097 -0.5606
 1081SOL     OW14878   4.542   2.823  13.897  0.0808  0.4094  0.2410
 1081SOL    HW114879   4.536   2.727  13.894  0.4429  0.3500  1.3892
 1081SOL    HW214880   4.637   2.834  13.890  0.0740 -0.3715 -1.1531
 1082SOL     OW14881   1.795   0.937   6.860  0.0569 -0.1542  0.2451
 1082SOL    HW114882   1.741   0.867   6.824 -3.3475  1.6923  1.7988
 1082SOL    HW214883   1.736   0.986   6.917 -1.1462 -1.0719 -0.1989
 1083SOL     OW14884   2.798   2.689   6.642  0.2038 -0.3766  0.1077
 1083SOL    HW114885   2.707   2.687   6.672  0.4600 -0.6511  0.8768
 1083SOL    HW214886   2.838   2.709   6.727 -1.0280  0.4814  0.4912
 1084SOL     OW14887   2.637   0.761   5.597 -0.2456 -0.0038  0.0623
 1084SOL    HW114888   2.731   0.757   5.579 -0.3807 -1.7618 -0.3311
 1084SOL    HW214889   2.624   0.666   5.606 -1.3843  0.3042  1.5379
 1085SOL     OW14890   4.132   1.686   7.926 -0.0116  0.6264 -0.0241
 1085SOL    HW114891   4.127   1.712   8.018 -0.0729 -0.7463  0.3588
 1085SOL    HW214892   4.117   1.773   7.889 -1.4064  1.1901  1.8755
 1086SOL     OW14893   3.244   3.000   5.400  0.0809  0.1399 -0.3262
 1086SOL    HW114894   3.214   2.938   5.334 -2.5148  1.4731 -0.4120
 1086SOL    HW214895   3.330   2.967   5.427  0.8201  0.8224 -1.8769
 1087SOL     OW14896   1.605   1.305   3.309 -0.0255 -0.0158 -0.0956
 1087SOL    HW114897   1.604   1.213   3.282 -2.4170 -0.2116  0.6052
 1087SOL    HW214898   1.545   1.345   3.246 -1.5220 -1.5362  0.3481
 1088SOL     OW14899   4.200   4.726  12.301 -0.1420 -0.0293  0.2273
 1088SOL    HW114900   4.187   4.668  12.377 -1.4558 -0.2108 -0.1380
 1088SOL    HW214901   4.281   0.037  12.318  0.4675 -1.1036  0.3133
 1089SOL     OW14902   2.001   0.022   7.198 -0.2176  0.5940 -0.3007
 1089SOL    HW114903   2.044   0.073   7.267  1.2477 -2.0308  0.7408
 1089SOL    HW214904   2.059   4.682   7.195 -1.5043 -0.5206  2.4938
 1090SOL     OW14905   1.859   2.951   2.368  0.1062  0.3447  0.0427
 1090SOL    HW114906   1.893   2.908   2.446  0.4741 -0.4248 -0.5508
 1090SOL    HW214907   1.942   2.982   2.331 -0.1504  1.6360  0.5221
 1091SOL     OW14908   3.345   2.855   6.825  0.1800 -0.6612 -0.0429
 1091SOL    HW114909   3.365   2.792   6.756  0.8288 -0.0378 -0.4204
 1091SOL    HW214910   3.367   2.937   6.780 -0.5349 -1.0031 -1.0050
 1092SOL     OW14911   0.738   3.993  12.291  0.1218  0.2655  0.1356
 1092SOL    HW114912   0.817   3.944  12.270  1.1003  2.0176 -0.3028
 1092SOL    HW214913   0.755   4.002  12.385  1.1327  1.6177 -0.1652
 1093SOL     OW14914   0.248   1.992   5.368 -0.1789 -0.3494 -0.3659
 1093SOL    HW114915   0.301   1.920   5.401  0.2890 -0.0648 -0.4820
 1093SOL    HW214916   0.221   1.953   5.284 -0.2211 -0.4516 -0.3047
 1094SOL     OW14917   4.124   2.017   6.853  0.0793  0.2960  0.4347
 1094SOL    HW114918   4.100   2.083   6.918 -0.7538 -1.1816  1.6370
 1094SOL    HW214919   4.133   2.067   6.772  1.5121  1.4919  1.3493
 1095SOL     OW14920   3.574   0.742  14.524 -0.0337 -0.1159 -0.3845
 1095SOL    HW114921   3.663   0.750  14.490  1.0805  4.2752  3.6139
 1095SOL    HW214922   3.547   0.831  14.501 -0.4110 -0.2343 -0.4110
 1096SOL     OW14923   3.743   4.450   5.878 -0.4910  0.0506  0.1178
 1096SOL    HW114924   3.810   4.512   5.907 -1.1610  0.6142  0.4631
 1096SOL    HW214925   3.667   4.507   5.871  0.9336  1.9645  0.2235
 1097SOL     OW14926   2.174   3.075   6.110  0.4873  0.6035 -0.1587
 1097SOL    HW114927   2.238   3.022   6.063  1.7612  0.9068  1.2224
 1097SOL    HW214928   2.205   3.165   6.105 -1.0908  1.2926  2.0710
 1098SOL     OW14929   0.762   3.143   1.576  0.2628 -0.5780  0.5141
 1098SOL    HW114930   0.763   3.048   1.586 -2.1157 -0.3640  2.7486
 1098SOL    HW214931   0.830   3.172   1.637 -1.0992  1.6724  0.9381
 1099SOL     OW14932   4.505   0.265   7.396  0.1051  0.3022 -0.3126
 1099SOL    HW114933   4.525   0.215   7.317 -0.2789 -0.1194 -0.1429
 1099SOL    HW214934   4.581   0.322   7.383  1.3637 -1.2980  0.0389
 1100SOL     OW14935   1.955   2.753   8.981 -0.3339  0.0120 -0.4139
 1100SOL    HW114936   1.939   2.846   8.997  0.5575 -0.2502  1.8993
 1100SOL    HW214937   2.000   2.727   9.061  1.5055 -1.1307 -1.8245
 1101SOL     OW14938   4.548   4.161   4.689  0.1458 -0.0997 -0.0850
 1101SOL    HW114939   4.581   4.246   4.719 -1.6454  0.4776  0.2377
 1101SOL    HW214940   4.458   4.156   4.721  1.1312  1.4028  2.9824
 1102SOL     OW14941   3.333   1.001   8.799 -0.1713  0.0024  0.1627
 1102SOL    HW114942   3.280   1.076   8.826  0.4499  0.4379  0.1903
 1102SOL    HW214943   3.275   0.928   8.817  0.8460 -0.9118 -0.2605
 1103SOL     OW14944   4.536   2.653   8.881  0.0811  0.0885  0.0516
 1103SOL    HW114945   4.620   2.699   8.874 -0.1387  0.4345 -0.3037
 1103SOL    HW214946   4.554   2.586   8.815 -1.1686  1.5910 -1.8041
 1104SOL     OW14947   4.351   3.404   2.236 -0.0499 -0.6077  0.1512
 1104SOL    HW114948   4.369   3.365   2.150 -0.1386 -3.0941  1.2535
 1104SOL    HW214949   4.300   3.484   2.223 -0.3012 -0.4729  1.9086
 1105SOL     OW14950   3.109   3.278   7.841 -0.2811  0.6288  0.2004
 1105SOL    HW114951   3.079   3.188   7.855 -0.1581  0.7931  1.4563
 1105SOL    HW214952   3.067   3.331   7.908  0.1868 -1.5793  2.2210
 1106SOL     OW14953   2.157   2.436   4.422  0.0490  0.1190 -0.8553
 1106SOL    HW114954   2.120   2.354   4.389  1.6964 -0.7052 -0.6593
 1106SOL    HW214955   2.136   2.430   4.515  0.7612  0.3152 -0.6805
 1107SOL     OW14956   4.542   0.858   6.469 -0.4444 -0.0907 -0.1976
 1107SOL    HW114957   4.579   0.771   6.483 -2.3343 -1.1380 -1.9239
 1107SOL    HW214958   4.456   0.849   6.510 -1.2911 -0.5478 -2.0626
 1108SOL     OW14959   4.564   3.138   4.438 -0.3195 -0.6430 -0.2788
 1108SOL    HW114960   4.648   3.093   4.447  0.7298  1.7877  2.0894
 1108SOL    HW214961   4.500   3.070   4.416  0.6424 -0.9338 -2.1483
 1109SOL     OW14962   3.308   4.204   5.817 -0.3356  0.6098 -0.3584
 1109SOL    HW114963   3.375   4.240   5.874 -1.3588  0.3588  0.9861
 1109SOL    HW214964   3.373   4.176   5.752 -0.6147  3.0014 -1.6521
 1110SOL     OW14965   3.005   4.671   5.943 -0.0503  0.2500  0.2855
 1110SOL    HW114966   3.079   4.727   5.920 -1.0180  1.4794  0.1670
 1110SOL    HW214967   3.056   4.590   5.940 -2.0814 -0.9967 -0.8216
 1111SOL     OW14968   2.273   1.217   5.135 -0.1170  0.5271  0.3053
 1111SOL    HW114969   2.352   1.271   5.128 -0.4437  0.7617 -1.4257
 1111SOL    HW214970   2.272   1.186   5.045  0.3060 -1.8145  1.1080
 1112SOL     OW14971   1.436   0.251   1.596 -0.3246  0.1051 -0.0372
 1112SOL    HW114972   1.483   0.226   1.516 -1.2720 -0.6764 -0.3569
 1112SOL    HW214973   1.344   0.241   1.573  0.1695  0.6356 -2.2672
 1113SOL     OW14974   1.036   3.116   3.373 -0.1964 -0.4560 -0.2065
 1113SOL    HW114975   0.954   3.085   3.411 -1.3051  0.3494 -1.9191
 1113SOL    HW214976   1.077   3.030   3.359 -1.6492 -1.3678  1.1865
 1114SOL     OW14977   4.432   1.821  11.420 -0.5325 -0.2688 -0.1741
 1114SOL    HW114978   4.424   1.916  11.414  4.0345 -0.0433 -2.3395
 1114SOL    HW214979   4.339   1.799  11.430 -0.1410 -2.1819 -0.8028
 1115SOL     OW14980   3.499   0.200   1.020 -0.1433  0.0521  0.5487
 1115SOL    HW114981   3.586   0.231   0.996 -0.2837 -0.3809 -0.5404
 1115SOL    HW214982   3.512   0.195   1.115 -0.4777  0.6989  0.6339
 1116SOL     OW14983   3.610   1.081   8.668  0.4547 -0.0072 -0.4087
 1116SOL    HW114984   3.580   1.112   8.582 -1.3592  2.1600  1.0011
 1116SOL    HW214985   3.525   1.055   8.703  1.2274 -0.6397  1.0230
 1117SOL     OW14986   3.431   4.025   2.458 -0.4450 -0.1132 -0.6767
 1117SOL    HW114987   3.384   4.092   2.409 -1.6108  1.2103  2.2625
 1117SOL    HW214988   3.369   3.992   2.523  0.3274  0.7146  0.4802
 1118SOL     OW14989   2.775   2.427   1.116 -0.3579 -0.3404 -0.2235
 1118SOL    HW114990   2.771   2.420   1.021  0.0850  0.9116 -0.3348
 1118SOL    HW214991   2.840   2.361   1.141  0.3971 -0.0094 -1.2978
 1119SOL     OW14992   1.631   0.620  10.454 -0.3712  0.1441 -0.0865
 1119SOL    HW114993   1.695   0.565  10.500 -0.5647  1.0338  1.2471
 1119SOL    HW214994   1.551   0.568  10.453  0.5175 -1.2200 -0.4590
 1120SOL     OW14995   2.767   3.672   9.548  0.1843  0.0838  0.1681
 1120SOL    HW114996   2.674   3.692   9.558  0.2715  1.2601 -1.4471
 1120SOL    HW214997   2.777   3.672   9.453  0.0463  1.0363  0.1509
 1121SOL     OW14998   0.393   2.414   2.595 -0.1894  0.0037  0.2660
 1121SOL    HW114999   0.336   2.407   2.518 -0.4597 -3.3014  0.7971
 1121SOL    HW215000   0.374   2.334   2.644 -0.2399  0.3227  0.7713
 1122SOL     OW15001   4.255   3.959   7.258  0.3532  0.5140  0.4459
 1122SOL    HW115002   4.161   3.975   7.270  0.3586  0.9358 -0.0509
 1122SOL    HW215003   4.254   3.897   7.186 -1.0763  0.0250  0.8860
 1123SOL     OW15004   3.396   4.734  15.161 -0.1116  0.5742  0.0598
 1123SOL    HW115005   3.442   4.676  15.100  3.2301  2.3180  0.8811
 1123SOL    HW215006   3.430   0.081  15.129  2.6356 -1.2934 -1.9295
 1124SOL     OW15007   2.816   1.772   6.915 -0.2858  0.5293 -0.2535
 1124SOL    HW115008   2.747   1.831   6.882 -0.8157 -1.2590 -2.3392
 1124SOL    HW215009   2.864   1.834   6.970  0.7008  0.9502 -1.5848
 1125SOL     OW15010   4.014   4.613   7.255 -0.8814  0.4564 -0.4407
 1125SOL    HW115011   3.922   4.598   7.276 -0.8445 -0.7065 -1.1004
 1125SOL    HW215012   4.000   4.622   7.161  1.6514 -0.6498 -0.9225
 1126SOL     OW15013   0.247   0.793   4.203  0.1412 -0.1035  0.3038
 1126SOL    HW115014   0.295   0.739   4.141  0.2379 -0.7985  0.9904
 1126SOL    HW215015   0.243   0.735   4.279 -0.1710 -0.0197  0.3536
 1127SOL     OW15016   4.564   0.934   6.922  0.0705 -0.5131  0.0326
 1127SOL    HW115017   4.478   0.965   6.950 -1.1342 -3.4582 -0.4153
 1127SOL    HW215018   4.607   0.940   7.007 -1.9244  1.3539  0.9239
 1128SOL     OW15019   3.004   4.144   4.672 -0.0402  0.1977 -0.1074
 1128SOL    HW115020   3.006   4.177   4.762 -1.8609 -0.5235  0.1927
 1128SOL    HW215021   2.913   4.118   4.662  0.0722 -0.7697  1.4053
 1129SOL     OW15022   1.909   0.501  16.268  0.1261  0.3975 -0.2904
 1129SOL    HW115023   1.962   0.470  16.342  0.4969  1.0017 -0.2998
 1129SOL    HW215024   1.860   0.576  16.303  2.2898  1.7600 -0.1765
 1130SOL     OW15025   0.143   4.376   0.592 -0.4800 -0.2408  0.5528
 1130SOL    HW115026   0.133   4.291   0.548 -0.0179  1.8381 -3.5149
 1130SOL    HW215027   0.100   4.360   0.677 -1.3920 -0.9675 -0.0465
 1131SOL     OW15028   0.692   3.882   7.937 -0.8348 -0.3057  0.6906
 1131SOL    HW115029   0.605   3.847   7.921 -0.0865 -1.2539 -1.3850
 1131SOL    HW215030   0.685   3.933   8.018 -0.8307 -1.5854  1.4907
 1132SOL     OW15031   4.111   3.915   6.800 -0.0678 -0.2271  0.5286
 1132SOL    HW115032   4.191   3.867   6.824  0.9436  0.6928 -1.0480
 1132SOL    HW215033   4.046   3.847   6.818  0.1513 -0.7800 -0.7545
 1133SOL     OW15034   4.309   2.405  15.348  0.1004 -0.2669  0.5167
 1133SOL    HW115035   4.228   2.415  15.397 -0.4326  1.3420 -0.6639
 1133SOL    HW215036   4.282   2.453  15.269 -0.2022 -1.0883  0.1287
 1134SOL     OW15037   3.119   2.938  16.330  0.0788 -0.0097 -0.1096
 1134SOL    HW115038   3.046   2.926  16.391 -0.5532 -1.0719 -1.0820
 1134SOL    HW215039   3.094   2.876  16.261  0.0175 -0.0695 -0.0342
 1135SOL     OW15040   3.392   2.642  14.338  0.2765  0.2010 -0.3341
 1135SOL    HW115041   3.362   2.729  14.312  1.3224  0.7800  0.4077
 1135SOL    HW215042   3.306   2.623  14.374  1.0252  3.8438  3.3657
 1136SOL     OW15043   2.267   1.293   4.597  0.4594 -0.2549 -0.0138
 1136SOL    HW115044   2.313   1.232   4.539 -1.7293 -0.8347 -1.1615
 1136SOL    HW215045   2.271   1.368   4.537 -0.1299 -0.1996  0.0104
 1137SOL     OW15046   0.241   0.631   9.008  0.5506 -0.2555  0.5526
 1137SOL    HW115047   0.176   0.700   9.019 -0.4705 -1.0848 -0.2617
 1137SOL    HW215048   0.298   0.683   8.953  1.0895 -0.9955  0.4122
 1138SOL     OW15049   3.930   2.979   1.078  0.1565 -0.6078 -0.6147
 1138SOL    HW115050   3.996   3.006   1.014 -0.4060  2.4483  0.0619
 1138SOL    HW215051   3.950   2.887   1.097  2.5238 -0.2372 -1.2902
 1139SOL     OW15052   2.181   3.633  16.988 -0.0571 -0.3211 -0.6625
 1139SOL    HW115053   2.152   3.568  17.052  2.3247  1.0271  1.8063
 1139SOL    HW215054   2.140   3.713  17.022  0.3057 -1.0506  1.4966
 1140SOL     OW15055   3.118   4.142   8.752 -0.1755 -0.0304 -0.1661
 1140SOL    HW115056   3.082   4.071   8.806  1.2749  0.2086  1.1093
 1140SOL    HW215057   3.197   4.162   8.801  1.5097 -0.5406 -2.7044
 1141SOL     OW15058   1.621   2.055   6.429  0.4868  0.1869  0.5617
 1141SOL    HW115059   1.546   2.025   6.377  1.1925  2.3444 -1.6881
 1141SOL    HW215060   1.682   1.983   6.413 -0.5847 -0.9376  1.5610
 1142SOL     OW15061   3.794   0.530   0.950  0.0549  0.3118  0.4493
 1142SOL    HW115062   3.777   0.493   0.864 -0.5703 -0.1121  0.7522
 1142SOL    HW215063   3.854   0.601   0.928 -0.8228  1.0343  0.3496
 1143SOL     OW15064   1.655   1.452   8.670 -0.2483  0.3166  0.5904
 1143SOL    HW115065   1.743   1.415   8.664 -0.3911 -0.0754  0.8840
 1143SOL    HW215066   1.643   1.499   8.588  0.0978 -0.1315  0.2886
 1144SOL     OW15067   1.956   3.259   9.294 -0.4649 -0.0176 -0.3584
 1144SOL    HW115068   1.929   3.268   9.385  1.9021  0.5391  0.2958
 1144SOL    HW215069   2.044   3.297   9.292 -1.1519  1.5541 -1.1130
 1145SOL     OW15070   2.938   1.435   2.360  0.0294 -0.0476 -0.0368
 1145SOL    HW115071   2.904   1.497   2.424  0.1184  0.7966 -0.8059
 1145SOL    HW215072   2.855   1.391   2.345 -0.4660  0.5087  1.0744
 1146SOL     OW15073   0.198   2.701   6.775 -0.0166 -0.6469  0.7762
 1146SOL    HW115074   0.257   2.664   6.709  0.2363 -0.2118  0.7551
 1146SOL    HW215075   0.247   2.773   6.814  2.2240  0.5597 -4.1873
 1147SOL     OW15076   2.890   1.009   6.046  0.0629  0.2795  0.3607
 1147SOL    HW115077   2.940   1.071   6.099  1.3906  0.9514 -1.6744
 1147SOL    HW215078   2.805   0.996   6.087 -0.7964  1.2728 -1.0770
 1148SOL     OW15079   1.308   1.270   5.556  0.7165  0.4492 -0.0125
 1148SOL    HW115080   1.366   1.340   5.587  0.5403  1.1584 -1.2679
 1148SOL    HW215081   1.278   1.315   5.477  0.0367  2.6020  1.4814
 1149SOL     OW15082   2.898   0.178   7.447 -0.4559 -0.2325  0.3281
 1149SOL    HW115083   2.818   0.222   7.474  1.8145  3.2160  1.4729
 1149SOL    HW215084   2.937   0.248   7.394 -0.5635 -0.1292  0.3867
 1150SOL     OW15085   0.900   1.858   7.817 -0.1404  0.1259  0.3374
 1150SOL    HW115086   0.942   1.934   7.777  2.3118 -1.5055 -0.2105
 1150SOL    HW215087   0.887   1.812   7.734 -1.9346  2.7035 -0.8332
 1151SOL     OW15088   4.686   0.177   3.382 -0.6741 -0.1227 -0.2640
 1151SOL    HW115089   4.676   0.180   3.477 -0.2542 -1.7248 -0.1715
 1151SOL    HW215090   4.617   0.241   3.361 -1.5000 -0.6410  0.8941
 1152SOL     OW15091   1.592   2.011  10.944  0.3865 -0.4433  0.2917
 1152SOL    HW115092   1.648   2.088  10.949  0.4826 -0.5623  0.9813
 1152SOL    HW215093   1.607   1.967  11.027  2.3435 -0.0781  0.1377
 1153SOL     OW15094   1.349   0.605   6.590 -0.0514  0.0864 -0.2065
 1153SOL    HW115095   1.426   0.653   6.560  0.2246  0.1732  0.6612
 1153SOL    HW215096   1.284   0.675   6.597  0.1036  0.4589 -2.4764
 1154SOL     OW15097   1.849   4.434   8.193  0.2163  0.2531  0.0180
 1154SOL    HW115098   1.840   4.339   8.189  1.9960  0.0586  0.3029
 1154SOL    HW215099   1.903   4.447   8.272 -1.6164 -0.0277  1.3030
 1155SOL     OW15100   3.813   2.121   2.029 -0.2154 -0.3666  0.3806
 1155SOL    HW115101   3.825   2.213   2.006  1.0789 -0.0717  2.2607
 1155SOL    HW215102   3.732   2.102   1.982 -0.7560  2.9078 -0.0243
 1156SOL     OW15103   0.288   0.779   6.203  0.0923  0.0629  0.5582
 1156SOL    HW115104   0.288   0.750   6.294 -1.7855  1.5634  1.0279
 1156SOL    HW215105   0.291   0.696   6.154 -1.2805  0.0380  0.5027
 1157SOL     OW15106   4.275   0.874   6.548  0.1166 -0.9037  0.0163
 1157SOL    HW115107   4.239   0.790   6.519  1.8775 -1.3155 -0.9884
 1157SOL    HW215108   4.221   0.899   6.623 -0.3431  3.0331 -1.5958
 1158SOL     OW15109   3.687   4.529   7.359 -0.3224 -0.3277  0.5592
 1158SOL    HW115110   3.606   4.482   7.336 -1.0836 -0.0814  2.6935
 1158SOL    HW215111   3.736   4.453   7.390  0.3476  0.8279  2.3458
 1159SOL     OW15112   4.705   3.625  10.495 -0.3886 -0.1291 -0.3740
 1159SOL    HW115113   4.669   3.587  10.575  0.2459 -0.7351 -0.3856
 1159SOL    HW215114   0.008   3.545  10.461  1.1706  0.1739  0.7487
 1160SOL     OW15115   2.972   0.454   7.904  0.2180 -0.2272  0.0303
 1160SOL    HW115116   2.969   0.395   7.979  0.8375  1.3636  1.2942
 1160SOL    HW215117   3.040   0.420   7.846  0.5250  0.0407  0.2368
 1161SOL     OW15118   0.428   1.123   1.706  0.0402  0.2091 -0.2621
 1161SOL    HW115119   0.416   1.163   1.792 -0.2430  0.9422 -0.6405
 1161SOL    HW215120   0.430   1.030   1.728  2.0921  0.4773  0.6024
 1162SOL     OW15121   1.199   2.188   5.597  0.3184  0.2901  0.5493
 1162SOL    HW115122   1.157   2.173   5.682 -2.0618 -0.8617 -0.8181
 1162SOL    HW215123   1.212   2.282   5.591 -1.7638  0.5271 -0.1939
 1163SOL     OW15124   0.213   2.742   7.685 -0.1432 -0.3607 -0.2780
 1163SOL    HW115125   0.245   2.758   7.596 -0.4462  2.0334  0.0418
 1163SOL    HW215126   0.180   2.822   7.727  1.6104  0.8893 -1.2802
 1164SOL     OW15127   4.486   2.061   4.963  0.8383 -0.4508 -0.5483
 1164SOL    HW115128   4.518   2.077   4.874 -1.5375 -0.9569 -1.5106
 1164SOL    HW215129   4.430   1.984   4.948 -0.5615  0.5143 -0.2433
 1165SOL     OW15130   2.848   3.069   1.879 -0.5862 -0.4098 -0.1724
 1165SOL    HW115131   2.834   2.976   1.858  0.2549 -0.0810 -2.1654
 1165SOL    HW215132   2.931   3.073   1.926  1.0160  0.9877 -3.1313
 1166SOL     OW15133   3.815   1.088   3.626 -0.1094  0.2857 -0.2978
 1166SOL    HW115134   3.877   1.135   3.571  0.3738  1.3240  1.1308
 1166SOL    HW215135   3.824   1.145   3.702 -3.2405 -1.3000  1.2570
 1167SOL     OW15136   1.955   0.216   4.791  0.3476  0.0531  0.4644
 1167SOL    HW115137   1.930   0.277   4.860 -2.2725  0.2294 -0.6538
 1167SOL    HW215138   1.968   0.131   4.833 -0.2864 -0.2811 -0.0179
 1168SOL     OW15139   3.374   1.265   0.911  0.0674 -0.7682  0.7962
 1168SOL    HW115140   3.349   1.195   0.850  0.9025  0.8752 -1.4283
 1168SOL    HW215141   3.451   1.227   0.954  0.5605 -0.5308  0.1269
 1169SOL     OW15142   3.972   2.125   4.818  0.3626 -0.0578  0.4448
 1169SOL    HW115143   3.935   2.199   4.769 -1.0066 -0.3930  0.9870
 1169SOL    HW215144   4.063   2.145   4.795  0.5174 -2.5527 -1.0496
 1170SOL     OW15145   1.361   4.713  11.874 -0.4700 -0.4960  0.9925
 1170SOL    HW115146   1.293   4.692  11.938  1.2228 -0.5743  2.7385
 1170SOL    HW215147   1.349   4.638  11.815  2.8236 -1.1303  1.1015
 1171SOL     OW15148   3.052   4.236   3.942  0.3439  0.0570  0.3800
 1171SOL    HW115149   3.008   4.232   3.857  1.5188  1.2129 -0.2815
 1171SOL    HW215150   3.126   4.284   3.906  1.4574 -2.0053 -0.0402
 1172SOL     OW15151   0.047   4.446   5.809  0.1835 -0.1924  0.5501
 1172SOL    HW115152   4.725   4.372   5.825 -0.5993  0.3085  0.0180
 1172SOL    HW215153   0.078   4.429   5.720  1.6685  0.9826  0.8496
 1173SOL     OW15154   1.301   3.128   4.168  0.2334  0.5113  0.5532
 1173SOL    HW115155   1.369   3.190   4.139 -1.7989  1.5690 -1.9623
 1173SOL    HW215156   1.226   3.187   4.161 -1.7153 -2.1827 -1.5504
 1174SOL     OW15157   0.001   1.500   8.329 -0.2582  0.1621  0.5202
 1174SOL    HW115158   0.049   1.483   8.410  1.5020  0.1328 -0.5349
 1174SOL    HW215159   0.051   1.573   8.293 -0.6858  0.3202  0.2557
 1175SOL     OW15160   4.332   1.971   6.401  0.1691 -0.4153 -0.1551
 1175SOL    HW115161   4.328   1.890   6.452  0.7295 -0.4874 -0.2239
 1175SOL    HW215162   4.283   2.019   6.468  0.7678  1.3672 -1.0155
 1176SOL     OW15163   0.153   3.695   3.243  0.5744  0.2935  0.1401
 1176SOL    HW115164   0.108   3.733   3.318  0.1730  0.0098  0.0439
 1176SOL    HW215165   0.169   3.771   3.187  0.3904  0.7647  0.7312
 1177SOL     OW15166   1.305   0.177   8.780 -0.8908 -0.5428  0.2507
 1177SOL    HW115167   1.231   0.176   8.841 -0.8233 -0.2711  0.3389
 1177SOL    HW215168   1.259   0.206   8.701  2.5534 -1.0133 -1.9437
 1178SOL     OW15169   3.340   3.132   2.153  0.0110 -0.0948  0.1770
 1178SOL    HW115170   3.383   3.097   2.074  0.5462  0.7702  0.0863
 1178SOL    HW215171   3.409   3.197   2.167  1.0016 -1.3671  1.2742
 1179SOL     OW15172   1.396   1.995   3.694 -0.1597 -0.3594  0.0681
 1179SOL    HW115173   1.374   1.905   3.669 -1.8893  0.1597 -0.2270
 1179SOL    HW215174   1.357   2.000   3.781 -1.4693  0.3143 -0.5589
 1180SOL     OW15175   2.193   3.583  17.548  0.6545  0.2425 -0.3823
 1180SOL    HW115176   2.148   3.538  17.477  0.2753 -0.9275  0.6062
 1180SOL    HW215177   2.261   3.632  17.502  0.7515  0.8017  0.3439
 1181SOL     OW15178   0.752   0.624  15.230  0.1305 -0.6046 -0.2394
 1181SOL    HW115179   0.692   0.685  15.274  0.7430 -1.5638  1.9405
 1181SOL    HW215180   0.753   0.647  15.137  2.9343 -0.9139 -0.2907
 1182SOL     OW15181   4.286   0.826   1.858  0.0599  0.3294 -0.3908
 1182SOL    HW115182   4.293   0.850   1.951  1.4526  2.2554 -0.9927
 1182SOL    HW215183   4.305   0.732   1.866  1.2021  0.7309  1.5282
 1183SOL     OW15184   3.131   3.155   2.857 -0.2530  0.1757 -0.1313
 1183SOL    HW115185   3.165   3.170   2.769 -3.7232  0.5163 -1.4306
 1183SOL    HW215186   3.201   3.186   2.914 -1.1361  1.8209  0.0325
 1184SOL     OW15187   0.419   2.105   9.842 -0.1121 -0.6129  0.0224
 1184SOL    HW115188   0.375   2.074   9.921 -0.3887 -0.2522  0.0108
 1184SOL    HW215189   0.454   2.190   9.867  0.7996 -0.6313 -1.2176
 1185SOL     OW15190   3.959   4.487   0.542  0.1608 -0.3558 -0.0698
 1185SOL    HW115191   3.930   4.414   0.487  0.7721 -1.3406  0.8922
 1185SOL    HW215192   4.019   4.444   0.603 -2.1746 -0.6768  1.9989
 1186SOL     OW15193   3.053   0.769  11.518  0.1959  0.2251  0.2651
 1186SOL    HW115194   3.092   0.781  11.605  0.6600 -0.6438  0.1701
 1186SOL    HW215195   2.962   0.779  11.546  0.2634  0.6726  0.3387
 1187SOL     OW15196   4.508   2.354   7.733  0.1251  0.2743  0.6558
 1187SOL    HW115197   4.539   2.302   7.806  1.2320 -1.0061 -0.7209
 1187SOL    HW215198   4.581   2.340   7.672 -1.0579 -1.9114 -0.3109
 1188SOL     OW15199   0.386   4.589  16.357  0.2091 -0.1461  0.1759
 1188SOL    HW115200   0.434   4.667  16.329 -1.9395  0.8874 -0.6271
 1188SOL    HW215201   0.438   4.563  16.433 -1.2292 -0.8164  0.9200
 1189SOL     OW15202   0.220   4.143   3.052 -0.0463  0.4637  0.0162
 1189SOL    HW115203   0.195   4.203   2.982 -2.4773 -1.2449 -0.5557
 1189SOL    HW215204   0.312   4.130   3.027 -0.9204  0.6858 -3.2259
 1190SOL     OW15205   1.701   3.508   8.642  0.5903  0.8495 -0.1601
 1190SOL    HW115206   1.788   3.493   8.680 -0.4946  0.2903  2.0678
 1190SOL    HW215207   1.667   3.571   8.706  0.6866  1.7645 -1.0087
 1191SOL     OW15208   1.805   2.931   0.683 -0.3630 -0.4914  0.1059
 1191SOL    HW115209   1.799   2.845   0.642 -0.6722 -0.0877 -0.6972
 1191SOL    HW215210   1.878   2.964   0.631 -1.3477  0.5023 -0.6549
 1192SOL     OW15211   3.706   0.752   5.517  0.3802  0.4739 -0.1677
 1192SOL    HW115212   3.745   0.723   5.434 -0.7712  1.2846 -0.9901
 1192SOL    HW215213   3.765   0.810   5.566 -0.7803  1.9202 -0.4932
 1193SOL     OW15214   3.604   4.316  14.397  0.0889  0.6056 -0.1458
 1193SOL    HW115215   3.572   4.357  14.477  2.6069 -0.6572  1.5096
 1193SOL    HW215216   3.695   4.341  14.388 -0.0076  0.8909 -0.3167
 1194SOL     OW15217   3.881   3.669   6.818 -0.1508 -0.1292  0.7392
 1194SOL    HW115218   3.800   3.708   6.784 -0.3147  0.9976  2.4350
 1194SOL    HW215219   3.871   3.580   6.784 -0.9773 -0.1182  0.9399
 1195SOL     OW15220   3.792   4.037   9.014 -0.3678  0.0880 -0.4715
 1195SOL    HW115221   3.885   4.025   8.998 -0.2227  0.2897  0.2420
 1195SOL    HW215222   3.755   4.043   8.926  1.3381  0.4184 -1.1652
 1196SOL     OW15223   1.543   1.377  14.468  0.1263 -0.5036  0.0303
 1196SOL    HW115224   1.475   1.333  14.417 -1.3693 -1.9270  3.2269
 1196SOL    HW215225   1.511   1.379  14.558 -1.1266 -0.0698 -0.4239
 1197SOL     OW15226   0.554   2.081   2.754  0.1387 -0.1658 -0.4668
 1197SOL    HW115227   0.465   2.116   2.759  0.8056  1.1846  1.8373
 1197SOL    HW215228   0.598   2.139   2.816 -1.4910 -0.1782  0.6954
 1198SOL     OW15229   3.590   0.337   9.448  0.5661 -0.1568  0.1078
 1198SOL    HW115230   3.505   0.301   9.424  0.6058 -1.2162  1.5817
 1198SOL    HW215231   3.595   0.431   9.429  0.6736  0.0649  1.2388
 1199SOL     OW15232   0.241   0.836   6.501  0.3849  0.4907 -0.0191
 1199SOL    HW115233   0.179   0.857   6.430 -0.3464 -1.5331  0.0050
 1199SOL    HW215234   0.193   0.870   6.576  0.4426 -1.4462  0.8987
 1200SOL     OW15235   4.571   2.660   2.556 -0.1125  0.0254 -0.5055
 1200SOL    HW115236   4.662   2.690   2.555 -0.5023  1.2172 -0.5345
 1200SOL    HW215237   4.511   2.734   2.561 -0.5846 -0.5276  1.8562
 1201SOL     OW15238   0.594   2.593   7.732 -0.5697 -0.1589  0.5600
 1201SOL    HW115239   0.614   2.520   7.673  1.6664  0.0313  1.0919
 1201SOL    HW215240   0.678   2.600   7.778 -2.4295  0.6841  3.8596
 1202SOL     OW15241   0.939   4.045   2.804 -0.2317 -0.8224 -0.0876
 1202SOL    HW115242   1.027   4.042   2.841  0.1825 -0.2484 -1.0339
 1202SOL    HW215243   0.897   3.972   2.849 -2.8706  1.7618  1.6437
 1203SOL     OW15244   2.447   4.052   8.294  0.2971 -0.4201 -0.0986
 1203SOL    HW115245   2.475   3.971   8.252 -0.6296 -0.7924 -0.0017
 1203SOL    HW215246   2.418   4.022   8.380 -0.0480  2.3180  0.7486
 1204SOL     OW15247   2.392   2.655  11.825  0.0200  0.5497  0.5788
 1204SOL    HW115248   2.349   2.583  11.870 -1.0217 -0.2458 -1.6821
 1204SOL    HW215249   2.326   2.672  11.758 -0.3677  1.6898  1.2461
 1205SOL     OW15250   2.420   3.959  16.832 -0.0131 -0.1059  0.2565
 1205SOL    HW115251   2.402   4.019  16.904  0.3251 -0.4997  0.6660
 1205SOL    HW215252   2.510   3.933  16.854 -0.4470 -0.9508  1.0196
 1206SOL     OW15253   4.323   3.786   5.009  0.0772 -0.1561  0.0967
 1206SOL    HW115254   4.370   3.716   4.963 -0.9696 -0.7513 -0.0649
 1206SOL    HW215255   4.279   3.740   5.080  0.1463 -0.7834 -0.2657
 1207SOL     OW15256   0.962   0.428   8.593  0.3505 -0.0775 -0.0670
 1207SOL    HW115257   0.903   0.487   8.640  0.4758  0.2795 -0.3550
 1207SOL    HW215258   0.903   0.410   8.520  0.8864  0.4414 -0.6318
 1208SOL     OW15259   4.465   0.522   5.358 -0.0918 -0.3442 -0.6110
 1208SOL    HW115260   4.443   0.533   5.265  1.3041 -1.1256 -1.0300
 1208SOL    HW215261   4.555   0.493   5.349 -0.5668 -1.7697 -0.7901
 1209SOL     OW15262   1.905   1.736   7.596 -0.3344  0.1412  0.0087
 1209SOL    HW115263   1.882   1.741   7.504  1.6780 -0.1428 -0.5117
 1209SOL    HW215264   1.832   1.681   7.628  0.6477 -1.1689  0.0061
 1210SOL     OW15265   2.455   3.924  14.633  0.9238  0.1147  0.2558
 1210SOL    HW115266   2.370   3.924  14.589  1.3106 -3.2926 -0.4837
 1210SOL    HW215267   2.457   3.830  14.651 -1.1496  0.1968  1.0102
 1211SOL     OW15268   1.014   0.723   2.505  0.0081  0.3786 -0.7342
 1211SOL    HW115269   1.041   0.815   2.513 -0.6766  0.5700 -0.6540
 1211SOL    HW215270   0.996   0.726   2.411 -2.6084  3.1083 -0.1345
 1212SOL     OW15271   0.684   4.315   5.239 -0.3135  0.2910 -0.7777
 1212SOL    HW115272   0.763   4.308   5.185 -0.3910  0.3066 -0.8928
 1212SOL    HW215273   0.653   4.401   5.211 -2.2098 -1.1220 -3.0919
 1213SOL     OW15274   3.015   0.884   8.350 -0.4307 -0.8149 -0.4864
 1213SOL    HW115275   2.939   0.839   8.312 -2.2030  2.1233 -0.4108
 1213SOL    HW215276   3.087   0.821   8.358 -0.8150 -0.7730  3.5302
 1214SOL     OW15277   1.682   0.403   8.601 -0.2713  0.5995 -0.1856
 1214SOL    HW115278   1.734   0.472   8.559 -1.3638  0.5129 -1.6721
 1214SOL    HW215279   1.742   0.373   8.669 -0.2359 -0.6295 -0.7658
 1215SOL     OW15280   4.130   4.083   9.263  0.0397 -0.0696  0.1159
 1215SOL    HW115281   4.218   4.070   9.298  0.8616  0.1034 -1.8925
 1215SOL    HW215282   4.078   4.060   9.340 -2.4913  2.4976 -0.8469
 1216SOL     OW15283   3.659   2.672  14.540  0.5751 -0.2173  0.6356
 1216SOL    HW115284   3.622   2.759  14.558  0.9336  0.2161 -0.6947
 1216SOL    HW215285   3.602   2.659  14.464  0.9866 -1.1365  0.4909
 1217SOL     OW15286   3.029   4.103  17.295  0.2252 -0.1010  0.3324
 1217SOL    HW115287   3.110   4.148  17.272  0.7553 -0.6294  1.1364
 1217SOL    HW215288   3.050   4.060  17.378  0.2799 -0.3504  0.1906
 1218SOL     OW15289   0.271   0.469   8.467 -0.7276  0.1524 -0.2347
 1218SOL    HW115290   0.342   0.412   8.496  0.2447  0.3618 -2.1959
 1218SOL    HW215291   0.236   0.432   8.386 -0.8027 -2.2575  0.9065
 1219SOL     OW15292   1.500   1.089   5.570 -0.8301  0.1565 -0.0504
 1219SOL    HW115293   1.474   1.001   5.597  1.8249 -0.2814  1.1195
 1219SOL    HW215294   1.425   1.141   5.597 -0.8612 -0.0107  0.1853
 1220SOL     OW15295   0.905   3.138   4.070  0.4995 -0.3558  0.1745
 1220SOL    HW115296   0.960   3.098   4.138 -0.0404 -2.2215 -0.4725
 1220SOL    HW215297   0.975   3.182   4.022  0.4075 -0.9694 -0.5363
 1221SOL     OW15298   0.154   3.552   2.715  0.6043 -0.4551  0.4763
 1221SOL    HW115299   0.073   3.519   2.676  0.5284 -0.9553  1.0716
 1221SOL    HW215300   0.158   3.641   2.681  1.3586 -0.9352 -0.6998
 1222SOL     OW15301   0.987   1.095   7.068 -0.7394  0.1975 -0.0496
 1222SOL    HW115302   1.008   1.079   7.160  0.8751  1.9117 -0.1325
 1222SOL    HW215303   0.988   1.010   7.024  0.5596  0.6753 -0.9230
 1223SOL     OW15304   0.254   1.842  15.740 -0.0780  0.6507  0.1357
 1223SOL    HW115305   0.314   1.837  15.815  0.6084 -0.0842 -0.4639
 1223SOL    HW215306   0.186   1.906  15.761 -0.1145  1.0495 -1.1931
 1224SOL     OW15307   4.557   4.131   6.523  0.1305 -0.2602  0.4748
 1224SOL    HW115308   4.614   4.129   6.600 -0.3702 -0.6002  0.8409
 1224SOL    HW215309   4.567   4.222   6.497  0.4945 -0.1243  1.0797
 1225SOL     OW15310   2.960   3.119   6.446  0.1039  0.2923 -0.5531
 1225SOL    HW115311   2.969   3.184   6.376 -1.4736  2.1286  0.9682
 1225SOL    HW215312   2.876   3.140   6.485 -0.9059 -0.7419 -2.1880
 1226SOL     OW15313   0.110   0.499  14.928  0.0136 -0.0132 -0.3579
 1226SOL    HW115314   0.062   0.581  14.918  1.2107  0.7969  0.6920
 1226SOL    HW215315   0.052   0.444  14.981 -0.9763 -0.3247 -1.7395
 1227SOL     OW15316   0.366   3.240   2.074 -0.2314 -0.0222  0.7622
 1227SOL    HW115317   0.305   3.312   2.087  0.1403  0.7684 -1.8253
 1227SOL    HW215318   0.312   3.167   2.104  2.2191 -2.7035 -1.2855
 1228SOL     OW15319   2.426   4.219   6.819  0.0741 -0.5910  0.6085
 1228SOL    HW115320   2.441   4.137   6.772  2.7715  0.7376 -0.8912
 1228SOL    HW215321   2.402   4.189   6.907 -1.3172 -1.6193 -0.1124
 1229SOL     OW15322   1.190   3.320  11.287  0.1812 -0.0411 -0.0302
 1229SOL    HW115323   1.122   3.322  11.220  2.4182 -2.6554 -2.3437
 1229SOL    HW215324   1.269   3.321  11.234 -0.0333 -2.0735 -0.3522
 1230SOL     OW15325   3.481   3.579   7.865  0.2170  0.1506  0.0277
 1230SOL    HW115326   3.408   3.519   7.852  0.2814 -0.1367  1.0272
 1230SOL    HW215327   3.554   3.525   7.834  0.5119 -1.0085  2.7594
 1231SOL     OW15328   2.044   0.353   2.694  0.8090  0.1568  0.0394
 1231SOL    HW115329   2.003   0.419   2.638 -0.8044  0.3587  1.4886
 1231SOL    HW215330   2.129   0.390   2.720 -0.5583  3.7400 -0.5286
 1232SOL     OW15331   1.840   1.191   8.911 -0.3066 -0.3190 -0.1478
 1232SOL    HW115332   1.822   1.162   9.001 -3.0720 -1.0790 -0.9533
 1232SOL    HW215333   1.752   1.221   8.891 -0.3106 -0.5666 -0.5069
 1233SOL     OW15334   0.411   1.797   5.486 -0.4283 -0.2232 -0.0237
 1233SOL    HW115335   0.435   1.707   5.464  1.9778  0.6626 -1.0762
 1233SOL    HW215336   0.499   1.832   5.472 -1.0350  0.8825 -1.1049
 1234SOL     OW15337   1.381   3.004  13.505 -0.0499 -0.3281  0.3156
 1234SOL    HW115338   1.474   3.015  13.490 -0.5703  0.4242 -2.4562
 1234SOL    HW215339   1.373   3.059  13.583 -1.2091 -0.4661  0.3002
 1235SOL     OW15340   4.657   0.980   3.883 -0.5022 -0.0025 -0.2209
 1235SOL    HW115341   4.659   1.001   3.976  2.2703 -1.3582  0.0283
 1235SOL    HW215342   4.562   0.980   3.878 -0.4509  2.3413 -1.6448
 1236SOL     OW15343   3.284   1.840   4.060  0.5723  0.2567 -0.1329
 1236SOL    HW115344   3.317   1.760   4.020 -0.9388 -0.9985  1.1250
 1236SOL    HW215345   3.321   1.903   3.998 -1.0603  1.4181  0.0699
 1237SOL     OW15346   2.900   2.286   4.068  0.1360 -0.1395  0.3684
 1237SOL    HW115347   2.830   2.319   4.126 -0.4052 -2.6238  1.1326
 1237SOL    HW215348   2.971   2.332   4.113  0.4788  1.3496 -1.7129
 1238SOL     OW15349   0.915   4.587   5.432  0.2390  0.2777  0.4149
 1238SOL    HW115350   0.903   4.650   5.360  2.6867 -0.0039 -0.2440
 1238SOL    HW215351   1.005   4.558   5.417  0.0708  0.1709 -0.3860
 1239SOL     OW15352   3.991   0.040   0.496  0.0196 -0.0672 -0.0488
 1239SOL    HW115353   4.079   0.075   0.487 -0.8125  1.3236 -3.0250
 1239SOL    HW215354   4.005   4.682   0.490  1.1266  0.2717 -2.9585
 1240SOL     OW15355   2.596   0.236  15.551 -0.1694  0.0787 -0.2515
 1240SOL    HW115356   2.669   0.236  15.613  0.5668 -1.9875 -1.1080
 1240SOL    HW215357   2.648   0.255  15.473  1.1810 -1.7271  0.1868
 1241SOL     OW15358   3.403   1.914  17.684 -0.1221  0.6860  0.2783
 1241SOL    HW115359   3.383   1.821  17.693  1.7341  0.2075 -0.5250
 1241SOL    HW215360   3.407   1.943   0.031  4.3231 -0.0204  0.3225
 1242SOL     OW15361   3.163   3.100   9.940  0.3249 -0.9010 -0.3913
 1242SOL    HW115362   3.097   3.033   9.959  0.7237 -1.5540 -1.3305
 1242SOL    HW215363   3.222   3.081  10.013 -0.9298  1.4541  1.2245
 1243SOL     OW15364   2.287   4.573   5.425 -0.0705 -0.3582 -0.4252
 1243SOL    HW115365   2.196   4.546   5.413 -0.3938  0.4484  0.2534
 1243SOL    HW215366   2.260   4.663   5.440  1.4868  0.2097 -1.0558
 1244SOL     OW15367   2.788   0.976   3.214 -0.5492  0.1681 -0.3078
 1244SOL    HW115368   2.725   0.950   3.281 -0.2362 -3.0795 -1.2649
 1244SOL    HW215369   2.798   1.070   3.228 -1.3844  0.1623  0.3319
 1245SOL     OW15370   2.840   0.539  17.050  0.1266  0.4281 -0.2807
 1245SOL    HW115371   2.878   0.622  17.080  0.8912 -0.4573  1.2494
 1245SOL    HW215372   2.756   0.552  17.094 -0.4136 -1.9478 -0.6158
 1246SOL     OW15373   0.194   2.065   6.071 -0.5679  0.0314  0.3681
 1246SOL    HW115374   0.134   2.129   6.109 -0.9034  0.6106 -1.1408
 1246SOL    HW215375   0.166   1.992   6.127 -0.4808 -0.1732  0.1471
 1247SOL     OW15376   0.716   1.578   5.236  0.0037 -0.0378 -0.4008
 1247SOL    HW115377   0.645   1.638   5.214  1.5150  2.3182  1.0986
 1247SOL    HW215378   0.792   1.637   5.239 -0.9516  1.2602 -1.7577
 1248SOL     OW15379   3.201   2.445  13.366 -0.4472 -0.4532  0.4457
 1248SOL    HW115380   3.177   2.497  13.289  1.2139 -0.9259 -0.3899
 1248SOL    HW215381   3.296   2.440  13.358 -0.4574 -0.9029  0.6263
 1249SOL     OW15382   2.734   3.174   9.723  0.0736  0.4507 -0.4358
 1249SOL    HW115383   2.705   3.162   9.814  1.1473 -0.2220 -0.1801
 1249SOL    HW215384   2.732   3.269   9.715 -2.1521  0.4225 -0.2745
 1250SOL     OW15385   0.909   1.647   6.688 -0.0894 -0.5488 -0.3337
 1250SOL    HW115386   0.840   1.581   6.692 -2.1046  1.5308 -0.5803
 1250SOL    HW215387   0.853   1.718   6.656  1.3635  1.1035  0.7981
 1251SOL     OW15388   1.156   2.258   2.906 -0.1722  0.3046 -0.0765
 1251SOL    HW115389   1.089   2.233   2.842 -1.4095  0.9899  0.9403
 1251SOL    HW215390   1.214   2.185   2.886  1.0230  0.8605  1.4004
 1252SOL     OW15391   1.277   2.726   6.441  0.1197  0.1355  0.0246
 1252SOL    HW115392   1.240   2.814   6.439 -1.4643 -0.5667 -0.8426
 1252SOL    HW215393   1.249   2.691   6.357 -0.8238  0.5212  0.1830
 1253SOL     OW15394   0.766   2.968  12.507 -0.3824  0.2796  0.6501
 1253SOL    HW115395   0.774   3.062  12.492  0.5303 -0.5789 -4.4120
 1253SOL    HW215396   0.684   2.961  12.555 -1.4917 -1.0100 -1.4524
 1254SOL     OW15397   2.663   4.192   1.275 -0.0701 -0.8522  0.2014
 1254SOL    HW115398   2.598   4.190   1.204 -0.0107  2.2029  0.0442
 1254SOL    HW215399   2.672   4.286   1.293 -0.2043 -0.5816 -1.1122
 1255SOL     OW15400   2.121   0.748  16.798  0.2886 -0.3086  0.0731
 1255SOL    HW115401   2.044   0.790  16.761 -0.6693 -0.8243  1.4739
 1255SOL    HW215402   2.174   0.753  16.719 -0.8988 -2.8284 -0.8730
 1256SOL     OW15403   1.028   3.419   4.349  0.3856 -0.2193  0.7518
 1256SOL    HW115404   1.043   3.487   4.415  2.2403 -1.5312  1.7015
 1256SOL    HW215405   0.951   3.371   4.380  0.8070 -2.9539 -2.5310
 1257SOL     OW15406   3.605   3.013   2.344 -0.2847  0.7416 -0.2454
 1257SOL    HW115407   3.693   3.047   2.360  0.1094  0.5119 -1.9608
 1257SOL    HW215408   3.566   3.083   2.293 -2.6087 -1.0256 -0.8604
 1258SOL     OW15409   2.282   0.695   5.491 -0.2593 -0.3026  0.6485
 1258SOL    HW115410   2.263   0.622   5.550 -1.3070 -1.1996 -0.7889
 1258SOL    HW215411   2.326   0.755   5.551  0.7119 -0.3238 -0.0418
 1259SOL     OW15412   4.055   3.372   0.608 -0.4044 -0.0231  0.0324
 1259SOL    HW115413   4.101   3.372   0.692 -0.3609  0.0542  0.0088
 1259SOL    HW215414   4.078   3.460   0.577  1.6957 -0.1107  1.2993
 1260SOL     OW15415   3.861   3.508  17.088  0.3754 -0.1901 -0.0180
 1260SOL    HW115416   3.886   3.507  16.996 -1.2366  0.6483 -0.4670
 1260SOL    HW215417   3.939   3.550  17.124  1.5412 -1.5916 -0.9677
 1261SOL     OW15418   1.017   3.935   6.491 -0.5721 -0.1164 -0.5401
 1261SOL    HW115419   1.035   3.875   6.418  1.6933 -0.2953  0.1611
 1261SOL    HW215420   1.014   4.022   6.451 -1.6155 -0.4585 -1.2121
 1262SOL     OW15421   2.419   0.109  14.385 -0.3212 -0.5694  0.0390
 1262SOL    HW115422   2.483   0.040  14.365  1.9851  1.3558  0.7120
 1262SOL    HW215423   2.390   0.134  14.297 -1.7044 -1.7912  0.1472
 1263SOL     OW15424   0.032   0.838  12.757  0.1674 -0.3865 -0.1558
 1263SOL    HW115425   0.125   0.862  12.761  0.3088 -0.8776 -0.4754
 1263SOL    HW215426   0.011   0.829  12.850 -1.2143 -0.0519 -0.4413
 1264SOL     OW15427   2.968   0.341   7.243  0.3571 -0.3735 -0.4034
 1264SOL    HW115428   3.062   0.359   7.244 -0.0909  1.8578 -0.0512
 1264SOL    HW215429   2.946   0.369   7.154  0.4494  3.7333  0.8743
 1265SOL     OW15430   0.565   0.188   4.488  0.0169 -0.2350  0.1036
 1265SOL    HW115431   0.651   0.145   4.483 -0.5143 -1.1528 -1.2322
 1265SOL    HW215432   0.591   0.267   4.441  0.7632 -0.9874 -0.7396
 1266SOL     OW15433   1.832   3.430   4.403  0.4971  1.0280 -0.2753
 1266SOL    HW115434   1.841   3.336   4.416 -0.0962  1.1976  1.3031
 1266SOL    HW215435   1.804   3.450   4.492 -0.5572  0.5189 -0.4939
 1267SOL     OW15436   1.039   3.663   4.498  0.3649 -0.1470  0.2100
 1267SOL    HW115437   1.000   3.698   4.579  1.6150  1.4580  0.1093
 1267SOL    HW215438   1.088   3.739   4.467 -2.2674  0.5338 -2.2203
 1268SOL     OW15439   0.004   4.665   4.645  0.0224 -0.1802 -0.2024
 1268SOL    HW115440   0.087   4.618   4.634  1.1348  1.8645 -0.6534
 1268SOL    HW215441   0.031   4.736   4.703  2.6906 -1.2137 -0.1879
 1269SOL     OW15442   3.826   2.432   1.374 -0.2616 -0.1041  0.0656
 1269SOL    HW115443   3.917   2.432   1.404 -0.5280  2.9127  0.9004
 1269SOL    HW215444   3.826   2.489   1.297  0.1949 -0.8603 -0.4956
 1270SOL     OW15445   0.482   2.532   4.038  0.0603 -0.4541 -0.3688
 1270SOL    HW115446   0.473   2.573   4.124 -1.2258  0.2909 -0.8523
 1270SOL    HW215447   0.576   2.546   4.041  0.1645 -1.0607 -0.7212
 1271SOL     OW15448   4.603   2.618  10.635 -0.2091 -0.5553 -0.3279
 1271SOL    HW115449   4.620   2.634  10.543 -0.8924 -2.9507 -0.8682
 1271SOL    HW215450   4.531   2.678  10.655  0.3395  0.9889 -3.0651
 1272SOL     OW15451   4.031   2.882   9.872  0.2351  0.2288 -1.0399
 1272SOL    HW115452   4.110   2.881   9.925 -0.2967 -1.3290 -0.2819
 1272SOL    HW215453   4.047   2.803   9.819  1.3555 -1.3074  1.5795
 1273SOL     OW15454   2.887   0.821   3.013  1.5393 -0.4269  0.1340
 1273SOL    HW115455   2.807   0.827   2.960  2.4855 -1.3454 -1.4141
 1273SOL    HW215456   2.865   0.885   3.080 -0.0344 -0.6232 -0.2098
 1274SOL     OW15457   2.167   4.382   4.076  0.2945  0.0249  0.4411
 1274SOL    HW115458   2.210   4.329   4.143  1.2677 -0.3971 -0.5227
 1274SOL    HW215459   2.100   4.320   4.050  0.4696 -0.0160  0.0806
 1275SOL     OW15460   3.205   0.870   4.769 -0.8651  0.1318  0.3251
 1275SOL    HW115461   3.276   0.872   4.833 -0.3675 -2.4478 -0.1462
 1275SOL    HW215462   3.136   0.931   4.798 -1.4793 -1.0588  1.3690
 1276SOL     OW15463   1.089   0.552  15.058  0.4297 -0.3758  0.1733
 1276SOL    HW115464   1.030   0.563  14.984 -1.8366 -1.1606  1.8504
 1276SOL    HW215465   1.036   0.498  15.116 -1.1382  0.3178 -0.6215
 1277SOL     OW15466   2.251   3.638   7.710 -0.0414  0.2881 -0.0672
 1277SOL    HW115467   2.305   3.684   7.646  2.4290 -1.7066  0.5747
 1277SOL    HW215468   2.189   3.707   7.731  1.2489  2.4594 -3.3796
 1278SOL     OW15469   4.119   0.516   5.856  0.1941  0.0610  0.0866
 1278SOL    HW115470   4.136   0.566   5.776  2.1929  0.9905  1.0875
 1278SOL    HW215471   4.209   0.518   5.888  0.3810 -2.1119 -0.3296
 1279SOL     OW15472   0.462   3.603   4.695  0.1618 -0.2794  0.5501
 1279SOL    HW115473   0.497   3.652   4.769 -1.4761  0.0553  1.1068
 1279SOL    HW215474   0.448   3.669   4.627 -1.7406 -1.3554 -0.1131
 1280SOL     OW15475   3.794   1.307   2.890  0.3695  0.4539 -0.0564
 1280SOL    HW115476   3.751   1.234   2.936 -1.6370  1.3745 -0.4655
 1280SOL    HW215477   3.791   1.264   2.805 -1.4705  0.8308 -0.1822
 1281SOL     OW15478   1.547   1.389  16.491 -0.0146  0.2638  0.0003
 1281SOL    HW115479   1.485   1.364  16.423  0.2938 -1.7253  0.4462
 1281SOL    HW215480   1.481   1.416  16.555 -0.3191 -0.8713  0.1592
 1282SOL     OW15481   3.768   1.267   3.802  0.3087 -0.2501 -0.2129
 1282SOL    HW115482   3.705   1.325   3.759  0.8700 -1.0341 -2.0771
 1282SOL    HW215483   3.782   1.308   3.888 -0.3048 -0.3027 -0.0869
 1283SOL     OW15484   0.471   1.080   2.779  0.1404 -0.0254 -0.6993
 1283SOL    HW115485   0.561   1.069   2.748  0.6655 -1.0470  1.1793
 1283SOL    HW215486   0.489   1.074   2.873  2.3082  1.0337 -1.0203
 1284SOL     OW15487   0.111   0.898   6.057  0.2593 -0.3124  0.4535
 1284SOL    HW115488   0.179   0.853   6.107 -0.1269  1.3346  2.4452
 1284SOL    HW215489   0.048   0.922   6.125 -0.0662  0.6588 -0.1859
 1285SOL     OW15490   2.580   4.210  15.614 -0.3461 -0.0068 -0.3464
 1285SOL    HW115491   2.660   4.257  15.590 -1.0835  0.1706 -2.3967
 1285SOL    HW215492   2.514   4.268  15.576  0.4863  1.7693  0.9111
 1286SOL     OW15493   2.681   3.685  12.056 -0.1157  0.3659  0.0731
 1286SOL    HW115494   2.729   3.761  12.022 -0.7607  1.1933  1.0446
 1286SOL    HW215495   2.632   3.669  11.975 -2.4628  1.3557  1.3214
 1287SOL     OW15496   1.834   1.874   3.019  0.6695  0.0662 -0.0161
 1287SOL    HW115497   1.766   1.937   3.042  1.2915  0.3761  0.9162
 1287SOL    HW215498   1.898   1.932   2.979  1.0750 -0.5345 -0.2360
 1288SOL     OW15499   1.545   0.253  13.647 -0.1950  0.2047  0.1817
 1288SOL    HW115500   1.634   0.269  13.614 -0.2439  0.0142 -0.0407
 1288SOL    HW215501   1.564   0.284  13.736  1.5324 -0.7033  0.1473
 1289SOL     OW15502   2.833   2.277  10.258 -0.5754  0.0146  0.0404
 1289SOL    HW115503   2.831   2.330  10.179 -0.6486  0.2986  0.2325
 1289SOL    HW215504   2.803   2.195  10.217  1.3840 -0.0246 -1.2995
 1290SOL     OW15505   3.763   3.743   2.748  0.1125 -0.1665  0.1723
 1290SOL    HW115506   3.775   3.804   2.820  0.8062 -1.0549  0.8066
 1290SOL    HW215507   3.719   3.798   2.683 -2.4096 -2.1719  0.1823
 1291SOL     OW15508   1.380   3.449   6.957 -0.0361  0.2348  0.2885
 1291SOL    HW115509   1.390   3.391   6.882 -1.9023  1.4997 -0.9283
 1291SOL    HW215510   1.395   3.392   7.032 -0.7777 -0.4478 -0.0868
 1292SOL     OW15511   3.781   0.207   2.092  0.4850  0.2700  0.0684
 1292SOL    HW115512   3.870   0.182   2.067  0.2541  2.8124 -3.2489
 1292SOL    HW215513   3.773   0.290   2.045 -0.0242 -0.1633 -0.6085
 1293SOL     OW15514   0.770   0.551  17.660  0.4113  0.2102  0.6830
 1293SOL    HW115515   0.848   0.500  17.639  0.2863  1.2091 -2.1467
 1293SOL    HW215516   0.802   0.634  17.696  0.8767  0.4451 -0.2845
 1294SOL     OW15517   3.944   3.495   2.366  0.4221 -0.7914  0.6334
 1294SOL    HW115518   3.930   3.580   2.326  1.0888 -0.0467  2.0014
 1294SOL    HW215519   3.854   3.479   2.396  0.3206 -0.2383  0.6124
 1295SOL     OW15520   2.073   3.616   5.664 -0.1449  0.1149  0.0178
 1295SOL    HW115521   2.035   3.528   5.656 -1.0795  0.7192 -2.4173
 1295SOL    HW215522   2.138   3.598   5.731  1.5271  0.1833 -1.5745
 1296SOL     OW15523   0.075   4.405   5.263  0.1858 -0.2456 -0.6512
 1296SOL    HW115524   0.061   4.455   5.343 -1.4054 -2.1122  0.2316
 1296SOL    HW215525   0.157   4.357   5.276  0.1535  0.0322  0.5741
 1297SOL     OW15526   2.504   3.025   6.789  0.3208 -0.4962  0.0640
 1297SOL    HW115527   2.515   2.967   6.714 -0.3426 -0.0696 -0.3607
 1297SOL    HW215528   2.527   3.110   6.752 -0.0264 -0.6423 -0.4824
 1298SOL     OW15529   3.702   4.251  12.158 -0.2270  0.0419  0.0374
 1298SOL    HW115530   3.661   4.337  12.171 -0.3711 -0.1103  0.5909
 1298SOL    HW215531   3.633   4.198  12.198  0.1279 -0.5037 -0.0782
 1299SOL     OW15532   0.679   1.812  10.700  0.1880  0.6951  0.2961
 1299SOL    HW115533   0.711   1.883  10.645 -0.7719  2.0250  1.4362
 1299SOL    HW215534   0.734   1.822  10.778 -2.5675 -2.2086  2.6298
 1300SOL     OW15535   0.207   1.177  11.162  0.2763  0.1999  0.0412
 1300SOL    HW115536   0.260   1.239  11.113 -1.8699  1.0572 -1.2205
 1300SOL    HW215537   0.120   1.215  11.149 -0.0890 -0.4936  0.4788
 1301SOL     OW15538   1.279   2.730   5.085  0.3277  0.3504  0.2488
 1301SOL    HW115539   1.220   2.800   5.111  0.8348  0.7942  0.2119
 1301SOL    HW215540   1.232   2.680   5.019 -0.3370  0.3469  0.7295
 1302SOL     OW15541   1.916   3.109  13.517  0.0858  0.4855 -0.2053
 1302SOL    HW115542   2.001   3.114  13.562  0.1113  0.2036 -0.2207
 1302SOL    HW215543   1.924   3.174  13.447  1.4489  2.0140  1.3758
 1303SOL     OW15544   3.435   0.299   8.561 -0.2381 -0.1273  0.1618
 1303SOL    HW115545   3.378   0.224   8.546 -2.2553  1.0773  1.8623
 1303SOL    HW215546   3.511   0.252   8.597 -1.3215 -2.3149 -0.4241
 1304SOL     OW15547   4.046   4.674   4.758  0.2952  0.4723 -0.7778
 1304SOL    HW115548   3.963   4.650   4.800 -0.0554  0.7320 -1.3312
 1304SOL    HW215549   4.024   0.018   4.712 -0.6873  1.7238  1.9129
 1305SOL     OW15550   3.437   3.965   8.914 -1.1294 -0.3537 -0.6527
 1305SOL    HW115551   3.413   3.873   8.902  0.4854 -0.6925 -1.1940
 1305SOL    HW215552   3.394   3.966   9.000  1.5769 -2.2642  0.7085
 1306SOL     OW15553   0.956   1.644  10.732 -0.4344 -0.0447  0.1088
 1306SOL    HW115554   1.042   1.686  10.740 -1.4000  1.7167  1.1463
 1306SOL    HW215555   0.911   1.695  10.799 -0.8046  1.0534 -0.9676
 1307SOL     OW15556   1.862   3.182   5.837 -0.5539 -0.3655 -0.0775
 1307SOL    HW115557   1.877   3.270   5.803 -1.4562  0.1777  0.9155
 1307SOL    HW215558   1.777   3.166   5.797 -1.7104  0.2267  2.1046
 1308SOL     OW15559   1.229   2.454   5.569  0.5624  0.7747  0.6055
 1308SOL    HW115560   1.269   2.502   5.496  0.0928  0.9578  0.4665
 1308SOL    HW215561   1.204   2.532   5.618 -0.4935  1.2320 -0.6545
 1309SOL     OW15562   2.601   3.641   5.011  0.1765 -0.5016 -0.0957
 1309SOL    HW115563   2.524   3.694   4.991  0.0289 -0.1496  1.4382
 1309SOL    HW215564   2.588   3.646   5.106 -1.3759  0.3112 -0.3490
 1310SOL     OW15565   2.686   1.158   5.832 -0.0715 -0.3182  0.7499
 1310SOL    HW115566   2.712   1.223   5.897  2.1149  0.9989 -1.4510
 1310SOL    HW215567   2.704   1.080   5.884 -1.0935  0.0600  1.6665
 1311SOL     OW15568   2.940   2.911   4.114 -0.3219 -0.3179  0.1229
 1311SOL    HW115569   2.875   2.979   4.094 -0.0336  0.0641  0.4723
 1311SOL    HW215570   2.885   2.861   4.174 -1.6444  0.2746 -0.6030
 1312SOL     OW15571   2.721   2.771   4.293 -0.2898  0.2460  0.5487
 1312SOL    HW115572   2.675   2.712   4.233 -0.3509  1.2621 -0.4068
 1312SOL    HW215573   2.706   2.731   4.379 -0.2694 -1.1285 -0.0836
 1313SOL     OW15574   4.071   0.463   8.294  0.6166 -0.6148  0.9368
 1313SOL    HW115575   4.108   0.524   8.229 -2.4974 -1.2523 -1.3922
 1313SOL    HW215576   3.979   0.488   8.299  0.7381  0.0009  0.2238
 1314SOL     OW15577   3.289   2.234  12.014 -0.1145 -0.3043 -0.2159
 1314SOL    HW115578   3.273   2.140  12.023 -1.9976 -0.2595 -2.8962
 1314SOL    HW215579   3.238   2.268  12.088  1.5811  1.8736 -0.0562
 1315SOL     OW15580   1.314   3.852  15.164 -0.4194 -0.4173  0.0233
 1315SOL    HW115581   1.253   3.794  15.209 -0.3557 -0.5650 -0.0775
 1315SOL    HW215582   1.274   3.855  15.077 -1.4807 -0.1333  0.5258
 1316SOL     OW15583   0.463   4.460   1.372 -0.2388 -0.2104 -0.0374
 1316SOL    HW115584   0.368   4.450   1.381 -0.2961  0.4403  0.1145
 1316SOL    HW215585   0.499   4.375   1.348 -0.2998 -0.2510  0.0151
 1317SOL     OW15586   2.678   3.878   8.934  0.2188 -0.0632  0.5338
 1317SOL    HW115587   2.706   3.807   8.992  0.9976  0.2623  0.5562
 1317SOL    HW215588   2.621   3.932   8.989 -2.6182  0.5208 -2.9445
 1318SOL     OW15589   2.868   3.411   0.571  0.0442 -0.0700  0.0098
 1318SOL    HW115590   2.828   3.446   0.492  0.0236  1.9009  0.9054
 1318SOL    HW215591   2.947   3.378   0.527 -0.6278 -0.5249 -0.8403
 1319SOL     OW15592   0.809   1.460   2.055  0.6988 -0.2301  0.1224
 1319SOL    HW115593   0.751   1.393   2.019 -0.5865  0.4104  1.0026
 1319SOL    HW215594   0.800   1.450   2.150 -0.2677 -0.3728  0.0095
 1320SOL     OW15595   1.304   2.828   5.577 -0.1258  0.5262 -0.0013
 1320SOL    HW115596   1.378   2.885   5.556  0.0410  0.4406  0.3658
 1320SOL    HW215597   1.293   2.771   5.501 -2.2833  1.8931 -0.7032
 1321SOL     OW15598   3.401   4.289   5.253  0.0463 -0.2052  0.5215
 1321SOL    HW115599   3.492   4.315   5.267  0.1625  0.1406 -0.8245
 1321SOL    HW215600   3.351   4.368   5.233  1.7060  0.4764 -1.0232
 1322SOL     OW15601   1.589   1.649   9.224 -0.0612 -0.1008 -0.5324
 1322SOL    HW115602   1.521   1.712   9.248 -3.0795 -2.5966 -2.4752
 1322SOL    HW215603   1.558   1.568   9.264  0.3467 -0.0252 -0.0663
 1323SOL     OW15604   1.549   4.298   1.659  0.3627 -0.4366  0.1908
 1323SOL    HW115605   1.515   4.344   1.581 -0.5970 -1.0974  0.2198
 1323SOL    HW215606   1.575   4.375   1.710 -2.4294 -0.9978  2.4388
 1324SOL     OW15607   1.151   3.064   2.982 -0.0999 -0.4523 -0.0516
 1324SOL    HW115608   1.148   2.972   3.007  0.5620 -0.3754  0.2877
 1324SOL    HW215609   1.244   3.073   2.961 -0.0289 -0.7976  0.1182
 1325SOL     OW15610   3.672   1.326  13.367 -0.1983  0.0931  0.3621
 1325SOL    HW115611   3.731   1.397  13.345 -1.3810  1.8273  2.7344
 1325SOL    HW215612   3.599   1.324  13.305  1.1420 -1.0049 -1.1682
 1326SOL     OW15613   4.401   0.914   3.978  0.4659 -0.6382 -0.0790
 1326SOL    HW115614   4.308   0.898   3.960 -0.0993  0.9836  1.4424
 1326SOL    HW215615   4.439   0.834   3.941 -1.0365 -1.0956 -0.6309
 1327SOL     OW15616   3.019   0.465   1.460  0.2402 -0.3354  0.3182
 1327SOL    HW115617   3.062   0.540   1.501  2.1960 -2.1567  1.6020
 1327SOL    HW215618   2.929   0.486   1.484 -0.0264 -1.7246  0.5050
 1328SOL     OW15619   3.147   2.240   5.038 -0.4299 -0.2516 -0.2175
 1328SOL    HW115620   3.158   2.212   4.947 -1.4694 -1.7825  0.1319
 1328SOL    HW215621   3.191   2.325   5.045  0.5833 -0.6427 -1.8296
 1329SOL     OW15622   0.358   3.591   0.065  0.0425 -0.1498  0.0078
 1329SOL    HW115623   0.304   3.564   0.139  3.7650  0.0659  2.8379
 1329SOL    HW215624   0.331   3.529  17.742  3.8996 -0.0104 -1.6501
 1330SOL     OW15625   2.691   0.043   6.587  0.3457  0.3910 -0.3048
 1330SOL    HW115626   2.633   0.095   6.643  0.7562  1.4481 -0.8739
 1330SOL    HW215627   2.628   4.727   6.538  1.0076  0.3086 -1.0640
 1331SOL     OW15628   0.794   1.056   1.533  0.3861 -0.5724  0.2846
 1331SOL    HW115629   0.872   1.000   1.525  1.1191  0.6962 -1.4124
 1331SOL    HW215630   0.778   1.055   1.627  0.5543 -0.7198  0.3129
 1332SOL     OW15631   2.195   0.726   6.128  0.1423  0.2832 -0.1607
 1332SOL    HW115632   2.176   0.799   6.069 -1.9808 -0.7062 -0.7149
 1332SOL    HW215633   2.243   0.769   6.198 -1.1330  1.5589 -0.0829
 1333SOL     OW15634   0.732   3.883  17.488  0.0116 -0.0634 -0.3109
 1333SOL    HW115635   0.740   3.790  17.508 -1.5278 -0.8480 -3.3398
 1333SOL    HW215636   0.639   3.904  17.492 -0.3205 -1.6851  0.7233
 1334SOL     OW15637   0.066   4.271   3.589 -0.2461 -0.1191 -0.6988
 1334SOL    HW115638   0.132   4.338   3.607 -0.2280 -0.4397  0.3907
 1334SOL    HW215639   4.732   4.292   3.649  0.9775  0.7300  0.4362
 1335SOL     OW15640   0.949   1.715   5.309 -0.3279 -0.4014 -0.2239
 1335SOL    HW115641   0.931   1.799   5.266 -4.2835 -0.6504  1.0065
 1335SOL    HW215642   1.002   1.742   5.385 -1.0697 -0.7298  0.4068
 1336SOL     OW15643   2.661   0.292   8.578  0.0676  0.1676  0.1909
 1336SOL    HW115644   2.726   0.285   8.508 -2.5391 -0.0409 -2.2263
 1336SOL    HW215645   2.702   0.230   8.638 -0.8525  0.3546  1.0186
 1337SOL     OW15646   1.628   3.479   9.052  0.3117  0.2148  0.1778
 1337SOL    HW115647   1.611   3.536   8.977  0.6958  1.6346  1.1610
 1337SOL    HW215648   1.583   3.522   9.125 -0.5531 -0.7061  0.1914
 1338SOL     OW15649   1.841   4.083   4.276  0.5242  0.5887 -0.5392
 1338SOL    HW115650   1.812   4.139   4.205 -0.5908  0.5088 -0.1589
 1338SOL    HW215651   1.752   4.073   4.310  1.4753 -0.6558  1.5679
 1339SOL     OW15652   2.954   1.049   3.887  0.7710  0.4439  0.3480
 1339SOL    HW115653   2.944   0.965   3.842 -0.5650  0.7032  0.1572
 1339SOL    HW215654   2.863   1.061   3.917  1.5910  0.2902  2.9321
 1340SOL     OW15655   0.858   1.998   5.292  0.1227 -0.0921 -0.0758
 1340SOL    HW115656   0.925   2.063   5.270 -0.9997  0.4483 -1.9185
 1340SOL    HW215657   0.814   2.016   5.208 -0.1815  1.8220  0.4828
 1341SOL     OW15658   2.157   2.187   2.711 -0.0707  0.4567  0.0547
 1341SOL    HW115659   2.144   2.258   2.775  1.4700  0.9589 -0.2010
 1341SOL    HW215660   2.232   2.213   2.658 -1.0733 -0.7298 -1.9360
 1342SOL     OW15661   0.596   3.305   7.238  0.6643  0.0359  0.4109
 1342SOL    HW115662   0.559   3.220   7.262 -1.1437  0.4930 -0.7658
 1342SOL    HW215663   0.622   3.338   7.324  0.1995 -2.7515  1.6105
 1343SOL     OW15664   4.288   4.521   7.129  0.5389 -0.6504  0.1759
 1343SOL    HW115665   4.352   4.552   7.193  1.0498 -0.6533 -0.3362
 1343SOL    HW215666   4.259   4.440   7.171 -1.0944 -0.5531 -0.7375
 1344SOL     OW15667   3.988   1.556  13.875 -0.3233 -0.7787  0.3089
 1344SOL    HW115668   4.081   1.541  13.895 -0.1424  0.6506  0.5053
 1344SOL    HW215669   3.955   1.553  13.964 -0.1365 -1.6159  0.3496
 1345SOL     OW15670   3.478   2.414   0.721 -0.3414  0.2617  0.0733
 1345SOL    HW115671   3.556   2.426   0.665 -0.8701 -0.9380 -0.9238
 1345SOL    HW215672   3.486   2.491   0.778  1.0660  1.7264 -2.0494
 1346SOL     OW15673   3.261   1.761   4.848  0.4563 -0.1504  0.2477
 1346SOL    HW115674   3.305   1.833   4.892 -0.7001  0.3159  0.6451
 1346SOL    HW215675   3.341   1.716   4.821 -0.0392  0.4166 -2.1704
 1347SOL     OW15676   2.543   3.766   8.203  0.1699 -0.5402 -0.1993
 1347SOL    HW115677   2.550   3.673   8.181 -2.2137 -0.8074  0.0813
 1347SOL    HW215678   2.621   3.807   8.166  0.2614 -1.0062 -0.5239
 1348SOL     OW15679   1.863   0.933   7.677  0.2060 -0.0465 -0.1565
 1348SOL    HW115680   1.810   0.855   7.694 -0.6951  0.4013 -0.9062
 1348SOL    HW215681   1.927   0.916   7.746  0.0242 -2.1772 -0.5277
 1349SOL     OW15682   4.710   3.490  13.264 -0.2290  0.2886 -0.0551
 1349SOL    HW115683   4.701   3.408  13.216  0.3004 -1.0710  2.1852
 1349SOL    HW215684   4.666   3.457  13.343  1.3146 -0.0081  0.6863
 1350SOL     OW15685   4.489   0.053   4.558  0.1051  0.8145  1.1472
 1350SOL    HW115686   4.573   0.015   4.583 -1.1744 -2.5875  0.2928
 1350SOL    HW215687   4.435   4.710   4.548 -0.8720  1.4271  1.5603
 1351SOL     OW15688   1.250   0.870   9.036  0.0157  0.1617 -0.2719
 1351SOL    HW115689   1.312   0.840   9.103  2.2039  0.6717 -2.0491
 1351SOL    HW215690   1.309   0.879   8.961 -0.3700  0.2313 -0.5683
 1352SOL     OW15691   4.351   2.579   3.522  0.0300  0.4918 -0.4563
 1352SOL    HW115692   4.344   2.639   3.596  1.6074  2.1977 -1.7006
 1352SOL    HW215693   4.315   2.624   3.446  3.1433 -0.1096 -2.2911
 1353SOL     OW15694   0.853   2.079   0.523 -0.2399 -0.0923 -0.1201
 1353SOL    HW115695   0.760   2.069   0.545 -0.1901 -0.6767 -0.1577
 1353SOL    HW215696   0.884   2.001   0.570 -1.0489 -1.1137 -1.2929
 1354SOL     OW15697   1.086   1.270   3.092 -0.8292 -0.2278 -0.0126
 1354SOL    HW115698   1.111   1.355   3.054 -1.9714  0.1184  0.0315
 1354SOL    HW215699   1.101   1.204   3.024  0.0704 -1.4041  1.3355
 1355SOL     OW15700   0.473   1.507   5.849 -0.3002 -0.4346 -0.1689
 1355SOL    HW115701   0.523   1.576   5.892 -0.2662 -1.0095  0.7140
 1355SOL    HW215702   0.503   1.434   5.903  0.1041  0.8144  1.2852
 1356SOL     OW15703   2.882   4.028  11.210 -0.3441  0.2237 -1.0375
 1356SOL    HW115704   2.883   3.960  11.277  2.0020  2.3979  1.1548
 1356SOL    HW215705   2.974   4.048  11.229 -0.5596  1.2347 -1.0681
 1357SOL     OW15706   4.404   4.265   8.453  0.0605 -0.0038  0.4740
 1357SOL    HW115707   4.356   4.261   8.369 -2.3994  2.6366  1.7452
 1357SOL    HW215708   4.485   4.303   8.420 -0.5702  0.1166 -0.9674
 1358SOL     OW15709   2.088   0.991   3.649  0.0930  0.0990 -0.4923
 1358SOL    HW115710   2.164   0.952   3.604  1.1975  1.6875 -0.0203
 1358SOL    HW215711   2.069   0.907   3.691 -0.3411  0.7093  0.5516
 1359SOL     OW15712   1.592   2.341   2.534  0.0037  0.1160  0.2164
 1359SOL    HW115713   1.655   2.286   2.580  2.2828  3.3779  1.0153
 1359SOL    HW215714   1.642   2.421   2.514  0.8771 -0.2856  0.7983
 1360SOL     OW15715   1.702   3.071   7.084  0.2992  0.0270  0.1983
 1360SOL    HW115716   1.641   3.005   7.116 -0.8358 -0.1914 -2.3977
 1360SOL    HW215717   1.752   3.018   7.022 -0.3101  0.9585 -1.1107
 1361SOL     OW15718   0.209   4.255   6.079  0.0314  0.8582 -0.2222
 1361SOL    HW115719   0.166   4.286   5.999  0.3102 -1.3575 -1.2284
 1361SOL    HW215720   0.130   4.239   6.129 -0.4868  1.8219 -0.7317
 1362SOL     OW15721   3.344   3.431   1.270  0.6619 -0.2285 -0.4181
 1362SOL    HW115722   3.321   3.419   1.178 -0.8620 -0.4647 -0.0096
 1362SOL    HW215723   3.305   3.514   1.296  1.3232 -0.0504  0.0158
 1363SOL     OW15724   2.562   1.788   5.038 -0.0576  0.2181  0.4490
 1363SOL    HW115725   2.472   1.762   5.055 -0.7612  0.0267 -3.5613
 1363SOL    HW215726   2.614   1.748   5.109  1.5045  2.5793  0.6365
 1364SOL     OW15727   0.360   1.840   2.469 -0.2046 -0.5598  0.4320
 1364SOL    HW115728   0.290   1.905   2.463 -0.7624 -1.0092  1.9240
 1364SOL    HW215729   0.294   1.770   2.469  0.8101 -1.5099 -1.1852
 1365SOL     OW15730   2.681   3.170   0.644  0.0636 -0.6700 -0.2094
 1365SOL    HW115731   2.639   3.087   0.665 -2.8244  0.7927 -0.2056
 1365SOL    HW215732   2.617   3.214   0.588 -1.8259 -1.5262  1.3046
 1366SOL     OW15733   0.493   1.698   6.882  0.5516  0.8561 -0.4349
 1366SOL    HW115734   0.419   1.743   6.923  0.3168  1.7057 -1.7807
 1366SOL    HW215735   0.526   1.638   6.949 -0.2045  1.1839  0.2308
 1367SOL     OW15736   2.974   1.094   2.104  0.5622 -0.0560 -0.7408
 1367SOL    HW115737   2.939   1.064   2.187 -0.6389 -0.7035 -1.4726
 1367SOL    HW215738   3.031   1.023   2.076 -0.6866 -1.6412  0.7612
 1368SOL     OW15739   4.209   2.012  14.214 -0.0999 -0.6792 -0.3202
 1368SOL    HW115740   4.132   1.956  14.225 -0.5908  0.2324  0.9516
 1368SOL    HW215741   4.170   2.099  14.224 -0.0660 -0.9114  1.8313
 1369SOL     OW15742   1.478   2.382   4.637 -0.2564 -0.6926 -0.4746
 1369SOL    HW115743   1.536   2.311   4.611 -0.1209 -0.9228  0.4278
 1369SOL    HW215744   1.449   2.353   4.724 -0.0888 -1.6853 -0.7504
 1370SOL     OW15745   3.837   4.499   4.837  0.4184 -0.0909 -0.5233
 1370SOL    HW115746   3.762   4.544   4.877  0.5296 -0.9872  0.6745
 1370SOL    HW215747   3.858   4.438   4.907  2.4124 -0.1366 -1.1535
 1371SOL     OW15748   0.554   1.361   0.112  0.0286  0.4260 -0.5015
 1371SOL    HW115749   0.498   1.439   0.102  1.5658  1.2590 -2.5702
 1371SOL    HW215750   0.512   1.325   0.190 -1.7971  2.2871 -0.6219
 1372SOL     OW15751   0.316   2.502   7.250  0.0943  0.1239 -0.5548
 1372SOL    HW115752   0.280   2.414   7.261 -0.5975  0.6085  0.8997
 1372SOL    HW215753   0.355   2.501   7.162 -1.2868 -0.7557 -1.1597
 1373SOL     OW15754   1.017   1.713  12.603 -0.4971  0.0148 -0.2501
 1373SOL    HW115755   0.929   1.731  12.570 -1.6084 -3.6805  0.6700
 1373SOL    HW215756   1.037   1.642  12.541 -2.5901 -1.6245  0.9581
 1374SOL     OW15757   0.531   1.395  12.082  0.0102  0.4354  0.1591
 1374SOL    HW115758   0.562   1.339  12.154 -2.7661  3.7641  3.9806
 1374SOL    HW215759   0.600   1.389  12.016 -2.8063 -1.0059 -2.6695
 1375SOL     OW15760   4.554   2.800   4.759  0.3293 -0.4771  0.1506
 1375SOL    HW115761   4.488   2.772   4.695 -1.3605  0.4153  1.5367
 1375SOL    HW215762   4.607   2.720   4.765  0.2881 -0.6234 -1.2827
 1376SOL     OW15763   0.944   2.299   4.787 -0.4750  0.1618 -0.4185
 1376SOL    HW115764   0.850   2.278   4.784 -1.0672  2.6190  0.7965
 1376SOL    HW215765   0.959   2.337   4.700  1.3710  1.4212  0.4664
 1377SOL     OW15766   4.269   2.435   7.503  0.4145 -0.4410  0.4139
 1377SOL    HW115767   4.188   2.399   7.538  0.5581  0.3967  1.5964
 1377SOL    HW215768   4.299   2.493   7.573 -0.6673  0.5220  0.0806
 1378SOL     OW15769   3.327   1.332   9.605 -0.0084 -0.1945  0.1241
 1378SOL    HW115770   3.261   1.341   9.537 -0.1575  1.9383  0.5511
 1378SOL    HW215771   3.397   1.298   9.549 -0.9609  0.0258 -1.1821
 1379SOL     OW15772   2.768   3.253   5.057  0.4709  0.6761 -0.0400
 1379SOL    HW115773   2.817   3.238   5.138 -1.4454 -1.4671  0.7073
 1379SOL    HW215774   2.837   3.303   5.013 -0.4697  1.3876 -0.7002
 1380SOL     OW15775   2.094   2.120   1.445  0.3222 -0.6152 -0.3218
 1380SOL    HW115776   2.021   2.110   1.506 -1.1421  0.1230 -1.9624
 1380SOL    HW215777   2.054   2.066   1.377  1.2523 -2.1118  0.3276
 1381SOL     OW15778   3.858   1.182   1.756  0.0631  0.3261  0.0853
 1381SOL    HW115779   3.882   1.095   1.725  0.7302 -0.2715  2.2611
 1381SOL    HW215780   3.907   1.242   1.699 -0.4948  0.6087 -0.0912
 1382SOL     OW15781   0.576   2.755   2.768 -0.0698  0.0878  0.6067
 1382SOL    HW115782   0.549   2.847   2.777 -0.0963  0.1651 -0.2408
 1382SOL    HW215783   0.560   2.730   2.676  1.6143  1.9324 -0.1832
 1383SOL     OW15784   0.472   4.075   8.457  0.3354 -0.0128 -0.1169
 1383SOL    HW115785   0.457   4.154   8.405  0.9435 -0.8987 -1.6334
 1383SOL    HW215786   0.553   4.102   8.501  1.4428  1.1269 -2.8175
 1384SOL     OW15787   2.083   3.907   9.057 -0.3485 -0.7443  0.4499
 1384SOL    HW115788   2.068   3.960   8.979 -3.3526 -3.0550 -0.5625
 1384SOL    HW215789   2.172   3.925   9.085  0.7053 -0.7271 -2.8827
 1385SOL     OW15790   3.396   0.862   3.249 -0.1643 -0.1341 -0.0109
 1385SOL    HW115791   3.431   0.873   3.338 -0.4688  1.0799 -0.0376
 1385SOL    HW215792   3.309   0.829   3.272 -0.2720  1.0192  1.2587
 1386SOL     OW15793   2.028   2.667  12.655  0.2148 -0.6601 -0.2358
 1386SOL    HW115794   2.063   2.578  12.654 -2.9391 -1.8968 -1.9985
 1386SOL    HW215795   1.983   2.676  12.738 -0.0023 -4.9600  0.1146
 1387SOL     OW15796   0.892   2.720   0.308  0.0887 -0.4519 -0.1699
 1387SOL    HW115797   0.978   2.681   0.322 -0.2344 -0.4051  1.8486
 1387SOL    HW215798   0.902   2.710   0.213 -0.3339  1.8117 -0.4480
 1388SOL     OW15799   0.980   0.028  11.665 -0.0343  0.6456  0.2227
 1388SOL    HW115800   1.010   0.113  11.633 -0.0072 -0.0317 -1.6004
 1388SOL    HW215801   0.909   0.020  11.601  0.2782 -1.8220  0.1617
 1389SOL     OW15802   1.072   3.551  17.131 -0.6793 -0.5558 -0.0713
 1389SOL    HW115803   1.113   3.590  17.054 -0.3744  0.2913  0.5183
 1389SOL    HW215804   1.126   3.580  17.205 -0.9793 -0.8958  0.2801
 1390SOL     OW15805   2.243   0.332   5.409  0.1193  0.0191 -0.4575
 1390SOL    HW115806   2.226   0.252   5.459 -3.3644  2.1131  1.7521
 1390SOL    HW215807   2.308   0.374   5.464  0.6540 -0.4031 -0.7694
 1391SOL     OW15808   4.734   2.577   4.577  0.0771  0.4248 -0.2279
 1391SOL    HW115809   4.697   2.572   4.665  1.3516 -4.0367  0.0848
 1391SOL    HW215810   4.681   2.640   4.528 -1.9372 -3.3165 -2.8632
 1392SOL     OW15811   3.115   2.247   1.881 -0.5040  0.4454  0.0523
 1392SOL    HW115812   3.073   2.287   1.805 -0.9521  1.6405  0.9156
 1392SOL    HW215813   3.036   2.215   1.924  1.1461 -2.4911  0.9126
 1393SOL     OW15814   3.927   0.636   2.557 -0.7489  0.1998  0.1227
 1393SOL    HW115815   3.922   0.637   2.461 -1.1115  1.7024  0.1577
 1393SOL    HW215816   4.017   0.610   2.573 -0.8582  0.5809  1.3355
 1394SOL     OW15817   3.353   2.197   1.795 -0.1015  0.2918  0.1610
 1394SOL    HW115818   3.263   2.217   1.821  0.2085 -0.2065  1.6521
 1394SOL    HW215819   3.382   2.270   1.741  1.3278  1.1428  2.0674
 1395SOL     OW15820   1.713   1.204   6.124  0.0616  0.1934  0.1198
 1395SOL    HW115821   1.679   1.240   6.206 -0.3898 -1.0955  0.4914
 1395SOL    HW215822   1.781   1.140   6.146 -0.0736  0.8122  2.3708
 1396SOL     OW15823   2.552   4.697  13.086  0.0510 -0.3909 -0.5109
 1396SOL    HW115824   2.574   4.605  13.095  0.3431 -0.2053  0.7726
 1396SOL    HW215825   2.632   0.004  13.056 -0.8330  0.1420 -2.0606
 1397SOL     OW15826   3.069   1.673   3.767  0.4582 -0.3311  0.8255
 1397SOL    HW115827   2.975   1.669   3.783  0.6421  0.3990  2.0921
 1397SOL    HW215828   3.074   1.694   3.673 -0.7812  2.2491  1.3192
 1398SOL     OW15829   2.428   2.515   6.148  0.0423 -1.3184  0.2418
 1398SOL    HW115830   2.409   2.428   6.182  2.3526 -2.6867 -1.9830
 1398SOL    HW215831   2.353   2.527   6.089  1.6313 -0.2687 -1.5489
 1399SOL     OW15832   0.602   0.632   1.721  0.3632 -0.4697  0.1427
 1399SOL    HW115833   0.691   0.599   1.712  1.0435  0.6490  2.7441
 1399SOL    HW215834   0.560   0.569   1.780  0.1899 -0.1924  0.3184
 1400SOL     OW15835   1.845   2.469   0.892  0.1713 -0.1603 -0.1761
 1400SOL    HW115836   1.918   2.518   0.854  2.0532 -1.2295  2.0920
 1400SOL    HW215837   1.873   2.468   0.983  0.0432 -1.7341 -0.1549
 1401SOL     OW15838   1.575   2.331  13.263  0.2708  0.3743 -0.5021
 1401SOL    HW115839   1.582   2.424  13.285  0.4028 -0.5489  3.4200
 1401SOL    HW215840   1.481   2.316  13.274  0.6080 -0.4232  1.3072
 1402SOL     OW15841   3.249   0.734   3.688  0.4612  0.3065 -0.4009
 1402SOL    HW115842   3.205   0.797   3.745  0.2234  0.0034 -0.2494
 1402SOL    HW215843   3.290   0.790   3.622  2.6734  0.6753  1.2843
 1403SOL     OW15844   0.272   1.819   8.670 -0.0675 -0.5817 -0.2516
 1403SOL    HW115845   0.200   1.757   8.656  1.3580 -2.3494  0.1858
 1403SOL    HW215846   0.342   1.756   8.654 -1.3536 -1.9612 -0.4686
 1404SOL     OW15847   3.546   2.347   5.133  0.0789  0.3048  0.3698
 1404SOL    HW115848   3.540   2.356   5.228 -0.1017  2.1789  0.1920
 1404SOL    HW215849   3.546   2.438   5.102  2.0665  0.3990  0.6122
 1405SOL     OW15850   2.259   1.849   2.925  0.1169 -0.0752  0.2641
 1405SOL    HW115851   2.257   1.785   2.853  0.8064 -0.7101  0.8073
 1405SOL    HW215852   2.268   1.785   2.996 -1.6185  0.8756  1.3197
 1406SOL     OW15853   0.725   1.792  12.529 -0.1660 -0.5106 -0.2437
 1406SOL    HW115854   0.730   1.842  12.447 -2.6006  1.3787  0.7738
 1406SOL    HW215855   0.661   1.850  12.571  0.2287 -0.6779  0.5974
 1407SOL     OW15856   0.610   3.863   2.399  0.2118 -0.0172  0.1603
 1407SOL    HW115857   0.637   3.955   2.411 -0.2317 -0.2198  2.6432
 1407SOL    HW215858   0.687   3.819   2.364 -1.5256 -1.3640 -1.9790
 1408SOL     OW15859   2.488   3.867  11.107  0.2210 -0.5013 -0.7396
 1408SOL    HW115860   2.454   3.950  11.075 -1.3537 -0.1796  1.7215
 1408SOL    HW215861   2.534   3.896  11.185  0.6842  0.0978 -1.2326
 1409SOL     OW15862   0.512   1.730   7.370  0.6419  0.0409 -0.5456
 1409SOL    HW115863   0.445   1.797   7.353 -1.9269 -2.3537  0.1958
 1409SOL    HW215864   0.589   1.785   7.387  0.3674  0.8624 -1.8813
 1410SOL     OW15865   2.687   2.682  15.514 -1.2368 -0.0437  0.6514
 1410SOL    HW115866   2.761   2.655  15.460 -0.1630  0.0124  2.1078
 1410SOL    HW215867   2.622   2.651  15.451 -1.0469  0.9960 -0.0499
 1411SOL     OW15868   3.887   1.840   9.311 -0.6106  0.1073  0.2979
 1411SOL    HW115869   3.971   1.868   9.274 -0.4246 -0.3141  0.4029
 1411SOL    HW215870   3.918   1.791   9.387 -1.9685 -1.7653 -0.3565
 1412SOL     OW15871   0.446   0.122   5.369 -0.3540  0.4319 -0.8093
 1412SOL    HW115872   0.372   0.158   5.419 -0.4759 -0.8744 -0.0523
 1412SOL    HW215873   0.462   0.177   5.293 -0.4724  0.2510 -0.9661
 1413SOL     OW15874   3.606   0.244   0.573 -0.2758  0.3914  0.2707
 1413SOL    HW115875   3.533   0.290   0.531 -0.2403  0.9193  0.7860
 1413SOL    HW215876   3.556   0.175   0.618  0.4922 -0.3677 -0.0358
 1414SOL     OW15877   0.455   2.164   5.487  0.1073  0.1228  0.2097
 1414SOL    HW115878   0.522   2.097   5.474  0.7657  0.7356  0.4456
 1414SOL    HW215879   0.375   2.126   5.449  0.9027 -0.8806 -0.4588
 1415SOL     OW15880   1.787   1.275  16.421  0.1794 -0.0571  0.1957
 1415SOL    HW115881   1.723   1.217  16.379 -0.7922  2.2459 -1.4912
 1415SOL    HW215882   1.722   1.323  16.472 -1.3222 -2.3280  0.4545
 1416SOL     OW15883   1.380   1.744   2.298 -0.1456  0.0527  0.0568
 1416SOL    HW115884   1.338   1.731   2.213  1.3377  1.9886 -0.9712
 1416SOL    HW215885   1.423   1.659   2.307  0.0432 -0.0580 -2.0251
 1417SOL     OW15886   3.889   0.409   3.736  0.4807  0.1717  0.6221
 1417SOL    HW115887   3.916   0.346   3.670  0.5789  1.1221 -0.2451
 1417SOL    HW215888   3.805   0.372   3.763  0.5962  0.1836  0.9929
 1418SOL     OW15889   0.469   3.757  11.801 -0.0874 -0.0293  0.1392
 1418SOL    HW115890   0.436   3.835  11.757  0.1562  0.5506  0.9712
 1418SOL    HW215891   0.384   3.717  11.784 -0.1193  0.8056 -1.6087
 1419SOL     OW15892   0.810   3.695   2.236  0.3472 -0.1969 -0.2320
 1419SOL    HW115893   0.905   3.691   2.239  0.4316  0.3635 -2.3570
 1419SOL    HW215894   0.803   3.599   2.227  1.4875 -0.5125  2.2132
 1420SOL     OW15895   2.697   3.990   2.661  0.0661 -0.4223  0.3025
 1420SOL    HW115896   2.606   4.014   2.679 -0.1506  0.2296 -1.6874
 1420SOL    HW215897   2.710   4.026   2.574  0.9952  1.1892  1.1132
 1421SOL     OW15898   2.255   2.682  16.820 -0.5060  0.0387  0.0447
 1421SOL    HW115899   2.347   2.656  16.810 -0.5516  0.1029 -0.5467
 1421SOL    HW215900   2.217   2.634  16.746  2.5386 -2.4858  0.0760
 1422SOL     OW15901   3.324   2.570   6.234  0.1911 -0.3127  0.3583
 1422SOL    HW115902   3.244   2.622   6.225  1.0918  1.0717  0.4113
 1422SOL    HW215903   3.299   2.478   6.242 -2.4736  0.4063  0.1745
 1423SOL     OW15904   0.465   1.800  13.331 -0.1653 -0.2166 -0.0036
 1423SOL    HW115905   0.488   1.707  13.324  1.0095  0.1401 -0.8821
 1423SOL    HW215906   0.452   1.797  13.426 -1.0238  0.1724 -0.1125
 1424SOL     OW15907   3.513   0.363  11.392  0.0275  0.1942  0.0835
 1424SOL    HW115908   3.496   0.269  11.399 -4.1632  0.9756  0.5741
 1424SOL    HW215909   3.435   0.401  11.433 -0.7983 -1.1945 -0.2197
 1425SOL     OW15910   1.007   1.436   6.030  0.4063 -0.7789 -0.0621
 1425SOL    HW115911   0.936   1.421   6.093  0.5692  2.1658  0.8493
 1425SOL    HW215912   1.035   1.345   6.020  1.1853 -0.5587  0.1411
 1426SOL     OW15913   0.945   1.582   8.434 -0.6751 -0.5859  0.6265
 1426SOL    HW115914   0.974   1.674   8.439  0.6371 -0.8662 -1.6439
 1426SOL    HW215915   1.021   1.531   8.405  0.9277  1.0325  1.9476
 1427SOL     OW15916   0.961   1.000   8.829  0.5170  0.0559  0.3675
 1427SOL    HW115917   1.016   1.073   8.859 -1.6729  1.6251  0.5735
 1427SOL    HW215918   0.906   1.065   8.784  2.5102  1.6398  0.2347
 1428SOL     OW15919   3.491   2.561   0.350  0.4811 -0.1756  0.6912
 1428SOL    HW115920   3.501   2.644   0.397 -0.4184 -0.2561  1.0224
 1428SOL    HW215921   3.430   2.595   0.284 -0.5151 -1.6340  0.8396
 1429SOL     OW15922   0.130   2.497   4.365  0.6372 -0.6368  0.1245
 1429SOL    HW115923   0.089   2.507   4.452 -2.3593  2.3798 -1.6126
 1429SOL    HW215924   0.126   2.402   4.358  1.2017 -0.7122  0.7637
 1430SOL     OW15925   2.663   0.937   4.282 -0.0632  0.3542  0.0349
 1430SOL    HW115926   2.721   0.982   4.221  3.1990 -0.8153  2.2555
 1430SOL    HW215927   2.704   0.852   4.297  0.6699  0.6635 -0.2417
 1431SOL     OW15928   4.432   3.633  10.450 -0.0443 -0.3482 -0.0517
 1431SOL    HW115929   4.527   3.625  10.436  0.0319  1.2217 -0.4296
 1431SOL    HW215930   4.429   3.673  10.536  0.0579 -0.0976 -0.1643
 1432SOL     OW15931   4.430   3.216   3.320 -0.4114 -0.4811 -0.4125
 1432SOL    HW115932   4.359   3.279   3.311 -1.3722 -1.7739 -1.8457
 1432SOL    HW215933   4.436   3.178   3.233 -0.5988  0.2204 -0.7339
 1433SOL     OW15934   1.402   0.411   7.028  0.2402  0.2450 -0.2532
 1433SOL    HW115935   1.441   0.376   6.948 -1.2791 -1.0748 -0.4046
 1433SOL    HW215936   1.457   0.364   7.091 -1.6799  1.6579  2.5060
 1434SOL     OW15937   4.125   4.251   3.504 -0.2733  0.4240 -0.0806
 1434SOL    HW115938   4.207   4.272   3.458 -2.4015  2.0805 -3.1392
 1434SOL    HW215939   4.128   4.159   3.530  1.1806  0.6272  0.5082
 1435SOL     OW15940   2.455   2.022  12.127  0.2621 -0.0241  0.2729
 1435SOL    HW115941   2.484   1.976  12.049  2.9515 -0.9279  1.7898
 1435SOL    HW215942   2.379   1.969  12.151 -1.7251  0.8571 -4.1194
 1436SOL     OW15943   0.703   0.048  12.364 -0.1881 -0.1411  0.1866
 1436SOL    HW115944   0.766   0.104  12.318 -1.4481  0.5718 -0.6736
 1436SOL    HW215945   0.755   4.727  12.420 -1.1789 -0.2754  0.9468
 1437SOL     OW15946   1.864   2.556   5.103 -0.2353 -0.4739  0.2051
 1437SOL    HW115947   1.878   2.577   5.195 -2.2481  0.6721  0.2432
 1437SOL    HW215948   1.780   2.511   5.099  0.1531 -1.2349  0.6866
 1438SOL     OW15949   3.310   4.308   3.123  0.0840  0.1430 -0.1547
 1438SOL    HW115950   3.305   4.364   3.201  0.0991 -2.4532  1.7354
 1438SOL    HW215951   3.220   4.286   3.098  0.7379  1.2065 -3.4227
 1439SOL     OW15952   3.253   0.457  12.974  0.2346  0.2272  0.4750
 1439SOL    HW115953   3.252   0.368  12.938  0.4385 -0.2800  1.7054
 1439SOL    HW215954   3.158   0.461  12.983  0.4374  1.0248  2.3588
 1440SOL     OW15955   0.149   0.734   8.428 -0.4198 -0.1243  0.2665
 1440SOL    HW115956   0.147   0.639   8.424 -0.6363 -0.1438  0.7598
 1440SOL    HW215957   0.108   0.761   8.346  0.2163 -0.9483 -0.3207
 1441SOL     OW15958   4.503   3.201   8.042  0.3112 -0.2891 -0.3339
 1441SOL    HW115959   4.411   3.181   8.024 -0.2839 -0.1523  2.5448
 1441SOL    HW215960   4.501   3.265   8.113 -0.2181 -0.1074 -0.5141
 1442SOL     OW15961   0.747   1.870   7.360 -1.2508 -0.0504  0.3176
 1442SOL    HW115962   0.699   1.953   7.361 -2.5272 -0.7916  0.9284
 1442SOL    HW215963   0.833   1.899   7.329 -2.2517  1.8074 -0.7620
 1443SOL     OW15964   1.229   2.064   3.897  0.4508  0.4005  0.1665
 1443SOL    HW115965   1.222   2.159   3.887  0.5778  0.7399  3.4616
 1443SOL    HW215966   1.148   2.033   3.857 -0.6714  3.3935  0.1287
 1444SOL     OW15967   0.712   4.217   2.853 -0.5009 -0.2548 -0.4853
 1444SOL    HW115968   0.775   4.282   2.884  0.9145 -2.2229  0.7331
 1444SOL    HW215969   0.771   4.155   2.810  0.9427  2.7645 -2.9150
 1445SOL     OW15970   1.496   3.404   6.348  0.3685  0.1374  0.3492
 1445SOL    HW115971   1.552   3.407   6.270 -2.4590  2.1404 -1.6299
 1445SOL    HW215972   1.562   3.414   6.416  1.9268 -2.3922 -0.7964
 1446SOL     OW15973   2.886   0.697   4.643 -0.5880  0.1735 -0.5079
 1446SOL    HW115974   2.799   0.691   4.681 -0.7321 -0.3419 -0.9319
 1446SOL    HW215975   2.890   0.793   4.646  0.0004  0.1207  0.5227
 1447SOL     OW15976   1.301   4.197   3.641  0.4476  0.0420 -0.1822
 1447SOL    HW115977   1.368   4.136   3.672  0.3914 -0.4532 -1.0342
 1447SOL    HW215978   1.317   4.183   3.547  3.1056 -0.1641  0.2953
 1448SOL     OW15979   3.827   1.874   0.540 -0.2170  0.3424  0.3872
 1448SOL    HW115980   3.919   1.894   0.556  0.1532 -1.3157  0.3121
 1448SOL    HW215981   3.795   1.962   0.520  1.4032  0.5828 -1.1655
 1449SOL     OW15982   0.863   1.842   1.740  0.4568  0.0744  0.1537
 1449SOL    HW115983   0.936   1.897   1.714  0.6655  0.2284  1.0541
 1449SOL    HW215984   0.890   1.818   1.829 -1.0835  0.4395  0.7262
 1450SOL     OW15985   0.282   4.176   0.107 -0.1359 -0.2646 -0.3277
 1450SOL    HW115986   0.301   4.117   0.180 -1.0215 -0.2637 -0.0965
 1450SOL    HW215987   0.367   4.173   0.062  0.0923  1.5303  0.0023
 1451SOL     OW15988   1.046   4.161  14.087 -0.1757 -0.1748 -0.0104
 1451SOL    HW115989   1.018   4.073  14.061 -0.4610  0.1302 -0.7322
 1451SOL    HW215990   0.966   4.215  14.085  1.0084  1.6511  1.8471
 1452SOL     OW15991   3.657   1.222   8.993  0.2364  0.4269  0.8769
 1452SOL    HW115992   3.702   1.175   8.922  1.5538  2.2543  0.5042
 1452SOL    HW215993   3.731   1.238   9.051  2.6994 -1.5173 -1.6783
 1453SOL     OW15994   4.302   4.198  13.146  0.2294 -0.5100  0.4311
 1453SOL    HW115995   4.212   4.214  13.118  0.7388  0.7145 -0.4926
 1453SOL    HW215996   4.346   4.278  13.118 -2.3432  0.2697 -1.3756
 1454SOL     OW15997   0.215   2.198   6.782  0.1582  0.1606 -0.6963
 1454SOL    HW115998   0.290   2.145   6.810  0.8576  1.1783 -0.6594
 1454SOL    HW215999   0.196   2.165   6.694 -0.5183  1.9479 -1.2138
 1455SOL     OW16000   2.240   4.192   8.551 -0.2630  0.0228  0.6441
 1455SOL    HW116001   2.274   4.261   8.495 -0.2132  0.3801  1.1229
 1455SOL    HW216002   2.219   4.240   8.630 -1.6568  0.5429 -0.0412
 1456SOL     OW16003   4.350   4.715   3.554  0.3904  0.0792 -0.1329
 1456SOL    HW116004   4.381   4.626   3.569 -0.3317 -0.2519 -0.5650
 1456SOL    HW216005   4.417   0.034   3.594  0.0156  2.6142 -2.9189
 1457SOL     OW16006   3.570   3.896  10.575 -0.0227 -0.5312  0.7704
 1457SOL    HW116007   3.583   3.989  10.595  0.6181  0.1226 -2.7327
 1457SOL    HW216008   3.523   3.861  10.651  1.1385 -0.9062  1.3024
 1458SOL     OW16009   1.792   3.821   5.373 -0.0300  0.1977  0.3111
 1458SOL    HW116010   1.762   3.753   5.433  0.8153  0.9716  1.6112
 1458SOL    HW216011   1.805   3.780   5.287 -0.5183  0.8068 -0.0529
 1459SOL     OW16012   0.728   3.496   5.034  0.1915 -0.7499  0.0362
 1459SOL    HW116013   0.742   3.460   5.121 -0.9472 -0.1576  0.4647
 1459SOL    HW216014   0.744   3.413   4.989  2.3130 -0.8372  0.9632
 1460SOL     OW16015   4.376   4.424   9.175  0.2745 -0.0777 -0.6925
 1460SOL    HW116016   4.385   4.331   9.194 -1.6282 -0.3787 -1.3171
 1460SOL    HW216017   4.455   4.448   9.127 -1.1281  1.4689 -2.2219
 1461SOL     OW16018   0.539   3.807   7.089 -0.5561  0.0218 -0.9223
 1461SOL    HW116019   0.447   3.830   7.105 -0.1037  0.6971  0.7767
 1461SOL    HW216020   0.541   3.718   7.124 -1.6502  0.4277  0.1607
 1462SOL     OW16021   2.056   1.491  17.705 -0.3250 -0.2757 -0.5639
 1462SOL    HW116022   2.146   1.502  17.737 -1.1539 -0.5871  1.8265
 1462SOL    HW216023   2.001   1.509   0.036 -0.2446  3.6126 -1.4355
 1463SOL     OW16024   4.461   3.044  12.026 -0.3560  0.1750 -0.4774
 1463SOL    HW116025   4.463   3.139  12.011  0.5015 -0.0900 -2.0363
 1463SOL    HW216026   4.440   3.038  12.119 -1.4428  2.9873 -0.5367
 1464SOL     OW16027   3.047   1.155   6.232 -0.5319 -0.1643  0.3087
 1464SOL    HW116028   3.052   1.110   6.316  0.6422  0.3111  0.4857
 1464SOL    HW216029   3.055   1.249   6.247 -1.2761 -0.2335  1.1185
 1465SOL     OW16030   2.071   0.443   6.165 -0.9265  0.0983 -0.5665
 1465SOL    HW116031   2.109   0.518   6.211 -0.1572  0.7874 -2.3182
 1465SOL    HW216032   2.138   0.420   6.101 -2.9345 -2.2272 -1.8173
 1466SOL     OW16033   3.792   0.805   4.426 -0.2350  0.2068 -0.1586
 1466SOL    HW116034   3.848   0.796   4.504 -0.9190 -0.8501  0.2024
 1466SOL    HW216035   3.852   0.784   4.354  1.6229 -0.2970  1.5243
 1467SOL     OW16036   1.027   4.604   0.617  0.1797 -0.0534  0.2506
 1467SOL    HW116037   1.020   4.509   0.605  0.9730  0.0214 -0.7966
 1467SOL    HW216038   1.112   4.604   0.660  0.8391 -0.4338 -1.0614
 1468SOL     OW16039   0.977   4.697   8.800  0.0639  0.3953 -0.2058
 1468SOL    HW116040   0.890   4.725   8.828  0.2538 -1.0285  1.7545
 1468SOL    HW216041   1.010   0.049   8.814  1.0841 -0.0803  0.3978
 1469SOL     OW16042   3.799   4.183   3.835 -0.3682 -0.1609 -0.2569
 1469SOL    HW116043   3.882   4.206   3.877 -1.2683  0.8224  0.9767
 1469SOL    HW216044   3.739   4.173   3.909 -2.0535 -0.5403 -1.6724
 1470SOL     OW16045   2.347   2.926   0.738 -0.1480  0.0728  0.0611
 1470SOL    HW116046   2.430   2.935   0.691 -0.1172 -1.8928 -0.2677
 1470SOL    HW216047   2.325   3.018   0.747  2.1286  0.5009  1.1696
 1471SOL     OW16048   4.027   3.023   8.109 -0.5538  0.0157 -0.0077
 1471SOL    HW116049   4.113   3.064   8.102 -0.6770  0.1499 -0.7033
 1471SOL    HW216050   4.038   2.951   8.046  0.9209  0.4609 -0.2441
 1472SOL     OW16051   4.330   3.744   6.812  0.5629  0.0165 -0.0808
 1472SOL    HW116052   4.296   3.716   6.728  0.1879  1.5349 -0.4309
 1472SOL    HW216053   4.377   3.826   6.796  2.6199 -1.4104 -1.3304
 1473SOL     OW16054   2.481   3.197   2.389  0.6780  0.9875  0.1398
 1473SOL    HW116055   2.391   3.167   2.406  0.8792  0.2283 -0.1226
 1473SOL    HW216056   2.527   3.116   2.411 -0.2600  0.7629  1.2650
 1474SOL     OW16057   0.143   1.048   1.515 -0.6700 -0.2832  0.4023
 1474SOL    HW116058   0.136   1.141   1.490  1.0763 -0.1859  0.2446
 1474SOL    HW216059   0.052   1.022   1.524 -0.2720 -1.2023  1.7163
 1475SOL     OW16060   4.364   3.494   6.349  0.4316  0.5666 -0.6938
 1475SOL    HW116061   4.457   3.475   6.338  0.8152  0.0673  3.3939
 1475SOL    HW216062   4.363   3.590   6.340  1.0194  0.6069 -0.3194
 1476SOL     OW16063   1.143   1.668   3.984 -0.1933  0.0932 -0.0945
 1476SOL    HW116064   1.058   1.665   4.028 -0.8948 -0.1257 -1.4609
 1476SOL    HW216065   1.107   1.618   3.911 -1.5903  2.4508 -0.9774
 1477SOL     OW16066   1.793   4.399   7.731 -0.1317 -0.2437  0.1701
 1477SOL    HW116067   1.801   4.316   7.778 -1.3556 -0.6521 -0.3443
 1477SOL    HW216068   1.838   4.452   7.796 -0.3321  0.3523 -0.1786
 1478SOL     OW16069   4.020   2.541  10.079 -0.0589 -0.7083  0.5215
 1478SOL    HW116070   4.029   2.448  10.058 -1.2283 -0.5258 -0.7601
 1478SOL    HW216071   3.933   2.551  10.040  1.0794 -0.3272 -1.9294
 1479SOL     OW16072   0.385   1.686   7.630  0.6641 -0.9050 -0.6898
 1479SOL    HW116073   0.408   1.695   7.537 -0.4742  2.0882 -0.6692
 1479SOL    HW216074   0.366   1.774   7.660  2.2364 -0.6850 -0.3424
 1480SOL     OW16075   3.705   3.489  16.606 -0.2620  0.3082  0.0680
 1480SOL    HW116076   3.743   3.521  16.524 -0.0954 -0.8257 -0.3005
 1480SOL    HW216077   3.782   3.457  16.652  0.6254  0.0103 -1.6274
 1481SOL     OW16078   3.528   0.805   6.513 -0.1618  0.0007 -0.8481
 1481SOL    HW116079   3.459   0.859   6.473  1.0116  0.9870 -1.5459
 1481SOL    HW216080   3.566   0.772   6.432 -2.7721 -0.5563 -1.8610
 1482SOL     OW16081   1.329   2.541   1.419 -0.0004 -0.2279 -0.4786
 1482SOL    HW116082   1.243   2.499   1.424  0.1489 -0.0061  3.8035
 1482SOL    HW216083   1.369   2.490   1.349  0.9875  1.6060 -1.2479
 1483SOL     OW16084   1.759   0.377   4.115  0.3615  0.1977  0.0944
 1483SOL    HW116085   1.671   0.390   4.150  0.3518  0.8379 -0.1733
 1483SOL    HW216086   1.759   0.406   4.024 -0.6479  1.6767  0.5743
 1484SOL     OW16087   2.174   0.131   3.723 -0.3440 -0.6694 -0.6734
 1484SOL    HW116088   2.153   0.198   3.658 -0.2343 -0.2703 -0.2988
 1484SOL    HW216089   2.156   0.178   3.805  0.2407  0.5730 -1.2584
 1485SOL     OW16090   0.288   1.433   8.911 -0.1032  0.2255  0.5461
 1485SOL    HW116091   0.335   1.350   8.920  1.2725  0.8584 -0.6947
 1485SOL    HW216092   0.216   1.403   8.855 -0.0106  1.5024 -0.2716
 1486SOL     OW16093   1.333   1.338   4.947 -0.1680 -0.3797 -0.0542
 1486SOL    HW116094   1.402   1.277   4.920  1.5607  1.3355  0.4501
 1486SOL    HW216095   1.337   1.337   5.043  0.1363  0.3122 -0.0557
 1487SOL     OW16096   2.758   1.299   6.053  0.6036 -0.1575 -0.0376
 1487SOL    HW116097   2.776   1.375   6.108  0.1432 -0.5452  0.6564
 1487SOL    HW216098   2.828   1.240   6.081 -0.0285 -0.5998  0.6092
 1488SOL     OW16099   2.111   0.967   5.993  0.4760 -0.7561  0.0658
 1488SOL    HW116100   2.157   1.051   6.000 -0.7538  0.2105 -3.7315
 1488SOL    HW216101   2.154   0.940   5.912  1.2846  2.0289 -0.4454
 1489SOL     OW16102   2.202   4.215   9.060 -0.2636  0.2439 -0.1756
 1489SOL    HW116103   2.245   4.163   9.128 -1.0559 -0.4965 -0.2487
 1489SOL    HW216104   2.112   4.222   9.092 -0.9496  0.4520 -2.1414
 1490SOL     OW16105   0.801   4.148   4.289  0.2223  0.3253  0.0238
 1490SOL    HW116106   0.739   4.141   4.216  0.5413 -2.2075  0.0065
 1490SOL    HW216107   0.850   4.229   4.274 -0.1835  0.5700  0.0429
 1491SOL     OW16108   1.593   4.392   3.058 -0.0433 -0.3413 -0.6182
 1491SOL    HW116109   1.620   4.342   3.135 -1.4634 -1.9446 -1.1634
 1491SOL    HW216110   1.508   4.424   3.090 -0.3384 -1.5853 -0.1446
 1492SOL     OW16111   2.686   1.926   3.212  0.8361 -0.3066  0.3455
 1492SOL    HW116112   2.682   1.916   3.117 -0.3156  1.4118  0.2081
 1492SOL    HW216113   2.762   1.981   3.232  0.0556  0.3058  1.6616
 1493SOL     OW16114   0.110   3.606   4.935 -0.3469  0.1428  0.1344
 1493SOL    HW116115   0.152   3.684   4.972 -0.4850 -0.1571  0.9172
 1493SOL    HW216116   0.090   3.556   5.014 -1.1739  0.5739  0.1946
 1494SOL     OW16117   4.588   4.507   2.742 -0.3399  0.3880 -0.5882
 1494SOL    HW116118   4.535   4.576   2.781  0.5838  0.9832 -0.3717
 1494SOL    HW216119   4.526   4.436   2.754 -0.3237  0.5531  0.4467
 1495SOL     OW16120   0.611   1.648   6.165  0.0232 -0.5760 -0.1530
 1495SOL    HW116121   0.541   1.708   6.141  0.5496 -0.2194 -0.7932
 1495SOL    HW216122   0.559   1.568   6.159  1.9948 -1.9943  1.6162
 1496SOL     OW16123   1.297   3.940   4.391  0.1254 -0.1179  0.3016
 1496SOL    HW116124   1.333   4.025   4.367  1.3117 -1.3497 -2.3142
 1496SOL    HW216125   1.270   3.916   4.302 -1.1056  2.5046 -0.0403
 1497SOL     OW16126   2.667   2.265   3.072 -0.0285  0.0189 -0.2786
 1497SOL    HW116127   2.692   2.357   3.082  0.0276 -0.2041  1.7715
 1497SOL    HW216128   2.731   2.216   3.124 -1.9432 -0.5510  1.5721
 1498SOL     OW16129   4.511   2.588  11.090 -0.3732 -0.2047 -0.4008
 1498SOL    HW116130   4.530   2.575  11.183 -0.6741  0.7481 -0.2074
 1498SOL    HW216131   4.510   2.498  11.057  1.4248 -0.5029  0.3696
 1499SOL     OW16132   3.100   3.580  11.103 -0.5540  0.2157 -0.1921
 1499SOL    HW116133   3.170   3.546  11.048 -1.1359  0.8567 -1.3104
 1499SOL    HW216134   3.076   3.662  11.060  2.5692  0.7208 -0.9651
 1500SOL     OW16135   3.451   2.483   3.491 -0.4132 -0.4078  0.0503
 1500SOL    HW116136   3.369   2.533   3.493 -0.2622 -0.1430 -0.6345
 1500SOL    HW216137   3.488   2.510   3.407 -0.4168 -2.5824 -0.6282
 1501SOL     OW16138   1.667   1.075  15.222 -0.3205 -0.3761 -0.3773
 1501SOL    HW116139   1.639   0.986  15.245 -0.1823  0.0814  1.5820
 1501SOL    HW216140   1.762   1.074  15.211 -0.1156 -0.2734  1.4191
 1502SOL     OW16141   0.379   2.555   6.652  0.4511  0.0095 -0.0205
 1502SOL    HW116142   0.401   2.463   6.634  3.5633  0.9441 -0.9649
 1502SOL    HW216143   0.460   2.594   6.620 -0.2170 -1.2613 -3.2904
 1503SOL     OW16144   0.660   4.146  14.479 -0.0962 -0.0055 -1.0257
 1503SOL    HW116145   0.740   4.189  14.447  0.9305 -2.1179 -1.3516
 1503SOL    HW216146   0.677   4.152  14.573  0.2589 -0.3055 -1.0716
 1504SOL     OW16147   1.151   1.714   1.796 -0.2533  0.0249  0.3695
 1504SOL    HW116148   1.119   1.740   1.882 -1.4372 -1.9744  0.5294
 1504SOL    HW216149   1.117   1.624   1.792 -0.8135  0.2455  0.2363
 1505SOL     OW16150   0.127   0.411  12.430 -0.7367 -0.2831  0.4904
 1505SOL    HW116151   0.122   0.350  12.504  0.8339 -3.5622 -2.1234
 1505SOL    HW216152   0.211   0.380  12.396 -0.2228  2.3691 -0.7028
 1506SOL     OW16153   3.065   4.097  15.834 -0.5802 -0.6636  0.4856
 1506SOL    HW116154   3.028   4.050  15.908  0.3405 -2.0809  0.0354
 1506SOL    HW216155   2.986   4.090  15.780 -0.2410 -2.3277  0.2064
 1507SOL     OW16156   0.958   2.603  14.575  0.0666 -0.5439  0.2424
 1507SOL    HW116157   0.866   2.625  14.593 -0.1786 -1.4546  0.1418
 1507SOL    HW216158   0.977   2.606  14.481 -1.6337 -0.7641 -0.1238
 1508SOL     OW16159   1.793   3.935   8.319  0.8159 -0.3669  0.2386
 1508SOL    HW116160   1.705   3.914   8.289  0.2763  1.0039  0.8711
 1508SOL    HW216161   1.783   3.933   8.414  1.4037  1.4780  0.3399
 1509SOL     OW16162   4.160   0.068   8.174  0.5440  0.1041 -0.2664
 1509SOL    HW116163   4.241   0.023   8.196  1.0002  1.6457  1.2414
 1509SOL    HW216164   4.100   4.732   8.156  0.8003 -0.0044 -0.6579
 1510SOL     OW16165   1.140   2.434   5.243 -0.8011  0.4885 -0.5609
 1510SOL    HW116166   1.076   2.420   5.172 -0.5642 -1.3518 -0.4291
 1510SOL    HW216167   1.086   2.420   5.321 -0.6169 -0.4664 -0.6011
 1511SOL     OW16168   0.569   4.631   3.274 -0.0455 -0.3762  0.1807
 1511SOL    HW116169   0.578   4.540   3.245 -0.3293 -0.1575 -0.6186
 1511SOL    HW216170   0.488   4.658   3.229 -1.5314 -1.6489  2.1463
 1512SOL     OW16171   3.399   1.519   8.329  0.5423  0.5015  0.2023
 1512SOL    HW116172   3.418   1.494   8.420 -1.4031 -0.7058  0.2801
 1512SOL    HW216173   3.444   1.603   8.319  2.1939 -0.5478 -1.1843
 1513SOL     OW16174   1.286   1.365   1.229  0.3451  0.2921  0.4351
 1513SOL    HW116175   1.204   1.364   1.280  0.1136  2.7145  0.1164
 1513SOL    HW216176   1.327   1.450   1.245  0.0784  0.3101  1.0318
 1514SOL     OW16177   3.596   3.993   9.376  0.3490  0.2811  0.7210
 1514SOL    HW116178   3.602   4.029   9.465 -1.7805  0.5649  0.7556
 1514SOL    HW216179   3.621   4.072   9.328 -0.7703  0.6504  0.7281
 1515SOL     OW16180   0.437   3.578  13.487 -0.0589  0.3509 -0.7418
 1515SOL    HW116181   0.474   3.521  13.554  0.3541  1.1865 -0.2596
 1515SOL    HW216182   0.351   3.568  13.529  0.5495 -2.5529 -0.2345
 1516SOL     OW16183   4.599   0.741   5.644 -0.0405 -0.0059 -0.5073
 1516SOL    HW116184   4.659   0.782   5.707  0.1690  2.5596 -2.3840
 1516SOL    HW216185   4.634   0.652   5.643  0.0626  0.0292  1.3294
 1517SOL     OW16186   1.792   3.461   4.711 -0.2961  0.5092 -0.1090
 1517SOL    HW116187   1.832   3.386   4.755 -0.7809  1.1009  1.3618
 1517SOL    HW216188   1.728   3.481   4.780 -0.3362 -1.1384  0.3296
 1518SOL     OW16189   0.911   4.229   2.605  0.3368 -0.2672  0.3221
 1518SOL    HW116190   0.935   4.192   2.691  1.2475 -0.6710 -0.1056
 1518SOL    HW216191   0.901   4.146   2.558 -0.4421  0.5855 -0.9794
 1519SOL     OW16192   4.538   3.118   6.129  0.7640 -0.1077  0.2467
 1519SOL    HW116193   4.463   3.174   6.147 -0.9799 -2.2085 -0.4149
 1519SOL    HW216194   4.492   3.045   6.088 -1.7737  2.6111 -1.7505
 1520SOL     OW16195   3.111   3.649  15.963  0.6440  0.1779  0.0523
 1520SOL    HW116196   3.053   3.641  15.887  1.4692  1.1618 -0.6787
 1520SOL    HW216197   3.039   3.644  16.026  0.3953  0.6602 -0.1965
 1521SOL     OW16198   2.777   0.349   3.099  0.4125  0.0877 -0.4725
 1521SOL    HW116199   2.835   0.349   3.023  0.5653 -0.8864 -0.3515
 1521SOL    HW216200   2.799   0.262   3.132  0.8045  0.1798 -0.4977
 1522SOL     OW16201   2.049   1.378   6.712  0.5221 -0.3488 -0.2321
 1522SOL    HW116202   2.104   1.316   6.664 -0.5705 -1.2400 -0.3635
 1522SOL    HW216203   2.095   1.461   6.701 -2.2883  1.3458  0.6051
 1523SOL     OW16204   2.823   0.725   4.300  0.3406  0.1069  0.7866
 1523SOL    HW116205   2.873   0.777   4.363 -0.3173  0.5361  0.9585
 1523SOL    HW216206   2.772   0.664   4.353 -0.7132 -0.2698 -0.6709
 1524SOL     OW16207   4.592   1.258   8.302 -0.6320  0.1221 -0.6430
 1524SOL    HW116208   4.655   1.329   8.313 -1.7662  1.0404 -0.1087
 1524SOL    HW216209   4.564   1.228   8.389 -0.6390 -0.5301 -0.8706
 1525SOL     OW16210   3.579   0.594   9.521 -0.5367 -0.6233  0.2373
 1525SOL    HW116211   3.496   0.623   9.560 -0.1800  1.1467 -0.3198
 1525SOL    HW216212   3.633   0.635   9.589 -0.3871  2.2544 -1.6412
 1526SOL     OW16213   1.829   4.369   2.919 -0.3295 -0.1572 -0.7204
 1526SOL    HW116214   1.754   4.382   2.978 -0.7896 -1.1213 -1.1069
 1526SOL    HW216215   1.832   4.452   2.870 -1.0426  0.3318  0.0641
 1527SOL     OW16216   3.052   1.308   0.916  0.3239  0.1423  0.2679
 1527SOL    HW116217   3.146   1.292   0.932 -0.3802 -1.4579  2.8019
 1527SOL    HW216218   3.056   1.369   0.843  5.1129 -0.6931 -0.2241
 1528SOL     OW16219   3.295   3.500  16.089  0.5358  1.0803 -0.4196
 1528SOL    HW116220   3.250   3.564  16.035 -2.4445  0.0119  0.7678
 1528SOL    HW216221   3.304   3.545  16.174 -0.3819  0.6362 -0.0860
 1529SOL     OW16222   4.019   0.962   9.316 -0.1499  0.5151  0.3181
 1529SOL    HW116223   4.048   1.050   9.291  3.0479 -0.1410  1.7544
 1529SOL    HW216224   4.014   0.919   9.230  1.7702 -0.2868  0.6190
 1530SOL     OW16225   0.838   0.955   1.222  0.1953 -0.1183 -0.4542
 1530SOL    HW116226   0.762   0.979   1.274  1.6219  0.8308  1.2312
 1530SOL    HW216227   0.838   1.035   1.169 -0.7574 -0.5325 -1.0753
 1531SOL     OW16228   3.207   4.638   6.783  0.0930  0.4396  0.6373
 1531SOL    HW116229   3.172   4.550   6.800 -0.9011  0.5902 -0.6288
 1531SOL    HW216230   3.124   4.684   6.771  0.5935  0.4924 -2.7825
 1532SOL     OW16231   4.354   0.542   7.697  0.1567  0.1879 -0.2955
 1532SOL    HW116232   4.302   0.474   7.654 -0.5407 -0.1480  1.0737
 1532SOL    HW216233   4.408   0.563   7.621  1.9227  0.6778  1.0980
 1533SOL     OW16234   4.634   2.068   3.786  0.0023  0.3333  0.8210
 1533SOL    HW116235   4.681   2.052   3.868 -0.2967  0.8359  1.0929
 1533SOL    HW216236   4.709   2.093   3.732  0.3954  1.0969  1.7164
 1534SOL     OW16237   3.406   2.104  16.672 -0.2863  0.5935 -0.3618
 1534SOL    HW116238   3.490   2.148  16.660 -0.3632  0.7964 -0.1690
 1534SOL    HW216239   3.425   2.044  16.745 -0.3644 -0.2094 -0.9998
 1535SOL     OW16240   4.454   2.403   6.175 -0.7165 -0.3418 -0.4129
 1535SOL    HW116241   4.457   2.441   6.263  1.0702 -1.5071  0.0302
 1535SOL    HW216242   4.461   2.308   6.183  2.1141 -0.1100 -0.1568
 1536SOL     OW16243   3.843   2.938  13.332 -0.0098 -0.3639  0.3749
 1536SOL    HW116244   3.842   2.969  13.241  2.3232  0.8984  0.7698
 1536SOL    HW216245   3.904   2.866  13.319 -1.8471 -2.0110  0.9661
 1537SOL     OW16246   4.374   2.750  17.198  0.0851 -0.1389  0.7229
 1537SOL    HW116247   4.282   2.734  17.174  0.5388  1.0104 -1.8081
 1537SOL    HW216248   4.384   2.829  17.250  0.7698  0.2935 -0.0772
 1538SOL     OW16249   1.603   1.778   9.772 -0.4864 -0.0351  0.0862
 1538SOL    HW116250   1.682   1.779   9.719  0.4197 -3.4743  1.3963
 1538SOL    HW216251   1.607   1.860   9.822  2.6136  0.4278 -0.9287
 1539SOL     OW16252   3.228   3.271   7.047  0.1239 -0.2954  0.9189
 1539SOL    HW116253   3.310   3.319   7.051  0.1450  0.0533 -2.9749
 1539SOL    HW216254   3.176   3.330   6.991  1.7427  0.4110  0.1701
 1540SOL     OW16255   4.414   2.889  13.036  0.1251  0.0777 -0.4083
 1540SOL    HW116256   4.442   2.806  13.074 -0.1852 -0.7827 -2.0935
 1540SOL    HW216257   4.326   2.895  13.073  0.5881 -0.0298  0.7115
 1541SOL     OW16258   4.505   3.996   5.993 -0.7165  0.6377  0.7226
 1541SOL    HW116259   4.445   4.014   5.921  1.7303  0.0940 -1.4083
 1541SOL    HW216260   4.452   4.004   6.073 -1.8720 -3.2907  0.3535
 1542SOL     OW16261   3.217   4.532   0.128  0.5460 -0.1911  0.3217
 1542SOL    HW116262   3.232   4.606   0.068  0.9641 -0.7144 -0.2173
 1542SOL    HW216263   3.251   4.460   0.075  0.5564 -1.5470  2.1899
 1543SOL     OW16264   3.084   2.819  13.666 -0.2005  0.1680 -0.2679
 1543SOL    HW116265   3.109   2.905  13.633  1.8765  0.8615  3.1252
 1543SOL    HW216266   3.162   2.774  13.699 -1.3764 -0.5612  1.5177
 1544SOL     OW16267   3.527   0.184   1.291 -0.5494  0.2558  0.3912
 1544SOL    HW116268   3.553   0.251   1.354 -1.0047  0.0574  0.7868
 1544SOL    HW216269   3.474   0.119   1.337 -0.1973 -1.5229 -1.7125
 1545SOL     OW16270   4.224   1.670   7.551 -0.2605 -0.5884  0.4420
 1545SOL    HW116271   4.151   1.615   7.522  0.6747 -0.2067 -2.6465
 1545SOL    HW216272   4.172   1.750   7.550 -0.6745 -0.8549  0.6738
 1546SOL     OW16273   0.508   2.956   5.198  0.4382  0.2487 -0.0482
 1546SOL    HW116274   0.468   2.876   5.163  0.3999  0.1823  0.1411
 1546SOL    HW216275   0.432   3.012   5.185  2.1121  2.5138  0.0183
 1547SOL     OW16276   0.138   0.558   3.357 -0.5063 -0.6655  0.6518
 1547SOL    HW116277   0.192   0.481   3.373  1.6526  0.7407  0.3003
 1547SOL    HW216278   0.177   0.633   3.403 -1.8207  0.6921 -0.4526
 1548SOL     OW16279   4.698   3.639   5.641 -0.0527  0.0951 -0.6269
 1548SOL    HW116280   4.726   3.704   5.575  2.3658  1.3543  1.6397
 1548SOL    HW216281   4.708   3.678   5.728 -0.0252  0.2360 -0.6924
 1549SOL     OW16282   2.025   4.538   5.411 -0.2028 -0.0557 -0.2459
 1549SOL    HW116283   1.941   4.497   5.390 -0.0265 -1.1414  1.1809
 1549SOL    HW216284   2.004   4.631   5.406 -1.0965 -0.3445 -1.9801
 1550SOL     OW16285   1.751   2.786   7.861 -0.2855  0.4074 -0.1270
 1550SOL    HW116286   1.720   2.797   7.951 -2.1588  0.7375 -0.8116
 1550SOL    HW216287   1.833   2.738   7.876 -0.0633  1.3903  1.8340
 1551SOL     OW16288   4.404   0.036  13.624 -0.2554  0.2359 -0.1792
 1551SOL    HW116289   4.348   0.109  13.599 -0.3506  0.2660  0.1229
 1551SOL    HW216290   4.343   4.735  13.688  0.8990 -0.8849  0.2705
 1552SOL     OW16291   3.815   2.594   9.653 -0.1783  0.4313 -0.5017
 1552SOL    HW116292   3.836   2.541   9.730  0.8088 -0.6738 -1.5330
 1552SOL    HW216293   3.893   2.648   9.645 -1.5577  2.3310 -1.0958
 1553SOL     OW16294   3.610   1.795   2.961  0.6157 -0.2253 -0.0844
 1553SOL    HW116295   3.677   1.850   2.922  1.8352 -1.7894 -0.2085
 1553SOL    HW216296   3.649   1.755   3.039 -0.0842  0.4267  0.5976
 1554SOL     OW16297   3.011   4.011  13.075  0.2406 -0.3903 -0.5899
 1554SOL    HW116298   3.069   3.935  13.081  0.1131 -0.4434 -0.0243
 1554SOL    HW216299   3.076   4.081  13.073 -0.6239  0.3930 -1.4792
 1555SOL     OW16300   1.075   3.764  11.891 -0.6814 -0.6139 -0.9406
 1555SOL    HW116301   1.108   3.688  11.938 -2.3346 -0.6340  0.1985
 1555SOL    HW216302   1.010   3.721  11.835 -0.0103  0.2835 -2.4009
 1556SOL     OW16303   1.577   4.417   4.700 -0.4080 -0.0114  0.0042
 1556SOL    HW116304   1.622   4.351   4.647 -0.7973 -0.3724  0.1191
 1556SOL    HW216305   1.575   4.502   4.655 -1.6512 -0.9008 -1.6257
 1557SOL     OW16306   1.948   4.513   9.591 -0.7564 -0.2845 -0.7555
 1557SOL    HW116307   1.998   4.431   9.591 -2.3394 -1.2520  0.0079
 1557SOL    HW216308   1.864   4.472   9.608 -0.2290 -0.5485  1.1681
 1558SOL     OW16309   0.379   1.572  12.252 -0.8484  0.3588  0.2675
 1558SOL    HW116310   0.428   1.505  12.203  1.1625  3.4204 -1.9278
 1558SOL    HW216311   0.390   1.657  12.209 -1.5448  0.8189  1.0042
 1559SOL     OW16312   1.062   4.503   8.611 -0.0706 -0.1721 -0.3294
 1559SOL    HW116313   1.035   4.584   8.654 -2.1941 -0.6806 -0.7052
 1559SOL    HW216314   1.092   4.537   8.527  0.0775  2.0022  0.6077
 1560SOL     OW16315   0.146   2.067  15.858 -0.1063  0.0202  0.5473
 1560SOL    HW116316   0.051   2.068  15.866 -0.1591  0.7106 -0.2349
 1560SOL    HW216317   0.161   2.149  15.812 -0.1082 -0.0620  0.3992
 1561SOL     OW16318   4.660   2.541   4.819  0.1403  0.1012  0.2111
 1561SOL    HW116319   4.585   2.500   4.861 -1.8585  1.4109 -2.0314
 1561SOL    HW216320   4.730   2.484   4.850 -0.7209 -0.3925  1.2476
 1562SOL     OW16321   3.205   3.643  17.546 -0.5489 -0.1789  0.1427
 1562SOL    HW116322   3.261   3.637  17.623  0.5619 -2.6758 -0.8933
 1562SOL    HW216323   3.254   3.588  17.486 -1.0938 -1.9705  1.3509
 1563SOL     OW16324   1.524   2.387   7.744 -0.3400  0.5258 -0.1531
 1563SOL    HW116325   1.527   2.478   7.713  0.0478  1.3018  2.2030
 1563SOL    HW216326   1.495   2.406   7.833 -0.7019  2.1224 -0.6028
 1564SOL     OW16327   2.141   1.603   6.620 -0.2603  0.4990  0.0475
 1564SOL    HW116328   2.157   1.574   6.530 -0.4444 -3.2161  1.2096
 1564SOL    HW216329   2.171   1.694   6.617  1.5105 -0.0637  1.1418
 1565SOL     OW16330   2.332   1.955   5.942  0.7274  0.7941  0.4774
 1565SOL    HW116331   2.393   2.000   5.883 -0.9934  0.1557 -1.8092
 1565SOL    HW216332   2.274   2.030   5.955  1.4092  1.6153 -1.1596
 1566SOL     OW16333   2.167   4.143  12.443  0.3586 -0.2243  0.1802
 1566SOL    HW116334   2.128   4.087  12.375  1.3305 -1.4924  0.6717
 1566SOL    HW216335   2.189   4.227  12.402  1.7401 -0.0920  1.2121
 1567SOL     OW16336   2.456   4.607  16.753 -0.5667 -0.2318 -0.3643
 1567SOL    HW116337   2.434   4.573  16.666  0.6681  0.6231 -1.0164
 1567SOL    HW216338   2.452   4.702  16.744 -1.1140 -0.2028  0.2167
 1568SOL     OW16339   3.799   3.811   8.708  0.2608  0.1529  0.0694
 1568SOL    HW116340   3.751   3.889   8.681  2.7226  2.1662  1.5666
 1568SOL    HW216341   3.761   3.750   8.644  0.7355  0.2148 -0.2754
 1569SOL     OW16342   1.596   0.701   3.171 -0.0074  0.3715  0.7555
 1569SOL    HW116343   1.644   0.625   3.139 -1.7095 -0.5725  0.4107
 1569SOL    HW216344   1.509   0.676   3.139  1.3105 -0.7795 -1.9933
 1570SOL     OW16345   3.733   2.629  11.096  0.4502 -1.0576  0.1795
 1570SOL    HW116346   3.805   2.593  11.044  0.0490 -1.2012 -0.2687
 1570SOL    HW216347   3.660   2.587  11.051 -0.8147  2.8898 -1.4118
 1571SOL     OW16348   2.472   1.378   5.066  0.2824 -0.0632 -0.2093
 1571SOL    HW116349   2.544   1.391   5.004 -1.8403  1.1796 -2.3631
 1571SOL    HW216350   2.504   1.426   5.143 -0.2898  0.5847 -0.3762
 1572SOL     OW16351   2.077   2.641   6.916 -0.4717 -0.0360  0.9107
 1572SOL    HW116352   2.035   2.721   6.948  2.1130  2.0750 -0.9778
 1572SOL    HW216353   2.055   2.663   6.826 -1.3447 -0.3789  1.0423
 1573SOL     OW16354   4.412   1.904   1.349 -0.1103  0.3444  0.0425
 1573SOL    HW116355   4.485   1.845   1.367 -1.2375 -2.0626 -3.0946
 1573SOL    HW216356   4.447   1.959   1.278 -0.0870  0.7323  0.3555
 1574SOL     OW16357   3.363   0.482   2.874  0.1374 -0.2377 -0.6291
 1574SOL    HW116358   3.360   0.520   2.962 -0.5975  0.0179 -0.7658
 1574SOL    HW216359   3.273   0.468   2.844 -0.2300  0.2038  0.2663
 1575SOL     OW16360   2.492   3.223   9.383 -0.1933  0.7211 -0.4058
 1575SOL    HW116361   2.549   3.156   9.421 -1.2819 -0.2465 -0.5195
 1575SOL    HW216362   2.559   3.265   9.329 -0.2892  1.6419  0.1867
 1576SOL     OW16363   0.638   1.452   4.621 -0.1080 -0.7594 -0.0690
 1576SOL    HW116364   0.727   1.485   4.629 -0.8881  1.0695  1.0592
 1576SOL    HW216365   0.592   1.533   4.599  0.5502  0.1717  2.0025
 1577SOL     OW16366   4.659   4.150  10.481  0.5314  0.0012 -0.2462
 1577SOL    HW116367   4.610   4.165  10.563  3.1860  0.6039  1.2189
 1577SOL    HW216368   4.713   4.076  10.507 -0.7287 -1.0606 -0.6272
 1578SOL     OW16369   3.239   3.179  17.166  0.6199  0.2408 -0.4979
 1578SOL    HW116370   3.269   3.096  17.131 -1.2166 -0.0324 -1.4006
 1578SOL    HW216371   3.310   3.243  17.154  1.3708 -0.4110  0.4734
 1579SOL     OW16372   4.423   1.292   0.425 -0.4657  0.1512  0.0255
 1579SOL    HW116373   4.512   1.274   0.395 -0.9461 -3.2856  0.6859
 1579SOL    HW216374   4.450   1.313   0.514 -0.3451  2.4550 -0.5519
 1580SOL     OW16375   4.549   1.196   3.619 -0.2539  0.5981 -0.5703
 1580SOL    HW116376   4.567   1.269   3.679  1.9061 -0.5363  0.1611
 1580SOL    HW216377   4.457   1.213   3.601 -0.2845 -1.6691 -2.5026
 1581SOL     OW16378   3.458   1.159   8.432  0.6369 -0.3488 -0.0243
 1581SOL    HW116379   3.409   1.182   8.353  0.8065 -1.7704 -0.5393
 1581SOL    HW216380   3.455   1.248   8.468  0.1790 -0.3757 -0.0005
 1582SOL     OW16381   3.925   0.153   7.552  0.2702  0.0346  0.0250
 1582SOL    HW116382   3.928   0.203   7.470 -0.5189  1.6130  0.9596
 1582SOL    HW216383   3.892   0.216   7.616  0.0723  0.7201 -0.7482
 1583SOL     OW16384   1.105   4.624  10.546 -0.1164  0.0939  0.0947
 1583SOL    HW116385   1.134   4.631  10.637  0.3359 -1.6056  0.0971
 1583SOL    HW216386   1.184   4.639  10.494  0.8772 -3.0448  0.6660
 1584SOL     OW16387   3.670   1.344  14.764 -0.6104  0.3611  0.2074
 1584SOL    HW116388   3.587   1.381  14.792  0.0900  0.3077  2.3649
 1584SOL    HW216389   3.724   1.357  14.842  1.5321 -0.1509 -1.1731
 1585SOL     OW16390   3.894   0.882  15.803 -0.1342 -0.0140 -0.8756
 1585SOL    HW116391   3.866   0.831  15.879 -0.1874 -1.3199 -1.7596
 1585SOL    HW216392   3.946   0.949  15.846  2.9430 -2.0787 -1.3907
 1586SOL     OW16393   1.305   3.634   5.641 -0.2491  0.0170 -0.1154
 1586SOL    HW116394   1.215   3.666   5.641 -0.6357 -1.0582  0.8408
 1586SOL    HW216395   1.312   3.599   5.730  3.1536 -0.3161 -0.5126
 1587SOL     OW16396   1.774   2.963   8.419 -0.2472 -0.1407  0.2831
 1587SOL    HW116397   1.799   3.052   8.393  3.1548 -0.7822  1.4759
 1587SOL    HW216398   1.854   2.944   8.468 -0.6254 -2.0951  0.1386
 1588SOL     OW16399   2.896   4.060   5.905 -0.1181 -0.0025 -0.4947
 1588SOL    HW116400   2.976   4.020   5.938  0.4688  1.9154  0.3854
 1588SOL    HW216401   2.924   4.092   5.819 -1.2025 -0.3784 -0.9921
 1589SOL     OW16402   4.625   3.443   6.270 -0.1374  0.6683  0.5284
 1589SOL    HW116403   4.644   3.357   6.233 -1.9007 -0.3206  1.9121
 1589SOL    HW216404   4.648   3.513   6.209  0.8424  0.0129  0.1545
 1590SOL     OW16405   2.456   2.203   7.555 -0.4395  0.1340  0.2804
 1590SOL    HW116406   2.490   2.114   7.544 -0.5131 -0.0073  1.1881
 1590SOL    HW216407   2.369   2.200   7.515 -0.9928  1.2708  1.4462
 1591SOL     OW16408   3.530   0.136   7.689 -0.1401  0.5557  0.4993
 1591SOL    HW116409   3.591   0.123   7.762 -1.2463 -3.2993  0.7410
 1591SOL    HW216410   3.580   0.089   7.623  0.8322  0.2369  1.4614
 1592SOL     OW16411   0.929   3.734   2.686  0.0479  0.7027  0.3006
 1592SOL    HW116412   0.936   3.657   2.629  0.6833  0.1965  1.0725
 1592SOL    HW216413   0.973   3.795   2.626 -0.6922  1.6529  0.7381
 1593SOL     OW16414   1.110   3.324   4.122  0.4758  0.2511  0.0046
 1593SOL    HW116415   1.078   3.345   4.210  3.6100  0.5046  1.0620
 1593SOL    HW216416   1.135   3.414   4.101 -2.9489  1.1474 -0.3193
 1594SOL     OW16417   3.615   0.511   7.012  0.8922 -0.2256  0.1001
 1594SOL    HW116418   3.530   0.489   6.972  2.3726 -1.1372 -2.5636
 1594SOL    HW216419   3.641   0.427   7.050  2.5744 -0.7042 -2.0919
 1595SOL     OW16420   3.008   1.996   9.913  0.2279  0.4420  0.0827
 1595SOL    HW116421   2.912   1.989   9.920  0.2622  1.7320  1.7893
 1595SOL    HW216422   3.021   1.901   9.914  2.0039  0.6951  2.0074
 1596SOL     OW16423   0.908   4.112   6.998 -0.3887 -0.2456  0.3071
 1596SOL    HW116424   0.967   4.181   7.027  0.6247 -0.1918 -1.8905
 1596SOL    HW216425   0.891   4.139   6.907 -0.8625 -0.6911  0.2584
 1597SOL     OW16426   2.487   1.338   6.294 -0.2424 -0.2185 -0.1926
 1597SOL    HW116427   2.513   1.367   6.381  3.2842 -0.8873 -1.0226
 1597SOL    HW216428   2.534   1.255   6.292 -1.0067 -0.6652  0.4149
 1598SOL     OW16429   2.561   0.901   8.942 -0.2065 -0.5329 -0.1206
 1598SOL    HW116430   2.544   0.822   8.891 -1.6146  0.7316 -1.6319
 1598SOL    HW216431   2.482   0.949   8.917  0.6977  2.7000  3.2777
 1599SOL     OW16432   0.406   1.124   7.438  0.0462 -0.9644 -0.4277
 1599SOL    HW116433   0.392   1.205   7.488 -0.3035 -0.7398 -0.8902
 1599SOL    HW216434   0.460   1.063   7.488 -1.5571 -2.5851 -0.7018
 1600SOL     OW16435   3.451   3.637   1.774 -0.2745  0.6613  0.6138
 1600SOL    HW116436   3.421   3.695   1.704 -2.4974  0.0228  1.0306
 1600SOL    HW216437   3.456   3.691   1.852 -0.0835  0.0911  0.9964
 1601SOL     OW16438   0.741   1.836   2.172  0.2884 -0.1857 -0.4810
 1601SOL    HW116439   0.721   1.907   2.111  4.2017  1.2210 -0.1423
 1601SOL    HW216440   0.682   1.847   2.247 -0.3379 -0.8058 -0.8852
 1602SOL     OW16441   4.405   4.404  17.103 -0.3473  0.0508 -0.2218
 1602SOL    HW116442   4.357   4.485  17.087 -1.3719 -0.1533  1.8762
 1602SOL    HW216443   4.466   4.451  17.160  0.6659 -0.1968 -1.0913
 1603SOL     OW16444   0.936   0.236  14.055  0.3626  0.0450  0.7985
 1603SOL    HW116445   1.027   0.222  14.028  0.0518  1.1029 -0.7995
 1603SOL    HW216446   0.950   0.294  14.130  2.9349  1.3276 -0.7066
 1604SOL     OW16447   3.730   2.035  14.248  0.3395  0.1057  0.1392
 1604SOL    HW116448   3.719   2.032  14.153  1.2801 -2.1474  0.1089
 1604SOL    HW216449   3.649   2.080  14.274  0.8718  2.3943 -2.0845
 1605SOL     OW16450   1.231   1.157  13.975  0.2638  0.4376 -0.0085
 1605SOL    HW116451   1.300   1.169  13.910  0.0300 -0.0287 -0.3507
 1605SOL    HW216452   1.212   1.064  13.960  0.5091  0.3882 -0.0138
 1606SOL     OW16453   1.906   1.749   6.656 -0.7315 -0.0178 -0.1999
 1606SOL    HW116454   1.942   1.689   6.591  2.5947  2.7842 -0.9100
 1606SOL    HW216455   1.813   1.729   6.647 -0.9294  1.6305 -1.8843
 1607SOL     OW16456   2.330   3.513   6.102 -0.2856 -0.1574 -0.1282
 1607SOL    HW116457   2.257   3.573   6.110 -1.2955 -1.6747  1.9199
 1607SOL    HW216458   2.320   3.439   6.162 -3.0097  0.5686  0.2842
 1608SOL     OW16459   3.441   3.308   8.354  0.0159 -0.5519  0.3921
 1608SOL    HW116460   3.512   3.244   8.350 -0.5211 -1.2853  2.8334
 1608SOL    HW216461   3.373   3.254   8.395  0.4570 -1.1871  0.2868
 1609SOL     OW16462   0.951   2.629   5.967  0.2232 -0.1581  0.0024
 1609SOL    HW116463   1.016   2.670   6.025 -0.1634 -1.4870  1.3583
 1609SOL    HW216464   0.891   2.703   5.983 -0.7874 -1.3757  1.8413
 1610SOL     OW16465   4.110   1.397   3.665 -0.5821 -0.6356 -0.3512
 1610SOL    HW116466   4.179   1.372   3.604  0.5774  0.6489  0.4540
 1610SOL    HW216467   4.155   1.445   3.735 -1.6939 -1.6607  1.0756
 1611SOL     OW16468   4.726   2.541   6.549  0.0191 -0.0384  0.1601
 1611SOL    HW116469   4.699   2.605   6.615  0.4878  0.7890 -0.4534
 1611SOL    HW216470   0.063   2.582   6.505 -0.2987  0.9370  0.5507
 1612SOL     OW16471   1.972   0.537  14.025 -0.0960 -0.2101  0.2817
 1612SOL    HW116472   1.975   0.537  13.929  3.4365 -3.4608  0.3899
 1612SOL    HW216473   1.992   0.629  14.040 -2.2573  0.2513  0.2397
 1613SOL     OW16474   2.097   0.580  16.087  0.6172 -0.1659  0.0869
 1613SOL    HW116475   2.009   0.588  16.123 -0.1842  1.3740 -2.1913
 1613SOL    HW216476   2.096   0.491  16.051  0.3002 -0.0096 -0.2934
 1614SOL     OW16477   4.118   2.414   2.865 -0.4058  0.1296 -0.1450
 1614SOL    HW116478   4.112   2.355   2.940  2.0460 -0.1899 -0.1888
 1614SOL    HW216479   4.206   2.399   2.830 -0.6651  1.0683 -1.1957
 1615SOL     OW16480   3.448   3.911  16.870 -0.2248  0.1526  0.0877
 1615SOL    HW116481   3.455   3.995  16.825 -2.1924 -0.1311 -0.7485
 1615SOL    HW216482   3.429   3.935  16.961 -2.6589 -2.3403  0.2398
 1616SOL     OW16483   0.545   3.393  14.470  0.6784  0.3648 -0.6931
 1616SOL    HW116484   0.573   3.468  14.418 -0.7946 -1.0840 -3.5878
 1616SOL    HW216485   0.563   3.321  14.409 -1.2063 -0.0527 -0.7487
 1617SOL     OW16486   0.578   3.179   3.838 -0.4591 -0.0661  0.3579
 1617SOL    HW116487   0.586   3.089   3.871 -0.8973 -0.6598 -1.1632
 1617SOL    HW216488   0.490   3.207   3.860 -0.3293 -1.6233  2.7989
 1618SOL     OW16489   0.667   3.013   0.490 -0.2181 -0.1547  0.0963
 1618SOL    HW116490   0.627   2.938   0.446  0.1858  0.5667 -1.5251
 1618SOL    HW216491   0.750   3.024   0.443  0.1001 -0.4773  0.5875
 1619SOL     OW16492   2.804   1.273   0.640  0.0229 -0.3765 -0.4053
 1619SOL    HW116493   2.747   1.338   0.599  0.4738 -0.7794 -1.6496
 1619SOL    HW216494   2.890   1.305   0.613 -0.6374  1.4227 -0.3642
 1620SOL     OW16495   0.419   1.826  13.596  0.2220 -0.0229  0.4055
 1620SOL    HW116496   0.450   1.752  13.649 -0.1377 -0.4654 -0.0074
 1620SOL    HW216497   0.489   1.891  13.609  0.2569 -0.4227  2.1447
 1621SOL     OW16498   1.299   2.322  11.058  0.1060 -0.5300  0.5372
 1621SOL    HW116499   1.300   2.262  11.133 -0.1024  1.5715  2.2220
 1621SOL    HW216500   1.270   2.402  11.102  1.0020 -0.2114  0.5354
 1622SOL     OW16501   0.358   1.959   6.377  0.3618  0.3446  0.4461
 1622SOL    HW116502   0.345   1.893   6.310  0.8998  0.3520  0.3312
 1622SOL    HW216503   0.339   1.912   6.458 -0.0838 -1.1502 -0.5450
 1623SOL     OW16504   1.019   3.336   9.205  0.0288  0.0941  0.3974
 1623SOL    HW116505   0.945   3.368   9.256  2.3338  2.3584  2.3703
 1623SOL    HW216506   1.072   3.277   9.260  2.0039  1.9123  0.4557
 1624SOL     OW16507   4.553   2.557   2.247 -0.2833  0.0166  0.5873
 1624SOL    HW116508   4.534   2.471   2.282  3.8534 -0.6807  1.1178
 1624SOL    HW216509   4.490   2.608   2.297  0.6993  1.1448  0.6902
 1625SOL     OW16510   2.295   3.395   8.836 -0.1892 -0.3397  0.0995
 1625SOL    HW116511   2.384   3.370   8.811 -0.7486 -1.5205 -0.7014
 1625SOL    HW216512   2.281   3.351   8.920  1.6232 -1.0001  0.0610
 1626SOL     OW16513   2.729   4.117   4.669 -0.5473  0.3071  0.2163
 1626SOL    HW116514   2.716   4.207   4.640  0.4302 -0.6191 -3.0941
 1626SOL    HW216515   2.693   4.112   4.758  0.5695 -1.0638  0.6083
 1627SOL     OW16516   4.557   2.756   7.122 -0.0760 -0.2404  0.1428
 1627SOL    HW116517   4.652   2.757   7.126 -0.0945 -0.4774  0.7152
 1627SOL    HW216518   4.544   2.808   7.043 -2.8916 -0.4925  0.4371
 1628SOL     OW16519   0.609   4.284   2.267 -0.8490  0.4653 -0.1336
 1628SOL    HW116520   0.635   4.366   2.227 -0.0917 -0.5403 -1.6907
 1628SOL    HW216521   0.526   4.320   2.300 -1.0644  0.5299 -0.7504
 1629SOL     OW16522   0.601   3.651   3.880 -0.6896  0.4676  0.1274
 1629SOL    HW116523   0.649   3.704   3.943  0.3286  0.6836 -0.8375
 1629SOL    HW216524   0.609   3.560   3.910  1.4919  0.0677 -1.6483
 1630SOL     OW16525   4.380   3.558  13.652 -0.2318 -0.2372  0.0016
 1630SOL    HW116526   4.374   3.475  13.699 -0.3634 -1.2560 -1.8064
 1630SOL    HW216527   4.288   3.586  13.652  0.5241  2.2147  0.3725
 1631SOL     OW16528   3.211   3.680  12.844  0.1216  0.1631  0.1623
 1631SOL    HW116529   3.247   3.740  12.909 -0.9570 -0.5315  1.3918
 1631SOL    HW216530   3.118   3.700  12.848  0.5543  2.3818 -1.1084
 1632SOL     OW16531   1.024   0.294   8.228  0.4058 -0.3321 -0.0765
 1632SOL    HW116532   1.094   0.358   8.211 -0.1006  0.5903  1.3047
 1632SOL    HW216533   1.077   0.219   8.254  0.5479 -0.4469 -0.7111
 1633SOL     OW16534   1.725   0.716   4.295 -0.1824  0.2061 -0.1050
 1633SOL    HW116535   1.688   0.780   4.235  1.7629 -1.1584 -2.7400
 1633SOL    HW216536   1.811   0.716   4.253  0.6653 -2.0349  1.6045
 1634SOL     OW16537   3.632   4.724  15.955  0.6871 -0.4968  0.2516
 1634SOL    HW116538   3.694   4.678  16.011 -0.3412 -0.3782  1.4997
 1634SOL    HW216539   3.671   4.709  15.869 -1.6384  0.0802 -0.9240
 1635SOL     OW16540   0.226   2.953   2.852 -0.1247 -0.0593  0.5013
 1635SOL    HW116541   0.232   2.977   2.945 -0.2769 -1.8827  0.9737
 1635SOL    HW216542   0.236   3.037   2.808 -0.4329  0.0747  0.6841
 1636SOL     OW16543   1.772   4.386   5.342  0.2885  0.0941 -0.8313
 1636SOL    HW116544   1.828   4.403   5.267  0.6274 -2.0061 -1.0702
 1636SOL    HW216545   1.779   4.290   5.344 -1.6691 -0.1138 -3.4607
 1637SOL     OW16546   2.506   1.119   7.502  0.0394  0.2971  0.5838
 1637SOL    HW116547   2.495   1.026   7.520 -0.3765 -0.0126 -1.2721
 1637SOL    HW216548   2.424   1.145   7.459 -0.8373 -0.9255  1.5405
 1638SOL     OW16549   3.041   0.274  11.787  0.3651  0.6020 -0.3677
 1638SOL    HW116550   3.137   0.275  11.789  0.3408  1.0701  0.4359
 1638SOL    HW216551   3.011   0.365  11.796  1.2085  0.6768  1.6595
 1639SOL     OW16552   2.739   2.165   5.652 -0.0175  0.2419 -0.0619
 1639SOL    HW116553   2.675   2.156   5.581 -1.6800 -2.0589  1.7269
 1639SOL    HW216554   2.785   2.247   5.637  0.9397 -0.5702 -1.6240
 1640SOL     OW16555   4.202   3.996   5.859 -0.0057  0.0723  0.7688
 1640SOL    HW116556   4.196   3.905   5.832 -3.6937  1.0756 -1.8877
 1640SOL    HW216557   4.204   4.042   5.775  0.3191  1.0932  1.3218
 1641SOL     OW16558   4.517   3.488   5.445  0.9114 -0.4981 -0.3132
 1641SOL    HW116559   4.534   3.403   5.485  0.5186  1.1925  3.4042
 1641SOL    HW216560   4.573   3.543   5.500  0.5644 -2.4204  1.9510
 1642SOL     OW16561   1.265   4.503   2.262  0.1198  0.0146 -0.2743
 1642SOL    HW116562   1.326   4.573   2.285  2.1044 -1.5303 -0.7502
 1642SOL    HW216563   1.263   4.530   2.171 -0.6088 -0.1911 -0.3174
 1643SOL     OW16564   2.820   3.939   4.371  0.1560  0.5911 -0.6330
 1643SOL    HW116565   2.804   3.891   4.452  1.5683  3.5026  1.3541
 1643SOL    HW216566   2.755   4.008   4.382 -0.5377 -0.2277  0.3890
 1644SOL     OW16567   0.741   0.044  14.106  0.1043  0.0134 -0.7613
 1644SOL    HW116568   0.811   0.107  14.088 -1.7311  1.2748 -3.5203
 1644SOL    HW216569   0.667   0.103  14.117 -0.1616 -0.0319 -2.3773
 1645SOL     OW16570   3.926   0.593   9.851 -0.2637 -0.1131  0.0173
 1645SOL    HW116571   3.831   0.592   9.868 -0.0273 -0.6404  1.2963
 1645SOL    HW216572   3.914   0.603   9.757 -1.1470  0.0215  0.1383
 1646SOL     OW16573   4.213   3.730   6.128 -0.5547  0.0527 -0.2885
 1646SOL    HW116574   4.124   3.697   6.125  0.1957 -1.8779 -1.2166
 1646SOL    HW216575   4.204   3.772   6.214  2.5252 -1.3069  0.7097
 1647SOL     OW16576   0.866   3.020   7.684  0.0461  0.2111 -0.1551
 1647SOL    HW116577   0.958   3.028   7.660  0.7622 -1.0545  2.1744
 1647SOL    HW216578   0.880   3.021   7.778  0.4518  2.1094 -0.2415
 1648SOL     OW16579   1.859   3.258   8.608  0.3156  0.4661  0.6463
 1648SOL    HW116580   1.826   3.300   8.688  1.0049  1.0682  0.6087
 1648SOL    HW216581   1.950   3.286   8.608  0.8864 -1.3956  0.7389
 1649SOL     OW16582   4.070   3.166  13.216  0.2421 -0.6208 -0.3226
 1649SOL    HW116583   3.979   3.148  13.193 -0.2459  0.0622  1.0634
 1649SOL    HW216584   4.069   3.261  13.224  0.4847 -0.3539 -3.7325
 1650SOL     OW16585   3.925   1.722   7.527 -0.3615 -0.1102  0.3141
 1650SOL    HW116586   3.867   1.651   7.499  0.8810 -0.6137 -1.0043
 1650SOL    HW216587   3.871   1.776   7.585 -0.4851  2.0502 -1.8001
 1651SOL     OW16588   3.881   0.099   3.658 -0.6797 -0.2349  0.1367
 1651SOL    HW116589   3.904   0.104   3.751  1.6678 -1.6223 -0.3689
 1651SOL    HW216590   3.959   0.051   3.628 -3.1254 -3.1694 -1.5901
 1652SOL     OW16591   2.801   2.924   5.526  0.0664  0.1644  0.3320
 1652SOL    HW116592   2.794   2.996   5.588  1.4983 -0.0677  0.7443
 1652SOL    HW216593   2.881   2.888   5.563 -0.2645 -0.5091  0.3988
 1653SOL     OW16594   1.957   4.046  13.592 -0.2911 -0.2216  0.0330
 1653SOL    HW116595   1.934   3.974  13.650  0.5994  1.1982  2.1540
 1653SOL    HW216596   2.053   4.044  13.583 -0.3882  0.6859 -1.3218
 1654SOL     OW16597   4.437   2.173   8.256  0.0299 -0.4224 -0.4203
 1654SOL    HW116598   4.347   2.145   8.240 -0.2815  0.1276  0.3544
 1654SOL    HW216599   4.457   2.218   8.174  0.6855  0.9883  0.5183
 1655SOL     OW16600   2.834   1.740   6.395  0.0332 -0.0735  0.1817
 1655SOL    HW116601   2.782   1.784   6.463 -1.0834 -0.3585 -0.4949
 1655SOL    HW216602   2.817   1.788   6.314  1.7438  1.6769  0.8621
 1656SOL     OW16603   1.336   2.663   9.696 -0.1647  0.5362 -0.2843
 1656SOL    HW116604   1.347   2.598   9.765 -1.1820  2.0678  1.3208
 1656SOL    HW216605   1.425   2.675   9.663  0.2486 -1.1930  0.1992
 1657SOL     OW16606   3.619   4.635   1.518  0.5552 -0.4628 -0.2503
 1657SOL    HW116607   3.527   4.660   1.529  0.7700  0.0546  0.3440
 1657SOL    HW216608   3.618   4.539   1.526 -1.3992 -0.3143  1.3298
 1658SOL     OW16609   2.063   1.121   7.809 -0.2490 -0.4584  0.9233
 1658SOL    HW116610   2.077   1.035   7.847  1.8665  0.1559  1.5620
 1658SOL    HW216611   2.116   1.179   7.863 -0.1469  0.6869 -0.4007
 1659SOL     OW16612   2.594   4.192   3.527  0.0836  0.3185  0.0651
 1659SOL    HW116613   2.633   4.129   3.588 -1.9431  0.1418  1.2052
 1659SOL    HW216614   2.680   4.226   3.504 -0.0781  1.4691  1.1368
 1660SOL     OW16615   1.379   4.137  13.400  0.1040  0.0797  0.4905
 1660SOL    HW116616   1.461   4.114  13.356 -0.7162  0.4948 -1.2205
 1660SOL    HW216617   1.410   4.187  13.476 -0.1026  0.2366  0.4704
 1661SOL     OW16618   0.911   2.902   2.799 -0.0448 -0.2045 -0.0115
 1661SOL    HW116619   0.994   2.937   2.766  0.8427 -0.0529  2.3835
 1661SOL    HW216620   0.849   2.956   2.751  0.8441 -1.1332 -2.2238
 1662SOL     OW16621   4.374   4.698   5.841  0.0997 -0.0013  0.1200
 1662SOL    HW116622   4.343   4.695   5.751  1.3715 -1.3899 -0.2635
 1662SOL    HW216623   4.467   4.713   5.824  0.1578 -0.1817  0.2725
 1663SOL     OW16624   1.218   4.417   1.283 -0.3255  0.9583  0.1240
 1663SOL    HW116625   1.129   4.380   1.282 -0.2096  0.5992  2.0148
 1663SOL    HW216626   1.238   4.433   1.191 -3.6905 -1.7057 -1.0624
 1664SOL     OW16627   4.367   3.882   9.304 -0.0599 -0.2669  0.5036
 1664SOL    HW116628   4.354   3.866   9.397 -1.3747  1.7811  0.6647
 1664SOL    HW216629   4.346   3.798   9.263  1.0568 -1.5556  2.5911
 1665SOL     OW16630   1.420   4.065  12.038 -0.4862 -1.0323  0.5443
 1665SOL    HW116631   1.391   4.011  11.964  1.0857  0.7382 -1.3513
 1665SOL    HW216632   1.496   4.108  12.000 -0.1949 -1.0657  1.0905
 1666SOL     OW16633   2.222   4.161   8.182 -0.2950  0.6234 -0.0943
 1666SOL    HW116634   2.300   4.113   8.210 -0.2944 -0.3818 -1.7821
 1666SOL    HW216635   2.157   4.095   8.207 -1.0614 -0.0518 -3.7932
 1667SOL     OW16636   2.130   2.198   9.479  0.1772  0.5500  0.0745
 1667SOL    HW116637   2.200   2.245   9.524 -0.9229  0.3381  2.0069
 1667SOL    HW216638   2.050   2.225   9.524  1.1915  0.4370  1.9691
 1668SOL     OW16639   0.433   2.942   8.410 -0.3032 -0.0797 -0.2425
 1668SOL    HW116640   0.424   3.027   8.452  1.3213 -0.4833  0.9646
 1668SOL    HW216641   0.524   2.914   8.421 -0.6883 -2.0496 -1.9112
 1669SOL     OW16642   4.465   0.789   4.686  0.4912 -0.1683  0.2223
 1669SOL    HW116643   4.434   0.718   4.629  3.4094 -1.3991  0.1653
 1669SOL    HW216644   4.403   0.782   4.758 -0.6369 -1.5622 -0.8853
 1670SOL     OW16645   3.448   4.708   9.985 -0.4560 -0.3711  0.0882
 1670SOL    HW116646   3.401   0.030  10.046  0.2890 -1.2271  1.4804
 1670SOL    HW216647   3.528   4.690  10.034 -0.6578  1.2985  1.0579
 1671SOL     OW16648   4.407   0.823   2.103 -0.4508  0.1599 -0.3457
 1671SOL    HW116649   4.438   0.902   2.058 -0.8241 -0.9088 -2.4793
 1671SOL    HW216650   4.390   0.864   2.188 -1.3041 -1.9690  0.5049
 1672SOL     OW16651   0.635   3.494  12.388  0.5201 -0.4539  0.6957
 1672SOL    HW116652   0.597   3.547  12.458  0.0751 -2.2610  1.8127
 1672SOL    HW216653   0.586   3.533  12.316 -1.4906 -1.0681  1.7284
 1673SOL     OW16654   3.650   4.077   7.386  0.0872  0.0767 -0.3037
 1673SOL    HW116655   3.650   4.027   7.303 -0.8140 -2.1836  1.0548
 1673SOL    HW216656   3.582   4.029   7.434  1.0547  0.3001  1.2730
 1674SOL     OW16657   4.435   4.682  14.265  0.1483 -0.1363 -0.6040
 1674SOL    HW116658   4.428   0.025  14.319  0.5054 -0.0185 -0.7289
 1674SOL    HW216659   4.504   4.637  14.313  1.3436 -0.2814 -2.4629
 1675SOL     OW16660   2.182   4.225  11.952  0.2446 -0.3158  0.1242
 1675SOL    HW116661   2.124   4.159  11.916  0.8663 -0.6228 -0.3236
 1675SOL    HW216662   2.253   4.229  11.888 -0.8252 -1.5540 -1.1506
 1676SOL     OW16663   0.497   0.579   2.699 -0.2359  0.6285  0.7491
 1676SOL    HW116664   0.544   0.563   2.781  1.1827  1.0007  0.0155
 1676SOL    HW216665   0.563   0.544   2.638 -1.3175 -0.6648  0.3398
 1677SOL     OW16666   2.700   3.584   9.042 -0.0667  0.7484  0.7312
 1677SOL    HW116667   2.782   3.624   9.012  0.1129 -0.8671 -0.9500
 1677SOL    HW216668   2.675   3.519   8.977 -0.7253  2.9615 -1.2496
 1678SOL     OW16669   1.897   0.184   6.834 -0.7156 -0.4269  0.0244
 1678SOL    HW116670   1.908   0.278   6.851  1.7186 -0.5280 -0.8948
 1678SOL    HW216671   1.908   0.181   6.739  0.4736 -0.8304  0.1746
 1679SOL     OW16672   2.826   2.565   5.376 -0.1746 -0.4120  0.0262
 1679SOL    HW116673   2.858   2.505   5.444  0.8312  0.6742  0.5085
 1679SOL    HW216674   2.734   2.573   5.402  0.5823  1.9123  1.9210
 1680SOL     OW16675   1.915   2.965   4.079  0.0072  0.1661 -0.1797
 1680SOL    HW116676   1.998   2.957   4.031 -0.5190  0.6453 -1.1778
 1680SOL    HW216677   1.853   2.951   4.007 -1.3321 -1.1926  1.2475
 1681SOL     OW16678   2.871   2.856  11.414  0.1114 -0.1436 -0.2296
 1681SOL    HW116679   2.783   2.852  11.379 -0.2342 -1.0101  0.7395
 1681SOL    HW216680   2.920   2.780  11.382 -1.7660 -1.0669 -0.8530
 1682SOL     OW16681   3.724   1.587   3.463 -0.1627 -0.1519 -0.9193
 1682SOL    HW116682   3.679   1.663   3.500 -2.1303 -3.0306  2.6942
 1682SOL    HW216683   3.757   1.548   3.544  0.4474 -0.9121 -1.5306
 1683SOL     OW16684   2.212   3.020   5.346 -0.3406  0.2961  0.4206
 1683SOL    HW116685   2.289   3.039   5.293  0.0681 -0.9659  0.5731
 1683SOL    HW216686   2.251   2.954   5.404  1.2479 -0.1842 -1.1844
 1684SOL     OW16687   4.524   0.335   4.454 -0.2440 -0.1492 -0.5371
 1684SOL    HW116688   4.485   0.255   4.490 -0.8913  0.5254  0.2611
 1684SOL    HW216689   4.448   0.374   4.412 -1.0215 -1.9162 -0.7587
 1685SOL     OW16690   0.452   1.476   1.318  0.6026  0.1484 -0.1031
 1685SOL    HW116691   0.518   1.538   1.350  0.7112 -0.0419  0.0439
 1685SOL    HW216692   0.428   1.431   1.399 -1.1559  2.0010  0.4056
 1686SOL     OW16693   4.731   0.423   2.344  0.7087 -0.2465 -0.4041
 1686SOL    HW116694   4.696   0.401   2.430  1.9777  1.9597  0.7031
 1686SOL    HW216695   4.644   0.449   2.314  0.2416 -1.4314 -0.0610
 1687SOL     OW16696   0.300   4.221  12.440  0.2365 -0.9087  0.2173
 1687SOL    HW116697   0.213   4.227  12.479 -0.3038 -2.0351 -0.8086
 1687SOL    HW216698   0.288   4.153  12.373 -1.7868  0.1025 -0.4553
 1688SOL     OW16699   4.126   0.115  12.044  0.4226 -0.1129  0.0744
 1688SOL    HW116700   4.101   0.192  12.095  1.4469  0.6437 -0.5795
 1688SOL    HW216701   4.164   0.053  12.106  0.1026  0.1281  0.5165
 1689SOL     OW16702   3.566   1.415   4.925  0.1395 -0.2050  0.2484
 1689SOL    HW116703   3.537   1.326   4.904  1.7350 -1.0984  1.7621
 1689SOL    HW216704   3.529   1.451   4.845  0.3045 -0.7826 -0.0899
 1690SOL     OW16705   3.925   2.546   0.474  0.4510 -0.0706 -0.1269
 1690SOL    HW116706   3.978   2.488   0.420 -0.0084 -0.5446 -0.0758
 1690SOL    HW216707   3.952   2.632   0.443  1.9521 -0.9036 -1.1303
 1691SOL     OW16708   4.205   4.233  13.658 -0.2357  0.2801 -0.0284
 1691SOL    HW116709   4.172   4.262  13.573 -0.5947  1.4532  0.5185
 1691SOL    HW216710   4.182   4.140  13.653  0.7479  0.1590 -2.2982
 1692SOL     OW16711   3.856   2.969   8.311  0.1390  0.0409 -0.4147
 1692SOL    HW116712   3.928   2.980   8.373 -1.3019  0.6676  1.1549
 1692SOL    HW216713   3.912   2.986   8.235  0.2041 -3.4479 -1.1422
 1693SOL     OW16714   2.205   1.342   9.493 -0.8432  0.4771  0.5296
 1693SOL    HW116715   2.282   1.296   9.459 -0.5902  1.4233 -0.1849
 1693SOL    HW216716   2.207   1.306   9.582 -0.9044 -1.5711 -0.2924
 1694SOL     OW16717   2.780   3.846   5.597 -0.3383 -0.5359  0.0379
 1694SOL    HW116718   2.694   3.844   5.556  0.0661 -0.1735 -0.8227
 1694SOL    HW216719   2.805   3.930   5.559 -1.0297  0.5251  1.9245
 1695SOL     OW16720   2.855   0.377   5.453  0.0235  0.2953  0.0126
 1695SOL    HW116721   2.887   0.443   5.392  0.5742 -0.0496 -0.0782
 1695SOL    HW216722   2.830   0.308   5.391 -1.8835  1.3743 -0.4056
 1696SOL     OW16723   4.671   0.735   6.703 -0.2773  0.0470  0.1387
 1696SOL    HW116724   4.602   0.679   6.667 -0.5579 -0.8360  2.0678
 1696SOL    HW216725   4.624   0.803   6.752  2.1095  2.0938 -0.4268
 1697SOL     OW16726   2.580   0.845   6.256 -0.1127  0.1794 -0.3560
 1697SOL    HW116727   2.535   0.927   6.274  0.5685  0.6013 -0.5622
 1697SOL    HW216728   2.591   0.840   6.161  1.0931 -0.4468 -0.1913
 1698SOL     OW16729   4.316   4.602  12.784  0.5004  0.1992  0.9754
 1698SOL    HW116730   4.407   4.600  12.754  0.0307  1.2874 -0.5710
 1698SOL    HW216731   4.309   4.693  12.815  2.2183  0.3153  1.0341
 1699SOL     OW16732   4.275   0.135   3.328  0.0227  0.2462  0.2168
 1699SOL    HW116733   4.299   0.217   3.373  0.6779  0.0029  0.3117
 1699SOL    HW216734   4.320   0.067   3.378 -1.2823 -0.1984  0.7839
 1700SOL     OW16735   2.172   0.892  13.095  0.0993 -0.2334 -0.7288
 1700SOL    HW116736   2.181   0.893  13.000  1.8202 -1.6416 -0.5836
 1700SOL    HW216737   2.259   0.915  13.126 -0.3018  1.8782 -1.1416
 1701SOL     OW16738   0.806   0.696   3.604  0.1354 -0.2186 -0.0416
 1701SOL    HW116739   0.791   0.698   3.699  1.4892  0.2460  0.1570
 1701SOL    HW216740   0.720   0.683   3.564 -0.7405  0.1931  1.6874
 1702SOL     OW16741   2.570   2.213  17.007  0.2409 -0.0990  0.6107
 1702SOL    HW116742   2.533   2.177  17.088 -0.9666  0.9301  0.5199
 1702SOL    HW216743   2.577   2.131  16.959 -0.1270 -0.8908  1.8963
 1703SOL     OW16744   1.085   0.794   6.042 -0.5018  0.1433 -0.0903
 1703SOL    HW116745   1.001   0.792   6.087 -0.5337 -1.7367 -0.2418
 1703SOL    HW216746   1.138   0.871   6.063  1.2111 -1.1134  0.2467
 1704SOL     OW16747   4.373   0.420   6.795  0.0405  0.1055  0.3155
 1704SOL    HW116748   4.365   0.334   6.837  1.7906 -1.2431 -2.1199
 1704SOL    HW216749   4.285   0.457   6.808 -1.3187 -2.7844 -0.4722
 1705SOL     OW16750   2.201   4.269   5.897  0.2289  0.1471  0.0178
 1705SOL    HW116751   2.111   4.300   5.905  0.6436  1.4058 -0.1370
 1705SOL    HW216752   2.186   4.206   5.826 -1.3093  0.8516 -0.2780
 1706SOL     OW16753   2.502   1.617   2.789 -0.9246  0.0630  0.0027
 1706SOL    HW116754   2.407   1.627   2.800 -1.0966 -1.6174  0.0107
 1706SOL    HW216755   2.508   1.666   2.707  0.9888 -2.1045 -1.1369
 1707SOL     OW16756   1.013   0.855   3.813 -0.6320 -0.6325 -0.0194
 1707SOL    HW116757   1.052   0.909   3.882 -0.3372 -0.3849 -0.3805
 1707SOL    HW216758   1.057   0.890   3.735  1.6803 -2.0900  0.6114
 1708SOL     OW16759   4.477   3.018   2.233  0.0670 -0.0517 -0.4632
 1708SOL    HW116760   4.566   3.051   2.225  0.1593  0.0933  1.0136
 1708SOL    HW216761   4.475   2.930   2.198  1.0635 -0.1172 -0.3546
 1709SOL     OW16762   0.347   0.721  16.474 -0.3884 -0.5811 -0.6378
 1709SOL    HW116763   0.340   0.816  16.470 -3.8647 -0.7682  1.2483
 1709SOL    HW216764   0.367   0.703  16.566  2.6253 -0.5773 -1.2994
 1710SOL     OW16765   4.220   2.199   1.221 -0.5633 -0.6981 -0.0728
 1710SOL    HW116766   4.180   2.114   1.236 -1.4380  0.1509  2.2920
 1710SOL    HW216767   4.258   2.180   1.135  0.7740  1.7370 -0.0073
 1711SOL     OW16768   2.179   2.470   7.088 -0.1845 -0.3230  0.6470
 1711SOL    HW116769   2.271   2.495   7.087  0.1235 -1.4473  0.8301
 1711SOL    HW216770   2.140   2.530   7.025 -0.7161  0.2821  1.5563
 1712SOL     OW16771   0.358   0.452  14.823 -0.1051 -0.4584 -0.2918
 1712SOL    HW116772   0.421   0.519  14.852 -0.3481  0.5730 -2.1371
 1712SOL    HW216773   0.274   0.480  14.860 -0.1713  0.7914 -1.3452
 1713SOL     OW16774   0.893   4.227   4.650  0.1677  0.0294 -0.4740
 1713SOL    HW116775   0.891   4.218   4.555 -1.3423 -2.4248 -0.2088
 1713SOL    HW216776   0.983   4.240   4.677 -0.3914 -0.6819  1.7550
 1714SOL     OW16777   4.734   2.888   4.279 -0.2196 -0.1618 -0.6827
 1714SOL    HW116778   4.705   2.797   4.289  1.4841 -0.4066  2.0770
 1714SOL    HW216779   0.031   2.909   4.367 -1.5193 -1.6224  0.1558
 1715SOL     OW16780   0.768   4.593   6.915 -0.0201 -0.2968 -0.2549
 1715SOL    HW116781   0.796   4.525   6.976 -0.1118 -0.4349 -0.3697
 1715SOL    HW216782   0.814   4.666   6.958  0.0715 -0.6228  0.2016
 1716SOL     OW16783   2.314   3.919   8.836  0.3541 -0.7270  0.3530
 1716SOL    HW116784   2.358   3.942   8.754  2.3563 -0.2112  1.5800
 1716SOL    HW216785   2.323   3.824   8.842 -2.7230 -0.9619  0.9492
 1717SOL     OW16786   2.864   1.550   1.767 -0.0673  0.6290  0.0145
 1717SOL    HW116787   2.899   1.528   1.853 -1.4486 -1.9942 -0.0922
 1717SOL    HW216788   2.782   1.592   1.793 -0.4390  0.2443 -0.5365
 1718SOL     OW16789   2.490   1.064   4.501 -0.0016  0.3917  0.8289
 1718SOL    HW116790   2.546   1.050   4.424 -3.1825 -2.4419 -0.9920
 1718SOL    HW216791   2.422   0.998   4.486  0.4725  0.1767 -0.4472
 1719SOL     OW16792   4.015   4.645   1.171 -0.0576 -0.3034  0.6578
 1719SOL    HW116793   3.989   4.593   1.095  0.4042  0.8244 -0.2491
 1719SOL    HW216794   3.991   4.583   1.241 -1.0241  2.0830  2.4455
 1720SOL     OW16795   2.734   0.190   5.851  0.1477 -0.2502  0.1646
 1720SOL    HW116796   2.782   0.215   5.930 -0.2340 -1.5161  0.7998
 1720SOL    HW216797   2.812   0.162   5.804  1.6399  1.5890  1.5876
 1721SOL     OW16798   1.109   1.548   4.532  0.2904 -0.2524  0.2434
 1721SOL    HW116799   1.194   1.544   4.577  0.5267  0.1997 -0.1570
 1721SOL    HW216800   1.116   1.633   4.489  0.2664 -1.0515 -1.3420
 1722SOL     OW16801   3.431   3.582   2.379 -0.2828 -0.7571  0.3621
 1722SOL    HW116802   3.363   3.562   2.315 -0.1999  0.7977 -0.1929
 1722SOL    HW216803   3.372   3.634   2.434  0.7344 -1.0872  1.7757
 1723SOL     OW16804   1.428   4.196  11.738 -0.3095  0.4391 -0.0548
 1723SOL    HW116805   1.384   4.116  11.764  2.5177 -0.6611  1.2985
 1723SOL    HW216806   1.500   4.153  11.691  1.3734  2.3306  0.7768
 1724SOL     OW16807   0.541   4.495   4.251 -0.2258  0.0925 -0.0475
 1724SOL    HW116808   0.596   4.464   4.323 -0.8243 -1.1193 -0.1148
 1724SOL    HW216809   0.503   4.572   4.295 -0.0469 -0.1535  0.5376
 1725SOL     OW16810   2.601   0.220   4.273  0.5609 -0.2514 -0.1328
 1725SOL    HW116811   2.622   0.274   4.348  1.0747  0.3652 -0.7172
 1725SOL    HW216812   2.596   0.140   4.326  0.6071 -0.4110 -0.3665
 1726SOL     OW16813   0.313   4.327   5.351 -0.5989 -0.5591  0.4371
 1726SOL    HW116814   0.402   4.361   5.338  0.0979 -1.6783  2.1580
 1726SOL    HW216815   0.326   4.272   5.429 -0.3568 -0.4149  0.5008
 1727SOL     OW16816   3.738   3.865   1.876 -0.2112 -0.1404 -0.0070
 1727SOL    HW116817   3.769   3.787   1.922  2.0738  2.0123  2.1032
 1727SOL    HW216818   3.654   3.873   1.920 -0.0735 -1.7184  0.5406
 1728SOL     OW16819   2.046   1.052   2.990 -0.1074  0.6986  0.2958
 1728SOL    HW116820   1.957   1.031   2.962  0.7603 -1.9004 -0.4659
 1728SOL    HW216821   2.089   0.968   2.973  0.9078  1.4612 -0.9048
 1729SOL     OW16822   3.260   3.887   7.814 -0.3280  0.3969 -0.1006
 1729SOL    HW116823   3.227   3.966   7.857 -1.0186  0.0231  0.0542
 1729SOL    HW216824   3.344   3.876   7.858 -0.3480  0.0936 -0.1440
 1730SOL     OW16825   4.091   0.862   7.580 -0.3454 -0.9884 -0.1691
 1730SOL    HW116826   4.118   0.793   7.520  1.0270 -0.8638  0.3248
 1730SOL    HW216827   4.134   0.833   7.660 -0.1416 -1.5359 -0.4788
 1731SOL     OW16828   3.324   3.964  11.774 -0.2677 -0.5417  0.0621
 1731SOL    HW116829   3.245   3.981  11.723  1.3878 -3.0456 -3.3333
 1731SOL    HW216830   3.298   4.003  11.857  1.4672 -0.4063  0.5272
 1732SOL     OW16831   3.160   2.550   5.680  0.2429  0.1118  0.0181
 1732SOL    HW116832   3.170   2.509   5.767 -0.8004 -2.1688 -0.9291
 1732SOL    HW216833   3.246   2.546   5.639 -0.5712 -2.0476 -1.4895
 1733SOL     OW16834   0.509   2.580  15.628 -0.4706  0.1775  0.3941
 1733SOL    HW116835   0.451   2.508  15.605  0.0163 -0.0177 -0.2375
 1733SOL    HW216836   0.499   2.631  15.548 -0.9588  0.5638  0.6947
 1734SOL     OW16837   0.833   0.879   6.713  0.3838 -0.0595  0.4000
 1734SOL    HW116838   0.880   0.821   6.654  0.3247 -1.0422  1.3288
 1734SOL    HW216839   0.844   0.967   6.677  1.3895  0.4976  2.0423
 1735SOL     OW16840   0.994   3.520   7.396  0.1475 -0.5175 -0.4904
 1735SOL    HW116841   1.022   3.571   7.472 -0.7138  3.1876 -2.6760
 1735SOL    HW216842   0.991   3.429   7.426 -2.3728 -0.1708  0.2438
 1736SOL     OW16843   2.628   0.562   7.113  0.2777  1.0006 -0.3538
 1736SOL    HW116844   2.541   0.598   7.129  0.6699  2.3838 -1.3484
 1736SOL    HW216845   2.674   0.637   7.074  1.4663  0.4137 -0.0816
 1737SOL     OW16846   0.776   0.545   7.405  0.4490 -0.2265 -0.4170
 1737SOL    HW116847   0.828   0.620   7.377  4.3520 -2.0243  1.8458
 1737SOL    HW216848   0.815   0.464   7.371  1.2406 -0.1586  0.3222
 1738SOL     OW16849   3.350   1.343   2.082 -0.1610  0.1291 -0.4593
 1738SOL    HW116850   3.266   1.335   2.128 -1.0211 -0.8647 -2.1879
 1738SOL    HW216851   3.380   1.260   2.119 -0.2663  0.7852  1.1149
 1739SOL     OW16852   2.615   4.431   3.834 -0.2484 -0.1381 -0.2045
 1739SOL    HW116853   2.577   4.483   3.764  2.8274  1.4521 -0.7163
 1739SOL    HW216854   2.537   4.404   3.881 -1.6634  2.2858 -1.1936
 1740SOL     OW16855   1.515   2.983   4.826  0.0299 -0.6405 -0.1393
 1740SOL    HW116856   1.424   2.990   4.797  0.1294  1.5382  0.0395
 1740SOL    HW216857   1.555   2.918   4.769  2.6989  2.2438 -1.5937
 1741SOL     OW16858   1.606   1.881   0.993  0.4146  0.1898  0.1229
 1741SOL    HW116859   1.591   1.953   1.055 -0.4676 -0.1028  0.2638
 1741SOL    HW216860   1.515   1.852   0.981  0.7876 -0.6474 -0.6937
 1742SOL     OW16861   2.348   1.717   3.154  0.4671  0.2378  0.2771
 1742SOL    HW116862   2.363   1.675   3.239  0.0627  1.4092  0.9327
 1742SOL    HW216863   2.374   1.808   3.172 -0.4418  0.1843  1.8727
 1743SOL     OW16864   1.761   3.944   5.054 -0.0773 -0.0067 -0.0453
 1743SOL    HW116865   1.738   3.873   4.994 -1.7243  1.4215 -1.0722
 1743SOL    HW216866   1.856   3.955   5.040 -0.0132 -0.5709 -0.0440
 1744SOL     OW16867   3.246   1.377  17.337  0.5939  0.6712 -0.2769
 1744SOL    HW116868   3.195   1.444  17.383  0.3321  1.5582 -1.8717
 1744SOL    HW216869   3.178   1.311  17.328  0.9036 -0.1156  3.0866
 1745SOL     OW16870   0.065   4.309   3.182  0.2782  0.3687  0.7073
 1745SOL    HW116871   0.124   4.243   3.145  0.9190  0.2936  1.8486
 1745SOL    HW216872   0.038   4.263   3.261  0.1929  3.2966  2.3966
 1746SOL     OW16873   3.519   4.280  12.423  0.1276  0.4074  0.2074
 1746SOL    HW116874   3.437   4.259  12.378 -0.1871 -0.7986  1.3439
 1746SOL    HW216875   3.528   4.200  12.474  1.5892 -0.8708 -2.0534
 1747SOL     OW16876   2.499   1.912   1.686 -0.1023 -0.1619 -0.2839
 1747SOL    HW116877   2.516   1.921   1.780 -2.9620 -0.7320  0.2918
 1747SOL    HW216878   2.423   1.971   1.690  1.7372  2.2471 -1.0915
 1748SOL     OW16879   2.798   2.740  16.681  0.0791 -0.3702  0.4348
 1748SOL    HW116880   2.845   2.678  16.626 -0.9276 -0.4610 -0.3195
 1748SOL    HW216881   2.848   2.738  16.763 -0.6241  0.1695  0.8874
 1749SOL     OW16882   0.921   4.205   3.391  0.1190 -0.3662  0.0163
 1749SOL    HW116883   0.908   4.260   3.469  0.5969 -1.7247  1.0500
 1749SOL    HW216884   0.933   4.117   3.425 -0.4755 -1.0495 -1.5227
 1750SOL     OW16885   3.167   1.598   8.693  0.0194 -0.0702 -0.1905
 1750SOL    HW116886   3.239   1.662   8.688 -0.1113  0.3616  3.3597
 1750SOL    HW216887   3.092   1.639   8.649 -1.0676 -4.0879 -2.0551
 1751SOL     OW16888   2.242   3.424   2.536 -0.4404 -0.7812 -0.0073
 1751SOL    HW116889   2.317   3.383   2.581  0.7724  1.1302 -0.2986
 1751SOL    HW216890   2.269   3.507   2.575 -3.4883 -1.1410  2.8076
 1752SOL     OW16891   2.599   0.026   5.355 -0.9016  0.1282 -0.4274
 1752SOL    HW116892   2.513   4.720   5.349 -0.4391 -1.0181  1.1077
 1752SOL    HW216893   2.596   0.054   5.446 -0.5907 -1.2679  0.0061
 1753SOL     OW16894   2.805   1.585  16.335 -0.3144  0.6331 -0.1614
 1753SOL    HW116895   2.761   1.508  16.371 -3.3224  3.1128  1.4209
 1753SOL    HW216896   2.893   1.566  16.368 -0.3834 -0.2575 -0.4942
 1754SOL     OW16897   3.514   0.396   1.473  0.6337  0.0710  0.1152
 1754SOL    HW116898   3.435   0.408   1.420 -0.0844 -1.0269  0.9158
 1754SOL    HW216899   3.508   0.463   1.541  2.9624  0.3303  0.0486
 1755SOL     OW16900   1.555   2.661   7.750  0.0884  0.1436  0.1163
 1755SOL    HW116901   1.614   2.711   7.807  0.0874  0.2075  0.0603
 1755SOL    HW216902   1.479   2.677   7.806 -0.4991 -0.5970 -0.4711
 1756SOL     OW16903   1.079   2.044   3.499  0.6117 -0.2207 -0.5240
 1756SOL    HW116904   1.050   2.079   3.583  3.2120  0.5373  0.0615
 1756SOL    HW216905   1.160   2.093   3.485 -0.3156  1.4991  0.2134
 1757SOL     OW16906   1.508   2.934   8.436 -0.1597  0.2997 -0.1691
 1757SOL    HW116907   1.495   3.013   8.489 -0.8793 -0.7884  1.2791
 1757SOL    HW216908   1.602   2.940   8.420 -0.2871 -0.7626 -1.3579
 1758SOL     OW16909   2.133   3.726   6.178 -0.0343 -0.4467 -0.1921
 1758SOL    HW116910   2.106   3.696   6.265  1.2473  1.7346  0.9458
 1758SOL    HW216911   2.071   3.792   6.146  0.6934  0.3150 -0.0083
 1759SOL     OW16912   2.262   2.607  13.495  0.4780 -0.1211 -0.8077
 1759SOL    HW116913   2.220   2.608  13.409  2.5138 -0.6486 -1.8031
 1759SOL    HW216914   2.242   2.700  13.504 -0.5220 -0.1862 -2.3400
 1760SOL     OW16915   3.573   1.627   7.504  0.3385  0.0406 -0.7434
 1760SOL    HW116916   3.518   1.630   7.582  2.0640  1.0391  0.4349
 1760SOL    HW216917   3.514   1.589   7.439  0.0138 -0.3902 -0.1981
 1761SOL     OW16918   1.361   3.063  13.061  0.8730 -0.2551 -0.2247
 1761SOL    HW116919   1.348   3.053  13.155  0.7400 -0.5074 -0.2684
 1761SOL    HW216920   1.405   2.979  13.045 -0.8002 -1.2654  0.3763
 1762SOL     OW16921   3.401   0.378   8.864  0.6219 -0.2354 -0.1428
 1762SOL    HW116922   3.407   0.390   8.959 -4.0372 -0.1628  0.1798
 1762SOL    HW216923   3.462   0.443   8.832 -0.6948  0.4775 -1.2003
 1763SOL     OW16924   1.465   0.569  13.285 -0.0014 -0.1870 -0.4489
 1763SOL    HW116925   1.431   0.534  13.368 -0.4789  0.8534 -0.2007
 1763SOL    HW216926   1.404   0.643  13.285  0.1737 -0.0618  2.9463
 1764SOL     OW16927   2.107   0.801  15.015 -0.9664  0.7310 -0.3057
 1764SOL    HW116928   2.161   0.739  15.064 -0.4533  0.7657 -0.8291
 1764SOL    HW216929   2.016   0.773  15.006 -1.1052  0.6781  1.1405
 1765SOL     OW16930   1.080   2.427   1.408 -0.1598 -0.5615 -0.7058
 1765SOL    HW116931   1.093   2.342   1.365  0.9842 -0.6912 -0.1279
 1765SOL    HW216932   0.999   2.451   1.364  0.5685 -0.3314 -1.9180
 1766SOL     OW16933   1.012   1.507  14.932 -0.0441 -0.5991  0.1636
 1766SOL    HW116934   0.980   1.445  14.997 -2.3405  1.7125  1.2129
 1766SOL    HW216935   0.951   1.490  14.861 -0.4575  3.1986 -0.3776
 1767SOL     OW16936   0.993   2.728   3.802 -0.4720 -0.2796 -0.0966
 1767SOL    HW116937   1.032   2.649   3.839  1.0673  0.3432 -0.3786
 1767SOL    HW216938   1.048   2.746   3.726 -1.4563 -2.8752 -1.4370
 1768SOL     OW16939   1.102   4.667   6.267  0.0409  0.3764 -0.0188
 1768SOL    HW116940   1.019   4.678   6.313 -0.9336 -2.0530 -1.1722
 1768SOL    HW216941   1.123   0.020   6.242 -1.1620 -0.1645 -3.0522
 1769SOL     OW16942   1.714   1.362   2.555  0.6560 -0.0782 -0.7624
 1769SOL    HW116943   1.774   1.413   2.609 -0.5923 -0.4112  0.9233
 1769SOL    HW216944   1.769   1.289   2.527 -1.1682 -1.2968 -1.2085
 1770SOL     OW16945   0.176   3.874   3.023  0.5599 -0.4483  0.2270
 1770SOL    HW116946   0.192   3.968   3.037 -1.3318 -0.1150  0.1037
 1770SOL    HW216947   0.262   3.839   2.999  1.0159 -0.0413  1.2598
 1771SOL     OW16948   2.000   3.612   4.306 -0.0957  0.0047 -0.1729
 1771SOL    HW116949   1.955   3.693   4.282 -0.2290  0.3099  1.1321
 1771SOL    HW216950   1.940   3.560   4.360  1.5181 -0.9159  0.7388
 1772SOL     OW16951   3.720   0.845   9.369  0.7182 -0.3721  0.1034
 1772SOL    HW116952   3.771   0.790   9.309  4.1749  0.6909  2.0774
 1772SOL    HW216953   3.724   0.798   9.452 -0.2546  2.4453  1.7108
 1773SOL     OW16954   3.749   1.965   4.859 -0.2028  0.3019  0.3551
 1773SOL    HW116955   3.835   2.006   4.869 -0.0194  0.2138 -0.9068
 1773SOL    HW216956   3.687   2.036   4.844  1.3131  1.4569 -0.4586
 1774SOL     OW16957   4.136   2.329   9.164  0.3722  0.4183  0.0291
 1774SOL    HW116958   4.139   2.336   9.259  1.3147 -1.0770  0.1125
 1774SOL    HW216959   4.050   2.370   9.149  0.6889  1.0233 -0.1538
 1775SOL     OW16960   3.168   4.678   9.905  0.4831  0.1143 -0.7380
 1775SOL    HW116961   3.173   0.016   9.965  0.5479  0.9368 -1.7759
 1775SOL    HW216962   3.258   4.647   9.898  0.7622  0.3210  1.6573
 1776SOL     OW16963   3.244   1.102   1.885 -0.0121  0.4040  0.1372
 1776SOL    HW116964   3.211   1.191   1.869 -1.7832 -0.1107  0.9880
 1776SOL    HW216965   3.289   1.109   1.969  0.6893 -1.1342 -0.1070
 1777SOL     OW16966   0.876   2.171   0.826  0.0246  0.8948 -0.2075
 1777SOL    HW116967   0.930   2.224   0.767  0.8351  0.7261  0.3677
 1777SOL    HW216968   0.791   2.179   0.783 -0.2201  1.5090  0.4014
 1778SOL     OW16969   3.125   3.586   1.444  0.0616 -0.4683 -0.1171
 1778SOL    HW116970   3.167   3.520   1.500 -0.8266 -0.1185  0.9612
 1778SOL    HW216971   3.051   3.598   1.504  0.2609  4.3044 -0.8141
 1779SOL     OW16972   3.327   0.891   6.156  0.0904  0.0527 -0.0496
 1779SOL    HW116973   3.317   0.939   6.074  1.7080 -0.0743 -0.3205
 1779SOL    HW216974   3.403   0.836   6.138  0.5016 -0.1190  2.2740
 1780SOL     OW16975   0.751   3.152   3.107 -0.5437 -0.2824  0.6736
 1780SOL    HW116976   0.729   3.141   3.200  2.5717 -1.2484  1.3008
 1780SOL    HW216977   0.698   3.080   3.070  0.3804  0.8055 -2.7642
 1781SOL     OW16978   4.463   3.156  17.512  0.1274  0.2938  0.0059
 1781SOL    HW116979   4.424   3.244  17.517 -2.1696 -0.8165  1.6654
 1781SOL    HW216980   4.395   3.098  17.477  0.0607  0.8980 -0.8739
 1782SOL     OW16981   0.362   3.950   3.959 -0.2066 -0.3166  0.0653
 1782SOL    HW116982   0.448   3.928   3.994 -0.4497 -2.7573 -0.8989
 1782SOL    HW216983   0.336   4.010   4.029  2.3938  3.7059 -2.4069
 1783SOL     OW16984   2.892   3.089   4.547 -0.4000 -0.5163  0.3674
 1783SOL    HW116985   2.812   3.056   4.504 -1.6193  1.2031  1.3279
 1783SOL    HW216986   2.886   3.055   4.636 -2.0450 -1.8948 -0.2651
 1784SOL     OW16987   2.269   4.404   3.567 -0.1415 -0.2326 -0.2660
 1784SOL    HW116988   2.345   4.383   3.513 -0.9889  0.5518 -1.7627
 1784SOL    HW216989   2.255   4.496   3.546  0.4882  0.0939  0.7434
 1785SOL     OW16990   2.635   3.651   9.298 -0.6120 -0.0716 -0.3766
 1785SOL    HW116991   2.689   3.724   9.266 -0.0249 -1.7342 -3.1578
 1785SOL    HW216992   2.636   3.613   9.210  0.7196 -2.4622  0.6864
 1786SOL     OW16993   1.178   3.438   0.423 -0.1669  0.0312 -0.2069
 1786SOL    HW116994   1.089   3.472   0.430 -0.0049  0.5211 -0.4975
 1786SOL    HW216995   1.224   3.498   0.482  1.1979 -1.3322  0.1231
 1787SOL     OW16996   1.548   0.936   6.074 -0.5938 -0.0649  0.1422
 1787SOL    HW116997   1.606   1.011   6.091  0.7990 -0.9316 -0.8261
 1787SOL    HW216998   1.609   0.871   6.108 -0.3256 -0.2490 -0.7176
 1788SOL     OW16999   0.135   3.681   8.474  0.4433  0.6160  0.1846
 1788SOL    HW117000   0.181   3.760   8.503 -2.3594  2.2011  0.3058
 1788SOL    HW217001   0.041   3.698   8.485  0.5451  1.7140 -0.6947
 1789SOL     OW17002   2.169   4.255   4.346  0.1453 -0.5053  0.0293
 1789SOL    HW117003   2.222   4.185   4.307 -0.4909 -0.0817 -1.6022
 1789SOL    HW217004   2.091   4.208   4.376 -0.3803 -0.7283 -1.7041
 1790SOL     OW17005   0.739   2.641  12.168  0.4380 -1.5160 -0.1743
 1790SOL    HW117006   0.814   2.656  12.111 -0.0624  0.3825 -0.3498
 1790SOL    HW217007   0.763   2.702  12.238 -2.0652  0.2334 -0.8596
 1791SOL     OW17008   0.614   3.306  12.785 -0.3450  0.4386 -0.3570
 1791SOL    HW117009   0.626   3.212  12.799  1.0539  0.5531 -0.7105
 1791SOL    HW217010   0.665   3.345  12.856 -0.6338 -0.5441  0.3844
 1792SOL     OW17011   4.638   0.621   8.044  0.6250 -0.2350  0.3638
 1792SOL    HW117012   4.586   0.543   8.026  0.6422  0.3177 -2.0326
 1792SOL    HW217013   4.647   0.620   8.139 -0.2519  0.5585  0.4614
 1793SOL     OW17014   3.456   2.275   2.528 -0.2430 -0.1092  0.2356
 1793SOL    HW117015   3.454   2.266   2.623  0.9185 -0.2225  0.2469
 1793SOL    HW217016   3.419   2.191   2.503 -0.1784 -0.1250  0.1921
 1794SOL     OW17017   3.917   4.278  11.401  0.3769 -0.0400  0.3029
 1794SOL    HW117018   3.895   4.197  11.447  0.2409 -1.2204 -1.8694
 1794SOL    HW217019   3.989   4.303  11.460 -1.1622  0.5288  1.9474
 1795SOL     OW17020   3.763   2.783   0.881  0.3536 -0.3216  0.8391
 1795SOL    HW117021   3.763   2.874   0.908  0.0373 -0.4378  1.2207
 1795SOL    HW217022   3.835   2.748   0.933  0.8661 -3.1599 -1.7561
 1796SOL     OW17023   2.520   3.766   9.599  0.3966 -0.2028 -0.0424
 1796SOL    HW117024   2.491   3.736   9.513 -1.1354  3.3750 -0.7883
 1796SOL    HW217025   2.454   3.732   9.660  1.0002  1.0878  1.3346
 1797SOL     OW17026   3.658   0.296   3.808 -0.3676  0.2010 -0.5563
 1797SOL    HW117027   3.634   0.203   3.816  0.1008 -0.0275 -1.7177
 1797SOL    HW217028   3.611   0.343   3.876 -0.3917 -2.4890  1.2730
 1798SOL     OW17029   2.991   4.035   9.957 -0.0980 -0.2861  0.4605
 1798SOL    HW117030   2.972   4.099  10.026 -1.5941  0.0416 -0.2427
 1798SOL    HW217031   3.068   3.994   9.996 -0.9502 -0.7394  1.6628
 1799SOL     OW17032   2.862   0.021   3.164  0.5964 -0.0565 -0.4648
 1799SOL    HW117033   2.940   0.077   3.163  0.2484  0.4403  0.1193
 1799SOL    HW217034   2.852   0.002   3.071 -1.8430 -0.3982 -0.1260
 1800SOL     OW17035   1.103   2.891   6.718 -0.2313 -0.6509  0.1440
 1800SOL    HW117036   1.096   2.979   6.680  0.7294 -0.8773 -0.5940
 1800SOL    HW217037   1.018   2.881   6.760 -0.5970  0.5291 -0.3231
 1801SOL     OW17038   1.760   4.657   0.493  0.2076  0.9006 -0.0571
 1801SOL    HW117039   1.812   4.728   0.528  1.3607 -0.1549  0.3690
 1801SOL    HW217040   1.801   4.636   0.409  0.0126  1.8781 -0.3912
 1802SOL     OW17041   2.394   2.171  17.237 -0.0958  0.3110  0.0451
 1802SOL    HW117042   2.407   2.087  17.280  1.2277 -0.0892 -1.1115
 1802SOL    HW217043   2.362   2.219  17.314 -0.3608  0.7178 -0.3162
 1803SOL     OW17044   2.167   4.666   0.494  0.1097 -0.4486 -0.0404
 1803SOL    HW117045   2.203   4.727   0.430  0.6424 -1.4386 -0.6733
 1803SOL    HW217046   2.104   4.730   0.528  0.5634 -0.8559  1.5682
 1804SOL     OW17047   1.214   2.160   8.863 -0.6629 -1.0155  0.2285
 1804SOL    HW117048   1.301   2.152   8.900 -1.0429  0.9205  1.5406
 1804SOL    HW217049   1.157   2.167   8.940 -0.2055  2.6718  0.2118
 1805SOL     OW17050   3.593   3.828   7.787 -0.3090  0.1260 -0.4077
 1805SOL    HW117051   3.572   3.749   7.836  0.3269 -0.7070 -1.4840
 1805SOL    HW217052   3.679   3.805   7.754  0.4538  2.5168 -0.1331
 1806SOL     OW17053   1.257   1.966  14.877  0.0937 -0.0636 -0.0089
 1806SOL    HW117054   1.194   1.894  14.877  1.1001 -0.9541  1.5536
 1806SOL    HW217055   1.208   2.034  14.923  2.6193  0.7830  1.4327
 1807SOL     OW17056   4.153   2.743  15.474  0.6159  0.3606 -0.1686
 1807SOL    HW117057   4.157   2.747  15.569  1.4800  2.7728 -0.3131
 1807SOL    HW217058   4.242   2.770  15.450  0.3823  0.5383 -0.8466
 1808SOL     OW17059   3.443   2.787   7.284  0.3837  0.2663 -0.1260
 1808SOL    HW117060   3.355   2.751   7.296 -0.9831  3.5879 -0.1134
 1808SOL    HW217061   3.429   2.858   7.222  1.7695  0.0947 -0.6240
 1809SOL     OW17062   4.255   4.656   3.978  0.0624 -0.4032 -0.4375
 1809SOL    HW117063   4.227   4.701   3.898  0.0033 -1.9770 -1.2903
 1809SOL    HW217064   4.186   4.691   4.035  0.1073  1.5193 -1.5477
 1810SOL     OW17065   2.171   2.790   8.311 -0.3776 -0.2452 -0.0082
 1810SOL    HW117066   2.196   2.800   8.220 -1.1460 -0.3604 -0.2330
 1810SOL    HW217067   2.185   2.696   8.324  0.5647 -0.1716 -0.5098
 1811SOL     OW17068   0.195   1.167   7.876  0.2679 -0.1344 -0.1659
 1811SOL    HW117069   0.252   1.090   7.867 -0.5527 -0.7845  0.1823
 1811SOL    HW217070   0.128   1.142   7.812  1.1367 -0.3388 -0.9959
 1812SOL     OW17071   3.058   2.855   0.548 -0.4593 -0.1389 -0.1491
 1812SOL    HW117072   3.010   2.936   0.567 -0.1355  0.2965 -1.1728
 1812SOL    HW217073   3.147   2.890   0.553 -0.6434  0.6529 -2.4606
 1813SOL     OW17074   1.096   1.001   2.968  0.4075  0.2316 -0.2345
 1813SOL    HW117075   1.076   0.912   2.939 -0.4729 -0.4356  2.4599
 1813SOL    HW217076   1.191   0.990   2.973  0.6761  1.9668 -1.2562
 1814SOL     OW17077   3.198   1.862   6.763  0.5034  0.3959  0.0665
 1814SOL    HW117078   3.121   1.834   6.812  0.7965  0.5259  0.6044
 1814SOL    HW217079   3.231   1.786   6.715  1.0229 -0.6501  2.0531
 1815SOL     OW17080   0.926   2.181   3.965 -0.1021  0.4595 -0.1154
 1815SOL    HW117081   0.875   2.210   3.889 -1.9470 -1.5244  0.3749
 1815SOL    HW217082   0.999   2.243   3.953 -1.5494  1.8974 -1.6005
 1816SOL     OW17083   3.814   1.391   5.315 -0.1927  0.2744  0.6906
 1816SOL    HW117084   3.879   1.421   5.379 -0.9507  0.1979  1.4964
 1816SOL    HW217085   3.751   1.340   5.365  0.5667  0.4365  1.8198
 1817SOL     OW17086   2.387   0.145   8.296 -0.2768  0.0586 -0.0038
 1817SOL    HW117087   2.405   0.074   8.234 -0.2285  1.2051 -1.3129
 1817SOL    HW217088   2.355   0.215   8.238  0.5663 -0.7371 -1.4254
 1818SOL     OW17089   1.142   2.986   1.900 -0.6059  0.3831 -0.9923
 1818SOL    HW117090   1.095   2.963   1.980  0.2533 -0.8087 -0.8308
 1818SOL    HW217091   1.133   2.906   1.847  2.4992 -0.3090 -0.4813
 1819SOL     OW17092   0.079   1.894   0.973  0.0380  0.4997  0.7305
 1819SOL    HW117093   0.079   1.799   0.984 -0.8245  0.2730 -1.2716
 1819SOL    HW217094   0.102   1.934   1.057  1.4781  2.4008 -0.5642
 1820SOL     OW17095   3.583   3.442   3.574  0.3844  0.0304 -0.2538
 1820SOL    HW117096   3.670   3.409   3.599  0.3343 -0.4427 -0.6922
 1820SOL    HW217097   3.602   3.514   3.514  0.3727 -0.1603 -0.4865
 1821SOL     OW17098   1.447   2.662   5.798 -0.4108 -0.6336  0.2391
 1821SOL    HW117099   1.403   2.744   5.819 -0.7234 -0.7366 -0.0224
 1821SOL    HW217100   1.447   2.663   5.703  0.2017  1.1243  0.2760
 1822SOL     OW17101   3.364   0.973   9.498 -0.8858  0.5353 -0.1480
 1822SOL    HW117102   3.426   1.046   9.495  2.2211 -2.1621 -1.5867
 1822SOL    HW217103   3.284   1.021   9.521 -1.5428 -0.8744  0.5704
 1823SOL     OW17104   1.175   3.620  14.379 -0.3293 -0.0867 -0.3895
 1823SOL    HW117105   1.115   3.552  14.410  0.1522  0.3701  1.5621
 1823SOL    HW217106   1.124   3.654  14.306 -1.0362 -1.5822 -0.6036
 1824SOL     OW17107   4.299   0.141   6.718 -0.1182 -0.0053 -0.4159
 1824SOL    HW117108   4.247   0.094   6.653 -0.0077 -0.4485 -0.1793
 1824SOL    HW217109   4.359   0.184   6.657  1.6139  1.6433  2.4391
 1825SOL     OW17110   1.377   2.766   0.674  0.6339  0.3374  0.2627
 1825SOL    HW117111   1.282   2.758   0.684  0.5842  1.3455  0.6429
 1825SOL    HW217112   1.384   2.712   0.596 -1.1309  1.0587 -0.4072
 1826SOL     OW17113   4.393   0.151   6.991  0.3083 -0.4188  0.4959
 1826SOL    HW117114   4.359   0.140   6.902 -0.7817 -3.1464  1.2556
 1826SOL    HW217115   4.319   0.193   7.034 -0.5174 -1.0337 -0.3062
 1827SOL     OW17116   2.845   0.286   2.363  0.2802 -0.1787  0.1490
 1827SOL    HW117117   2.800   0.259   2.283  1.1362  0.7849 -0.6510
 1827SOL    HW217118   2.863   0.208   2.415 -3.2578  0.3390  2.2057
 1828SOL     OW17119   0.516   1.566  12.538  0.1738 -0.5072  0.1759
 1828SOL    HW117120   0.458   1.545  12.465  0.4327 -1.0499  0.1278
 1828SOL    HW217121   0.601   1.572  12.493 -0.2991  3.1010 -0.2182
 1829SOL     OW17122   1.923   4.068   0.935 -0.1091  0.5382 -0.3659
 1829SOL    HW117123   1.912   4.048   0.842 -0.8066  0.9982 -0.3811
 1829SOL    HW217124   1.932   3.978   0.968 -0.3074  0.6365 -0.0435
 1830SOL     OW17125   1.696   0.403  17.048  0.3459 -0.1841  0.4948
 1830SOL    HW117126   1.782   0.363  17.054 -0.9849 -3.0188  0.4028
 1830SOL    HW217127   1.710   0.484  17.097  0.2211 -0.2701  0.6708
 1831SOL     OW17128   4.656   3.493   0.189 -1.2987  0.1440 -0.0751
 1831SOL    HW117129   4.588   3.431   0.163 -1.9637  1.8652 -2.4129
 1831SOL    HW217130   4.685   3.523   0.103 -1.6671 -0.2453 -0.3325
 1832SOL     OW17131   0.658   3.569   5.364  0.3363  0.0142 -0.0055
 1832SOL    HW117132   0.720   3.636   5.394 -0.0550 -0.2219  1.3359
 1832SOL    HW217133   0.714   3.491   5.373 -0.1771 -0.2708  0.7670
 1833SOL     OW17134   0.462   0.744   5.385  0.4955 -0.2412  0.4358
 1833SOL    HW117135   0.393   0.799   5.348  1.0411  0.8415  1.0201
 1833SOL    HW217136   0.539   0.784   5.345  1.8923  0.3287  3.7128
 1834SOL     OW17137   1.545   3.873  17.454  0.6723  0.6705  0.3012
 1834SOL    HW117138   1.583   3.908  17.534 -0.7501  3.6124 -0.2970
 1834SOL    HW217139   1.530   3.957  17.410  1.0288  0.0631 -0.9855
 1835SOL     OW17140   2.362   4.438   8.470  0.3985  0.3526  0.4537
 1835SOL    HW117141   2.409   4.436   8.553 -0.4539  0.6065  0.9445
 1835SOL    HW217142   2.300   4.509   8.485  0.4820  0.4277  0.4447
 1836SOL     OW17143   1.210   3.894   3.465  0.5979  0.1526  0.3026
 1836SOL    HW117144   1.222   3.800   3.481 -2.1399  0.1413  2.2046
 1836SOL    HW217145   1.115   3.905   3.472  0.4476 -1.2476  0.4655
 1837SOL     OW17146   4.616   2.225  11.338  0.1757  0.3280 -0.0664
 1837SOL    HW117147   4.651   2.177  11.263  0.0056 -1.8948  1.2728
 1837SOL    HW217148   4.651   2.313  11.323  1.7599 -0.2732  0.0883
 1838SOL     OW17149   3.930   0.087   5.300  0.3855 -0.7219  0.0482
 1838SOL    HW117150   3.959   0.150   5.367  0.3292 -0.3474 -0.2751
 1838SOL    HW217151   3.942   0.015   5.362  0.2217  0.0484  0.9787
 1839SOL     OW17152   4.495   3.635   7.286 -0.3843 -0.1096  0.1237
 1839SOL    HW117153   4.474   3.673   7.201 -0.6698 -0.7593 -0.0924
 1839SOL    HW217154   4.403   3.634   7.311 -0.5906 -0.9305 -0.6659
 1840SOL     OW17155   2.638   2.349   6.688  0.0896  0.0536  0.0678
 1840SOL    HW117156   2.598   2.279   6.739 -0.2637  0.9281  0.9688
 1840SOL    HW217157   2.730   2.342   6.714 -0.1375 -1.9026  0.3436
 1841SOL     OW17158   1.354   3.096   8.250  0.2879 -0.5534  0.5312
 1841SOL    HW117159   1.264   3.085   8.281  0.2499 -0.8953  0.2977
 1841SOL    HW217160   1.400   3.037   8.310 -1.2263 -2.0882  0.1848
 1842SOL     OW17161   2.497   1.357   7.638  0.3944 -0.0685 -0.1957
 1842SOL    HW117162   2.505   1.276   7.588  0.7456  0.3571 -0.8202
 1842SOL    HW217163   2.459   1.406   7.566 -0.9952  0.3014  0.7779
 1843SOL     OW17164   2.988   1.854   4.839  0.0997 -0.6823  0.3665
 1843SOL    HW117165   3.074   1.827   4.807  0.6941  2.0059 -0.3116
 1843SOL    HW217166   2.940   1.771   4.834 -0.0054 -0.6925  1.5045
 1844SOL     OW17167   1.085   4.112  11.019  0.7368  0.5323  0.2207
 1844SOL    HW117168   1.059   4.028  10.983 -1.8166  1.6646 -0.5711
 1844SOL    HW217169   1.174   4.092  11.048 -0.3918 -1.9255  1.9794
 1845SOL     OW17170   1.466   2.309   1.819 -0.8996  0.0832 -0.2465
 1845SOL    HW117171   1.545   2.314   1.874 -0.8076 -0.5271 -0.3223
 1845SOL    HW217172   1.488   2.377   1.756 -0.6604  0.7390  0.5392
 1846SOL     OW17173   3.761   2.396  14.124 -0.7360  0.3920 -0.3961
 1846SOL    HW117174   3.728   2.479  14.157 -1.4543 -0.9843  2.3914
 1846SOL    HW217175   3.688   2.376  14.065 -0.1290  2.3838 -1.8148
 1847SOL     OW17176   1.927   2.524   3.517 -0.2312 -0.4693  0.4609
 1847SOL    HW117177   2.008   2.560   3.552 -0.4465  1.1929 -0.7957
 1847SOL    HW217178   1.955   2.487   3.433 -0.9559 -0.9426  0.4316
 1848SOL     OW17179   2.895   2.459   4.866  0.6946  0.8411 -0.2559
 1848SOL    HW117180   2.865   2.549   4.854 -0.5952  0.7076  1.9029
 1848SOL    HW217181   2.871   2.453   4.959 -0.4083  1.7341 -0.4830
 1849SOL     OW17182   0.489   4.236  12.613 -0.2145  0.1964 -0.5611
 1849SOL    HW117183   0.429   4.258  12.542 -0.7954 -0.2032 -0.1907
 1849SOL    HW217184   0.492   4.317  12.664  2.1749 -0.3108  0.1053
 1850SOL     OW17185   3.664   0.677   2.493 -0.0760  0.1750 -0.4215
 1850SOL    HW117186   3.620   0.643   2.570  0.6990 -0.7243 -0.3840
 1850SOL    HW217187   3.752   0.660   2.527 -0.9427 -1.7465  0.8253
 1851SOL     OW17188   2.411   0.098  15.989 -0.4868  0.4073  0.1883
 1851SOL    HW117189   2.396   0.045  15.910  0.0839  0.2031  0.2136
 1851SOL    HW217190   2.323   0.132  15.999 -1.6509 -2.1104 -1.3512
 1852SOL     OW17191   2.567   1.633   8.352 -0.3826  0.6911 -0.2768
 1852SOL    HW117192   2.475   1.611   8.363  0.0755 -1.2621 -0.3229
 1852SOL    HW217193   2.564   1.687   8.273  0.0223 -0.3436 -1.0058
 1853SOL     OW17194   1.779   2.475   9.584  0.2158  0.0330 -0.0048
 1853SOL    HW117195   1.699   2.449   9.538  1.3814 -3.2003 -0.1671
 1853SOL    HW217196   1.823   2.391   9.576 -0.8950 -0.4539 -1.0422
 1854SOL     OW17197   2.200   3.414   4.502  0.2082 -0.1622  0.0545
 1854SOL    HW117198   2.221   3.479   4.435 -2.3132 -0.0085 -0.5681
 1854SOL    HW217199   2.134   3.459   4.555  0.4721  0.9420 -0.5501
 1855SOL     OW17200   2.190   2.057   4.950 -0.7124 -0.3084 -0.5259
 1855SOL    HW117201   2.134   1.997   5.001  0.4243 -0.9532 -0.0234
 1855SOL    HW217202   2.267   2.070   5.006 -0.6290  1.2974 -1.0253
 1856SOL     OW17203   3.062   0.633   0.174 -0.2862  0.2076 -0.0278
 1856SOL    HW117204   3.076   0.573   0.100  0.3209 -0.4677  0.6382
 1856SOL    HW217205   3.102   0.590   0.249 -2.3635 -2.4813 -0.4429
 1857SOL     OW17206   0.077   2.340   8.556 -0.6896  0.3638 -0.2929
 1857SOL    HW117207   0.047   2.276   8.490  0.4354 -0.6053  0.1329
 1857SOL    HW217208   0.019   2.413   8.535  0.4723  1.4816  0.4153
 1858SOL     OW17209   3.273   0.068   5.906  0.1829  0.3320 -0.3880
 1858SOL    HW117210   3.329   0.012   5.960  1.6068 -0.1688 -2.3984
 1858SOL    HW217211   3.280   0.153   5.951  0.0709 -0.3015  0.8250
 1859SOL     OW17212   1.916   0.986  15.187 -0.0029  0.2368 -0.2910
 1859SOL    HW117213   1.956   1.022  15.108  0.2733  0.6084  0.0161
 1859SOL    HW217214   1.946   0.897  15.202 -0.2488  0.0678 -0.8240
 1860SOL     OW17215   2.182   0.457   2.464 -0.7139  0.4428  0.1035
 1860SOL    HW117216   2.188   0.531   2.524  2.0169  0.5393 -0.2905
 1860SOL    HW217217   2.090   0.456   2.437 -0.5525  1.0568 -0.4718
 1861SOL     OW17218   4.603   3.416   6.809 -0.1232 -0.0306 -0.1766
 1861SOL    HW117219   4.670   3.481   6.829 -1.5223  0.8226  1.7354
 1861SOL    HW217220   4.567   3.450   6.727 -0.6855  0.4903  0.2876
 1862SOL     OW17221   1.960   1.082   0.850 -0.0864  0.1042  0.2438
 1862SOL    HW117222   1.894   1.135   0.895 -0.9831 -0.4877 -0.3676
 1862SOL    HW217223   1.978   1.021   0.922 -2.4982 -1.8003 -0.7716
 1863SOL     OW17224   4.660   2.280  11.613  0.1867  0.2213 -0.1687
 1863SOL    HW117225   4.699   2.200  11.647  0.5768  0.3244 -0.3715
 1863SOL    HW217226   4.642   2.263  11.520  0.4360  0.9818 -0.3559
 1864SOL     OW17227   3.810   0.631   3.339  0.2068  0.2047 -0.3798
 1864SOL    HW117228   3.716   0.615   3.342  0.2629 -0.2171 -0.9515
 1864SOL    HW217229   3.814   0.720   3.374 -2.2788 -0.1544  0.8131
 1865SOL     OW17230   2.484   0.873   7.613  0.4672 -0.2088  0.0069
 1865SOL    HW117231   2.466   0.793   7.565  1.1701 -0.1795 -0.3067
 1865SOL    HW217232   2.470   0.843   7.703 -1.4277 -0.6572 -0.4517
 1866SOL     OW17233   1.897   3.185   6.097 -0.0987 -0.2406 -0.2473
 1866SOL    HW117234   1.967   3.126   6.126  0.1501 -0.3196 -1.0306
 1866SOL    HW217235   1.886   3.155   6.007 -0.2694 -2.4079  0.4987
 1867SOL     OW17236   4.527   0.189   4.987 -0.7348 -0.3306 -0.0717
 1867SOL    HW117237   4.447   0.167   5.035 -0.0857 -0.0435  1.1565
 1867SOL    HW217238   4.568   0.103   4.982 -0.4978 -0.3454  1.9383
 1868SOL     OW17239   2.251   3.512  16.723  0.5144 -0.4735  0.3855
 1868SOL    HW117240   2.171   3.460  16.716  0.0386  0.2154  0.6826
 1868SOL    HW217241   2.218   3.560  16.799 -0.9785 -1.7269  0.5247
 1869SOL     OW17242   3.737   3.968   5.593 -0.4198  0.0223  0.7549
 1869SOL    HW117243   3.742   3.928   5.506 -1.2452  1.1909  0.1753
 1869SOL    HW217244   3.828   3.968   5.622 -0.2212  2.0253  0.1130
 1870SOL     OW17245   2.337   3.720   8.395 -0.3857 -0.0200  0.1441
 1870SOL    HW117246   2.388   3.740   8.317 -0.6498  2.7750  0.6618
 1870SOL    HW217247   2.404   3.700   8.460 -0.8466  0.2376  0.7012
 1871SOL     OW17248   3.667   3.121   8.346  0.7775 -0.1767 -0.5164
 1871SOL    HW117249   3.703   3.176   8.415  0.8440 -1.4298  0.4402
 1871SOL    HW217250   3.732   3.052   8.335  1.2656 -0.2384  2.7442
 1872SOL     OW17251   3.574   1.721   3.695 -0.6190 -0.2202 -0.1351
 1872SOL    HW117252   3.618   1.656   3.749 -0.2568  0.2283  0.1039
 1872SOL    HW217253   3.481   1.717   3.719 -0.7033 -1.2176 -0.6135
 1873SOL     OW17254   2.507   2.577   4.203  0.5944  0.0772  0.7144
 1873SOL    HW117255   2.487   2.484   4.191 -0.9622  0.7930 -2.2250
 1873SOL    HW217256   2.420   2.609   4.229  0.1590 -0.2185 -0.3658
 1874SOL     OW17257   0.607   1.798   3.376 -0.2339  0.4453 -0.3644
 1874SOL    HW117258   0.570   1.886   3.378  0.9017  0.9253 -0.6675
 1874SOL    HW217259   0.693   1.823   3.408  0.3379  0.7156 -2.1759
 1875SOL     OW17260   2.347   2.755   8.774  0.3520  0.2044  0.2708
 1875SOL    HW117261   2.431   2.793   8.799  1.2346 -1.9262  0.5298
 1875SOL    HW217262   2.383   2.727   8.690 -0.2905 -0.0848  0.0903
 1876SOL     OW17263   1.370   4.335   9.035  0.1359 -0.2234 -0.1638
 1876SOL    HW117264   1.322   4.255   9.059 -3.1653  0.8020 -3.2952
 1876SOL    HW217265   1.338   4.342   8.945 -1.6355 -2.3379  0.2997
 1877SOL     OW17266   2.775   2.247   8.236 -0.0328 -0.1065 -0.2035
 1877SOL    HW117267   2.718   2.301   8.181 -2.1192  0.5257  2.6143
 1877SOL    HW217268   2.801   2.318   8.294  0.7481 -0.9112  0.4207
 1878SOL     OW17269   1.038   1.364  11.482  0.2882  0.2104  0.0535
 1878SOL    HW117270   0.951   1.383  11.516  0.5432 -1.1387  1.4736
 1878SOL    HW217271   1.013   1.290  11.426 -0.4253 -0.4951  1.3115
 1879SOL     OW17272   1.188   3.779   7.880  0.4392 -0.2643 -0.7238
 1879SOL    HW117273   1.245   3.851   7.906  0.2704  0.0758 -1.2795
 1879SOL    HW217274   1.249   3.707   7.866 -0.2434 -1.0430  0.3219
 1880SOL     OW17275   0.393   1.949   3.730  0.1198  0.1386 -0.3494
 1880SOL    HW117276   0.387   1.994   3.814  3.1497 -0.1659  0.0540
 1880SOL    HW217277   0.326   1.887   3.759  1.6741 -1.3412  0.1257
 1881SOL     OW17278   3.872   2.743   3.405  0.1540  0.1307  0.6232
 1881SOL    HW117279   3.887   2.656   3.442  0.3647  0.6547  1.7608
 1881SOL    HW217280   3.777   2.752   3.411  0.4048  1.5565  2.3753
 1882SOL     OW17281   3.173   3.522   1.782  0.4438  0.6268 -0.5754
 1882SOL    HW117282   3.253   3.566   1.754  0.9674  0.1306  0.1764
 1882SOL    HW217283   3.104   3.575   1.740 -0.3932  0.0442  0.0657
 1883SOL     OW17284   3.016   3.246   3.587 -0.5273  0.3634  0.1285
 1883SOL    HW117285   3.089   3.222   3.530 -2.6584 -2.4418 -1.4430
 1883SOL    HW217286   3.040   3.202   3.668 -0.1696 -2.4231 -1.4745
 1884SOL     OW17287   1.384   0.691   6.885  0.0207  0.5169 -0.7849
 1884SOL    HW117288   1.318   0.735   6.938 -0.5479 -0.0094 -1.0660
 1884SOL    HW217289   1.376   0.603   6.922  0.9507  0.3419 -0.9943
 1885SOL     OW17290   0.986   3.628   3.321 -0.2519  0.0680  0.0599
 1885SOL    HW117291   0.948   3.548   3.285 -0.1130 -1.4004  3.2379
 1885SOL    HW217292   0.966   3.627   3.414 -3.5571 -0.6922 -0.6692
 1886SOL     OW17293   2.915   1.759   2.223 -0.0514 -0.1372 -0.4402
 1886SOL    HW117294   2.970   1.770   2.146 -3.0423 -0.9559 -2.6996
 1886SOL    HW217295   2.977   1.722   2.285 -0.0432  1.9269  0.7979
 1887SOL     OW17296   3.412   1.339  10.009 -0.4809  0.2784 -0.4695
 1887SOL    HW117297   3.442   1.258   9.969 -1.6108  0.6221 -2.0473
 1887SOL    HW217298   3.316   1.347  10.001 -0.3971  1.0666 -0.7671
 1888SOL     OW17299   1.170   2.780   2.355 -0.0580 -0.7960 -0.8060
 1888SOL    HW117300   1.121   2.729   2.419 -0.2595 -2.2032 -2.0741
 1888SOL    HW217301   1.257   2.785   2.395 -0.3734 -1.5524 -0.0157
 1889SOL     OW17302   4.581   1.694   7.266  0.2599 -0.0196  0.1722
 1889SOL    HW117303   4.499   1.644   7.265 -1.2904  2.5333 -2.7057
 1889SOL    HW217304   4.631   1.662   7.341 -0.6327  1.2553  1.3022
 1890SOL     OW17305   0.700   2.018   8.238 -0.4581 -0.3494 -0.1387
 1890SOL    HW117306   0.644   2.027   8.315  0.8364  2.1319  0.5034
 1890SOL    HW217307   0.643   2.061   8.175 -1.3163 -1.2879 -0.0073
 1891SOL     OW17308   2.574   0.229   3.647  0.1794  0.5979 -0.9465
 1891SOL    HW117309   2.541   0.194   3.565 -2.5940 -0.2674  0.5543
 1891SOL    HW217310   2.540   0.172   3.716  0.1073  1.5619 -0.1789
 1892SOL     OW17311   4.711   4.239   6.287 -0.6295 -0.1818  0.1490
 1892SOL    HW117312   0.043   4.256   6.352 -1.3609 -1.3245  1.2124
 1892SOL    HW217313   4.660   4.320   6.282  1.9532  1.5470  1.5160
 1893SOL     OW17314   2.720   0.833  11.358  0.1682  0.0566  0.1799
 1893SOL    HW117315   2.749   0.804  11.445 -1.6095 -0.0587  0.7454
 1893SOL    HW217316   2.666   0.909  11.382  0.4399 -0.4782  2.5459
 1894SOL     OW17317   2.946   2.154   5.199 -0.3850 -0.3938 -0.6557
 1894SOL    HW117318   3.014   2.185   5.138 -0.3968  2.2172  0.6869
 1894SOL    HW217319   2.863   2.159   5.152 -1.0336  0.7155  0.6161
 1895SOL     OW17320   2.590   2.245   4.681 -0.2895  0.1444 -0.8637
 1895SOL    HW117321   2.538   2.192   4.742 -0.5450  2.9948  1.3819
 1895SOL    HW217322   2.540   2.252   4.599 -1.2436 -1.2892 -0.4158
 1896SOL     OW17323   3.342   4.341   9.845 -0.7650 -0.0712  0.0642
 1896SOL    HW117324   3.427   4.328   9.886 -1.3123  0.8734  1.4954
 1896SOL    HW217325   3.354   4.428   9.808  0.8682 -0.3487 -0.0435
 1897SOL     OW17326   4.114   2.173   6.567  0.4524 -0.0678 -0.1447
 1897SOL    HW117327   4.155   2.250   6.608  0.8184  0.3618 -1.3066
 1897SOL    HW217328   4.021   2.180   6.587  0.5784  0.3010  0.3161
 1898SOL     OW17329   4.127   3.954  12.083 -0.1436  0.1215 -1.0555
 1898SOL    HW117330   4.215   3.990  12.079 -0.7246  1.8336  1.4633
 1898SOL    HW217331   4.093   3.989  12.000  0.9543 -0.6731 -1.8357
 1899SOL     OW17332   0.153   0.495   5.038 -0.6369  0.2299 -0.6068
 1899SOL    HW117333   0.161   0.455   4.951  0.7370 -1.6051  0.3687
 1899SOL    HW217334   0.103   0.429   5.086  0.9177  1.7142  3.0671
 1900SOL     OW17335   0.296   2.228   4.698  0.5481  0.2731  0.1357
 1900SOL    HW117336   0.324   2.243   4.608 -1.1660  2.0148 -0.1105
 1900SOL    HW217337   0.325   2.137   4.695 -0.5482 -0.0442 -0.8602
 1901SOL     OW17338   2.548   0.659   8.842 -0.3470  0.3210  0.2885
 1901SOL    HW117339   2.623   0.610   8.874 -0.1237 -0.4300 -1.3841
 1901SOL    HW217340   2.514   0.596   8.777  2.3903 -0.4092 -0.4308
 1902SOL     OW17341   3.531   3.213  13.012  0.1537  0.5882  0.2288
 1902SOL    HW117342   3.520   3.244  13.102  0.5096  0.7678  0.2112
 1902SOL    HW217343   3.547   3.299  12.971 -0.7351  1.1948  1.1760
 1903SOL     OW17344   0.285   3.142   7.038  0.0474 -0.3568  0.3819
 1903SOL    HW117345   0.192   3.164   7.032  0.3548  0.8822  0.1686
 1903SOL    HW217346   0.328   3.228   7.038 -0.8511  0.0868  0.1265
 1904SOL     OW17347   0.550   1.491   9.116  0.0061  0.3874 -0.3223
 1904SOL    HW117348   0.531   1.403   9.150 -3.3426  2.0611  2.0695
 1904SOL    HW217349   0.599   1.529   9.189  1.1399 -0.4690 -0.6484
 1905SOL     OW17350   0.632   0.485   7.101 -0.4274 -0.0176 -0.0215
 1905SOL    HW117351   0.607   0.441   7.183  1.3115  0.4440  0.7432
 1905SOL    HW217352   0.557   0.464   7.045 -0.9267  1.7075  0.0003
 1906SOL     OW17353   4.124   4.117   0.911 -0.2000 -0.2789  0.0264
 1906SOL    HW117354   4.140   4.060   0.986  0.5772 -0.7453 -0.4962
 1906SOL    HW217355   4.190   4.185   0.927 -1.0612  0.4545  0.4703
 1907SOL     OW17356   1.232   1.328   6.822 -0.2381  0.8657 -0.0152
 1907SOL    HW117357   1.203   1.409   6.865 -0.5711 -0.7654  2.7933
 1907SOL    HW217358   1.150   1.281   6.814 -0.3210  1.3334 -1.8368
 1908SOL     OW17359   3.192   3.963   3.794 -0.3479  0.2808  0.1485
 1908SOL    HW117360   3.210   3.870   3.783 -0.6692  0.2209  0.1403
 1908SOL    HW217361   3.150   3.961   3.880 -0.9279  1.2379 -0.1117
 1909SOL     OW17362   3.285   0.303  11.890  0.5250  0.4330  0.4359
 1909SOL    HW117363   3.279   0.221  11.940  1.8827  0.2921  0.3693
 1909SOL    HW217364   3.325   0.363  11.952 -0.8144 -0.6608  2.3681
 1910SOL     OW17365   0.095   2.080   8.637  0.0278 -0.5031 -0.3402
 1910SOL    HW117366   0.058   2.076   8.549 -0.0745  1.2297 -0.3730
 1910SOL    HW217367   0.091   2.174   8.651 -0.7383 -0.4460 -0.8997
 1911SOL     OW17368   4.167   4.420   4.671  0.2276 -0.3946 -0.2446
 1911SOL    HW117369   4.149   4.508   4.705 -0.1668 -0.3188 -0.6530
 1911SOL    HW217370   4.080   4.401   4.636  0.2321  2.9698 -2.1259
 1912SOL     OW17371   4.565   2.745   6.767 -0.1193  0.4792  0.0648
 1912SOL    HW117372   4.514   2.825   6.752 -1.4434  0.0708  2.5206
 1912SOL    HW217373   4.508   2.694   6.824  0.9247 -0.6821  0.0598
 1913SOL     OW17374   4.115   3.591  13.621 -0.1636 -0.3953  1.1265
 1913SOL    HW117375   4.068   3.511  13.597  0.2454  0.1943 -1.6267
 1913SOL    HW217376   4.060   3.662  13.587 -0.5573 -1.7740 -1.0981
 1914SOL     OW17377   4.141   2.695   9.409 -0.5317 -0.1336  0.1056
 1914SOL    HW117378   4.191   2.656   9.337 -0.5487 -0.4057  0.2453
 1914SOL    HW217379   4.089   2.621   9.439  0.6048 -0.8662  0.2714
 1915SOL     OW17380   1.389   0.667   3.996 -0.5450  0.2028 -0.3280
 1915SOL    HW117381   1.411   0.610   4.070 -1.8250  0.3306  0.1607
 1915SOL    HW217382   1.305   0.702   4.027 -1.0217  0.8765 -2.4345
 1916SOL     OW17383   2.265   2.101   3.001  0.4172 -0.2754  0.6418
 1916SOL    HW117384   2.231   2.155   2.929 -0.8502 -1.7947  0.1208
 1916SOL    HW217385   2.262   2.018   2.953  1.8021  0.0811 -0.0778
 1917SOL     OW17386   3.635   0.497   2.897 -0.2500  0.2552 -0.1816
 1917SOL    HW117387   3.546   0.490   2.862 -1.0475  2.4112  1.3915
 1917SOL    HW217388   3.690   0.458   2.829 -1.4453 -2.0861  0.2298
 1918SOL     OW17389   0.092   2.288  17.310  0.0198  0.3323  0.3195
 1918SOL    HW117390   4.735   2.309  17.309 -0.0744 -0.0827  0.5000
 1918SOL    HW217391   0.087   2.218  17.245 -0.5969  0.6620  0.0035
 1919SOL     OW17392   3.235   4.178   4.498  0.2009  0.0610  0.6237
 1919SOL    HW117393   3.172   4.180   4.570 -1.5158 -1.5095 -0.8298
 1919SOL    HW217394   3.224   4.266   4.461 -0.1261 -1.1579 -2.1757
 1920SOL     OW17395   3.659   1.818   2.080  0.1235  0.4272  0.3250
 1920SOL    HW117396   3.648   1.808   1.985 -0.9069  0.6111  0.4188
 1920SOL    HW217397   3.738   1.767   2.098  0.0806  0.3445  0.2837
 1921SOL     OW17398   2.429   2.037   5.120  0.6902  0.1451  0.0945
 1921SOL    HW117399   2.468   1.986   5.048  2.7804  2.1869 -0.2390
 1921SOL    HW217400   2.496   2.022   5.187 -0.7503 -2.0915  1.0348
 1922SOL     OW17401   0.944   0.241  11.028 -0.1503 -0.0974 -0.7418
 1922SOL    HW117402   0.888   0.299  10.976 -1.9940 -1.5256 -0.3305
 1922SOL    HW217403   1.028   0.287  11.024 -1.9880  3.2567 -0.6430
 1923SOL     OW17404   4.332   3.415  17.555  0.4707  0.5794 -0.1418
 1923SOL    HW117405   4.388   3.486  17.524 -1.3867  1.4510 -1.4922
 1923SOL    HW217406   4.258   3.466  17.587  0.6776  1.3466 -0.8904
 1924SOL     OW17407   0.999   3.912   4.099 -0.3980 -0.0583  0.1928
 1924SOL    HW117408   0.928   3.949   4.046 -0.4963 -0.2435  0.1960
 1924SOL    HW217409   0.951   3.855   4.159  1.4369 -3.0323 -1.1728
 1925SOL     OW17410   1.627   3.784   7.398  0.4826  0.2250 -0.3393
 1925SOL    HW117411   1.604   3.850   7.333  1.4426 -0.2607 -1.1708
 1925SOL    HW217412   1.681   3.726   7.344  1.5768  0.9961 -0.0798
 1926SOL     OW17413   4.065   3.667   0.546  0.4484 -0.3148 -0.2293
 1926SOL    HW117414   4.013   3.745   0.565  2.3954  0.9642 -0.1948
 1926SOL    HW217415   4.140   3.694   0.495 -1.3724  0.2931 -2.5831
 1927SOL     OW17416   0.466   2.552   1.325 -0.0614 -0.0342 -0.6388
 1927SOL    HW117417   0.495   2.480   1.380 -0.9564 -0.7479 -1.1084
 1927SOL    HW217418   0.371   2.539   1.323 -0.1557  0.2214  2.1448
 1928SOL     OW17419   4.190   2.547   5.808  0.0217 -0.2032 -0.0235
 1928SOL    HW117420   4.187   2.484   5.736 -0.8848 -2.4306  1.9614
 1928SOL    HW217421   4.253   2.510   5.868 -0.1850 -3.0606 -1.5528
 1929SOL     OW17422   1.317   0.490   2.005  0.3648 -0.6953  0.4605
 1929SOL    HW117423   1.370   0.564   1.975 -3.1339  1.5376 -0.1919
 1929SOL    HW217424   1.270   0.467   1.925 -2.1186 -1.7082  2.2180
 1930SOL     OW17425   1.228   2.491  15.782 -0.0061  0.4759 -0.3710
 1930SOL    HW117426   1.193   2.408  15.815 -0.0192  0.1212 -1.2727
 1930SOL    HW217427   1.283   2.456  15.712  0.6354 -1.6868  1.1970
 1931SOL     OW17428   3.199   4.519   3.326  0.1741 -0.1688  0.6116
 1931SOL    HW117429   3.253   4.596   3.347  1.8234 -1.0055 -0.5472
 1931SOL    HW217430   3.123   4.560   3.283  1.9576  0.5705 -1.8818
 1932SOL     OW17431   3.583   1.107   7.417 -0.5769  0.1595  0.1492
 1932SOL    HW117432   3.633   1.173   7.369  0.8010 -0.9327  0.0764
 1932SOL    HW217433   3.608   1.030   7.366 -0.8507  0.6183 -0.6841
 1933SOL     OW17434   4.430   1.851   8.616 -0.3100  0.1658 -0.3370
 1933SOL    HW117435   4.367   1.800   8.667 -0.9527 -0.6716 -1.9431
 1933SOL    HW217436   4.383   1.934   8.622 -2.3526 -0.8018 -2.4548
 1934SOL     OW17437   4.345   3.866   0.852 -0.0889 -0.4738  0.7260
 1934SOL    HW117438   4.380   3.947   0.816  1.9256 -1.2002  1.0093
 1934SOL    HW217439   4.331   3.822   0.767 -1.9775  0.6275  0.4810
 1935SOL     OW17440   1.948   0.861   6.413  0.2085  0.3115  0.4600
 1935SOL    HW117441   1.893   0.917   6.468 -0.4637  0.1956 -0.1028
 1935SOL    HW217442   1.968   0.782   6.463 -0.1769  0.4893  0.8998
 1936SOL     OW17443   0.410   3.156   9.891 -0.3223 -0.1117  0.4875
 1936SOL    HW117444   0.377   3.239   9.855 -1.0817 -0.9865 -0.8323
 1936SOL    HW217445   0.421   3.173   9.985 -1.2627  0.2951  0.5287
 1937SOL     OW17446   2.089   4.518   7.445  0.0097  0.0353  0.5240
 1937SOL    HW117447   2.086   4.459   7.520 -0.1395 -1.1748 -0.4452
 1937SOL    HW217448   2.023   4.584   7.467 -0.1554  0.6051 -1.6357
 1938SOL     OW17449   0.053   4.428   2.537 -0.2932  0.0035  0.4920
 1938SOL    HW117450   4.726   4.455   2.603 -2.7710 -1.5708 -1.2397
 1938SOL    HW217451   0.134   4.422   2.588 -0.4406 -0.5522  0.6564
 1939SOL     OW17452   4.595   3.758   2.345 -0.7083  0.3105  0.4436
 1939SOL    HW117453   4.524   3.819   2.364  1.2155  2.4581  0.7313
 1939SOL    HW217454   4.674   3.807   2.367 -1.4147  2.3132 -1.4076
 1940SOL     OW17455   1.226   0.536  16.933  0.3112  0.4880 -0.2945
 1940SOL    HW117456   1.188   0.449  16.927  2.5720 -0.3964 -1.9491
 1940SOL    HW217457   1.264   0.536  17.021 -0.1069  1.3782 -0.1071
 1941SOL     OW17458   0.002   3.886  10.487 -0.1205  0.2214 -0.0411
 1941SOL    HW117459   0.010   3.793  10.510  0.1409  0.2397 -0.0601
 1941SOL    HW217460   0.039   3.876  10.400  3.2477  1.7264  1.2272
 1942SOL     OW17461   3.685   0.285   6.329  0.2381 -0.0208  0.0361
 1942SOL    HW117462   3.629   0.293   6.406  0.1218 -2.4836  0.1785
 1942SOL    HW217463   3.770   0.317   6.358  0.7254 -1.4067  0.1076
 1943SOL     OW17464   4.653   4.570   8.770  0.1891  0.6292  0.0872
 1943SOL    HW117465   4.630   4.617   8.850  2.1585  0.2413  0.8633
 1943SOL    HW217466   4.578   4.604   8.720 -0.6228 -0.1684  0.7618
 1944SOL     OW17467   2.541   2.338   5.489  0.1726 -0.1662 -0.1496
 1944SOL    HW117468   2.452   2.345   5.525  0.1788  0.5169 -0.2612
 1944SOL    HW217469   2.567   2.430   5.482  1.8107 -0.5216  1.5295
 1945SOL     OW17470   3.095   2.393   0.813  0.6515  0.1746 -0.4246
 1945SOL    HW117471   3.127   2.385   0.903 -0.4862 -0.0114 -0.0359
 1945SOL    HW217472   3.136   2.478   0.798  0.3227 -0.0805 -2.6887
 1946SOL     OW17473   0.827   0.226   7.370  0.2211  0.5448  0.0624
 1946SOL    HW117474   0.916   0.194   7.358  0.7268  1.9339  0.1456
 1946SOL    HW217475   0.774   0.167   7.316 -2.2148  1.7575  1.1018
 1947SOL     OW17476   3.147   1.302  10.830 -0.2714 -0.5779 -0.5196
 1947SOL    HW117477   3.079   1.370  10.832  0.1086 -0.0978 -3.0260
 1947SOL    HW217478   3.149   1.274  10.738  0.1225 -2.0150 -0.0809
 1948SOL     OW17479   2.626   2.122   9.188  0.1416 -0.2096 -0.0937
 1948SOL    HW117480   2.699   2.062   9.201  0.7141  1.0627  2.6266
 1948SOL    HW217481   2.556   2.083   9.241 -0.9512 -2.7193 -3.4255
 1949SOL     OW17482   4.463   2.969   7.557  0.1587  0.0239  0.3470
 1949SOL    HW117483   4.488   2.912   7.630  1.3906 -2.0990 -1.7212
 1949SOL    HW217484   4.374   2.992   7.582  0.7291  1.4112  1.1309
 1950SOL     OW17485   0.115   1.667  11.153  0.2171 -0.1180 -0.3749
 1950SOL    HW117486   0.208   1.662  11.176  0.6919  1.2874 -1.9642
 1950SOL    HW217487   0.080   1.617  11.226  0.0172  0.0932 -0.3257
 1951SOL     OW17488   4.116   3.665   2.107 -0.7943 -0.1103  0.0694
 1951SOL    HW117489   4.080   3.580   2.133  2.9704 -1.7678 -0.0553
 1951SOL    HW217490   4.117   3.722   2.184  0.6358 -2.2037  1.6041
 1952SOL     OW17491   2.410   4.308   7.946 -0.1345  0.4239 -0.5094
 1952SOL    HW117492   2.410   4.399   7.974 -0.3512 -0.1983  1.4653
 1952SOL    HW217493   2.331   4.271   7.984  0.9777  0.9039  2.2582
 1953SOL     OW17494   0.048   3.591   6.915 -0.3197 -0.2373  0.3435
 1953SOL    HW117495   0.140   3.575   6.892  0.1424  1.6032  0.9161
 1953SOL    HW217496   0.051   3.611   7.008 -2.9260  0.5781  0.2381
 1954SOL     OW17497   1.278   4.580   5.028 -0.0094  0.3463 -0.2302
 1954SOL    HW117498   1.198   4.530   5.012 -0.3881  0.6897  0.5728
 1954SOL    HW217499   1.353   4.522   5.016 -0.4203 -0.8466  3.0634
 1955SOL     OW17500   1.132   2.752   1.760  0.4267  0.8669 -0.0507
 1955SOL    HW117501   1.052   2.709   1.729  0.1401 -1.0095  3.3022
 1955SOL    HW217502   1.183   2.741   1.680 -2.7899  1.0012 -2.1161
 1956SOL     OW17503   4.193   4.714  14.141  0.9686  0.3913  0.3261
 1956SOL    HW117504   4.212   4.701  14.048  0.9435  1.0545  0.2288
 1956SOL    HW217505   4.275   4.692  14.186  0.2455 -2.8237  0.0372
 1957SOL     OW17506   3.966   3.678   6.404 -0.4283  0.6029 -0.2363
 1957SOL    HW117507   3.923   3.592   6.399  0.7555 -0.0875  1.5866
 1957SOL    HW217508   3.893   3.740   6.399 -0.0889  0.9118 -1.5413
 1958SOL     OW17509   1.403   4.392  10.105 -0.3457 -0.0647 -0.1654
 1958SOL    HW117510   1.462   4.462  10.077  1.6014 -1.7471 -0.2719
 1958SOL    HW217511   1.318   4.421  10.073  0.8329  2.9063 -0.6550
 1959SOL     OW17512   4.668   0.872   1.803 -0.0690  0.2829  0.1459
 1959SOL    HW117513   4.686   0.881   1.897 -0.6160  1.0542  0.1783
 1959SOL    HW217514   4.693   0.782   1.786  0.4824 -0.1322  3.0939
 1960SOL     OW17515   4.580   3.065   7.176 -0.0913  0.5673  0.0811
 1960SOL    HW117516   4.564   3.057   7.082  1.7346 -1.4869 -0.0418
 1960SOL    HW217517   4.513   3.127   7.206 -0.8425 -0.4248  0.4806
 1961SOL     OW17518   4.633   1.097   0.139  0.3684  0.5350 -0.1000
 1961SOL    HW117519   4.718   1.063   0.110 -0.6408 -1.0417 -1.1908
 1961SOL    HW217520   4.665   1.158   0.206 -1.1033  0.4682  0.6429
 1962SOL     OW17521   2.920   2.805   9.369 -0.1166  0.3023  0.0145
 1962SOL    HW117522   2.873   2.756   9.302 -0.2687  1.2347 -0.5680
 1962SOL    HW217523   2.914   2.749   9.447  0.3238  0.4449  0.1516
 1963SOL     OW17524   2.083   4.606  17.504  0.1892 -0.5390  0.2942
 1963SOL    HW117525   2.100   4.625  17.412  1.0758 -1.5744  0.2420
 1963SOL    HW217526   1.998   4.564  17.495 -0.5741  1.2794 -0.9322
 1964SOL     OW17527   3.841   4.656   6.523 -0.3153  0.0975 -0.0073
 1964SOL    HW117528   3.841   0.015   6.512  2.7029 -0.1452 -1.9419
 1964SOL    HW217529   3.790   4.638   6.602  2.0122  0.1819  1.5189
 1965SOL     OW17530   0.118   1.116   5.588 -0.0050 -0.5198 -0.5538
 1965SOL    HW117531   0.097   1.046   5.650  0.9527  0.3627  0.7515
 1965SOL    HW217532   0.088   1.194   5.634 -0.8516 -1.1372 -0.0733
 1966SOL     OW17533   4.498   0.561   6.595  0.5567  0.1744  0.0930
 1966SOL    HW117534   4.451   0.516   6.664  0.2281  1.6419  0.8181
 1966SOL    HW217535   4.462   0.523   6.515  0.6921 -1.0144  0.5976
 1967SOL     OW17536   0.340   2.397  17.248 -0.3921  0.2396  1.0325
 1967SOL    HW117537   0.347   2.355  17.163  1.7739  2.9241 -0.1148
 1967SOL    HW217538   0.255   2.366  17.279  0.2031 -0.8413  1.5742
 1968SOL     OW17539   3.814   0.330  12.667  0.2224 -0.0336 -0.1356
 1968SOL    HW117540   3.902   0.301  12.693  0.2893  1.1147  0.9341
 1968SOL    HW217541   3.757   0.274  12.719  1.5078 -1.7715 -0.5957
 1969SOL     OW17542   2.754   2.155   6.415  0.0185 -0.4620 -0.2393
 1969SOL    HW117543   2.812   2.192   6.348  0.9949  0.4874  1.1095
 1969SOL    HW217544   2.704   2.236   6.426 -0.7388 -0.9374 -0.2455
 1970SOL     OW17545   4.609   2.317   4.555  0.0454 -0.1906  0.2237
 1970SOL    HW117546   4.654   2.400   4.538 -0.2983 -0.1067 -0.2635
 1970SOL    HW217547   4.574   2.292   4.470 -1.8937  1.4503  0.5374
 1971SOL     OW17548   3.240   4.433   4.711  0.7936  0.0165  0.1560
 1971SOL    HW117549   3.165   4.460   4.764  1.7935  0.3697  1.4096
 1971SOL    HW217550   3.201   4.406   4.628  0.4492 -0.2056  0.3911
 1972SOL     OW17551   2.833   2.224   8.623  0.3981  0.2948  0.2567
 1972SOL    HW117552   2.786   2.308   8.626 -1.1108 -0.5263 -0.6811
 1972SOL    HW217553   2.904   2.238   8.685  1.7820 -3.7879 -0.4183
 1973SOL     OW17554   3.980   1.147   2.462 -0.3894 -0.5145 -0.1356
 1973SOL    HW117555   4.042   1.219   2.449 -1.9934  0.8828 -0.1165
 1973SOL    HW217556   3.985   1.117   2.372  2.3825 -0.6240  0.0705
 1974SOL     OW17557   4.039   1.198   7.219 -0.0439  0.4020 -0.6109
 1974SOL    HW117558   4.058   1.291   7.220  0.3413  0.2991  1.1025
 1974SOL    HW217559   4.001   1.183   7.132  0.0520 -0.3131 -0.5332
 1975SOL     OW17560   4.037   4.280   1.891 -0.4478  0.5922 -0.2555
 1975SOL    HW117561   4.010   4.189   1.886 -0.7706  0.4503  3.9791
 1975SOL    HW217562   3.954   4.327   1.884 -0.9573 -0.2901 -0.1295
 1976SOL     OW17563   2.773   0.466   3.375  0.1201 -0.4696  0.0117
 1976SOL    HW117564   2.779   0.512   3.291 -1.6147  0.5575  0.4439
 1976SOL    HW217565   2.771   0.375   3.347 -1.9271 -0.7834  1.1428
 1977SOL     OW17566   3.629   0.562   8.810  0.7480  0.3196  0.4442
 1977SOL    HW117567   3.693   0.566   8.739  2.8557 -1.5555  2.2167
 1977SOL    HW217568   3.647   0.647   8.851  0.7282 -0.7288  2.6349
 1978SOL     OW17569   1.012   2.573   2.216 -0.1669  0.3646  0.1579
 1978SOL    HW117570   1.088   2.517   2.233  0.5125  0.7985 -1.4226
 1978SOL    HW217571   1.035   2.655   2.260 -1.8219  1.1102 -0.3567
 1979SOL     OW17572   1.076   1.778  14.872 -0.3346  0.1749  0.6312
 1979SOL    HW117573   1.010   1.769  14.804  0.0543  0.0435  0.2690
 1979SOL    HW217574   1.059   1.693  14.912 -1.1919  0.6336  1.2467
 1980SOL     OW17575   2.923   2.570   2.982 -0.6953  0.0866 -0.1013
 1980SOL    HW117576   3.014   2.566   2.953 -0.6388  0.4788  0.0170
 1980SOL    HW217577   2.890   2.621   2.908  0.7322  0.5284 -0.4482
 1981SOL     OW17578   4.481   2.623   0.795 -0.2820 -0.5023  0.3493
 1981SOL    HW117579   4.554   2.676   0.763 -0.1103 -1.0937 -0.2328
 1981SOL    HW217580   4.501   2.619   0.889 -1.0953  2.3355  0.6436
 1982SOL     OW17581   0.016   2.883   9.951  0.0563  0.2621 -0.0037
 1982SOL    HW117582   0.003   2.976   9.933  0.4820  0.2666 -0.2937
 1982SOL    HW217583   0.107   2.880   9.922  0.4076 -1.3267  1.2387
 1983SOL     OW17584   4.119   3.039  11.673 -0.4791  0.1289  0.4661
 1983SOL    HW117585   4.091   2.975  11.738 -0.0256 -1.2491 -0.6902
 1983SOL    HW217586   4.214   3.026  11.670 -0.4887  0.1376  0.0636
 1984SOL     OW17587   2.274   1.857   8.610  0.4704  0.1018 -0.3448
 1984SOL    HW117588   2.203   1.855   8.674  0.6202 -2.6157 -0.2644
 1984SOL    HW217589   2.355   1.860   8.662  1.5909  0.8502 -2.1600
 1985SOL     OW17590   3.510   4.052  10.878 -0.0257 -0.2293 -0.1630
 1985SOL    HW117591   3.560   4.100  10.811  0.9285 -1.6921 -0.5057
 1985SOL    HW217592   3.472   4.119  10.934 -0.0435  0.2571 -0.7477
 1986SOL     OW17593   0.882   0.661   1.411 -0.2132  0.6817 -0.0021
 1986SOL    HW117594   0.787   0.647   1.419 -0.1318 -0.4384 -1.0668
 1986SOL    HW217595   0.921   0.621   1.489  0.5556  0.1363 -0.6721
 1987SOL     OW17596   0.811   1.303   6.190 -0.6208 -0.3617 -0.5955
 1987SOL    HW117597   0.761   1.225   6.215 -0.3180  0.1812  1.7198
 1987SOL    HW217598   0.841   1.343   6.272  0.9244 -0.6396 -1.0287
 1988SOL     OW17599   3.130   0.085   0.692  0.4568 -0.2600 -0.0068
 1988SOL    HW117600   3.223   0.074   0.711  0.3051  0.3372  1.0530
 1988SOL    HW217601   3.105   0.007   0.741  3.7683 -2.0767 -1.2152
 1989SOL     OW17602   0.705   1.471   6.663  1.1095  0.2684 -0.2463
 1989SOL    HW117603   0.644   1.499   6.595 -0.6738  0.4870  1.4572
 1989SOL    HW217604   0.655   1.405   6.710  1.4664 -1.3478 -2.1029
 1990SOL     OW17605   2.321   4.281   3.855 -0.3240 -0.4606  0.1697
 1990SOL    HW117606   2.280   4.296   3.770 -0.0741 -0.2247  0.0930
 1990SOL    HW217607   2.262   4.328   3.915  0.9967 -0.0898  1.1719
 1991SOL     OW17608   3.232   4.393   1.350 -0.4780  0.4213  0.0442
 1991SOL    HW117609   3.172   4.425   1.417 -0.1865 -0.6809  0.8348
 1991SOL    HW217610   3.212   4.452   1.277  0.8436 -0.1277 -0.7834
 1992SOL     OW17611   0.916   3.550  14.283 -0.2593  0.5043  0.7135
 1992SOL    HW117612   0.956   3.505  14.208 -1.8908 -2.6814  1.7496
 1992SOL    HW217613   0.831   3.506  14.287 -0.3606  0.6097 -0.1112
 1993SOL     OW17614   3.954   2.371   8.059  0.3036  0.0604 -0.0929
 1993SOL    HW117615   3.989   2.437   7.999  1.0860  0.4080  0.7420
 1993SOL    HW217616   3.947   2.420   8.141  0.8858 -1.3351  0.7874
 1994SOL     OW17617   2.870   1.611   7.513  0.1427  0.4435  0.1152
 1994SOL    HW117618   2.954   1.582   7.477 -0.2699  0.9699 -1.3012
 1994SOL    HW217619   2.800   1.577   7.457  2.5105 -0.4003 -2.3463
 1995SOL     OW17620   2.999   1.521  15.680 -0.5312  0.0934 -0.3291
 1995SOL    HW117621   2.913   1.480  15.683 -2.8998  4.9746 -1.3116
 1995SOL    HW217622   2.978   1.601  15.631  1.4639  0.8086 -0.0017
 1996SOL     OW17623   4.478   3.381   8.252  0.1984  0.2012 -0.0866
 1996SOL    HW117624   4.506   3.424   8.333  0.7465 -0.4630  0.0770
 1996SOL    HW217625   4.491   3.469   8.215  2.0126 -0.2666 -0.5519
 1997SOL     OW17626   2.244   4.117   9.784  0.3932  0.2115 -0.4156
 1997SOL    HW117627   2.278   4.165   9.860 -1.6053 -0.5873  0.9646
 1997SOL    HW217628   2.255   4.023   9.799  1.3888  0.7012  2.0024
 1998SOL     OW17629   1.615   4.411   9.409  0.6047 -0.1726  0.1659
 1998SOL    HW117630   1.693   4.432   9.358  0.4620 -0.6061 -0.2380
 1998SOL    HW217631   1.609   4.495   9.454 -0.3586 -0.6522  0.9369
 1999SOL     OW17632   1.215   3.646   3.559 -0.8440  0.2678  0.3543
 1999SOL    HW117633   1.207   3.581   3.488 -2.8979  0.0511  0.7852
 1999SOL    HW217634   1.124   3.645   3.588 -0.5783  3.5078  1.2331
 2000SOL     OW17635   0.843   0.978   7.764 -0.6326  0.1456 -0.7243
 2000SOL    HW117636   0.917   0.988   7.703  1.6344 -2.4351  1.5551
 2000SOL    HW217637   0.808   0.898   7.725  1.3835 -0.8767 -0.4438
 2001SOL     OW17638   4.236   3.267   2.982 -0.4966 -0.5800 -0.0844
 2001SOL    HW117639   4.316   3.223   3.013  0.2518  2.7166  2.6984
 2001SOL    HW217640   4.166   3.217   3.023 -1.0055 -0.5340 -0.9029
 2002SOL     OW17641   1.812   2.569   6.553 -0.8941 -0.1718  0.1296
 2002SOL    HW117642   1.781   2.637   6.493  0.1015 -0.2441 -0.4618
 2002SOL    HW217643   1.795   2.488   6.506 -1.4831  0.2331 -0.3563
 2003SOL     OW17644   1.298   1.607   8.733  0.3460 -0.1361 -0.3264
 2003SOL    HW117645   1.295   1.520   8.694  3.2654 -1.5502  2.6629
 2003SOL    HW217646   1.305   1.658   8.652 -0.9662  0.3129 -0.1530
 2004SOL     OW17647   2.816   2.928   9.648 -0.3530 -0.2760  0.2110
 2004SOL    HW117648   2.785   2.937   9.559  2.1521 -0.0045 -0.6379
 2004SOL    HW217649   2.790   3.015   9.677  1.9576  0.6698 -0.5394
 2005SOL     OW17650   2.547   3.522  15.108 -0.0932 -0.8254  0.1384
 2005SOL    HW117651   2.557   3.427  15.107 -1.8959 -1.0126 -0.6005
 2005SOL    HW217652   2.547   3.542  15.201 -2.4950 -0.9436  0.1697
 2006SOL     OW17653   3.024   1.890   9.590 -0.1400 -0.1155  0.1036
 2006SOL    HW117654   3.113   1.914   9.617  0.1008 -2.4217  1.3028
 2006SOL    HW217655   3.024   1.937   9.506 -0.1363  0.6773  0.5487
 2007SOL     OW17656   3.120   2.230   0.480  0.6170 -0.6213  0.2453
 2007SOL    HW117657   3.037   2.274   0.463  1.4918  0.6797 -0.6411
 2007SOL    HW217658   3.177   2.290   0.527  0.8637 -0.0461 -0.8095
 2008SOL     OW17659   1.809   1.132   4.270  0.3175  0.0436  0.0526
 2008SOL    HW117660   1.904   1.148   4.268  0.3596 -0.0976  1.0674
 2008SOL    HW217661   1.789   1.128   4.177 -0.7753 -0.5116  0.3181
 2009SOL     OW17662   3.597   2.263   4.290  0.0483 -0.1784  0.5781
 2009SOL    HW117663   3.606   2.354   4.318 -0.2191 -0.4670  1.5922
 2009SOL    HW217664   3.514   2.238   4.330 -0.2920  1.2768  0.7841
 2010SOL     OW17665   3.768   2.362   3.975  0.4148  0.1609 -0.4045
 2010SOL    HW117666   3.721   2.283   4.001  2.9666 -0.4811  2.2688
 2010SOL    HW217667   3.833   2.327   3.914  0.5331 -2.1586  1.0907
 2011SOL     OW17668   0.395   0.485  16.363 -0.1851  0.0881  0.2981
 2011SOL    HW117669   0.366   0.561  16.414 -0.3970  0.2790 -0.1011
 2011SOL    HW217670   0.481   0.511  16.331 -0.5912  0.7410 -0.2839
 2012SOL     OW17671   2.832   3.842  14.728 -0.1959 -0.1151  0.8656
 2012SOL    HW117672   2.778   3.774  14.769  0.7020 -1.9662 -1.0015
 2012SOL    HW217673   2.780   3.922  14.727 -0.0612 -0.0074  2.5899
 2013SOL     OW17674   3.872   0.028  12.140 -0.2658  0.6700 -0.2338
 2013SOL    HW117675   3.803   0.037  12.074  0.6828  1.9108 -1.0436
 2013SOL    HW217676   3.949   0.031  12.083 -0.9228 -0.3927 -1.1788
 2014SOL     OW17677   1.496   1.977   2.304  0.2846  0.0912  0.2575
 2014SOL    HW117678   1.585   1.957   2.274  0.7680  1.1946  0.9690
 2014SOL    HW217679   1.453   1.894   2.325 -0.2553  0.5710  1.0133
 2015SOL     OW17680   1.714   3.931   7.603  0.6839  0.0438  0.4065
 2015SOL    HW117681   1.648   3.922   7.672 -0.7259 -1.1038 -1.1196
 2015SOL    HW217682   1.664   3.888   7.535  1.6192 -0.1853 -0.1398
 2016SOL     OW17683   2.992   3.385   1.930 -0.1910 -0.2998  0.7636
 2016SOL    HW117684   3.013   3.297   1.901  1.1095 -0.2222  1.4587
 2016SOL    HW217685   3.060   3.437   1.886 -2.5838  2.9750  0.9180
 2017SOL     OW17686   3.948   4.682  12.707  0.3899 -0.3482  0.0211
 2017SOL    HW117687   4.019   0.007  12.684 -0.0118  0.4401  0.8849
 2017SOL    HW217688   3.997   4.608  12.743  0.0237 -0.8736 -0.5664
 2018SOL     OW17689   1.038   0.757   2.951 -0.7112  0.1210 -0.3344
 2018SOL    HW117690   1.013   0.721   3.036  1.2376 -0.1665  0.1178
 2018SOL    HW217691   0.964   0.726   2.899 -1.0950 -1.4753  1.1741
 2019SOL     OW17692   2.693   3.837   0.556  0.4395  0.7451 -0.1442
 2019SOL    HW117693   2.658   3.751   0.576 -0.2237  0.7399 -1.3478
 2019SOL    HW217694   2.779   3.802   0.536  0.6049  2.1826 -1.9149
 2020SOL     OW17695   1.646   3.210   4.633  0.2210 -0.0254  0.1672
 2020SOL    HW117696   1.718   3.223   4.695  0.4302  0.2288 -0.1301
 2020SOL    HW217697   1.577   3.172   4.687 -0.7032  1.3082 -0.0776
 2021SOL     OW17698   0.871   2.432  15.743  0.3481 -0.0515  0.4882
 2021SOL    HW117699   0.922   2.475  15.674  1.8739  0.8833  2.1762
 2021SOL    HW217700   0.850   2.347  15.704  2.0756 -0.1141 -0.3014
 2022SOL     OW17701   2.854   3.403   3.414 -0.3133 -0.1428 -0.3820
 2022SOL    HW117702   2.892   3.475   3.364  1.1526 -0.0299  0.8856
 2022SOL    HW217703   2.933   3.376   3.459 -0.8278 -0.9187  0.0607
 2023SOL     OW17704   1.153   1.750   8.916  0.1556  0.0497  0.2627
 2023SOL    HW117705   1.059   1.752   8.898  0.4182 -0.4104 -1.1517
 2023SOL    HW217706   1.183   1.702   8.839  1.0621 -1.8584  1.8143
 2024SOL     OW17707   3.483   1.651  15.278 -1.0921  0.3213 -0.3472
 2024SOL    HW117708   3.553   1.587  15.263  2.3298  3.8982  0.3767
 2024SOL    HW217709   3.415   1.609  15.226 -0.6273  0.5686 -1.1562
 2025SOL     OW17710   1.782   1.628   4.675 -0.1843 -0.4631 -0.1282
 2025SOL    HW117711   1.866   1.632   4.720 -1.6331  3.2545  2.2476
 2025SOL    HW217712   1.808   1.603   4.586 -0.2796 -1.4495  0.1154
 2026SOL     OW17713   2.176   2.924   7.494  0.1709 -0.1365 -0.1807
 2026SOL    HW117714   2.093   2.928   7.446  0.0418 -3.7414 -0.2643
 2026SOL    HW217715   2.226   2.962   7.422  2.1450  1.5278  2.0613
 2027SOL     OW17716   1.011   2.348   4.352  0.2325 -0.1918 -0.1839
 2027SOL    HW117717   1.061   2.402   4.291  1.5831  0.2140  1.2844
 2027SOL    HW217718   0.966   2.289   4.291 -1.4663 -1.4953  2.3567
 2028SOL     OW17719   0.061   3.279   9.031 -0.2485 -0.2670 -0.5086
 2028SOL    HW117720   4.710   3.240   9.025 -0.1302 -0.7495  0.8873
 2028SOL    HW217721   0.085   3.242   8.946 -1.3668 -0.6128 -0.6756
 2029SOL     OW17722   1.736   1.324   2.992  0.2091  0.0205 -0.3195
 2029SOL    HW117723   1.739   1.394   3.057 -0.9155 -0.6849  0.4945
 2029SOL    HW217724   1.810   1.267   3.014  1.5789  1.7608 -0.4496
 2030SOL     OW17725   2.043   0.533   5.205  0.0571 -0.1336  0.4302
 2030SOL    HW117726   2.127   0.503   5.171 -1.5985 -1.0624 -2.9104
 2030SOL    HW217727   2.040   0.628   5.192  1.9074 -0.0984  0.3376
 2031SOL     OW17728   4.110   3.273   8.534 -0.2677  0.0325  0.3234
 2031SOL    HW117729   4.063   3.227   8.603 -1.3115  1.1188  0.3417
 2031SOL    HW217730   4.132   3.359   8.569  2.1446 -0.0498 -0.9637
 2032SOL     OW17731   2.617   4.093   9.970 -0.3088 -0.2937  0.1109
 2032SOL    HW117732   2.693   4.148   9.957  0.7564 -1.5568  1.0413
 2032SOL    HW217733   2.550   4.148  10.010 -2.1292 -1.6110 -1.0724
 2033SOL     OW17734   1.555   1.221   7.419  0.1134 -0.3230 -0.9354
 2033SOL    HW117735   1.466   1.186   7.416 -0.0864  0.3237 -2.8372
 2033SOL    HW217736   1.551   1.266   7.503  0.4828  1.5130 -1.8802
 2034SOL     OW17737   0.352   0.779   2.377  0.2624  0.1877 -0.4432
 2034SOL    HW117738   0.293   0.747   2.446 -1.1916  0.8645 -1.3838
 2034SOL    HW217739   0.355   0.873   2.393  0.7187 -0.1585  1.6207
 2035SOL     OW17740   2.965   0.046   6.790 -0.2140 -0.5034  0.1109
 2035SOL    HW117741   2.931   0.094   6.714  0.4537  0.9656  0.7466
 2035SOL    HW217742   2.990   0.117   6.849 -1.8482  1.2833 -1.3288
 2036SOL     OW17743   1.535   2.598  15.098 -0.1899 -0.4592  0.2991
 2036SOL    HW117744   1.524   2.535  15.027  2.9153  0.0526 -0.6445
 2036SOL    HW217745   1.490   2.676  15.064  1.5726  0.4516  0.0626
 2037SOL     OW17746   0.692   2.641  14.584  0.2746 -0.6028 -0.0357
 2037SOL    HW117747   0.604   2.621  14.615 -0.8287  1.9045 -1.5896
 2037SOL    HW217748   0.684   2.614  14.492  0.6689 -0.3936 -0.1337
 2038SOL     OW17749   2.337   3.205   3.326  0.2002 -0.1899 -0.1834
 2038SOL    HW117750   2.430   3.186   3.309 -0.1536 -1.1843 -0.9758
 2038SOL    HW217751   2.307   3.175   3.240  1.2269  1.7497 -1.2440
 2039SOL     OW17752   0.854   2.060  17.354 -0.4608  0.6517  0.3124
 2039SOL    HW117753   0.910   2.006  17.298 -3.7666 -2.5046  0.0482
 2039SOL    HW217754   0.778   2.056  17.296 -0.7801  0.6258  0.7347
 2040SOL     OW17755   3.593   2.197   2.838 -0.0956 -0.4274  0.3372
 2040SOL    HW117756   3.664   2.133   2.831  1.7000  1.5648  0.5090
 2040SOL    HW217757   3.637   2.279   2.858 -0.2977 -0.2917  0.2172
 2041SOL     OW17758   0.517   4.633  17.378  0.2770  0.2959 -0.6423
 2041SOL    HW117759   0.440   4.589  17.344  0.7995 -2.4541  1.7293
 2041SOL    HW217760   0.494   4.719  17.342 -0.3815  0.1027 -0.6816
 2042SOL     OW17761   4.189   1.951   8.738  0.2596  0.1883  0.5216
 2042SOL    HW117762   4.137   2.026   8.708  1.7983  1.0371 -0.0435
 2042SOL    HW217763   4.253   1.993   8.795 -0.3014  1.1261  0.4695
 2043SOL     OW17764   0.148   1.314   5.945 -0.2957  0.4192 -0.4666
 2043SOL    HW117765   0.175   1.246   6.007 -2.2026 -1.5682 -1.8035
 2043SOL    HW217766   0.234   1.351   5.926  0.6063  0.3086  3.3992
 2044SOL     OW17767   3.697   2.554   6.005 -0.1521  0.0714 -0.3850
 2044SOL    HW117768   3.719   2.515   6.089 -2.0381 -1.2428 -0.5150
 2044SOL    HW217769   3.785   2.575   5.972  0.4724 -0.2789  1.0493
 2045SOL     OW17770   1.337   0.146   3.834  0.0493  0.1912  0.0362
 2045SOL    HW117771   1.346   0.198   3.754  0.6372  1.8848  1.2180
 2045SOL    HW217772   1.306   0.214   3.893  0.4855 -1.1239  1.7808
 2046SOL     OW17773   0.149   0.150   5.491 -0.2562 -0.1596 -0.0025
 2046SOL    HW117774   0.190   0.225   5.534  0.0282 -0.1732 -0.2465
 2046SOL    HW217775   0.177   0.076   5.545  0.4237  0.1760  0.1005
 2047SOL     OW17776   1.907   1.990   6.807  0.2425  0.1665  0.0290
 2047SOL    HW117777   1.934   1.913   6.756 -1.0217 -1.1661  1.3714
 2047SOL    HW217778   1.847   2.046   6.759 -0.7716 -0.5067  0.5032
 2048SOL     OW17779   2.419   4.026   0.063 -0.2489 -0.2879 -0.4334
 2048SOL    HW117780   2.393   4.114   0.034 -0.0854 -0.8618 -2.3730
 2048SOL    HW217781   2.457   4.040   0.149 -1.0021  0.2043 -0.1831
 2049SOL     OW17782   1.967   3.394   5.621  0.1263 -0.3330  0.1320
 2049SOL    HW117783   2.040   3.347   5.579 -0.5775 -1.8137  0.5874
 2049SOL    HW217784   1.890   3.344   5.594  1.3825 -0.5220 -3.1977
 2050SOL     OW17785   0.558   2.088   0.375 -0.5243 -0.6033  0.2259
 2050SOL    HW117786   0.555   2.162   0.315 -0.4931 -0.7566  0.0331
 2050SOL    HW217787   0.639   2.039   0.358 -0.9858 -1.1510 -0.4142
 2051SOL     OW17788   1.002   1.182   5.448  0.0211  0.0359 -0.9625
 2051SOL    HW117789   0.907   1.182   5.460  0.4718 -0.0335  2.6632
 2051SOL    HW217790   1.014   1.272   5.420 -0.4894  0.2652 -0.4471
 2052SOL     OW17791   3.649   4.723   7.148 -0.0338 -0.0028 -0.4268
 2052SOL    HW117792   3.673   4.653   7.209 -2.7901 -0.1622  0.4525
 2052SOL    HW217793   3.728   4.719   7.093 -1.1979 -3.9183 -1.7779
 2053SOL     OW17794   4.454   3.712   1.465 -0.5548  0.3671 -0.2698
 2053SOL    HW117795   4.393   3.782   1.443  1.9493  2.8359  0.5685
 2053SOL    HW217796   4.486   3.747   1.549  4.0592 -3.1806 -0.5376
 2054SOL     OW17797   3.588   3.910   6.070  0.3112  0.1543  0.3826
 2054SOL    HW117798   3.631   3.995   6.063 -1.3545  0.8982 -0.7545
 2054SOL    HW217799   3.555   3.898   5.981 -0.3567 -1.0223  0.7854
 2055SOL     OW17800   3.421   3.842   4.678 -0.2210 -0.1298  0.4950
 2055SOL    HW117801   3.351   3.899   4.710 -2.2433 -1.2718 -1.8809
 2055SOL    HW217802   3.475   3.907   4.633 -0.2220  0.7381  1.7560
 2056SOL     OW17803   2.484   4.483   7.102  0.0498  0.5972  0.1476
 2056SOL    HW117804   2.505   4.545   7.032 -1.9350  2.0254  0.8528
 2056SOL    HW217805   2.398   4.446   7.082  0.7218 -2.1924  2.4773
 2057SOL     OW17806   2.213   3.430  16.376 -0.2463 -0.4357 -0.3683
 2057SOL    HW117807   2.211   3.420  16.281 -1.5558 -0.7199 -0.3147
 2057SOL    HW217808   2.216   3.336  16.390 -0.3557 -0.4061 -0.1427
 2058SOL     OW17809   3.325   1.624   0.529  0.0786  0.2725 -0.0987
 2058SOL    HW117810   3.395   1.560   0.539  1.8077  2.3351  0.8677
 2058SOL    HW217811   3.379   1.701   0.512  0.1192 -0.3608 -2.9251
 2059SOL     OW17812   2.845   1.583   3.954  0.2489  0.3462  0.2618
 2059SOL    HW117813   2.821   1.669   3.988  0.9784  0.1477  1.2642
 2059SOL    HW217814   2.778   1.556   3.891 -1.4947  1.0388  1.8277
 2060SOL     OW17815   2.527   4.110   3.871 -0.9935  0.3099 -0.1197
 2060SOL    HW117816   2.451   4.163   3.852 -1.6055 -1.0997 -1.6035
 2060SOL    HW217817   2.561   4.145   3.954  1.6348 -1.9257 -0.2292
 2061SOL     OW17818   2.735   1.087   8.809  0.2737 -0.1248 -0.1651
 2061SOL    HW117819   2.689   1.011   8.846  0.7278  0.7727  2.1828
 2061SOL    HW217820   2.679   1.121   8.739 -1.0818 -2.4024 -0.2054
 2062SOL     OW17821   4.560   3.257  14.533 -0.2447  0.0154 -0.2300
 2062SOL    HW117822   4.532   3.340  14.572  1.0601  0.9379 -1.2534
 2062SOL    HW217823   4.597   3.216  14.611 -1.2074  0.7354  0.6023
 2063SOL     OW17824   1.572   4.334   8.080 -0.7193 -0.0737 -0.1042
 2063SOL    HW117825   1.631   4.283   8.024  1.8512  2.2262  0.4903
 2063SOL    HW217826   1.637   4.350   8.149 -0.9633  0.6265 -0.0372
 2064SOL     OW17827   3.785   0.613  15.356  0.0012 -0.1566 -0.0856
 2064SOL    HW117828   3.872   0.630  15.321  0.2417 -2.7464 -0.7631
 2064SOL    HW217829   3.776   0.688  15.413  1.7246 -1.0039  1.2731
 2065SOL     OW17830   3.530   1.831   5.595 -0.1029  0.4476  0.5299
 2065SOL    HW117831   3.468   1.810   5.665 -2.5309 -0.8429 -1.9676
 2065SOL    HW217832   3.467   1.846   5.524 -0.0313 -0.2371  0.3247
 2066SOL     OW17833   0.504   0.491   9.387 -0.3332 -0.1447 -0.8487
 2066SOL    HW117834   0.549   0.410   9.409 -2.9404 -1.3415  0.1230
 2066SOL    HW217835   0.452   0.463   9.312  1.1304 -1.6950 -1.2727
 2067SOL     OW17836   2.302   2.557   9.002 -0.5592 -0.4085 -0.5788
 2067SOL    HW117837   2.312   2.618   8.929 -1.1530 -0.8369 -1.0207
 2067SOL    HW217838   2.271   2.475   8.962  2.7888 -1.8829 -0.1437
 2068SOL     OW17839   3.590   4.503  12.191 -0.1623 -0.2195 -0.2281
 2068SOL    HW117840   3.631   4.552  12.263 -0.2130 -0.7503  0.1647
 2068SOL    HW217841   3.556   4.578  12.142  0.1179 -1.4387 -2.2514
 2069SOL     OW17842   3.177   1.455   9.134  0.1475 -0.2987 -0.3639
 2069SOL    HW117843   3.251   1.420   9.084  0.7347  0.1859  0.1677
 2069SOL    HW217844   3.120   1.473   9.059 -2.2210 -2.0895  0.9723
 2070SOL     OW17845   2.260   4.276   2.548  0.3332 -0.0214 -0.2504
 2070SOL    HW117846   2.250   4.249   2.456  1.2282  0.6163 -0.5308
 2070SOL    HW217847   2.208   4.354   2.564 -1.9606 -1.0303 -2.6947
 2071SOL     OW17848   1.797   4.505  10.592 -0.1274  0.0567 -0.5163
 2071SOL    HW117849   1.743   4.429  10.615 -1.7258  1.0650 -1.0066
 2071SOL    HW217850   1.794   4.560  10.670  0.1535  0.9217 -1.1190
 2072SOL     OW17851   1.269   3.713   6.369  0.1523  0.0431  0.2117
 2072SOL    HW117852   1.192   3.731   6.316 -0.9150 -1.1063  1.3961
 2072SOL    HW217853   1.260   3.628   6.412 -2.1189 -1.4216 -3.1614
 2073SOL     OW17854   4.270   2.580   2.361  0.3962 -0.0072 -0.4318
 2073SOL    HW117855   4.291   2.490   2.386 -1.6584 -0.5470 -0.6391
 2073SOL    HW217856   4.203   2.551   2.299 -0.0707  0.7827 -0.2982
 2074SOL     OW17857   2.299   0.325   3.198  0.2353  0.4431  0.5550
 2074SOL    HW117858   2.283   0.240   3.158  2.7239  1.3256 -2.3892
 2074SOL    HW217859   2.214   0.351   3.233 -0.0290 -0.7360  0.7648
 2075SOL     OW17860   1.456   1.149  13.469 -0.7437 -0.1339  0.0864
 2075SOL    HW117861   1.550   1.153  13.454 -0.9766 -0.2952 -1.4695
 2075SOL    HW217862   1.441   1.055  13.459  0.2432 -0.3227  0.4541
 2076SOL     OW17863   1.791   0.603   8.447  0.2965 -0.7148  0.0116
 2076SOL    HW117864   1.857   0.667   8.418 -0.6612  0.2089 -0.1540
 2076SOL    HW217865   1.751   0.657   8.515 -1.8454 -2.1884 -0.0831
 2077SOL     OW17866   2.791   1.558   9.974  0.6719  0.0494  0.5320
 2077SOL    HW117867   2.833   1.537   9.891 -0.3999 -2.9966  0.7370
 2077SOL    HW217868   2.849   1.618  10.022  1.2790  1.4591 -1.9998
 2078SOL     OW17869   1.841   0.348   6.483  0.5441  0.4965 -0.3122
 2078SOL    HW117870   1.811   0.257   6.486  2.3191  0.0539  3.4573
 2078SOL    HW217871   1.904   0.344   6.555  0.1558 -0.8251 -0.0393
 2079SOL     OW17872   0.302   3.174   0.223  0.2180 -0.3697  0.0596
 2079SOL    HW117873   0.299   3.269   0.233  2.6168 -0.2621 -0.1785
 2079SOL    HW217874   0.263   3.143   0.305 -0.5924 -1.4324 -0.7252
 2080SOL     OW17875   0.471   4.587   8.294 -0.1337 -0.6589 -0.0440
 2080SOL    HW117876   0.420   4.637   8.357 -1.9194 -1.8372 -0.5739
 2080SOL    HW217877   0.474   4.650   8.221 -0.5855 -0.3945  0.1690
 2081SOL     OW17878   0.062   2.505   1.560  1.1281  0.2052  0.4274
 2081SOL    HW117879   0.149   2.464   1.558  1.2290  0.4395 -0.0986
 2081SOL    HW217880   0.035   2.484   1.649  0.7495  0.8783  0.4732
 2082SOL     OW17881   4.671   3.788   5.892 -0.1564 -0.2604  0.0635
 2082SOL    HW117882   4.596   3.755   5.941  0.1988 -0.8623  0.2089
 2082SOL    HW217883   4.677   3.871   5.938  1.2697  0.0485 -0.6741
 2083SOL     OW17884   0.917   0.393   3.371  0.1938  0.4435 -0.1793
 2083SOL    HW117885   0.949   0.446   3.445  1.9735  1.1292 -1.4417
 2083SOL    HW217886   0.822   0.404   3.366  0.4284  2.6899 -0.0449
 2084SOL     OW17887   3.805   0.070   2.873 -0.1930  0.2520  0.5629
 2084SOL    HW117888   3.755   0.142   2.911  0.5271  0.4812  1.0772
 2084SOL    HW217889   3.737   0.021   2.826 -0.8767  2.1316 -0.3899
 2085SOL     OW17890   1.913   0.290   2.993  0.0791  0.1552 -0.1189
 2085SOL    HW117891   1.947   0.350   3.059 -1.5526  1.0872 -0.1361
 2085SOL    HW217892   1.824   0.271   3.022  0.0423 -1.8150 -1.4875
 2086SOL     OW17893   1.314   4.665  10.367 -0.1084 -0.6070  0.4577
 2086SOL    HW117894   1.275   4.656  10.280  1.8679 -0.3439 -0.4680
 2086SOL    HW217895   1.385   4.602  10.351  0.8426  0.9263 -1.4163
 2087SOL     OW17896   4.658   3.780   6.535 -0.3804 -1.1805 -0.2850
 2087SOL    HW117897   4.665   3.815   6.623 -0.1266  1.0692 -1.1943
 2087SOL    HW217898   0.010   3.742   6.528 -0.6412 -2.2089  2.0526
 2088SOL     OW17899   3.973   0.988  16.816 -0.2228 -0.2547  0.0713
 2088SOL    HW117900   3.993   1.052  16.748 -0.8837  0.4924  0.5775
 2088SOL    HW217901   3.908   0.929  16.777  1.8532 -0.5562 -2.8791
 2089SOL     OW17902   2.318   3.224   5.773 -0.2717  0.4206 -0.5909
 2089SOL    HW117903   2.268   3.254   5.697 -1.4496 -0.0958 -0.0233
 2089SOL    HW217904   2.334   3.309   5.813  0.8952  0.1963 -0.5819
 2090SOL     OW17905   2.809   0.671   3.949  0.3881  0.4242  0.5953
 2090SOL    HW117906   2.754   0.655   4.026  0.8491  1.0814  1.0573
 2090SOL    HW217907   2.780   0.600   3.891 -0.3515  1.3461 -0.1466
 2091SOL     OW17908   2.787   1.134  13.507 -0.3852 -0.3410 -0.3341
 2091SOL    HW117909   2.799   1.227  13.524 -0.1243 -0.2336 -1.0859
 2091SOL    HW217910   2.760   1.109  13.595 -0.4560 -1.0227 -0.5497
 2092SOL     OW17911   1.688   0.585   7.783 -0.2177  0.1018 -0.4170
 2092SOL    HW117912   1.644   0.505   7.755  0.6965  0.5924 -3.2613
 2092SOL    HW217913   1.683   0.637   7.703  2.2998 -0.1487 -0.7527
 2093SOL     OW17914   1.650   1.823   3.656 -0.2401 -0.2156 -0.5152
 2093SOL    HW117915   1.617   1.906   3.620  1.7002 -0.4857 -2.8691
 2093SOL    HW217916   1.734   1.812   3.612  0.3488  2.2431 -0.0284
 2094SOL     OW17917   4.076   1.524   8.891  0.1366  0.3889 -0.3270
 2094SOL    HW117918   4.056   1.431   8.896  1.9320  0.1257  2.1210
 2094SOL    HW217919   4.065   1.553   8.981 -0.5787  0.5001 -0.4519
 2095SOL     OW17920   4.247   3.798   4.243  0.9252 -0.2105  0.1721
 2095SOL    HW117921   4.304   3.761   4.310 -0.8004 -1.2598  1.0677
 2095SOL    HW217922   4.192   3.723   4.220  1.3643 -1.0044  1.7007
 2096SOL     OW17923   2.380   2.282   5.213  0.3610  0.5829 -0.3586
 2096SOL    HW117924   2.464   2.321   5.189 -0.6201  1.9975 -1.5526
 2096SOL    HW217925   2.389   2.189   5.194 -0.8983  0.4043 -0.0581
 2097SOL     OW17926   1.172   0.795  16.209 -0.0505 -0.5363  0.1311
 2097SOL    HW117927   1.139   0.748  16.133 -1.4490 -1.6280  1.4338
 2097SOL    HW217928   1.132   0.750  16.284  0.1058  0.8078  1.0252
 2098SOL     OW17929   3.625   2.744   4.129 -1.0304  0.1502 -0.2235
 2098SOL    HW117930   3.585   2.684   4.066 -2.8930  1.1992 -0.0422
 2098SOL    HW217931   3.676   2.799   4.070 -0.6679 -1.4089 -1.3667
 2099SOL     OW17932   1.574   2.228   2.223  0.0690  0.2685 -0.3030
 2099SOL    HW117933   1.595   2.273   2.305  0.5840 -0.9852  0.2607
 2099SOL    HW217934   1.547   2.141   2.251 -0.5590  0.2260 -1.0528
 2100SOL     OW17935   3.873   2.055   9.755  0.1034 -0.3262  0.6999
 2100SOL    HW117936   3.784   2.028   9.777  0.5182 -1.1866  1.3558
 2100SOL    HW217937   3.921   2.009   9.825  1.8768  0.0294 -0.2882
 2101SOL     OW17938   0.935   2.197   2.415  0.5516  0.3015 -0.6800
 2101SOL    HW117939   0.960   2.255   2.343  1.0048 -1.8894 -2.2860
 2101SOL    HW217940   0.881   2.130   2.373  0.1050  0.9430 -1.1130
 2102SOL     OW17941   4.343   3.889  12.953  0.4963  0.1259 -0.3031
 2102SOL    HW117942   4.418   3.949  12.947  2.3273 -2.3919 -2.4519
 2102SOL    HW217943   4.352   3.821  12.887  0.1993 -1.0765  0.8881
 2103SOL     OW17944   2.987   3.656   9.318  0.2401 -0.1705 -0.6852
 2103SOL    HW117945   3.015   3.709   9.392  2.0567 -0.5411 -1.1237
 2103SOL    HW217946   3.069   3.614   9.295  0.7295 -0.2548  1.1776
 2104SOL     OW17947   1.991   3.211   2.878  0.1286 -0.2155 -0.4059
 2104SOL    HW117948   1.916   3.226   2.935  0.5112 -1.9587  0.5663
 2104SOL    HW217949   1.951   3.254   2.803  1.3588  2.0842  0.2537
 2105SOL     OW17950   3.308   2.272  16.894  0.1828  0.6896  0.1125
 2105SOL    HW117951   3.312   2.177  16.908 -1.6302  0.3563 -1.6043
 2105SOL    HW217952   3.283   2.272  16.802 -1.0435  0.7604  0.4405
 2106SOL     OW17953   0.153   0.111   4.798  0.0816 -0.5566 -0.2066
 2106SOL    HW117954   0.153   0.148   4.886 -2.5623  2.0731 -1.3291
 2106SOL    HW217955   0.246   0.110   4.775  0.5858  0.8760  1.7721
 2107SOL     OW17956   0.977   0.925   4.487 -0.0617 -0.0461 -0.4621
 2107SOL    HW117957   0.969   0.928   4.582  0.1659  0.8589 -0.4737
 2107SOL    HW217958   0.891   0.917   4.446 -0.3685  0.7476  0.0289
 2108SOL     OW17959   2.442   3.411   2.160  0.1063  0.2436  0.4631
 2108SOL    HW117960   2.469   3.364   2.239  1.8140 -0.3751 -0.4765
 2108SOL    HW217961   2.474   3.499   2.179 -1.4169  0.7423  0.6746
 2109SOL     OW17962   2.203   2.149   6.418 -0.1915  0.0826  0.6703
 2109SOL    HW117963   2.282   2.104   6.447 -1.1538 -1.8294  0.3335
 2109SOL    HW217964   2.147   2.073   6.397  0.1659 -0.5505  2.0138
 2110SOL     OW17965   3.631   0.029   3.965 -0.1901  0.6631 -0.3035
 2110SOL    HW117966   3.633   4.691   3.904 -1.9363  1.3082 -1.1402
 2110SOL    HW217967   3.540   0.032   3.993 -0.0295 -0.2452  0.3020
 2111SOL     OW17968   4.140   1.280   7.951 -0.2678  0.0220 -0.3102
 2111SOL    HW117969   4.051   1.272   7.919 -0.2340 -0.9720 -0.1708
 2111SOL    HW217970   4.128   1.332   8.030 -0.0971 -0.9317  0.3467
 2112SOL     OW17971   4.634   4.382   3.765 -0.0316 -0.4445  0.3922
 2112SOL    HW117972   4.588   4.335   3.834  1.1069  0.1207  1.5185
 2112SOL    HW217973   4.618   4.475   3.779  2.9743  0.5938 -2.9520
 2113SOL     OW17974   2.119   4.585   3.870 -0.7202  0.2219 -0.3622
 2113SOL    HW117975   2.124   4.680   3.875 -3.2634  0.2367  1.9047
 2113SOL    HW217976   2.162   4.557   3.951  1.0452  1.2158 -0.9484
 2114SOL     OW17977   3.785   2.421   8.765  0.3692 -0.7276 -0.4137
 2114SOL    HW117978   3.735   2.417   8.846 -0.5786  0.4887 -0.9525
 2114SOL    HW217979   3.727   2.436   8.690 -0.8608 -2.4075  0.2020
 2115SOL     OW17980   0.415   3.567   7.669 -0.0874 -0.3790  0.2055
 2115SOL    HW117981   0.467   3.588   7.591  1.0004  0.2048  1.0881
 2115SOL    HW217982   0.382   3.653   7.698  1.2437 -0.5904  2.3752
 2116SOL     OW17983   4.296   1.172   4.081 -0.0809 -0.4993  0.6069
 2116SOL    HW117984   4.362   1.121   4.034  1.3211  0.0778  1.9818
 2116SOL    HW217985   4.250   1.110   4.136 -0.1558 -0.9924 -0.0147
 2117SOL     OW17986   2.141   1.442   8.773 -0.5873  0.0089 -0.0160
 2117SOL    HW117987   2.143   1.383   8.848 -0.0678 -0.1494 -0.1519
 2117SOL    HW217988   2.210   1.500   8.805  0.7435 -0.9677 -1.0831
 2118SOL     OW17989   3.829   2.001   8.786  0.1464 -0.2080  0.0363
 2118SOL    HW117990   3.852   1.930   8.845  0.6541 -0.5161 -0.5277
 2118SOL    HW217991   3.884   2.068   8.825 -0.0370 -0.8594  1.3981
 2119SOL     OW17992   4.191   3.591   8.567 -0.1089 -0.4144 -0.4208
 2119SOL    HW117993   4.262   3.558   8.622 -0.4332 -2.0383 -0.9823
 2119SOL    HW217994   4.134   3.620   8.638  0.0843  1.8421 -1.1932
 2120SOL     OW17995   0.484   3.878   5.775 -0.3133 -0.0494 -0.3728
 2120SOL    HW117996   0.446   3.834   5.700  0.7511  0.1085 -0.9966
 2120SOL    HW217997   0.413   3.871   5.839 -0.8628  0.4252 -0.9211
 2121SOL     OW17998   2.826   1.833   8.014 -0.0181 -0.0201  0.0770
 2121SOL    HW117999   2.894   1.851   8.079 -2.3960 -0.3958  2.6611
 2121SOL    HW218000   2.824   1.738   8.016 -0.7214  0.0003  0.4645
 2122SOL     OW18001   1.660   0.165   3.869  0.1642 -0.3137 -0.6303
 2122SOL    HW118002   1.648   0.130   3.957  1.8942  0.8106  0.0487
 2122SOL    HW218003   1.576   0.150   3.827  0.1215 -0.9825 -0.3036
 2123SOL     OW18004   3.987   0.316   9.792 -0.3087  0.2823 -0.2769
 2123SOL    HW118005   3.906   0.326   9.742 -0.2178 -0.5982 -0.6047
 2123SOL    HW218006   3.959   0.354   9.875  1.2646  2.9364 -0.9795
 2124SOL     OW18007   2.592   0.101   2.379  0.1164 -0.1558 -0.2352
 2124SOL    HW118008   2.531   0.154   2.431 -1.1357 -0.6515 -1.2025
 2124SOL    HW218009   2.547   0.017   2.384 -0.7076  0.4154  2.1203
 2125SOL     OW18010   3.215   2.212   6.427  0.1517  0.1273  0.0951
 2125SOL    HW118011   3.223   2.165   6.510 -0.8467 -0.2764 -0.0394
 2125SOL    HW218012   3.306   2.215   6.398  0.0391  2.9025  0.0750
 2126SOL     OW18013   3.669   1.760  17.560 -0.3839 -0.1247 -0.9165
 2126SOL    HW118014   3.630   1.718  17.637 -1.0159  0.4348 -0.9319
 2126SOL    HW218015   3.711   1.687  17.514  0.0895  0.2616 -1.0822
 2127SOL     OW18016   3.251   0.105  17.304  0.4775 -0.0575  0.0267
 2127SOL    HW118017   3.334   0.143  17.331  0.9082 -0.3218 -0.9240
 2127SOL    HW218018   3.261   0.057  17.222 -2.3651  1.4281 -1.1864
 2128SOL     OW18019   3.221   3.161   1.800 -0.1209 -0.4224 -0.3218
 2128SOL    HW118020   3.259   3.246   1.822 -1.1677  0.0098 -0.1907
 2128SOL    HW218021   3.301   3.129   1.758 -0.2227  0.4642 -1.1871
 2129SOL     OW18022   3.226   3.327   6.241 -0.2352  0.1072  0.3768
 2129SOL    HW118023   3.224   3.407   6.294  2.6825  2.1050 -2.5024
 2129SOL    HW218024   3.137   3.294   6.250  0.1839 -1.1237 -0.0201
 2130SOL     OW18025   3.307   3.120  14.515  0.3998  0.2427 -0.0565
 2130SOL    HW118026   3.237   3.174  14.480  2.2658  2.6943 -0.0667
 2130SOL    HW218027   3.271   3.078  14.593 -2.9754  0.8016 -1.3351
 2131SOL     OW18028   4.496   4.503  14.677  0.3618  0.4369 -0.6777
 2131SOL    HW118029   4.555   4.504  14.752 -0.2916  3.1153 -0.1973
 2131SOL    HW218030   4.412   4.489  14.719 -0.3926 -0.6476 -2.5353
 2132SOL     OW18031   3.129   3.158   4.146  0.3312 -0.1603 -0.4099
 2132SOL    HW118032   3.137   3.132   4.054  1.1016  1.3313 -0.7602
 2132SOL    HW218033   3.052   3.110   4.175  0.4083  1.1230  1.9168
 2133SOL     OW18034   1.288   1.946  17.532  0.1907 -0.1124  0.1402
 2133SOL    HW118035   1.283   1.985  17.445  0.8573  0.0878  0.1938
 2133SOL    HW218036   1.203   1.901  17.535 -0.1113  0.3878 -0.7068
 2134SOL     OW18037   0.215   0.411   3.799 -0.1408  0.1052  0.3860
 2134SOL    HW118038   0.302   0.377   3.818 -0.1166 -0.1525 -0.1833
 2134SOL    HW218039   0.166   0.335   3.768 -0.9820  0.1424  1.6409
 2135SOL     OW18040   4.512   0.891   5.104 -0.2128  0.4631  0.2096
 2135SOL    HW118041   4.584   0.858   5.050 -0.9571 -1.1553  0.2086
 2135SOL    HW218042   4.539   0.877   5.195  1.6277 -0.2294 -0.4377
 2136SOL     OW18043   3.255   3.909   2.639 -0.6261  0.3852 -0.1599
 2136SOL    HW118044   3.161   3.914   2.623 -0.4778  1.7994 -0.5971
 2136SOL    HW218045   3.263   3.927   2.732 -1.8786  1.1594 -0.2050
 2137SOL     OW18046   3.033   2.194   7.958 -0.0848  0.0460 -0.3383
 2137SOL    HW118047   2.999   2.105   7.946 -1.3182  0.4854 -0.0586
 2137SOL    HW218048   3.097   2.176   8.028  1.1932 -1.8333 -1.9645
 2138SOL     OW18049   3.775   3.893   2.970 -0.0445  0.2042 -0.4361
 2138SOL    HW118050   3.757   3.965   3.030 -0.7649  0.5322 -1.0371
 2138SOL    HW218051   3.866   3.877   2.994  0.3211 -0.1501 -2.0414
 2139SOL     OW18052   1.663   1.686   5.194 -0.3766 -0.8347 -0.5789
 2139SOL    HW118053   1.597   1.753   5.177 -0.0710  0.5474  3.7738
 2139SOL    HW218054   1.599   1.634   5.242  0.6512 -1.0638  0.5479
 2140SOL     OW18055   2.610   3.648   2.470  0.0832  0.5729  0.0999
 2140SOL    HW118056   2.610   3.560   2.433 -0.9604  1.2208 -1.4561
 2140SOL    HW218057   2.701   3.649   2.499  0.7057 -0.5020 -1.8664
 2141SOL     OW18058   1.370   1.848   4.512  0.6124  0.2957 -0.1846
 2141SOL    HW118059   1.390   1.776   4.452 -0.5648 -0.7572  0.6760
 2141SOL    HW218060   1.455   1.890   4.507  0.4289  0.5903 -0.7918
 2142SOL     OW18061   2.580   0.023   4.455  0.3613  0.2113 -0.1216
 2142SOL    HW118062   2.672   0.026   4.482  0.0429  0.8574  0.9063
 2142SOL    HW218063   2.564   4.666   4.443  0.3735  0.4959 -2.2512
 2143SOL     OW18064   4.714   0.502   5.626 -0.1837 -0.6155  0.0942
 2143SOL    HW118065   0.057   0.464   5.664 -0.8173  0.8146  2.8583
 2143SOL    HW218066   4.714   0.455   5.542 -0.8750  0.7783 -0.6788
 2144SOL     OW18067   2.971   2.002   7.042  0.2626  0.1959 -0.3918
 2144SOL    HW118068   2.915   2.059   7.095  0.5246 -0.3211  0.4388
 2144SOL    HW218069   3.056   2.046   7.051 -0.6004  1.8660 -0.4259
 2145SOL     OW18070   0.299   4.343   3.898  0.0601 -0.4053  0.1987
 2145SOL    HW118071   0.256   4.311   3.978  1.6516 -1.0796  0.7903
 2145SOL    HW218072   0.279   4.436   3.898  0.7176 -0.2758 -2.2647
 2146SOL     OW18073   2.422   3.568  16.515 -0.3974 -0.4099  0.3562
 2146SOL    HW118074   2.378   3.552  16.598 -0.0734  3.1156  1.2477
 2146SOL    HW218075   2.351   3.553  16.454 -1.3134 -1.9504  1.7980
 2147SOL     OW18076   4.029   2.236  14.197  0.0927  0.1633  0.2300
 2147SOL    HW118077   3.987   2.264  14.115  0.4096  0.9674  0.3469
 2147SOL    HW218078   3.956   2.238  14.259 -0.1002 -1.0525  0.0599
 2148SOL     OW18079   2.313   3.584  14.211 -0.5188  0.0538  0.3502
 2148SOL    HW118080   2.277   3.566  14.298  1.3910 -0.5396  1.0136
 2148SOL    HW218081   2.247   3.547  14.152  2.9781 -2.9849 -1.6799
 2149SOL     OW18082   3.760   2.810   4.405 -0.4660 -0.0684  0.0112
 2149SOL    HW118083   3.691   2.839   4.347 -1.1562 -1.0660  0.3227
 2149SOL    HW218084   3.813   2.750   4.352 -1.2194  1.2855 -2.2790
 2150SOL     OW18085   1.320   0.943   6.346  0.2214 -0.3972  0.0025
 2150SOL    HW118086   1.352   1.030   6.370 -1.0837  0.5706 -1.7122
 2150SOL    HW218087   1.400   0.897   6.369  1.2987 -0.1859 -3.2599
 2151SOL     OW18088   1.758   3.763   4.453 -0.0245  0.2381  0.7893
 2151SOL    HW118089   1.705   3.833   4.414  0.0967  0.4677  1.0421
 2151SOL    HW218090   1.726   3.690   4.400 -1.4810  1.7184 -0.3633
 2152SOL     OW18091   2.067   3.450   5.347 -0.6837 -0.2652 -0.2812
 2152SOL    HW118092   2.096   3.480   5.261  0.4849  1.0594  0.5806
 2152SOL    HW218093   1.972   3.456   5.337 -0.8990 -1.6411  0.9838
 2153SOL     OW18094   1.004   4.634   4.272  0.0430 -0.2061 -0.1440
 2153SOL    HW118095   1.087   4.589   4.291 -0.8003 -1.5404  0.3877
 2153SOL    HW218096   1.032   4.724   4.252 -0.9049  0.3867  1.1888
 2154SOL     OW18097   3.324   0.496  16.979  0.5004 -0.3861  0.5039
 2154SOL    HW118098   3.251   0.454  17.026  0.8711 -0.5121  0.9675
 2154SOL    HW218099   3.337   0.585  17.014  1.6743 -0.2131 -0.3809
 2155SOL     OW18100   0.677   1.176  10.209 -0.3344 -0.4117 -0.3055
 2155SOL    HW118101   0.610   1.244  10.212 -0.6417 -0.7468  0.3164
 2155SOL    HW218102   0.676   1.150  10.301  2.9461  2.1635  0.4380
 2156SOL     OW18103   3.952   1.869   4.576 -0.3983  0.2504  0.0567
 2156SOL    HW118104   3.928   1.920   4.654  0.0848  0.1286  0.2871
 2156SOL    HW218105   3.867   1.825   4.568  0.2943 -0.6376 -2.3378
 2157SOL     OW18106   1.152   4.331   5.830  0.0359 -0.2350 -0.0936
 2157SOL    HW118107   1.233   4.329   5.779  0.2672  0.0315  0.2613
 2157SOL    HW218108   1.153   4.426   5.847 -2.3293 -0.3343  0.6589
 2158SOL     OW18109   3.415   0.439   0.491 -0.4883  0.7663  0.2012
 2158SOL    HW118110   3.455   0.526   0.491  3.1282 -0.8758  0.0969
 2158SOL    HW218111   3.321   0.448   0.501 -0.7645 -2.5730  0.6023
 2159SOL     OW18112   0.984   1.526   3.793  0.6410 -0.6155 -0.8243
 2159SOL    HW118113   0.909   1.519   3.734 -0.5836  2.0822  0.4127
 2159SOL    HW218114   1.055   1.506   3.732  1.2952  0.6743 -0.5076
 2160SOL     OW18115   3.772   4.169   0.482 -0.6750  0.6899 -0.3028
 2160SOL    HW118116   3.733   4.122   0.556 -1.2729  2.3365  0.4501
 2160SOL    HW218117   3.694   4.220   0.459 -1.5481 -1.0279 -1.1599
 2161SOL     OW18118   2.516   4.175   2.988 -0.1127 -0.0916 -0.7937
 2161SOL    HW118119   2.594   4.161   2.935  1.0462  0.7421  0.6831
 2161SOL    HW218120   2.474   4.091   2.969  2.0452 -1.5995  1.0383
 2162SOL     OW18121   1.520   1.710   0.709  0.2409 -0.1159 -0.0995
 2162SOL    HW118122   1.481   1.715   0.797  0.8547  0.7666  0.1133
 2162SOL    HW218123   1.594   1.769   0.720 -0.3562  0.2747  1.8956
 2163SOL     OW18124   0.813   4.455   0.282  0.0492  0.1753 -0.3173
 2163SOL    HW118125   0.807   4.498   0.367 -0.4497 -1.0662  0.2874
 2163SOL    HW218126   0.764   4.524   0.239  1.5368 -0.4699 -3.0457
 2164SOL     OW18127   0.923   1.019   5.247 -0.1161 -0.0787  0.1206
 2164SOL    HW118128   0.957   1.067   5.323  0.6986 -1.0673  0.3852
 2164SOL    HW218129   0.916   1.092   5.185 -1.7265  0.2889  0.7275
 2165SOL     OW18130   1.693   4.116  13.577  0.6453 -0.9121 -0.9709
 2165SOL    HW118131   1.678   4.130  13.483 -2.2313  2.9861  0.0469
 2165SOL    HW218132   1.780   4.078  13.568  0.8361 -0.5967 -0.4246
 2166SOL     OW18133   3.091   4.324   8.523  0.4773 -0.5787  0.2743
 2166SOL    HW118134   3.174   4.338   8.475  0.1311  0.0885 -0.1365
 2166SOL    HW218135   3.118   4.257   8.585 -0.7402 -0.8701  0.4734
 2167SOL     OW18136   1.223   3.973   2.839 -0.3484 -0.2366  0.5528
 2167SOL    HW118137   1.254   4.006   2.755  3.3397  0.4322  2.2020
 2167SOL    HW218138   1.278   3.896   2.849 -0.4513 -0.1292  2.0164
 2168SOL     OW18139   3.857   1.537   3.679  0.0258 -0.4866 -0.4138
 2168SOL    HW118140   3.889   1.626   3.666 -1.7512  0.2869  0.5664
 2168SOL    HW218141   3.929   1.475   3.691 -0.1812 -1.0018 -1.7862
 2169SOL     OW18142   0.885   1.536   0.155  0.3145  0.1688  0.3773
 2169SOL    HW118143   0.823   1.589   0.203 -0.4265  1.0251 -1.5296
 2169SOL    HW218144   0.868   1.574   0.069  1.2974  0.8743  0.4896
 2170SOL     OW18145   0.076   1.299   3.052  0.0878 -0.1172  0.5468
 2170SOL    HW118146   0.115   1.365   2.994  0.5061  0.2671  1.2703
 2170SOL    HW218147   0.157   1.263   3.088  0.6688  1.2074  0.5519
 2171SOL     OW18148   3.183   3.212   3.862 -0.4121 -0.2876 -0.1303
 2171SOL    HW118149   3.211   3.156   3.790 -1.2182  1.0012 -1.4285
 2171SOL    HW218150   3.232   3.292   3.843 -1.1988  0.3505  0.5523
 2172SOL     OW18151   0.831   4.582  15.566 -0.1264  0.1054 -0.2990
 2172SOL    HW118152   0.867   4.629  15.491 -0.4275  0.9572  0.0931
 2172SOL    HW218153   0.896   4.513  15.578 -1.8763 -1.1336  2.0278
 2173SOL     OW18154   2.507   4.285  10.226  0.1237 -0.3487 -0.3777
 2173SOL    HW118155   2.587   4.234  10.232  0.5636  0.2390 -1.3215
 2173SOL    HW218156   2.476   4.270  10.315  0.7356 -0.2426 -0.1459
 2174SOL     OW18157   2.342   3.957   2.943 -0.1167 -0.7987 -0.2120
 2174SOL    HW118158   2.283   4.030   2.964  0.8245  0.1431 -0.8344
 2174SOL    HW218159   2.292   3.876   2.954  0.3326 -1.0972 -0.3623
 2175SOL     OW18160   3.117   3.281   5.409  0.0571 -0.3138  0.4681
 2175SOL    HW118161   3.139   3.196   5.447 -0.1909 -0.6247 -0.0713
 2175SOL    HW218162   3.160   3.335   5.475 -0.2713  1.2879 -0.6417
 2176SOL     OW18163   1.730   2.687   5.871 -0.1003  0.0841 -0.2696
 2176SOL    HW118164   1.724   2.727   5.784 -0.6745  0.9692  0.1819
 2176SOL    HW218165   1.650   2.635   5.877  0.7533 -1.5161 -2.3397
 2177SOL     OW18166   3.488   3.658  13.250  0.1738 -0.3028  0.4385
 2177SOL    HW118167   3.547   3.729  13.223  1.7815 -1.3064  1.3549
 2177SOL    HW218168   3.456   3.615  13.170 -1.9581  0.6857  0.7616
 2178SOL     OW18169   2.745   3.944   3.319  0.2961 -0.1193  0.1500
 2178SOL    HW118170   2.718   3.903   3.236 -0.0315 -0.0995  0.2456
 2178SOL    HW218171   2.777   4.027   3.284  0.7622 -0.5219 -0.3818
 2179SOL     OW18172   4.584   3.218   8.674  0.3088 -0.0960  0.1957
 2179SOL    HW118173   4.568   3.180   8.588 -1.7048 -1.7660  1.3214
 2179SOL    HW218174   4.497   3.215   8.715  0.8130 -0.6741  1.2138
 2180SOL     OW18175   3.624   1.123   0.989  0.2357 -0.0863  0.0603
 2180SOL    HW118176   3.620   1.028   0.980 -2.2779 -0.2704  3.2611
 2180SOL    HW218177   3.685   1.144   1.060  1.6942  0.2383 -1.2662
 2181SOL     OW18178   1.061   4.080   8.606 -0.1009  0.2631  0.0168
 2181SOL    HW118179   1.013   4.146   8.656 -0.4047 -1.9208  2.6161
 2181SOL    HW218180   1.003   4.005   8.614  2.6716 -1.6819  1.9316
 2182SOL     OW18181   4.118   1.964   7.891 -0.2939  0.4026 -0.0760
 2182SOL    HW118182   4.031   2.004   7.898 -1.3523 -1.8566 -0.3339
 2182SOL    HW218183   4.154   2.016   7.819 -1.2105 -0.6752 -1.3131
 2183SOL     OW18184   3.696   4.692   7.587  0.0150  0.0472  0.2496
 2183SOL    HW118185   3.775   0.005   7.562  0.0965 -1.4947 -2.5682
 2183SOL    HW218186   3.677   4.632   7.515  1.7602  2.4753 -2.2735
 2184SOL     OW18187   0.139   0.478   1.223 -0.5533  0.4850 -0.7913
 2184SOL    HW118188   0.192   0.448   1.149  0.3444  1.6184 -0.5909
 2184SOL    HW218189   0.109   0.391   1.251  0.7541  0.7049  1.2576
 2185SOL     OW18190   0.004   0.137   0.030 -0.3139  0.1708 -0.6254
 2185SOL    HW118191   4.668   0.077   0.047  0.7922 -1.3680 -1.3131
 2185SOL    HW218192   0.026   0.119  17.682 -0.2446 -0.0029 -0.5767
 2186SOL     OW18193   2.902   0.480  16.776 -0.2568  0.0598  0.0689
 2186SOL    HW118194   2.890   0.499  16.869  1.1932  3.1456 -0.3815
 2186SOL    HW218195   2.997   0.472  16.779 -0.2043 -0.2550 -2.3920
 2187SOL     OW18196   0.608   4.395   4.478 -0.0517 -0.2272  0.3879
 2187SOL    HW118197   0.679   4.447   4.516  0.6006  0.7757 -2.1809
 2187SOL    HW218198   0.623   4.303   4.496 -4.1670 -0.9941 -0.2083
 2188SOL     OW18199   1.987   2.427   3.252  0.2314 -0.3521 -0.2757
 2188SOL    HW118200   2.072   2.417   3.211 -0.3875 -1.3234 -1.3207
 2188SOL    HW218201   1.929   2.384   3.189  1.3382 -0.5397 -1.1668
 2189SOL     OW18202   3.424   0.730   0.905 -0.2870 -0.3139 -0.6952
 2189SOL    HW118203   3.354   0.758   0.964 -2.2581 -1.5619 -2.4275
 2189SOL    HW218204   3.405   0.637   0.913  1.3019 -0.5993 -0.1978
 2190SOL     OW18205   3.231   1.326   5.785  0.1345 -0.6177  0.6664
 2190SOL    HW118206   3.306   1.383   5.802 -0.3084  0.1404  0.0945
 2190SOL    HW218207   3.230   1.317   5.690 -0.7562 -1.3715  0.7412
 2191SOL     OW18208   2.527   0.252   6.685  0.1647 -0.1818  0.1207
 2191SOL    HW118209   2.612   0.296   6.683 -0.9550  1.8636 -1.9468
 2191SOL    HW218210   2.500   0.264   6.776 -1.1624 -1.8322 -0.0437
 2192SOL     OW18211   2.371   0.325   2.116 -0.0665  0.5317  0.2830
 2192SOL    HW118212   2.319   0.251   2.146  1.0324  0.2699  1.5225
 2192SOL    HW218213   2.293   0.377   2.095 -0.0584  1.2648  2.0635
 2193SOL     OW18214   0.600   4.204   3.442 -0.3580  0.5490 -0.2996
 2193SOL    HW118215   0.530   4.175   3.384  0.4509 -0.4089 -0.8054
 2193SOL    HW218216   0.656   4.265   3.394  0.4865  1.4083  1.7488
 2194SOL     OW18217   0.361   0.879   5.028 -0.5052 -0.4222  0.1795
 2194SOL    HW118218   0.337   0.906   5.117 -0.0650 -0.2593  0.2498
 2194SOL    HW218219   0.391   0.962   4.991 -0.8265 -0.2564  0.2924
 2195SOL     OW18220   1.232   4.119  16.761  0.1037  0.8351 -0.4544
 2195SOL    HW118221   1.226   4.128  16.666 -0.2118  1.3955 -0.3853
 2195SOL    HW218222   1.289   4.187  16.797 -0.7476  0.2748  1.9630
 2196SOL     OW18223   4.584   4.232   6.809 -0.0704  0.3269  0.1024
 2196SOL    HW118224   4.639   4.212   6.885 -0.3973 -1.9711 -0.2667
 2196SOL    HW218225   4.497   4.252   6.842  0.0610 -0.7239  1.0868
 2197SOL     OW18226   2.198   0.711   8.581  0.8182  0.3925 -0.4623
 2197SOL    HW118227   2.233   0.739   8.665 -4.6973  0.6866  1.7315
 2197SOL    HW218228   2.282   0.679   8.546 -0.6126 -1.3475 -2.2782
 2198SOL     OW18229   0.415   4.724   4.998 -0.0158  0.2132 -0.4021
 2198SOL    HW118230   0.374   0.074   4.985 -0.1597  0.5101  2.1320
 2198SOL    HW218231   0.340   4.671   5.025 -0.1421  1.0450  0.8588
 2199SOL     OW18232   4.031   1.587   9.132 -0.0439 -0.6188 -0.2975
 2199SOL    HW118233   3.977   1.555   9.205  1.2391  0.0771  0.9705
 2199SOL    HW218234   4.120   1.600   9.164  0.2575 -2.0457 -0.5487
 2200SOL     OW18235   0.503   1.849  17.611  0.6455 -0.0984  0.3477
 2200SOL    HW118236   0.429   1.800  17.647  1.1278  1.0501  2.8910
 2200SOL    HW218237   0.546   1.872  17.693 -0.4855 -1.8939  1.4295
 2201SOL     OW18238   4.065   1.324   1.639  1.0863 -0.0872 -0.0418
 2201SOL    HW118239   4.136   1.372   1.684 -1.5110  2.7011  1.1223
 2201SOL    HW218240   4.007   1.393   1.605  0.7952 -0.8434 -1.0658
 2202SOL     OW18241   1.312   3.353   0.742  0.1415  1.0153  0.4436
 2202SOL    HW118242   1.325   3.361   0.837  1.1764  0.6236  0.3394
 2202SOL    HW218243   1.369   3.281   0.716 -1.3212 -0.5666  1.6584
 2203SOL     OW18244   0.598   4.464  16.505  0.1032 -0.3575  0.1725
 2203SOL    HW118245   0.548   4.396  16.459  1.0717 -0.7352 -0.3191
 2203SOL    HW218246   0.644   4.418  16.575  0.6024 -0.3223 -0.1309
 2204SOL     OW18247   3.913   2.342   8.486 -0.0867  0.1776  0.8661
 2204SOL    HW118248   3.984   2.405   8.471  2.3869 -2.8518 -0.2031
 2204SOL    HW218249   3.858   2.395   8.543  1.2757  0.8825  1.5187
 2205SOL     OW18250   3.248   2.161   5.763 -0.3097 -0.2723 -0.1874
 2205SOL    HW118251   3.156   2.143   5.745 -0.5048  1.6729 -1.0984
 2205SOL    HW218252   3.276   2.208   5.684 -0.6134 -1.6637 -1.1232
 2206SOL     OW18253   1.768   4.196   8.264  0.1416 -0.5253 -0.0305
 2206SOL    HW118254   1.794   4.105   8.273 -0.0188 -0.4703  0.9551
 2206SOL    HW218255   1.695   4.191   8.326  0.5195  2.1655  0.6374
 2207SOL     OW18256   0.881   0.639   4.791 -0.3658  0.2229  0.0191
 2207SOL    HW118257   0.923   0.725   4.797 -2.4486  1.0672  2.9249
 2207SOL    HW218258   0.876   0.613   4.883  1.2614  1.0968  0.3573
 2208SOL     OW18259   0.338   1.095   2.512 -0.2895  0.4021  0.2319
 2208SOL    HW118260   0.413   1.072   2.566 -1.1691 -0.7674  0.9456
 2208SOL    HW218261   0.351   1.185   2.481  0.4575 -1.0998 -3.9040
 2209SOL     OW18262   4.631   0.069  12.733 -0.2989  0.1890 -0.2145
 2209SOL    HW118263   4.673   0.111  12.658  0.3913 -0.8018 -0.3900
 2209SOL    HW218264   4.602   0.149  12.777  0.6913  0.5254 -0.1788
 2210SOL     OW18265   3.701   4.213   9.203  0.1992 -0.3488  0.2149
 2210SOL    HW118266   3.779   4.266   9.213 -0.4939  0.0623  3.2857
 2210SOL    HW218267   3.731   4.164   9.126  0.5512  0.0551  0.0963
 2211SOL     OW18268   0.775   1.743  17.724 -0.0792  0.0780 -0.7700
 2211SOL    HW118269   0.734   1.797  17.657 -0.0399  0.2227 -0.6766
 2211SOL    HW218270   0.869   1.758  17.713  0.1800  0.6371  2.2767
 2212SOL     OW18271   1.843   2.615   2.788  0.5945 -0.0013  0.2972
 2212SOL    HW118272   1.935   2.626   2.811  0.7419  1.1221 -0.7756
 2212SOL    HW218273   1.806   2.703   2.797 -0.1255 -0.5230  2.2730
 2213SOL     OW18274   0.698   1.238   8.429 -0.1111  0.1604 -0.1142
 2213SOL    HW118275   0.792   1.257   8.424  0.3038 -1.6868  0.5922
 2213SOL    HW218276   0.689   1.226   8.335 -4.4877 -1.1718  0.4620
 2214SOL     OW18277   4.648   0.025   7.481  0.0164  0.2388  0.4148
 2214SOL    HW118278   4.630   0.117   7.464  1.1126  0.5852  1.1029
 2214SOL    HW218279   4.724   0.034   7.538  0.9934  1.5466 -1.0893
 2215SOL     OW18280   0.578   2.575   7.335  0.5715  0.1144  0.1222
 2215SOL    HW118281   0.536   2.578   7.249  1.0968  2.5543 -0.0648
 2215SOL    HW218282   0.513   2.620   7.389 -0.7665 -3.1279  1.2220
 2216SOL     OW18283   4.275   0.249   9.426 -0.5466 -0.6373  0.2933
 2216SOL    HW118284   4.327   0.328   9.439 -0.0003 -1.0231  0.4787
 2216SOL    HW218285   4.254   0.226   9.517  1.2328  2.0946  1.3711
 2217SOL     OW18286   2.917   0.003   2.675 -0.0732 -0.2095 -0.8707
 2217SOL    HW118287   3.005   4.730   2.639 -0.0332 -0.4689 -0.7075
 2217SOL    HW218288   2.875   4.666   2.629 -0.5128 -0.8349  0.5404
 2218SOL     OW18289   0.765   0.554   5.035  0.6804 -0.1428 -0.2800
 2218SOL    HW118290   0.672   0.568   5.023  0.8953  0.9859 -0.5787
 2218SOL    HW218291   0.793   0.639   5.067 -0.2760  1.0378 -2.6347
 2219SOL     OW18292   2.687   4.308   5.043 -0.3231  0.7023  0.6843
 2219SOL    HW118293   2.639   4.341   4.966 -0.4454 -0.4379  0.2811
 2219SOL    HW218294   2.674   4.214   5.042  1.0317  0.5132  2.7410
 2220SOL     OW18295   0.494   1.239  13.921  0.9427 -0.2001 -0.1723
 2220SOL    HW118296   0.542   1.177  13.865  1.0101  1.2950 -1.7540
 2220SOL    HW218297   0.473   1.313  13.865 -1.3033 -0.2875  0.5940
 2221SOL     OW18298   1.528   0.585   8.917  0.0261  0.0769  0.0474
 2221SOL    HW118299   1.546   0.628   9.001  1.1359 -0.2219 -0.0443
 2221SOL    HW218300   1.517   0.492   8.938 -0.3269  0.0846 -0.1007
 2222SOL     OW18301   0.997   2.372   0.679  0.2037  0.4847  0.0703
 2222SOL    HW118302   0.962   2.447   0.632  0.8886 -0.0317 -1.2988
 2222SOL    HW218303   0.998   2.310   0.606 -0.0530  0.6290 -0.0544
 2223SOL     OW18304   0.887   2.359   5.882  0.2830 -0.2201  0.0118
 2223SOL    HW118305   0.892   2.411   5.802  1.3911  0.6784  0.6596
 2223SOL    HW218306   0.878   2.433   5.942  0.2609 -1.1961  1.2169
 2224SOL     OW18307   0.949   3.278   7.529 -0.4968 -0.5518  0.4779
 2224SOL    HW118308   0.924   3.299   7.619  1.0627  0.9382  0.5577
 2224SOL    HW218309   1.005   3.201   7.537  0.6708  0.1630 -0.8627
 2225SOL     OW18310   2.845   2.405   1.449 -0.7250 -0.7468  0.5512
 2225SOL    HW118311   2.826   2.329   1.395 -0.8941 -0.0698 -0.3534
 2225SOL    HW218312   2.917   2.440   1.396  2.1096 -2.3985  3.3093
 2226SOL     OW18313   0.511   4.632   2.096  0.1643  0.2125 -0.0303
 2226SOL    HW118314   0.456   4.631   2.175  1.6822  0.1701  1.0337
 2226SOL    HW218315   0.454   4.681   2.037  1.3189  0.6047 -0.8171
 2227SOL     OW18316   0.561   4.221  11.820 -0.1515  0.6515 -0.7851
 2227SOL    HW118317   0.587   4.282  11.889 -0.8216  1.0283 -0.8645
 2227SOL    HW218318   0.568   4.276  11.742  0.9379  0.7808 -0.5908
 2228SOL     OW18319   0.130   4.458  16.738  0.0271  0.1834  0.5307
 2228SOL    HW118320   0.134   4.462  16.642 -1.4881 -2.1750  0.3738
 2228SOL    HW218321   0.214   4.488  16.771  0.9918 -1.1784 -0.6942
 2229SOL     OW18322   2.444   2.513   3.817 -0.0516  0.2367  0.2505
 2229SOL    HW118323   2.465   2.488   3.907 -0.9584  1.4764  0.8176
 2229SOL    HW218324   2.476   2.437   3.770 -0.6563  0.4721 -0.5431
 2230SOL     OW18325   1.540   1.656   9.552  0.3050  0.2075  0.2900
 2230SOL    HW118326   1.550   1.671   9.646 -0.8428  4.4797 -0.2957
 2230SOL    HW218327   1.471   1.716   9.524  0.4996  0.0917 -0.4342
 2231SOL     OW18328   2.818   4.337  15.544  0.0353  0.3413 -0.0015
 2231SOL    HW118329   2.904   4.325  15.584  0.1698  5.4026  1.2799
 2231SOL    HW218330   2.792   4.420  15.584 -2.2268 -0.7038  0.6891
 2232SOL     OW18331   0.396   0.636  16.772  0.7140  0.4237 -0.5502
 2232SOL    HW118332   0.407   0.670  16.861 -0.6936 -0.8976  0.1249
 2232SOL    HW218333   0.338   0.564  16.793 -2.3715  1.9106 -3.8821
 2233SOL     OW18334   2.845   2.697   6.144  0.1249 -0.1491 -0.3577
 2233SOL    HW118335   2.841   2.602   6.139 -2.4229 -0.1853  1.9647
 2233SOL    HW218336   2.871   2.715   6.235 -0.2869  0.6798 -0.3956
 2234SOL     OW18337   1.279   1.109   7.320  1.2398  0.2384  0.0674
 2234SOL    HW118338   1.308   1.099   7.411 -1.0156 -2.1522  0.4974
 2234SOL    HW218339   1.186   1.130   7.332  0.7843 -1.2869 -0.8038
 2235SOL     OW18340   2.799   3.116  16.248 -0.4773  0.0793 -0.0829
 2235SOL    HW118341   2.864   3.121  16.318  1.2191 -3.0242 -1.4364
 2235SOL    HW218342   2.734   3.054  16.281 -3.3472  4.7651  3.0351
 2236SOL     OW18343   1.867   4.431  17.562  0.2071  0.3942  0.2860
 2236SOL    HW118344   1.847   4.337  17.560  0.3584  0.3333  2.0307
 2236SOL    HW218345   1.779   4.460  17.586  1.6006  1.2411  4.3507
 2237SOL     OW18346   0.669   1.190  11.496 -0.4719 -0.4161 -0.0203
 2237SOL    HW118347   0.694   1.252  11.565  0.9674 -0.5983 -0.3884
 2237SOL    HW218348   0.689   1.249  11.424 -0.1082  0.8295  1.0874
 2238SOL     OW18349   4.633   0.865   2.463 -0.8132  0.8551 -0.3896
 2238SOL    HW118350   4.667   0.800   2.524  0.7348  0.9265 -1.1664
 2238SOL    HW218351   4.555   0.824   2.425 -0.3525 -0.2546 -0.1418
 2239SOL     OW18352   0.333   1.400   1.100 -0.4555  0.4389 -0.0813
 2239SOL    HW118353   0.376   1.431   1.179  0.4602  0.9259 -0.7641
 2239SOL    HW218354   0.343   1.306   1.116  0.1669 -0.0214 -3.0610
 2240SOL     OW18355   1.252   2.570   1.993 -0.3067  0.2016 -0.4934
 2240SOL    HW118356   1.243   2.475   1.986  1.9870 -0.0462 -0.1767
 2240SOL    HW218357   1.183   2.610   1.940 -1.0188  0.3181  0.5290
 2241SOL     OW18358   0.965   0.568   6.230  0.0369 -0.4723  0.2548
 2241SOL    HW118359   0.923   0.505   6.170  2.1423 -1.3440 -0.3151
 2241SOL    HW218360   1.053   0.579   6.194  0.4216 -1.2897  0.9378
 2242SOL     OW18361   2.057   0.615   8.174  0.1727  0.3147 -0.1058
 2242SOL    HW118362   2.012   0.538   8.140 -1.7584  1.5453 -0.3286
 2242SOL    HW218363   2.124   0.578   8.232  0.7870  0.3624 -0.7817
 2243SOL     OW18364   1.293   4.113   5.573 -0.0059 -0.4273 -0.8180
 2243SOL    HW118365   1.293   4.043   5.508  2.7665  0.4550 -1.7387
 2243SOL    HW218366   1.369   4.163   5.547  0.3961 -1.1225 -0.9835
 2244SOL     OW18367   2.707   2.666   3.649 -0.5491 -0.2378  0.1169
 2244SOL    HW118368   2.790   2.621   3.637 -1.0139 -0.5108 -2.1178
 2244SOL    HW218369   2.740   2.756   3.659 -1.4557  0.2558 -1.2067
 2245SOL     OW18370   3.989   3.546   8.014  0.0851  0.6202 -0.0450
 2245SOL    HW118371   3.957   3.576   7.928  3.5136 -0.9643 -1.8683
 2245SOL    HW218372   4.077   3.582   8.007 -0.2722  1.3698 -0.7675
 2246SOL     OW18373   4.296   3.383  14.421  0.0628 -0.5592  0.3686
 2246SOL    HW118374   4.370   3.347  14.470  1.0612  1.2931  0.2156
 2246SOL    HW218375   4.229   3.324  14.457  1.4458 -1.5790  1.3099
 2247SOL     OW18376   4.117   2.883   8.487  0.2143  0.1557  0.0493
 2247SOL    HW118377   4.204   2.919   8.468  0.6242  0.1870  1.9983
 2247SOL    HW218378   4.091   2.938   8.561 -2.1282  0.8082 -1.2665
 2248SOL     OW18379   0.515   3.153   4.374 -0.0829  0.1126  0.1340
 2248SOL    HW118380   0.471   3.146   4.459 -2.0593 -0.8631 -0.9648
 2248SOL    HW218381   0.467   3.233   4.350 -2.5686 -0.9021  1.7165
 2249SOL     OW18382   2.848   3.652  14.357  0.5960 -0.0098 -0.1530
 2249SOL    HW118383   2.843   3.728  14.299  2.5914  0.0548 -0.2695
 2249SOL    HW218384   2.908   3.682  14.425  1.2826 -1.0927 -0.2756
 2250SOL     OW18385   2.669   4.657   7.267 -0.3559  0.1632 -0.4506
 2250SOL    HW118386   2.617   4.736   7.277 -1.6640 -1.0054  2.0533
 2250SOL    HW218387   2.610   4.596   7.224  0.0533 -1.9420  1.9275
 2251SOL     OW18388   0.687   3.999   7.550  0.3251  0.0509  0.0351
 2251SOL    HW118389   0.762   4.055   7.527 -1.8758  2.8288 -0.3678
 2251SOL    HW218390   0.625   4.063   7.585  0.2566 -0.3238  0.5946
 2252SOL     OW18391   4.066   2.940   3.376  0.6038  0.2155  0.2609
 2252SOL    HW118392   4.011   2.863   3.392 -1.9255  1.7911 -0.9550
 2252SOL    HW218393   4.057   2.988   3.458 -0.2958  0.1513  0.2054
 2253SOL     OW18394   2.186   1.766   8.370  0.0486  0.5563  0.2487
 2253SOL    HW118395   2.176   1.675   8.399 -1.8614  0.9148  0.6943
 2253SOL    HW218396   2.216   1.809   8.449 -0.9934 -0.6147  1.2956
 2254SOL     OW18397   0.345   0.723   3.900 -0.5183 -0.2180  0.7218
 2254SOL    HW118398   0.405   0.682   3.962  0.1321 -0.1476  0.1437
 2254SOL    HW218399   0.377   0.694   3.814  0.2598 -2.0644  1.6205
 2255SOL     OW18400   3.901   2.722   2.394 -0.0494  0.3783 -0.3392
 2255SOL    HW118401   3.962   2.755   2.328  0.5279 -0.2983 -0.1383
 2255SOL    HW218402   3.957   2.653   2.430 -1.5246  0.2655  1.7909
 2256SOL     OW18403   0.037   2.218   2.980  0.2013 -0.0099 -0.2033
 2256SOL    HW118404   4.704   2.274   3.017 -0.8393 -2.1761  1.1316
 2256SOL    HW218405   0.111   2.277   2.992 -0.8562  1.2015  0.4152
 2257SOL     OW18406   1.007   2.901  15.016 -0.3370 -0.4039  0.0129
 2257SOL    HW118407   0.926   2.946  15.040  0.5295  1.6577 -0.8539
 2257SOL    HW218408   1.015   2.921  14.923 -0.1516  2.3727  0.6217
 2258SOL     OW18409   1.077   0.649  13.543 -0.3421  0.0113  0.6317
 2258SOL    HW118410   1.091   0.564  13.585 -1.1113 -0.3491  0.1506
 2258SOL    HW218411   0.981   0.646  13.541 -0.4555  3.1767  1.7105
 2259SOL     OW18412   0.537   1.553   7.121  0.5254 -0.0568  0.6907
 2259SOL    HW118413   0.461   1.511   7.162  1.1303 -2.4924 -0.6859
 2259SOL    HW218414   0.541   1.640   7.161  4.5583 -0.3907  0.9797
 2260SOL     OW18415   0.785   1.084  15.312 -0.5801  0.0433  0.3286
 2260SOL    HW118416   0.845   1.153  15.339  0.2025  0.3088 -2.1101
 2260SOL    HW218417   0.743   1.066  15.396  1.5951  1.3790  1.6777
 2261SOL     OW18418   2.375   0.571   6.511  0.1878  0.3522  0.3016
 2261SOL    HW118419   2.366   0.577   6.416  0.9690  1.3473  0.2960
 2261SOL    HW218420   2.385   0.477   6.530  1.9077  0.8528  1.8290
 2262SOL     OW18421   0.404   1.212   7.177 -0.2045  0.0954 -0.3030
 2262SOL    HW118422   0.402   1.177   7.266 -2.0409 -0.9609 -0.7615
 2262SOL    HW218423   0.496   1.237   7.165  0.5513 -3.2911 -1.5847
 2263SOL     OW18424   2.912   0.839   3.744 -0.1639 -0.3234 -0.0961
 2263SOL    HW118425   2.861   0.768   3.783 -0.6669 -0.7295 -1.4793
 2263SOL    HW218426   2.951   0.796   3.668 -0.3748 -0.5706 -0.0637
 2264SOL     OW18427   4.354   2.418   5.572 -0.6096 -0.2804  0.6407
 2264SOL    HW118428   4.280   2.358   5.574  1.9703 -3.5511 -1.1664
 2264SOL    HW218429   4.423   2.354   5.555  0.7201  1.3513 -0.1601
 2265SOL     OW18430   1.205   1.595   5.937 -0.1145 -0.2577 -0.5293
 2265SOL    HW118431   1.141   1.529   5.963 -0.3601  0.8307  1.5801
 2265SOL    HW218432   1.284   1.540   5.941 -0.9583 -1.4719 -0.5129
 2266SOL     OW18433   0.143   3.955   8.088 -0.1218  0.0593  0.1228
 2266SOL    HW118434   0.230   3.931   8.056  0.7621  1.9234  1.0936
 2266SOL    HW218435   0.155   4.050   8.086 -3.0678  0.4170 -0.1982
 2267SOL     OW18436   2.611   2.393  15.806 -0.5986 -0.0199 -0.1369
 2267SOL    HW118437   2.614   2.468  15.748 -0.1512  0.5342  0.6072
 2267SOL    HW218438   2.702   2.369  15.825 -0.7398 -1.8895 -1.8513
 2268SOL     OW18439   2.666   1.543  11.445  0.4449 -0.3322  0.3810
 2268SOL    HW118440   2.677   1.533  11.351 -0.7352 -3.2469  0.5561
 2268SOL    HW218441   2.572   1.555  11.459  0.3875 -0.6857  0.2935
 2269SOL     OW18442   4.635   3.642   0.447 -0.0618 -0.0463  0.2716
 2269SOL    HW118443   4.696   3.581   0.488 -0.3528 -1.8238 -1.9441
 2269SOL    HW218444   4.625   3.596   0.363  1.9744 -2.2181  1.2148
 2270SOL     OW18445   3.874   4.470   0.988 -0.0916 -0.2563  0.3399
 2270SOL    HW118446   3.801   4.409   1.000  1.0361 -1.8819 -0.9070
 2270SOL    HW218447   3.854   4.502   0.900  0.8721  0.2746  0.3155
 2271SOL     OW18448   0.800   1.188   3.504  0.1018 -0.4418 -0.7333
 2271SOL    HW118449   0.730   1.172   3.441  0.6660 -0.0477 -1.4585
 2271SOL    HW218450   0.865   1.226   3.446 -0.7222  0.9421 -0.7459
 2272SOL     OW18451   2.862   0.314   4.868 -1.0432  0.1709  0.2897
 2272SOL    HW118452   2.880   0.338   4.959  0.9136 -0.4490  0.0658
 2272SOL    HW218453   2.922   0.370   4.819 -1.1393 -0.5479 -0.6566
 2273SOL     OW18454   3.886   4.615   2.423  0.3293 -0.4116  0.2878
 2273SOL    HW118455   3.912   4.542   2.479 -0.4767 -0.3020  0.8217
 2273SOL    HW218456   3.930   4.688   2.466  0.5807  0.8282 -2.0864
 2274SOL     OW18457   3.727   2.499   0.884 -0.3517 -1.1401 -0.0037
 2274SOL    HW118458   3.706   2.581   0.929 -1.0909 -0.1486 -2.1830
 2274SOL    HW218459   3.789   2.529   0.817 -0.4344 -0.0712  0.4037
 2275SOL     OW18460   1.647   4.734   1.626  0.3297 -0.1553 -0.0007
 2275SOL    HW118461   1.680   0.075   1.670 -0.7018 -0.5773  1.5052
 2275SOL    HW218462   1.619   0.036   1.542  1.8182 -1.2863 -1.0124
 2276SOL     OW18463   3.297   3.926   6.574  0.4001  0.0278  0.5361
 2276SOL    HW118464   3.300   3.912   6.668  0.9551 -1.9343  0.2313
 2276SOL    HW218465   3.207   3.901   6.553  0.7690  1.1052 -2.4175
 2277SOL     OW18466   2.302   4.551   9.574 -0.3875 -0.6148 -0.4382
 2277SOL    HW118467   2.298   4.640   9.608 -1.3318 -1.3168  1.2673
 2277SOL    HW218468   2.347   4.574   9.493  1.3677  0.3918  0.8359
 2278SOL     OW18469   3.670   4.122   9.611  0.3423 -0.3603 -0.6768
 2278SOL    HW118470   3.640   4.211   9.629  1.1278 -0.2023 -0.1618
 2278SOL    HW218471   3.630   4.078   9.686  0.6801 -0.9596 -0.8448
 2279SOL     OW18472   2.448   0.068  12.627 -0.2121 -0.2087  0.7641
 2279SOL    HW118473   2.400   4.722  12.618 -1.3641  0.4994  0.3678
 2279SOL    HW218474   2.436   0.106  12.714  2.7388 -1.6462  1.7772
 2280SOL     OW18475   2.579   0.319  16.043 -0.3384 -0.0803  0.4091
 2280SOL    HW118476   2.532   0.236  16.056  0.8357 -0.8958 -0.6162
 2280SOL    HW218477   2.507   0.380  16.062 -1.8957 -1.7749 -0.0014
 2281SOL     OW18478   2.423   0.052   3.789 -0.4592 -0.3355 -0.0927
 2281SOL    HW118479   2.443   0.035   3.881 -0.1012  1.0553  0.0937
 2281SOL    HW218480   2.336   0.091   3.780  0.5894  2.2171  0.8385
 2282SOL     OW18481   3.313   2.757   2.315  0.2937 -0.4159 -0.1765
 2282SOL    HW118482   3.249   2.686   2.318  0.1920 -0.2868  0.7682
 2282SOL    HW218483   3.385   2.716   2.266 -0.3522 -2.1774  0.3495
 2283SOL     OW18484   2.838   0.826   9.000  0.0944  0.6817  0.1664
 2283SOL    HW118485   2.867   0.887   9.067  0.8474  1.0008 -0.4469
 2283SOL    HW218486   2.749   0.859   8.988 -0.3195 -0.1704  0.9099
 2284SOL     OW18487   2.783   0.731   6.936 -0.0904 -0.0737  0.4828
 2284SOL    HW118488   2.725   0.804   6.916  1.8809  1.1772 -0.6182
 2284SOL    HW218489   2.827   0.719   6.851  0.1174 -2.3362  0.9126
 2285SOL     OW18490   4.319   3.148   1.478  0.4921  0.2231  0.0893
 2285SOL    HW118491   4.345   3.238   1.500  1.3086 -0.3634  1.4928
 2285SOL    HW218492   4.225   3.161   1.461 -0.2522  0.0969  4.0945
 2286SOL     OW18493   1.555   1.389  13.266  0.5673 -0.3137 -0.2522
 2286SOL    HW118494   1.479   1.336  13.293 -0.8989  0.3334 -3.1356
 2286SOL    HW218495   1.530   1.476  13.298  1.0141 -0.5623  0.7776
 2287SOL     OW18496   1.143   0.469  10.284  0.3400 -0.6521  0.1624
 2287SOL    HW118497   1.053   0.481  10.253 -0.0709 -1.1836  1.1195
 2287SOL    HW218498   1.192   0.542  10.246 -0.6596 -0.1192 -0.0980
 2288SOL     OW18499   0.906   2.023   5.606  0.2126  0.0751 -0.4199
 2288SOL    HW118500   0.874   1.938   5.637  0.1030 -0.2620 -1.4587
 2288SOL    HW218501   0.976   2.003   5.545  1.2530  4.0670 -0.5176
 2289SOL     OW18502   0.699   0.883  13.042 -0.6966 -0.2840  0.0030
 2289SOL    HW118503   0.706   0.855  12.950 -3.0804  0.9630 -0.5612
 2289SOL    HW218504   0.727   0.974  13.029 -3.1191  0.3938 -0.4558
 2290SOL     OW18505   2.393   3.629  17.311  0.5687 -0.1865 -0.3232
 2290SOL    HW118506   2.408   3.717  17.278  2.1522 -0.3189  0.0450
 2290SOL    HW218507   2.438   3.632  17.395 -0.4959 -2.1852  0.3184
 2291SOL     OW18508   4.522   2.509   8.669  0.2645 -0.2822 -0.1764
 2291SOL    HW118509   4.428   2.529   8.676  0.0615 -1.4102  0.4005
 2291SOL    HW218510   4.523   2.464   8.584 -1.1616 -0.4024 -0.1377
 2292SOL     OW18511   3.816   3.654   2.065  0.4607 -0.0012  0.1501
 2292SOL    HW118512   3.855   3.568   2.053 -2.3323 -1.4982  1.8955
 2292SOL    HW218513   3.842   3.682   2.153 -0.7390 -0.3269  0.6030
 2293SOL     OW18514   0.599   3.927   4.578  0.5297  0.8761  0.2481
 2293SOL    HW118515   0.571   4.007   4.623  0.3933  0.1761  1.3807
 2293SOL    HW218516   0.515   3.880   4.575  0.6207  0.7300 -0.0530
 2294SOL     OW18517   2.986   2.682  10.678  0.0295  0.3419  0.4393
 2294SOL    HW118518   3.067   2.642  10.647  0.6344  2.8140 -1.1244
 2294SOL    HW218519   3.001   2.691  10.772  1.1604 -0.5274  0.3404
 2295SOL     OW18520   3.500   0.313   6.519 -0.3811  0.0367 -0.0005
 2295SOL    HW118521   3.512   0.276   6.607  0.0284 -1.9536 -0.9013
 2295SOL    HW218522   3.405   0.306   6.510 -0.4570 -0.1091  0.9054
 2296SOL     OW18523   3.532   0.538  16.808 -0.5881  0.1364  0.0300
 2296SOL    HW118524   3.468   0.522  16.878 -0.0818 -0.9827  0.2204
 2296SOL    HW218525   3.610   0.580  16.845  0.1552  0.8875 -2.4236
 2297SOL     OW18526   2.169   3.555  14.448 -0.0482  0.2339 -0.0907
 2297SOL    HW118527   2.197   3.536  14.538 -0.0838  0.3095 -0.0635
 2297SOL    HW218528   2.166   3.650  14.459 -0.5652  0.1919  0.1646
 2298SOL     OW18529   3.936   1.447   8.391 -0.5187 -0.1889 -0.0626
 2298SOL    HW118530   4.003   1.460   8.324  0.0305  0.3038  0.5825
 2298SOL    HW218531   3.969   1.505   8.459 -1.5879 -1.4301  1.5299
 2299SOL     OW18532   3.348   0.467   1.010 -1.0204 -0.2469 -0.7578
 2299SOL    HW118533   3.270   0.418   1.035 -0.3235 -0.3319  1.2176
 2299SOL    HW218534   3.397   0.397   0.965  1.0866  0.1830  0.8616
 2300SOL     OW18535   1.976   1.328   3.679  0.6399  0.1969 -0.4795
 2300SOL    HW118536   1.928   1.340   3.597 -0.8164 -0.7850  0.2353
 2300SOL    HW218537   1.970   1.417   3.711 -0.6160  0.1780 -0.6422
 2301SOL     OW18538   2.815   4.578   3.626 -0.0467  0.1631 -0.2285
 2301SOL    HW118539   2.721   4.597   3.624 -0.0277  0.0003 -3.1012
 2301SOL    HW218540   2.823   4.551   3.534 -1.6735 -0.4028 -0.1969
 2302SOL     OW18541   0.859   3.689   4.238  0.0740 -0.3109 -0.1153
 2302SOL    HW118542   0.829   3.735   4.316  2.4271  0.0606  0.5494
 2302SOL    HW218543   0.906   3.616   4.279  0.4571  0.6652  1.1543
 2303SOL     OW18544   3.372   0.053   9.613 -0.2534  0.0838  0.0491
 2303SOL    HW118545   3.442   0.114   9.633  1.5829 -1.4776 -1.5730
 2303SOL    HW218546   3.336   0.071   9.526 -0.7381 -0.9922  0.0245
 2304SOL     OW18547   1.918   3.858  12.312 -0.5570  0.4349 -0.2488
 2304SOL    HW118548   1.996   3.826  12.356 -1.0041 -0.1916  0.0867
 2304SOL    HW218549   1.860   3.793  12.353  0.2222  0.1291  0.3551
 2305SOL     OW18550   3.935   3.593   8.282  0.3516  0.5632 -1.0541
 2305SOL    HW118551   3.874   3.529   8.321  0.8162 -0.7287 -2.4479
 2305SOL    HW218552   3.942   3.551   8.197 -0.9999  0.7964 -1.2837
 2306SOL     OW18553   3.147   1.859   9.043  0.0172  0.2544  0.0848
 2306SOL    HW118554   3.201   1.782   9.028  0.8307  0.6906  0.7964
 2306SOL    HW218555   3.204   1.931   9.017 -0.2548  0.4085 -0.0772
 2307SOL     OW18556   2.036   1.879   7.902  0.3369 -0.2141 -0.0685
 2307SOL    HW118557   2.106   1.929   7.862 -1.4209  0.8696 -1.7600
 2307SOL    HW218558   2.091   1.816   7.948  1.5953  0.4879 -0.6120
 2308SOL     OW18559   1.234   1.769   7.651 -0.2649  0.1586  0.3098
 2308SOL    HW118560   1.201   1.694   7.602  0.3864  0.2851 -0.3374
 2308SOL    HW218561   1.215   1.841   7.591 -0.5504  1.4323  1.9424
 2309SOL     OW18562   0.254   3.259   7.453  0.7722 -0.0531 -0.2695
 2309SOL    HW118563   0.175   3.213   7.483 -0.3657  0.1347 -3.0134
 2309SOL    HW218564   0.305   3.178   7.450  2.8341  1.2140  0.5338
 2310SOL     OW18565   3.939   1.248   9.561 -0.1828  0.5759  0.6562
 2310SOL    HW118566   3.898   1.177   9.512 -0.1253  0.9613  0.0515
 2310SOL    HW218567   3.859   1.263   9.612 -0.7306 -1.4645  0.3843
 2311SOL     OW18568   2.686   4.587  10.152  0.0321  0.0579 -0.1806
 2311SOL    HW118569   2.668   4.635  10.233  0.8816 -0.3069  0.2352
 2311SOL    HW218570   2.595   4.572  10.127 -0.1186  2.8933 -1.3593
 2312SOL     OW18571   0.652   3.122   3.377  0.5296 -0.2902  0.1826
 2312SOL    HW118572   0.666   3.129   3.472  0.5237 -0.2638  0.1813
 2312SOL    HW218573   0.585   3.189   3.364  1.3833  0.2844 -1.1847
 2313SOL     OW18574   4.253   2.562   0.415 -0.4054  0.0228 -0.1642
 2313SOL    HW118575   4.277   2.486   0.363 -0.5352 -1.2296  1.6258
 2313SOL    HW218576   4.207   2.610   0.346 -0.4960 -1.5984 -1.2101
 2314SOL     OW18577   0.253   3.344   6.221 -0.1884  0.1483 -0.0137
 2314SOL    HW118578   0.329   3.286   6.221  0.6009  1.1849  0.0217
 2314SOL    HW218579   0.186   3.291   6.178 -0.1487 -0.7026  0.9802
 2315SOL     OW18580   1.198   0.212  13.941  0.6574  0.4144  0.1293
 2315SOL    HW118581   1.187   0.221  13.846 -0.1024 -3.4472 -0.1530
 2315SOL    HW218582   1.268   0.146  13.950  0.3890  0.2630  1.0525
 2316SOL     OW18583   0.405   3.863   8.081 -0.6172  0.0098  0.4892
 2316SOL    HW118584   0.438   3.855   8.170 -0.3089 -0.6893  0.3077
 2316SOL    HW218585   0.362   3.779   8.065  2.3015 -1.5637  0.9647
 2317SOL     OW18586   4.174   0.203   3.882 -0.1743 -0.0130  0.8231
 2317SOL    HW118587   4.109   0.266   3.914  0.3130  0.6012  0.5841
 2317SOL    HW218588   4.125   0.161   3.811  0.5349 -0.5551  0.6562
 2318SOL     OW18589   0.414   1.228   6.215  0.1993 -0.3918  0.4441
 2318SOL    HW118590   0.384   1.261   6.300 -5.0871  0.8639 -1.9470
 2318SOL    HW218591   0.334   1.194   6.176 -1.2300  1.7199  1.5743
 2319SOL     OW18592   2.584   0.658   8.101  0.0038  0.0728  0.1013
 2319SOL    HW118593   2.517   0.717   8.135 -0.8688  0.2296 -1.8619
 2319SOL    HW218594   2.532   0.580   8.079 -2.9691  1.8563  0.8453
 2320SOL     OW18595   3.519   3.918   3.952  0.1306  0.0430  0.1671
 2320SOL    HW118596   3.497   3.894   4.042  0.2691 -0.7765 -0.0214
 2320SOL    HW218597   3.467   3.998   3.950  1.2376  0.7787  1.0020
 2321SOL     OW18598   2.892   4.720   1.345  0.3390  0.1346  0.0943
 2321SOL    HW118599   2.798   0.003   1.339  0.3648 -0.6446 -2.7332
 2321SOL    HW218600   2.905   4.735   1.438  2.6539  0.2319 -0.2339
 2322SOL     OW18601   3.503   3.141  11.632 -0.1537 -0.0705 -0.3909
 2322SOL    HW118602   3.422   3.112  11.675 -1.6110  1.2234 -2.2893
 2322SOL    HW218603   3.565   3.083  11.676 -0.2833  0.6813  0.7831
 2323SOL     OW18604   3.726   1.080   3.035  0.9577 -0.0231  0.3414
 2323SOL    HW118605   3.715   0.988   3.009  1.8458 -0.0704  0.1522
 2323SOL    HW218606   3.796   1.061   3.098  0.9146  0.3908  0.5163
 2324SOL     OW18607   4.170   0.124   5.919  0.5389 -0.3107  0.2790
 2324SOL    HW118608   4.230   0.050   5.914 -0.6080 -1.1285 -1.4142
 2324SOL    HW218609   4.200   0.168   5.839 -2.9246  1.1740 -0.2080
 2325SOL     OW18610   4.299   1.616   1.420 -0.6444  0.4766 -0.2667
 2325SOL    HW118611   4.323   1.617   1.513 -2.8982 -1.8801  0.3193
 2325SOL    HW218612   4.340   1.702   1.409 -0.4625  0.3993 -0.1959
 2326SOL     OW18613   0.871   2.863   7.376 -0.7173  0.2118 -0.4887
 2326SOL    HW118614   0.913   2.806   7.440  0.8445  1.5679 -0.2906
 2326SOL    HW218615   0.792   2.853   7.430 -1.5313  3.2513 -1.0662
 2327SOL     OW18616   1.495   4.668  14.875 -0.8838  0.0181 -0.0713
 2327SOL    HW118617   1.460   4.664  14.786 -0.6159 -0.0746 -0.1740
 2327SOL    HW218618   1.536   0.018  14.872  0.8402 -0.7745  0.1230
 2328SOL     OW18619   3.802   0.832  15.466  0.3334  0.1191 -0.0135
 2328SOL    HW118620   3.890   0.865  15.485  0.3782 -0.8088  1.3623
 2328SOL    HW218621   3.762   0.915  15.440  1.0634  0.1239 -1.0916
 2329SOL     OW18622   0.001   1.192  16.557  0.1570 -0.5223  0.3022
 2329SOL    HW118623   0.051   1.139  16.619  1.5051  1.9595  1.3484
 2329SOL    HW218624   0.057   1.262  16.523 -1.3362 -1.0805 -3.3253
 2330SOL     OW18625   1.828   3.348  13.659 -0.1861 -0.8211  0.2484
 2330SOL    HW118626   1.829   3.262  13.616  1.9343 -0.1493 -1.0938
 2330SOL    HW218627   1.779   3.405  13.600  0.9339  0.0197  0.1207
 2331SOL     OW18628   3.174   3.151  17.429  0.1474 -0.8924 -0.2630
 2331SOL    HW118629   3.248   3.095  17.452  0.6397  1.0619  2.8404
 2331SOL    HW218630   3.187   3.160  17.335 -1.1703  0.3886 -0.3243
 2332SOL     OW18631   3.800   3.671   4.537 -0.1222 -0.2571  0.4098
 2332SOL    HW118632   3.755   3.590   4.563  0.6969 -0.6745  0.5230
 2332SOL    HW218633   3.824   3.694   4.627  2.0103  0.0574 -0.2341
 2333SOL     OW18634   4.276   2.364   8.760  0.0801 -0.0946 -0.2001
 2333SOL    HW118635   4.207   2.307   8.724 -2.2094  3.0426 -0.7513
 2333SOL    HW218636   4.259   2.441   8.705  0.6040  1.1359  1.3701
 2334SOL     OW18637   1.101   0.546   4.990 -0.7120  0.4937  0.2139
 2334SOL    HW118638   1.077   0.637   5.009  1.2666  0.7074  1.6180
 2334SOL    HW218639   1.140   0.530   5.076 -1.6201  0.8887  0.7089
 2335SOL     OW18640   4.587   1.750   6.190 -0.0414  0.6394  0.2059
 2335SOL    HW118641   4.591   1.659   6.161  3.1541  0.9401 -0.3160
 2335SOL    HW218642   4.499   1.744   6.227 -0.9282 -0.2558 -2.0599
 2336SOL     OW18643   3.285   0.165   4.976  0.7182 -0.4362 -0.0495
 2336SOL    HW118644   3.358   0.108   5.003 -0.3419 -1.5167  0.5736
 2336SOL    HW218645   3.338   0.220   4.919 -0.8327 -0.9000 -1.9208
 2337SOL     OW18646   2.130   3.986  14.696  0.2093  0.2738 -0.0434
 2337SOL    HW118647   2.114   4.062  14.752  1.8975  1.4299 -1.1347
 2337SOL    HW218648   2.194   3.944  14.755 -1.3754 -0.1312  1.3814
 2338SOL     OW18649   1.593   4.399   6.079 -0.1249  0.0099  0.5555
 2338SOL    HW118650   1.600   4.308   6.107  0.8979  0.6413  2.3268
 2338SOL    HW218651   1.588   4.383   5.985  1.5357 -0.3738  0.5244
 2339SOL     OW18652   1.702   3.903   2.550  0.5334  0.1516 -0.0981
 2339SOL    HW118653   1.674   3.959   2.621 -0.7345 -0.7922  0.1484
 2339SOL    HW218654   1.794   3.887   2.571  0.6534 -0.4591 -1.0528
 2340SOL     OW18655   3.823   3.341   8.719 -0.0463  0.0103  0.0037
 2340SOL    HW118656   3.806   3.252   8.751  4.5050 -0.9044 -0.2264
 2340SOL    HW218657   3.787   3.388   8.794 -1.7134  1.7112 -1.8640
 2341SOL     OW18658   1.056   3.592   7.675 -0.0610 -0.0622 -0.0520
 2341SOL    HW118659   1.145   3.619   7.697 -0.8577  0.6604  2.2869
 2341SOL    HW218660   1.005   3.668   7.702 -1.3886 -1.0106  0.1163
 2342SOL     OW18661   0.159   1.792   5.612 -0.3718  0.3043  0.1585
 2342SOL    HW118662   0.253   1.801   5.632 -0.1736  0.5307 -0.8641
 2342SOL    HW218663   0.172   1.751   5.527 -0.1239 -1.0544  0.8521
 2343SOL     OW18664   3.621   4.387   9.654 -0.5453  0.6562  0.2973
 2343SOL    HW118665   3.633   4.430   9.569 -0.0497 -0.0413  0.0118
 2343SOL    HW218666   3.574   4.458   9.697  0.8571 -0.0735  3.0613
 2344SOL     OW18667   3.489   3.613   6.959  0.5892 -0.6804 -0.1129
 2344SOL    HW118668   3.427   3.684   6.973 -0.0198 -0.9409 -1.4981
 2344SOL    HW218669   3.522   3.623   6.870 -2.7529  0.7929 -1.1736
 2345SOL     OW18670   2.422   1.894   8.878 -0.1842  0.1329 -0.1384
 2345SOL    HW118671   2.421   1.989   8.869  0.5841  0.3962  2.7754
 2345SOL    HW218672   2.462   1.886   8.964 -1.3948 -1.9193  0.2300
 2346SOL     OW18673   1.834   2.284   7.098 -0.4364 -0.7116 -0.3538
 2346SOL    HW118674   1.841   2.324   7.011  1.0107  0.8022  0.4635
 2346SOL    HW218675   1.909   2.225   7.093 -0.2969 -0.9158  4.0172
 2347SOL     OW18676   1.724   2.118   1.310 -0.5780 -0.2640 -0.5860
 2347SOL    HW118677   1.652   2.137   1.250 -1.0762 -0.8534 -0.1769
 2347SOL    HW218678   1.721   2.207   1.346 -2.5775  0.6198 -2.9246
 2348SOL     OW18679   2.281   0.465  13.573  0.0833 -0.0267  0.0317
 2348SOL    HW118680   2.265   0.450  13.480 -1.3019  1.5775  0.0128
 2348SOL    HW218681   2.376   0.454  13.563  0.1677 -1.0349  1.9907
 2349SOL     OW18682   4.192   1.435   7.152  0.6010 -0.5543 -0.4569
 2349SOL    HW118683   4.175   1.530   7.153  1.8302 -0.3598  1.8593
 2349SOL    HW218684   4.210   1.427   7.246  2.7731  0.3338 -0.7986
 2350SOL     OW18685   4.249   2.872  10.012 -0.8278  0.1554 -0.3768
 2350SOL    HW118686   4.257   2.781  10.041 -0.4407  0.1322 -0.5578
 2350SOL    HW218687   4.343   2.887  10.012 -0.8853  0.5289  0.1467
 2351SOL     OW18688   2.753   0.825   4.943 -0.5372  0.1349 -0.2513
 2351SOL    HW118689   2.694   0.822   4.868  0.2275  1.1228 -0.8930
 2351SOL    HW218690   2.737   0.916   4.966 -1.1143  0.7076 -2.9381
 2352SOL     OW18691   2.066   0.001   5.801  0.7153  0.1281  0.5430
 2352SOL    HW118692   2.159   4.724   5.817  0.6914 -0.2525  0.3609
 2352SOL    HW218693   2.024   4.719   5.885  1.6743 -2.5146  0.4576
 2353SOL     OW18694   2.367   0.665   7.498 -0.5958  0.4013 -0.5375
 2353SOL    HW118695   2.316   0.608   7.555 -1.0649  0.1573 -1.1957
 2353SOL    HW218696   2.301   0.733   7.481  0.9701  2.0970  0.1579
 2354SOL     OW18697   1.757   1.651   8.877 -0.7672  0.4132 -0.3987
 2354SOL    HW118698   1.747   1.557   8.860 -0.6585  0.6478 -1.7790
 2354SOL    HW218699   1.665   1.678   8.881 -0.5561  0.9808  0.4976
 2355SOL     OW18700   3.502   4.623  15.556 -0.1876  0.2421  0.0765
 2355SOL    HW118701   3.449   4.543  15.557  0.6393 -0.2736  1.8424
 2355SOL    HW218702   3.577   4.594  15.607 -1.8538  0.8002  2.7953
 2356SOL     OW18703   3.031   2.591   7.461  0.0102  0.0274  0.2212
 2356SOL    HW118704   2.992   2.675   7.485 -0.6799 -0.3502  0.4219
 2356SOL    HW218705   3.094   2.629   7.400  1.2049 -0.7252  0.9881
 2357SOL     OW18706   0.605   2.542   5.694 -0.5130  0.0772  0.3346
 2357SOL    HW118707   0.667   2.539   5.622 -0.0970 -1.7061  0.7856
 2357SOL    HW218708   0.534   2.485   5.664 -2.2424  2.2202  0.2771
 2358SOL     OW18709   3.649   4.504   8.915 -0.2879  0.4976  0.0826
 2358SOL    HW118710   3.635   4.509   8.821  0.8990 -0.4730 -0.1510
 2358SOL    HW218711   3.745   4.503   8.917 -0.2487  1.0720 -1.6448
 2359SOL     OW18712   2.858   1.252   3.437 -0.1933  0.3370 -0.4367
 2359SOL    HW118713   2.914   1.324   3.408 -3.0007  2.7157  0.1250
 2359SOL    HW218714   2.897   1.217   3.517 -0.9261 -3.1690 -1.5898
 2360SOL     OW18715   1.800   0.226   5.803  0.3198  0.2457 -0.1831
 2360SOL    HW118716   1.750   0.177   5.867  0.7795  0.7048  0.5291
 2360SOL    HW218717   1.869   0.161   5.785  0.9880  0.8606  0.1308
 2361SOL     OW18718   3.774   1.478   4.339  0.1333  0.0398  0.1031
 2361SOL    HW118719   3.845   1.493   4.400  1.3905 -1.1511 -1.0526
 2361SOL    HW218720   3.716   1.436   4.402 -0.7182  0.7529 -0.1977
 2362SOL     OW18721   1.741   2.960   1.641  0.4204  0.3643 -0.0868
 2362SOL    HW118722   1.677   3.031   1.649  0.5116  0.5386 -0.8433
 2362SOL    HW218723   1.713   2.911   1.718 -0.2999  0.1929 -0.4551
 2363SOL     OW18724   3.898   3.761  14.073 -0.0759 -0.3446 -0.1080
 2363SOL    HW118725   3.870   3.704  14.144 -1.5314 -0.8453 -1.0983
 2363SOL    HW218726   3.931   3.700  14.007  1.5889 -0.9654  1.2877
 2364SOL     OW18727   3.935   3.125   2.153  0.8574 -0.5634  0.1330
 2364SOL    HW118728   4.024   3.090   2.150  1.4298  1.0203 -1.6856
 2364SOL    HW218729   3.917   3.115   2.246 -2.0476  2.1408 -0.1061
 2365SOL     OW18730   4.674   1.610   1.179  0.5111  0.4255 -0.5211
 2365SOL    HW118731   0.033   1.608   1.169  0.5060 -1.0061 -0.2798
 2365SOL    HW218732   4.667   1.659   1.261 -0.6052 -0.6244  0.0239
 2366SOL     OW18733   1.295   2.835   8.785 -0.1853 -0.4922  0.0904
 2366SOL    HW118734   1.324   2.905   8.727  1.3498  0.7713  2.3873
 2366SOL    HW218735   1.356   2.833   8.858 -0.7178 -1.7118  0.5016
 2367SOL     OW18736   0.665   2.157   1.053 -0.0605  0.4949  0.1958
 2367SOL    HW118737   0.582   2.192   1.023 -0.9398 -2.3283 -0.6591
 2367SOL    HW218738   0.727   2.181   0.984  0.0716 -0.1870  0.0761
 2368SOL     OW18739   3.099   2.393   5.345  0.8364 -0.6224  0.2318
 2368SOL    HW118740   3.091   2.305   5.381 -2.3343  0.0551  1.2679
 2368SOL    HW218741   3.088   2.374   5.252 -0.8221 -0.0514  0.3076
 2369SOL     OW18742   3.259   0.055  15.582  0.2692 -0.5962  0.2296
 2369SOL    HW118743   3.219   0.080  15.499 -3.0924 -1.9727  1.4075
 2369SOL    HW218744   3.308   4.711  15.566 -0.7737 -0.8163 -1.7616
 2370SOL     OW18745   4.699   0.700  15.214 -0.2434  0.0654  0.8276
 2370SOL    HW118746   4.706   0.710  15.119  2.1722 -0.5618  0.9266
 2370SOL    HW218747   4.621   0.645  15.221  0.8572 -1.5762  0.2611
 2371SOL     OW18748   1.875   3.422   8.857 -0.3467  0.4322  0.1037
 2371SOL    HW118749   1.814   3.381   8.919  1.8882 -2.0678  0.6434
 2371SOL    HW218750   1.931   3.477   8.912  0.2705  1.5457 -1.6513
 2372SOL     OW18751   3.470   0.943  16.852 -0.0983  0.2848  0.6798
 2372SOL    HW118752   3.453   0.883  16.779 -0.5934 -0.4079  1.3719
 2372SOL    HW218753   3.564   0.964  16.846  0.0747 -0.4794  0.7655
 2373SOL     OW18754   2.872   3.407  15.847  0.1097  0.4177  0.2160
 2373SOL    HW118755   2.849   3.352  15.772  4.7288 -1.1277 -0.0492
 2373SOL    HW218756   2.880   3.493  15.806  0.5318  0.3331  0.1251
 2374SOL     OW18757   4.713   3.789   4.187  0.3067  0.3376  0.0558
 2374SOL    HW118758   4.648   3.850   4.154  0.6319 -0.2142 -1.6098
 2374SOL    HW218759   0.016   3.838   4.260 -2.4716  0.7040  1.3078
 2375SOL     OW18760   2.079   3.127   3.431  0.4136  0.3479 -0.4352
 2375SOL    HW118761   2.162   3.138   3.385  0.6173  1.9806  0.3079
 2375SOL    HW218762   2.055   3.040   3.398  1.9887 -0.7317  1.2497
 2376SOL     OW18763   3.405   3.883   1.570  0.2930  0.7131 -0.3386
 2376SOL    HW118764   3.466   3.956   1.567  3.4402 -1.9290 -0.7531
 2376SOL    HW218765   3.327   3.936   1.588  0.0225  0.0509  0.4323
 2377SOL     OW18766   3.448   3.239   8.913 -0.1249 -0.5511  0.2534
 2377SOL    HW118767   3.398   3.204   8.987 -0.3957  1.3283  0.9522
 2377SOL    HW218768   3.492   3.301   8.970  1.3950 -0.2987 -1.1993
 2378SOL     OW18769   3.951   3.276   8.286 -0.2425 -0.2685 -0.6079
 2378SOL    HW118770   4.008   3.285   8.362 -0.5805 -0.6292 -0.3098
 2378SOL    HW218771   3.863   3.285   8.324 -0.4164 -1.7734 -0.6544
 2379SOL     OW18772   3.192   2.025  13.683 -0.4553 -0.8994  0.4845
 2379SOL    HW118773   3.197   2.111  13.642 -1.3548 -0.5107  1.1895
 2379SOL    HW218774   3.278   1.984  13.672  0.4415  0.7016  1.4759
 2380SOL     OW18775   1.516   3.940   1.916  0.4437  0.0452  0.9816
 2380SOL    HW118776   1.490   3.895   1.836  0.1508 -1.5214  1.9539
 2380SOL    HW218777   1.472   4.022   1.893  0.2889 -1.0206 -2.4580
 2381SOL     OW18778   4.383   0.079   4.224  0.0481  0.0868 -0.3947
 2381SOL    HW118779   4.311   0.060   4.164 -0.7810 -1.1282  0.9737
 2381SOL    HW218780   4.385   4.730   4.267 -3.4261  0.0582 -0.2933
 2382SOL     OW18781   2.980   4.635   5.548  0.2887  0.4487 -0.5107
 2382SOL    HW118782   2.918   4.626   5.476  1.4304  1.5320 -1.6295
 2382SOL    HW218783   2.937   4.701   5.602 -1.2986 -1.3081  0.4029
 2383SOL     OW18784   2.215   3.129  16.436 -0.0625 -0.1880 -0.4426
 2383SOL    HW118785   2.199   3.104  16.345 -0.3326  0.4639 -0.5744
 2383SOL    HW218786   2.186   3.052  16.484 -0.2954 -0.4631 -1.0220
 2384SOL     OW18787   2.558   4.731   3.166  0.3694 -0.7014 -0.2939
 2384SOL    HW118788   2.652   0.009   3.175  0.0881  1.1530 -0.1951
 2384SOL    HW218789   2.558   4.701   3.075  0.9717  1.3269 -0.9658
 2385SOL     OW18790   0.308   4.708   3.137 -0.0154 -0.2211  0.3582
 2385SOL    HW118791   0.230   4.657   3.161  0.3550 -1.7505 -1.6495
 2385SOL    HW218792   0.263   0.038   3.085 -0.2695 -1.0233 -0.4507
 2386SOL     OW18793   0.594   1.975  11.320  0.1629 -0.4159  0.1801
 2386SOL    HW118794   0.515   1.925  11.343 -1.3616  2.1839  0.6710
 2386SOL    HW218795   0.572   2.052  11.372  0.3758 -1.4751  1.8578
 2387SOL     OW18796   4.557   1.074   4.155 -0.2227  0.2627  0.1660
 2387SOL    HW118797   4.580   1.153   4.203  0.7610 -0.2800  0.5880
 2387SOL    HW218798   4.576   1.001   4.215 -3.5581  0.1504  1.0763
 2388SOL     OW18799   3.330   1.665   6.591 -0.0246  0.2436 -0.2421
 2388SOL    HW118800   3.368   1.631   6.672  0.0586  0.2028 -0.2992
 2388SOL    HW218801   3.371   1.611   6.524 -1.9987  1.1498 -2.1758
 2389SOL     OW18802   1.248   3.366   3.685 -0.2467  0.1042  0.3860
 2389SOL    HW118803   1.313   3.436   3.694 -0.4175  0.2386  0.5807
 2389SOL    HW218804   1.265   3.341   3.594  1.1684 -1.0838  0.9809
 2390SOL     OW18805   4.535   2.668   4.015 -0.1870  0.5177  0.5970
 2390SOL    HW118806   4.579   2.725   3.952  0.4700  0.3162  0.8787
 2390SOL    HW218807   4.601   2.605   4.043 -0.8729 -0.5007 -0.0865
 2391SOL     OW18808   0.284   3.410   9.136  0.1219 -0.2734  0.4777
 2391SOL    HW118809   0.195   3.374   9.127 -0.7972  2.1103 -0.2588
 2391SOL    HW218810   0.313   3.388   9.048 -0.1720  0.6955  0.1312
 2392SOL     OW18811   4.667   1.907   8.783  0.3494 -0.2616 -0.2085
 2392SOL    HW118812   4.580   1.909   8.743  0.0191  0.4501  0.5309
 2392SOL    HW218813   4.713   1.977   8.737 -1.0183  0.1162 -1.0030
 2393SOL     OW18814   2.161   0.594  11.854 -0.1563  0.2946  0.2247
 2393SOL    HW118815   2.109   0.610  11.932 -1.0649 -3.7394  0.4781
 2393SOL    HW218816   2.204   0.515  11.887 -0.5970 -0.1999 -0.3796
 2394SOL     OW18817   2.623   3.932   9.258  0.1703  0.0332  0.0572
 2394SOL    HW118818   2.598   3.965   9.345  0.0017  2.9363 -1.1181
 2394SOL    HW218819   2.604   4.007   9.203  2.9192 -0.2994 -1.2855
 2395SOL     OW18820   4.483   0.625   7.461  0.6421 -0.0202  0.0376
 2395SOL    HW118821   4.418   0.574   7.412  0.0303 -0.2869  1.1378
 2395SOL    HW218822   4.535   0.651   7.385 -0.4599  0.4670 -0.5514
 2396SOL     OW18823   4.613   4.063  12.575 -0.4345  0.2697 -0.5854
 2396SOL    HW118824   4.602   3.993  12.510 -4.1293  0.3856 -0.1086
 2396SOL    HW218825   4.697   4.107  12.567  1.4496 -3.5681 -2.1861
 2397SOL     OW18826   2.744   2.372   2.367 -0.0789  0.3055 -0.3290
 2397SOL    HW118827   2.812   2.334   2.313 -1.9410 -1.9535 -1.0997
 2397SOL    HW218828   2.703   2.298   2.412  0.9666 -0.2749 -0.3484
 2398SOL     OW18829   3.478   1.506   6.441 -0.0571  0.3814  0.0136
 2398SOL    HW118830   3.560   1.552   6.459  0.5376 -1.7631  2.8815
 2398SOL    HW218831   3.511   1.416   6.438  2.2679  1.2343 -0.2916
 2399SOL     OW18832   1.675   0.238   1.937  0.4894 -0.3131 -0.0892
 2399SOL    HW118833   1.607   0.178   1.966 -2.9046  3.2515 -0.5912
 2399SOL    HW218834   1.685   0.291   2.016 -0.0247  1.2368 -1.0593
 2400SOL     OW18835   3.106   2.928   4.454 -0.3019  0.2380 -0.3959
 2400SOL    HW118836   3.041   2.998   4.463  1.2426  1.6610 -0.3797
 2400SOL    HW218837   3.140   2.936   4.543 -0.4364 -3.7656  0.0347
 2401SOL     OW18838   2.093   3.454   7.853 -0.1345  0.6574 -0.0269
 2401SOL    HW118839   2.170   3.400   7.873  0.6603  0.2650 -4.1115
 2401SOL    HW218840   2.139   3.526   7.809  0.3657  0.7891  0.6946
 2402SOL     OW18841   4.150   4.051   0.633 -0.2554 -0.1310  0.5151
 2402SOL    HW118842   4.079   3.986   0.631  0.4326 -0.8802  0.7683
 2402SOL    HW218843   4.145   4.078   0.724  1.3882  0.3127  0.4698
 2403SOL     OW18844   2.335   2.682   2.194  0.2225  0.0222 -0.0634
 2403SOL    HW118845   2.270   2.702   2.126  0.6227 -0.7780 -0.6846
 2403SOL    HW218846   2.408   2.729   2.155 -0.6817  0.4757 -1.2325
 2404SOL     OW18847   0.598   1.677   0.236 -0.5965  0.2891 -0.0948
 2404SOL    HW118848   0.643   1.748   0.190  0.4089  0.0098  0.4633
 2404SOL    HW218849   0.530   1.646   0.176  0.5525 -2.0338 -0.1663
 2405SOL     OW18850   0.539   2.643   3.720  0.1015  0.1541  0.5611
 2405SOL    HW118851   0.534   2.723   3.771 -0.4839  1.5378 -1.6478
 2405SOL    HW218852   0.455   2.654   3.675 -0.8545  0.2877  2.3840
 2406SOL     OW18853   1.525   1.934   7.669 -0.5944 -0.5863  0.3297
 2406SOL    HW118854   1.587   1.921   7.740  0.5949  0.6208 -0.4780
 2406SOL    HW218855   1.495   1.844   7.652 -2.0700 -0.0912  0.3347
 2407SOL     OW18856   1.837   1.325   6.920  0.0490  0.2876 -0.1910
 2407SOL    HW118857   1.786   1.265   6.866 -0.7073  0.5095  0.2855
 2407SOL    HW218858   1.903   1.353   6.856  1.8587  0.0647  1.5544
 2408SOL     OW18859   1.087   1.298   8.970  0.4519  0.5945  0.0755
 2408SOL    HW118860   1.167   1.254   9.000 -0.5102 -1.1037  0.1140
 2408SOL    HW218861   1.113   1.317   8.880  0.7343 -1.2643 -0.2297
 2409SOL     OW18862   3.043   2.955   3.507  0.6001 -1.0154 -0.0997
 2409SOL    HW118863   3.110   3.014   3.472  0.9924 -0.4143  1.6482
 2409SOL    HW218864   3.009   2.922   3.424  1.0394  0.9473 -1.0539
 2410SOL     OW18865   0.592   1.879   2.955 -0.2565  0.2943  0.4156
 2410SOL    HW118866   0.550   1.869   2.869 -1.9954  0.1474  1.2801
 2410SOL    HW218867   0.682   1.882   2.922 -0.0210  1.1594  1.1217
 2411SOL     OW18868   1.381   3.580   7.790 -0.4376 -0.1927  0.5478
 2411SOL    HW118869   1.387   3.488   7.767 -1.1845  0.4005 -1.9882
 2411SOL    HW218870   1.411   3.615   7.706  2.0230  0.1195  1.5468
 2412SOL     OW18871   1.950   0.579   1.566 -0.0171  0.3802 -0.5270
 2412SOL    HW118872   1.927   0.495   1.526  2.0254 -0.4564  0.0805
 2412SOL    HW218873   1.995   0.553   1.647 -0.7397  1.8441  0.3473
 2413SOL     OW18874   4.455   2.116   7.017 -0.0696 -1.0881  0.3357
 2413SOL    HW118875   4.377   2.172   7.024 -0.9858 -2.3691  0.3133
 2413SOL    HW218876   4.528   2.178   7.026 -0.8940 -0.3859  2.1885
 2414SOL     OW18877   1.024   4.498   2.450  0.1419 -0.5647  0.3736
 2414SOL    HW118878   0.959   4.428   2.449 -1.3162  0.8079  0.3773
 2414SOL    HW218879   0.991   4.560   2.386  2.4397 -0.2673 -0.5082
 2415SOL     OW18880   2.459   3.524   3.200 -0.2834 -0.3537 -0.4132
 2415SOL    HW118881   2.474   3.597   3.139 -0.5957 -0.5538 -0.7315
 2415SOL    HW218882   2.413   3.470   3.136 -2.4239  0.1710  0.6817
 2416SOL     OW18883   3.877   3.547   3.658  0.2951 -0.1178 -0.2976
 2416SOL    HW118884   3.904   3.633   3.629  2.7164 -0.8990 -0.3253
 2416SOL    HW218885   3.925   3.495   3.593 -1.0411 -0.3636 -1.0981
 2417SOL     OW18886   0.497   4.549   7.148 -0.5833  0.1369  0.3049
 2417SOL    HW118887   0.421   4.607   7.137  1.0471  2.3195  0.6722
 2417SOL    HW218888   0.482   4.499   7.068  0.7708 -1.8100  1.2771
 2418SOL     OW18889   3.665   3.704  10.245 -0.7250 -0.2172 -0.4177
 2418SOL    HW118890   3.652   3.795  10.270  1.4325  0.1961 -0.7695
 2418SOL    HW218891   3.605   3.661  10.305 -2.0876  1.6033 -0.4999
 2419SOL     OW18892   0.126   1.440  10.905 -1.0385 -0.3505  0.1466
 2419SOL    HW118893   0.205   1.410  10.950  0.1590  3.0989  0.3535
 2419SOL    HW218894   0.067   1.403  10.970  0.1515 -0.7890  0.9901
 2420SOL     OW18895   2.653   1.309   5.433  0.1237 -0.4577  0.1059
 2420SOL    HW118896   2.677   1.335   5.344 -1.5336  1.5623  0.2421
 2420SOL    HW218897   2.563   1.340   5.443  0.6349  1.1639 -0.2255
 2421SOL     OW18898   3.702   3.392   4.397 -0.5467  0.2658 -0.0293
 2421SOL    HW118899   3.708   3.314   4.341  2.6407 -2.0116  3.5022
 2421SOL    HW218900   3.779   3.438   4.363  0.2952 -1.3578 -0.3283
 2422SOL     OW18901   0.540   3.392   7.897  0.0272 -0.0555 -0.0167
 2422SOL    HW118902   0.521   3.467   7.841 -0.7954 -1.0223 -1.0298
 2422SOL    HW218903   0.545   3.434   7.983  2.9613  4.9016 -2.6091
 2423SOL     OW18904   1.986   1.529   4.033 -0.0506  0.2383  0.4938
 2423SOL    HW118905   2.075   1.529   3.996  0.0482  1.9138  0.7518
 2423SOL    HW218906   1.959   1.620   4.043 -1.3575 -0.2369  1.2677
 2424SOL     OW18907   1.814   3.036  17.292  1.0836 -0.5724  0.0927
 2424SOL    HW118908   1.821   3.131  17.299 -2.5066 -0.2726 -0.6221
 2424SOL    HW218909   1.890   3.016  17.236  0.8862  0.9688 -0.7336
 2425SOL     OW18910   4.359   3.100   0.617 -0.1275  0.0401  0.1357
 2425SOL    HW118911   4.387   3.190   0.629  1.4424 -0.5127  0.6393
 2425SOL    HW218912   4.435   3.044   0.599 -0.4503 -0.0171 -1.0632
 2426SOL     OW18913   1.452   0.196  11.230 -0.0383  0.0325  0.3486
 2426SOL    HW118914   1.385   0.241  11.282 -0.1418 -1.6993  1.7020
 2426SOL    HW218915   1.455   0.250  11.152  0.9734  0.7520  0.8767
 2427SOL     OW18916   1.692   4.248   9.778 -0.1016 -0.3988 -0.0903
 2427SOL    HW118917   1.666   4.209   9.694  0.1463 -1.2998  0.2508
 2427SOL    HW218918   1.634   4.324   9.771  0.9401  0.3317 -0.7826
 2428SOL     OW18919   2.152   4.539   8.640 -0.4423 -0.4360  0.7449
 2428SOL    HW118920   2.131   4.610   8.702 -3.2648  2.1644 -3.1551
 2428SOL    HW218921   2.174   4.461   8.691 -1.6643  0.0645  2.0522
 2429SOL     OW18922   2.686   3.510   1.502 -0.2577 -0.2063 -0.7206
 2429SOL    HW118923   2.753   3.451   1.537 -2.8574 -1.0621  2.7890
 2429SOL    HW218924   2.742   3.550   1.436  0.0087  2.8448  1.3348
 2430SOL     OW18925   0.085   2.632   7.368 -0.3482  0.0387  0.1993
 2430SOL    HW118926   0.105   2.636   7.274  1.9898 -1.0890  0.6341
 2430SOL    HW218927   0.074   2.539   7.386 -1.1052  0.4208  1.7119
 2431SOL     OW18928   0.642   2.731   0.647  0.2419 -0.5087  0.0558
 2431SOL    HW118929   0.616   2.747   0.556 -0.6766 -3.7113 -0.2538
 2431SOL    HW218930   0.674   2.818   0.670 -2.4933  0.5402 -0.0686
 2432SOL     OW18931   2.783   1.877   6.141 -0.7685  0.4385  0.1916
 2432SOL    HW118932   2.772   1.944   6.073  1.5176 -0.8792 -1.4483
 2432SOL    HW218933   2.691   1.851   6.148 -1.1701  1.8889  0.2875
 2433SOL     OW18934   4.709   3.071   5.295  0.2154  0.1454  0.1820
 2433SOL    HW118935   0.047   3.080   5.356 -0.7775  1.5214  1.1959
 2433SOL    HW218936   4.698   3.163   5.271 -3.3367 -0.4755 -0.5024
 2434SOL     OW18937   2.635   1.249   3.136  0.0541  0.3484 -0.5019
 2434SOL    HW118938   2.587   1.239   3.218 -0.4338  1.4576 -0.6504
 2434SOL    HW218939   2.608   1.336   3.108  0.3757  0.6684  0.1930
 2435SOL     OW18940   4.116   0.072   4.154  0.0785  0.1904  0.1738
 2435SOL    HW118941   4.124   0.142   4.089 -2.1600  0.4364  0.1791
 2435SOL    HW218942   4.024   0.060   4.176 -0.2240 -0.1691 -1.2708
 2436SOL     OW18943   1.414   0.059   2.746 -0.3559 -0.1068  0.1909
 2436SOL    HW118944   1.421   0.132   2.685 -1.0041  1.9467  2.5905
 2436SOL    HW218945   1.325   0.029   2.723 -0.8352  2.2532 -1.0435
 2437SOL     OW18946   3.720   1.961   3.394  0.1402  0.0442  0.5989
 2437SOL    HW118947   3.675   1.981   3.476  1.5789  4.5971  0.2963
 2437SOL    HW218948   3.653   2.000   3.337 -1.8660  0.5573  3.3280
 2438SOL     OW18949   0.318   2.268   4.102  0.1526 -0.2615 -0.4785
 2438SOL    HW118950   0.276   2.254   4.187 -1.2532  0.0425 -1.1167
 2438SOL    HW218951   0.375   2.345   4.105 -0.2567 -0.0294  1.4961
 2439SOL     OW18952   0.252   0.354  16.770  0.0627  0.0452 -0.4726
 2439SOL    HW118953   0.246   0.330  16.678  1.1595  1.6344 -0.9630
 2439SOL    HW218954   0.161   0.350  16.796  0.2125 -0.2155  0.0035
 2440SOL     OW18955   4.027   0.310   6.062 -0.4656  0.0595 -0.0368
 2440SOL    HW118956   4.083   0.248   6.015 -0.1842  1.2347 -1.2348
 2440SOL    HW218957   4.051   0.396   6.027 -4.2777  2.0273  2.2486
 2441SOL     OW18958   2.355   3.451  13.511  0.2899 -0.4293 -0.0213
 2441SOL    HW118959   2.288   3.520  13.519  0.4164 -0.2366 -0.6448
 2441SOL    HW218960   2.418   3.471  13.580 -0.3341 -2.2906  1.0867
 2442SOL     OW18961   1.892   0.640   2.193  0.6833  0.4463  0.1408
 2442SOL    HW118962   1.858   0.665   2.108  0.5516 -0.7189 -0.1580
 2442SOL    HW218963   1.906   0.729   2.226  0.9992  0.4691 -0.0595
 2443SOL     OW18964   3.307   1.670   6.279 -0.2887  0.2480 -0.1678
 2443SOL    HW118965   3.244   1.709   6.340 -0.3696  1.1814 -0.8402
 2443SOL    HW218966   3.343   1.604   6.338 -2.3415  0.1723  0.9972
 2444SOL     OW18967   0.471   0.453   8.819  0.1880  0.5154 -0.0623
 2444SOL    HW118968   0.518   0.509   8.881  0.2283  1.4886 -0.9663
 2444SOL    HW218969   0.473   0.503   8.737 -1.6635  0.7776  0.0348
 2445SOL     OW18970   1.599   4.315   8.487  0.5195 -0.3452  0.0556
 2445SOL    HW118971   1.624   4.281   8.573 -1.6830  3.0625  2.0263
 2445SOL    HW218972   1.516   4.358   8.507  0.7051  0.2279 -0.4276
 2446SOL     OW18973   2.890   1.691  17.038  0.0440  0.2994 -0.8286
 2446SOL    HW118974   2.859   1.605  17.068  1.3021 -0.3920 -1.5192
 2446SOL    HW218975   2.980   1.671  17.014  0.7080  0.3509  1.6548
 2447SOL     OW18976   3.915   0.691   1.619  0.0129 -0.1703  0.1485
 2447SOL    HW118977   4.002   0.725   1.598  0.3763 -0.5480  1.0541
 2447SOL    HW218978   3.916   0.615   1.561 -2.8446 -1.8841  2.3236
 2448SOL     OW18979   1.660   2.931   0.924 -0.6121  0.8212  0.4023
 2448SOL    HW118980   1.730   2.899   0.982 -1.4558  1.5525  1.8203
 2448SOL    HW218981   1.711   2.961   0.849  1.4726  0.7122  1.7888
 2449SOL     OW18982   3.493   4.500   4.674  0.0248 -0.7468  0.0440
 2449SOL    HW118983   3.417   4.538   4.719 -2.0823 -0.6574 -3.6577
 2449SOL    HW218984   3.484   4.409   4.704  0.6794  0.5811  4.3510
 2450SOL     OW18985   0.683   0.176   5.570  0.0003  0.0848 -0.4803
 2450SOL    HW118986   0.646   0.193   5.657  1.4690 -1.0136  0.3705
 2450SOL    HW218987   0.675   0.081   5.568  1.6196 -0.0959  1.3563
 2451SOL     OW18988   1.578   0.194  16.930  0.6882  0.4514 -0.3456
 2451SOL    HW118989   1.590   0.236  16.845 -1.9723  0.6444 -0.6079
 2451SOL    HW218990   1.618   0.256  16.992 -0.3430  1.5549 -0.7986
 2452SOL     OW18991   1.594   2.719   6.196  0.3373 -0.3978 -0.2043
 2452SOL    HW118992   1.586   2.808   6.162 -3.1660 -1.2924 -1.7338
 2452SOL    HW218993   1.508   2.681   6.177 -0.0077  0.0841  0.3736
 2453SOL     OW18994   4.065   1.061   2.203 -0.6081  0.2190 -0.2151
 2453SOL    HW118995   4.065   1.000   2.129  0.0127 -1.2083  0.9738
 2453SOL    HW218996   4.159   1.077   2.200 -0.4139 -0.9899 -0.3711
 2454SOL     OW18997   3.755   0.461   1.199  0.2682  0.0433  0.0105
 2454SOL    HW118998   3.770   0.496   1.110  1.1127  0.6512  0.3891
 2454SOL    HW218999   3.679   0.502   1.240 -0.7308  0.9464 -2.7385
 2455SOL     OW19000   2.664   2.239   1.669 -0.2246  0.6493 -0.0956
 2455SOL    HW119001   2.609   2.245   1.591 -0.3693 -2.7720 -0.2429
 2455SOL    HW219002   2.712   2.163   1.635 -0.4847  0.2621  0.3890
 2456SOL     OW19003   3.424   4.436   8.672  0.4336  0.4011  0.3603
 2456SOL    HW119004   3.379   4.413   8.753  2.9527  0.4070  1.7455
 2456SOL    HW219005   3.380   4.514   8.639 -1.5598 -1.2130 -0.8455
 2457SOL     OW19006   0.749   0.912   3.842 -0.0178 -0.2203  0.4146
 2457SOL    HW119007   0.736   0.818   3.832 -0.5964 -0.1097  0.1763
 2457SOL    HW219008   0.844   0.905   3.827 -0.0701  0.8236 -0.3768
 2458SOL     OW19009   4.203   3.029   6.182 -0.3082 -0.1876  0.1106
 2458SOL    HW119010   4.232   2.989   6.100 -0.8789  1.0648 -0.6980
 2458SOL    HW219011   4.238   3.118   6.187  0.2726 -0.2985 -1.9890
 2459SOL     OW19012   1.937   3.616   2.085  0.1314  0.0100  0.3762
 2459SOL    HW119013   1.954   3.706   2.113  0.6999  0.0624 -0.1575
 2459SOL    HW219014   1.968   3.566   2.161 -1.3001  0.4700  1.2772
 2460SOL     OW19015   0.790   0.499   8.044 -0.1249 -0.6459  0.4535
 2460SOL    HW119016   0.766   0.519   7.953  2.4018  0.1351 -0.0251
 2460SOL    HW219017   0.885   0.494   8.040 -0.0873 -1.0333  1.7923
 2461SOL     OW19018   0.548   1.546   4.215  0.6384 -0.0894  0.5214
 2461SOL    HW119019   0.585   1.458   4.210 -0.1226 -0.4417  1.2662
 2461SOL    HW219020   0.626   1.602   4.216  0.1122  0.6249  1.4073
 2462SOL     OW19021   3.830   1.037   4.788  0.3633  0.3580  0.2877
 2462SOL    HW119022   3.878   1.092   4.726 -2.0474  0.4831 -1.4448
 2462SOL    HW219023   3.888   0.996   4.852  1.3067 -2.6809 -2.5322
 2463SOL     OW19024   3.955   2.715   4.200  0.5779 -0.1197 -0.6533
 2463SOL    HW119025   3.916   2.747   4.118  0.7570  0.9197 -0.3415
 2463SOL    HW219026   4.006   2.793   4.222 -0.3583  0.6096 -1.0678
 2464SOL     OW19027   4.652   2.811   0.666  0.2626  0.7685 -0.2911
 2464SOL    HW119028   4.648   2.899   0.703  2.9761  0.4398  0.7551
 2464SOL    HW219029   4.679   2.828   0.576  0.5744  0.5324 -0.2449
 2465SOL     OW19030   1.434   3.577   0.935  0.6992 -0.0175  0.5219
 2465SOL    HW119031   1.498   3.595   1.004  0.5949 -0.2737  0.6863
 2465SOL    HW219032   1.371   3.532   0.990  0.3560 -0.4015 -0.1878
 2466SOL     OW19033   2.870   0.575   9.080 -0.4224  0.3521  0.3924
 2466SOL    HW119034   2.885   0.659   9.038 -0.6868  0.0805 -0.2499
 2466SOL    HW219035   2.880   0.588   9.174 -3.8729 -3.3298  1.2716
 2467SOL     OW19036   1.571   4.672   7.528 -0.4593 -0.4867 -0.0094
 2467SOL    HW119037   1.492   4.660   7.582 -0.5692 -3.1425 -0.7452
 2467SOL    HW219038   1.571   0.031   7.530  2.4655 -0.4925  0.2686
 2468SOL     OW19039   2.626   3.571   3.416  0.6113  0.5477 -0.5372
 2468SOL    HW119040   2.582   3.548   3.334  3.1343 -3.2504 -0.8260
 2468SOL    HW219041   2.699   3.510   3.423 -0.4772 -0.9369 -2.0387
 2469SOL     OW19042   1.976   0.810   8.500  0.3927  0.4950  0.4702
 2469SOL    HW119043   2.059   0.775   8.531 -0.0783 -1.1011 -0.0536
 2469SOL    HW219044   1.960   0.870   8.572  1.2397  0.3212  0.7973
 2470SOL     OW19045   2.555   1.209   7.164 -0.5405  0.0687 -0.1124
 2470SOL    HW119046   2.546   1.116   7.141 -0.0862  0.3450 -1.3913
 2470SOL    HW219047   2.555   1.205   7.260  0.6517  0.1408 -0.1073
 2471SOL     OW19048   3.656   2.326   8.999  0.1453  0.1229 -0.1154
 2471SOL    HW119049   3.667   2.240   9.041 -0.5157 -0.6654 -1.5785
 2471SOL    HW219050   3.624   2.380   9.072 -0.9629  0.1368 -0.6209
 2472SOL     OW19051   2.606   0.880   5.987 -0.1724 -0.2579 -0.1254
 2472SOL    HW119052   2.677   0.818   5.969  0.3114  0.1403  0.4262
 2472SOL    HW219053   2.540   0.880   5.918 -1.3171  2.8225  0.9491
 2473SOL     OW19054   2.144   2.661  14.685  0.3833 -0.2592 -0.5267
 2473SOL    HW119055   2.081   2.665  14.757  1.1579  1.4746  0.0639
 2473SOL    HW219056   2.209   2.727  14.708  0.8102 -0.4235 -1.2689
 2474SOL     OW19057   0.743   1.109   2.474  0.4469 -0.6798  0.2624
 2474SOL    HW119058   0.739   1.199   2.506  1.5936 -0.2707 -0.7235
 2474SOL    HW219059   0.807   1.109   2.402  0.5797  2.0861  0.3920
 2475SOL     OW19060   1.254   4.276  15.601 -0.4465 -0.0889  0.4267
 2475SOL    HW119061   1.334   4.299  15.554  0.2757  1.2418  2.2841
 2475SOL    HW219062   1.285   4.270  15.691  0.5974  0.3668  0.1029
 2476SOL     OW19063   1.247   3.311   3.082 -0.2557 -0.3150 -0.6821
 2476SOL    HW119064   1.210   3.358   3.006 -2.3568  0.6399  0.9358
 2476SOL    HW219065   1.208   3.225   3.066 -0.9092  0.1865 -1.7871
 2477SOL     OW19066   0.891   1.369  15.145  0.1315 -0.1182  0.2840
 2477SOL    HW119067   0.882   1.460  15.172  0.6189 -0.0109  0.0820
 2477SOL    HW219068   0.928   1.333  15.226  3.6415  1.4578 -0.6525
 2478SOL     OW19069   0.598   2.594   5.336 -0.5196 -0.1277  0.2516
 2478SOL    HW119070   0.598   2.505   5.373  0.2868 -0.3699 -0.3074
 2478SOL    HW219071   0.513   2.613   5.375 -0.7518  0.0015 -0.3199
 2479SOL     OW19072   3.555   1.282   8.161  0.6373  0.3382 -0.3581
 2479SOL    HW119073   3.461   1.265   8.169  1.1271 -2.0660  0.2980
 2479SOL    HW219074   3.568   1.252   8.071  0.2404  3.0285 -1.3060
 2480SOL     OW19075   4.272   0.743   6.887 -0.0783 -0.5853 -0.5889
 2480SOL    HW119076   4.352   0.794   6.898 -0.5759  0.3644 -1.3699
 2480SOL    HW219077   4.213   0.799   6.836  1.9926  0.4071 -1.8716
 2481SOL     OW19078   1.224   3.491   4.933  0.1802 -0.2395  0.0342
 2481SOL    HW119079   1.150   3.530   4.886  1.2819  1.7718 -0.0641
 2481SOL    HW219080   1.270   3.442   4.865 -0.0275 -0.3061 -0.0592
 2482SOL     OW19081   0.574   1.001   1.340  0.5148 -0.4854 -0.3029
 2482SOL    HW119082   0.621   1.031   1.418 -0.2782 -1.4755  0.5566
 2482SOL    HW219083   0.575   0.907   1.358 -2.1638 -0.5428 -0.4721
 2483SOL     OW19084   1.600   1.080  16.363  0.8356 -0.3564 -0.0050
 2483SOL    HW119085   1.545   1.106  16.289 -1.5847 -0.8348  1.6140
 2483SOL    HW219086   1.544   1.017  16.409  1.4044 -0.7749  0.1151
 2484SOL     OW19087   3.460   1.868   5.019 -0.2523  0.0065 -0.0591
 2484SOL    HW119088   3.524   1.798   5.004 -1.7298 -1.4005  0.1483
 2484SOL    HW219089   3.507   1.946   4.993  0.2865  0.1077  1.1923
 2485SOL     OW19090   3.611   4.122   8.784  0.2918  0.0759  0.4640
 2485SOL    HW119091   3.566   4.067   8.847  0.0631 -0.1549  0.0991
 2485SOL    HW219092   3.542   4.142   8.720 -0.6836  0.7683  1.7404
 2486SOL     OW19093   0.211   1.646   0.977 -0.3043 -0.2259 -0.0011
 2486SOL    HW119094   0.282   1.710   0.972 -2.5429  2.5616  3.8441
 2486SOL    HW219095   0.252   1.571   1.022 -1.1873 -0.1755  0.8747
 2487SOL     OW19096   3.985   3.576   6.083  0.1406 -0.1352  0.0686
 2487SOL    HW119097   3.955   3.516   6.015 -1.7825  1.5935 -0.5703
 2487SOL    HW219098   3.958   3.528   6.162  1.3350 -2.0464 -0.6824
 2488SOL     OW19099   2.700   1.140   3.941  0.5457 -0.1050 -0.2149
 2488SOL    HW119100   2.625   1.137   3.882  1.0168  2.1197 -0.9193
 2488SOL    HW219101   2.680   1.198   4.014 -0.2996 -0.0224 -0.5228
 2489SOL     OW19102   2.462   0.540  15.376 -0.4403  0.4715  1.1238
 2489SOL    HW119103   2.402   0.585  15.316  0.7248 -0.1012 -0.4533
 2489SOL    HW219104   2.548   0.558  15.339 -0.3536  0.9956  1.5872
 2490SOL     OW19105   3.997   3.564   3.325 -0.1517 -0.6461  0.4713
 2490SOL    HW119106   4.013   3.494   3.262 -0.3379  0.1014 -0.4170
 2490SOL    HW219107   4.035   3.519   3.400 -0.6859 -1.0017  0.5247
 2491SOL     OW19108   0.231   3.987  15.099  0.3750  0.4801 -0.2068
 2491SOL    HW119109   0.190   3.991  15.185  0.9478 -0.1889  0.0982
 2491SOL    HW219110   0.316   3.944  15.110  0.4160  1.2120  2.3902
 2492SOL     OW19111   2.782   4.680   7.524  0.2683  0.4104  0.2523
 2492SOL    HW119112   2.842   0.015   7.500  1.1326 -0.4014 -0.0136
 2492SOL    HW219113   2.741   4.667   7.439  2.1074  0.3656 -0.6421
 2493SOL     OW19114   1.162   1.588   6.475  0.2202 -0.5466  0.1354
 2493SOL    HW119115   1.081   1.580   6.526 -0.4592 -0.3350 -0.9136
 2493SOL    HW219116   1.128   1.639   6.401 -0.6592 -0.0759  0.8583
 2494SOL     OW19117   3.542   3.527   6.492 -0.0017 -0.0368  0.0978
 2494SOL    HW119118   3.512   3.504   6.580 -0.9011 -1.8098 -0.6680
 2494SOL    HW219119   3.620   3.579   6.516 -0.8088  0.2864  2.0516
 2495SOL     OW19120   1.674   4.653   1.986 -0.2242 -0.4891  0.0298
 2495SOL    HW119121   1.766   4.675   2.001  0.0814 -2.0795  0.5181
 2495SOL    HW219122   1.634   4.678   2.069 -2.0356  1.9428 -1.5614
 2496SOL     OW19123   2.551   4.216   9.700  0.1305  0.0690  0.0668
 2496SOL    HW119124   2.577   4.298   9.658  0.3518 -0.2213 -0.3611
 2496SOL    HW219125   2.616   4.205   9.770  0.1267  1.1654  0.2473
 2497SOL     OW19126   3.943   4.709   1.770  0.6374 -0.1165 -0.1549
 2497SOL    HW119127   3.943   0.037   1.699  1.2866  0.0890  0.0275
 2497SOL    HW219128   3.974   0.017   1.849 -0.5301  1.5464 -0.6251
 2498SOL     OW19129   1.203   1.981   7.464 -0.1916  0.4783 -0.4246
 2498SOL    HW119130   1.276   2.009   7.409 -0.9999  0.2314 -1.6175
 2498SOL    HW219131   1.209   2.056   7.523  1.8376 -0.9457  1.1983
 2499SOL     OW19132   2.212   4.496   5.103 -0.8362  1.0243 -0.0652
 2499SOL    HW119133   2.270   4.562   5.143  1.0933 -2.4621  2.8525
 2499SOL    HW219134   2.230   4.522   5.013  0.1309  0.2258 -0.1047
 2500SOL     OW19135   1.929   0.113   0.608  0.1344 -0.1997  0.1831
 2500SOL    HW119136   1.944   0.191   0.554  1.5133 -0.6138 -0.0397
 2500SOL    HW219137   1.925   0.158   0.692 -0.1996 -1.0683  0.6260
 2501SOL     OW19138   2.702   2.126   3.812  0.2024  0.6903  0.2482
 2501SOL    HW119139   2.696   2.063   3.740  0.4908  0.9658 -0.0134
 2501SOL    HW219140   2.771   2.099   3.872  0.7104  0.4262 -0.4626
 2502SOL     OW19141   0.755   2.810  15.993 -0.1208 -0.0169 -0.1034
 2502SOL    HW119142   0.716   2.759  15.922  0.0173  0.3022 -0.4071
 2502SOL    HW219143   0.836   2.762  16.010  0.8497  1.7601  0.3205
 2503SOL     OW19144   2.101   0.400   8.554  0.3291  0.1688 -0.3710
 2503SOL    HW119145   2.108   0.350   8.635 -1.3354 -0.9504 -0.9229
 2503SOL    HW219146   2.132   0.484   8.588 -0.4446  0.5193 -0.5218
 2504SOL     OW19147   1.999   4.658   6.873  0.6062  0.1268 -0.3080
 2504SOL    HW119148   1.921   4.614   6.840  1.5322 -2.2028  0.6472
 2504SOL    HW219149   1.982   0.008   6.835  2.6654  1.8064  2.5501
 2505SOL     OW19150   0.175   1.936   4.476 -0.3387  0.4352 -0.1192
 2505SOL    HW119151   0.191   1.958   4.568 -0.7941  1.9371 -0.3940
 2505SOL    HW219152   0.255   1.890   4.453  0.4530  2.0208 -0.5377
 2506SOL     OW19153   2.036   1.740   1.517  0.2630  0.8206  0.1175
 2506SOL    HW119154   2.123   1.780   1.510  0.9566 -0.4537  1.5171
 2506SOL    HW219155   2.024   1.712   1.426 -0.2790  0.6011  0.2588
 2507SOL     OW19156   1.642   3.297   7.221 -0.4542 -0.1375  0.4100
 2507SOL    HW119157   1.672   3.236   7.154  1.8600 -0.1833  1.4709
 2507SOL    HW219158   1.567   3.246   7.252  0.3373 -2.0192 -0.7500
 2508SOL     OW19159   2.089   4.441  10.782 -0.3475 -0.3041 -0.3934
 2508SOL    HW119160   2.008   4.395  10.804 -0.4849  1.4004  2.5936
 2508SOL    HW219161   2.143   4.390  10.844  1.6476  1.5641 -0.5892
 2509SOL     OW19162   3.304   3.639   5.974 -0.4239 -0.0538 -0.0751
 2509SOL    HW119163   3.341   3.669   5.891  0.4292 -0.6680  0.0797
 2509SOL    HW219164   3.236   3.587   5.930 -1.3166  1.5595 -0.6046
 2510SOL     OW19165   0.284   0.351   1.011  0.2764  0.7199  0.2692
 2510SOL    HW119166   0.287   0.348   0.916  0.8534 -2.2732  0.3746
 2510SOL    HW219167   0.340   0.283   1.049  0.5590  0.1537 -1.1740
 2511SOL     OW19168   4.203   3.024   2.221  0.1548  0.2558 -0.3875
 2511SOL    HW119169   4.201   2.973   2.302  1.1691  0.5125 -0.2053
 2511SOL    HW219170   4.296   3.021   2.199  0.1614 -0.8159 -0.2321
 2512SOL     OW19171   3.433   4.326   6.236 -0.0759 -0.6220 -0.1732
 2512SOL    HW119172   3.409   4.240   6.269  1.3530 -0.8657  0.2431
 2512SOL    HW219173   3.456   4.301   6.147  0.7933 -1.4182  0.2776
 2513SOL     OW19174   3.684   1.957   9.467 -0.2963 -0.0175 -0.5584
 2513SOL    HW119175   3.748   1.906   9.417 -0.8757  1.0918 -2.4446
 2513SOL    HW219176   3.661   2.029   9.408  1.9056  1.7416  0.7971
 2514SOL     OW19177   4.614   0.422   4.814 -0.0224 -0.0695  0.2534
 2514SOL    HW119178   4.567   0.496   4.775  0.6122  0.5585  0.6882
 2514SOL    HW219179   4.559   0.348   4.788  0.0848 -0.4610  1.1473
 2515SOL     OW19180   0.464   3.335   6.971  0.3751  0.1171  0.4443
 2515SOL    HW119181   0.498   3.365   7.055  1.5677  0.1827 -0.0656
 2515SOL    HW219182   0.520   3.383   6.910  0.1371  0.9383  0.8675
 2516SOL     OW19183   1.449   3.181  10.543  0.0124 -0.0423  0.3049
 2516SOL    HW119184   1.410   3.266  10.565 -1.0358 -0.4711  0.0697
 2516SOL    HW219185   1.434   3.184  10.449 -0.4835 -1.9688  0.3334
 2517SOL     OW19186   1.096   1.898   8.207 -0.2660 -0.4066 -0.4370
 2517SOL    HW119187   1.021   1.870   8.154 -1.5724  2.8626 -0.3162
 2517SOL    HW219188   1.087   1.991   8.226 -3.0697 -0.5523 -0.9082
 2518SOL     OW19189   1.951   4.327  13.517 -0.6173  0.1618  0.5046
 2518SOL    HW119190   2.009   4.345  13.592 -1.3113 -1.1745  1.3694
 2518SOL    HW219191   1.981   4.242  13.485 -0.5396 -0.4102  2.0734
 2519SOL     OW19192   2.302   0.307   8.087  0.0255  0.3296 -0.1014
 2519SOL    HW119193   2.273   0.383   8.138 -1.1901 -0.6549  0.6736
 2519SOL    HW219194   2.380   0.343   8.045  2.2882 -2.0244  2.0739
 2520SOL     OW19195   1.543   1.229   1.983 -0.0323 -0.0959 -0.1549
 2520SOL    HW119196   1.619   1.175   1.961  0.2744  0.6260 -0.8694
 2520SOL    HW219197   1.479   1.191   1.922  0.0112 -0.7939  0.2384
 2521SOL     OW19198   1.775   1.347   3.514 -0.1051 -0.5840 -0.5974
 2521SOL    HW119199   1.695   1.336   3.463 -0.2495 -1.0288 -0.2768
 2521SOL    HW219200   1.804   1.257   3.500 -1.9877 -1.3047  0.0919
 2522SOL     OW19201   3.801   2.004   8.181 -0.3180  0.4198  0.2407
 2522SOL    HW119202   3.763   2.034   8.263  1.1265 -1.4346  1.5878
 2522SOL    HW219203   3.874   1.959   8.224  1.2596  0.8057 -1.9870
 2523SOL     OW19204   1.971   4.645   2.374  0.3711 -0.3337  0.8428
 2523SOL    HW119205   1.972   4.736   2.404  0.2724  0.3444 -1.1870
 2523SOL    HW219206   1.932   4.591   2.443  0.7047  0.1307  1.3928
 2524SOL     OW19207   1.700   2.218   0.926  0.2538 -0.4936  0.5268
 2524SOL    HW119208   1.682   2.211   0.833  0.0939  2.6658  0.3193
 2524SOL    HW219209   1.756   2.296   0.927  0.2211 -0.4617 -1.6389
 2525SOL     OW19210   0.764   3.075  16.010  0.0917 -0.5402 -0.0019
 2525SOL    HW119211   0.768   2.982  15.986  1.3676 -0.7249  0.9459
 2525SOL    HW219212   0.848   3.099  15.972  0.4345 -1.4138  0.1968
 2526SOL     OW19213   1.143   1.079   3.896 -0.3454  0.4404 -0.1909
 2526SOL    HW119214   1.080   1.150   3.910 -0.6613 -0.3424  2.3278
 2526SOL    HW219215   1.221   1.127   3.925 -1.3837  2.8505 -1.3786
 2527SOL     OW19216   3.601   1.171  13.043 -0.3239  0.5015  0.1374
 2527SOL    HW119217   3.574   1.135  13.128 -1.3914  1.5231  0.2373
 2527SOL    HW219218   3.597   1.265  13.058  0.9292  0.4273  0.9113
 2528SOL     OW19219   4.501   2.165  13.328  0.2382  0.1601  0.3274
 2528SOL    HW119220   4.511   2.075  13.296  1.7002  0.7301 -0.8038
 2528SOL    HW219221   4.407   2.164  13.345 -0.4456  0.5347 -3.6382
 2529SOL     OW19222   3.312   3.423   7.742 -0.4701  0.3175 -0.2406
 2529SOL    HW119223   3.249   3.370   7.791  0.2527  2.1729  2.7006
 2529SOL    HW219224   3.254   3.453   7.672  1.1242 -0.2141 -1.8034
 2530SOL     OW19225   4.375   1.349  13.053 -0.0012 -0.9333  0.2559
 2530SOL    HW119226   4.448   1.328  12.995 -1.5960  1.4140 -2.6151
 2530SOL    HW219227   4.417   1.306  13.127 -1.0177 -0.2637  1.2314
 2531SOL     OW19228   3.973   0.107  15.995  0.6798  0.3036 -0.3280
 2531SOL    HW119229   3.981   0.145  16.082  2.1005  0.9077 -0.7060
 2531SOL    HW219230   3.940   0.021  16.019 -0.0561  0.3741 -1.0580
 2532SOL     OW19231   0.752   3.814   6.470 -0.1625  0.2293 -0.4256
 2532SOL    HW119232   0.726   3.851   6.385 -3.3121  1.1535  0.9528
 2532SOL    HW219233   0.821   3.875   6.493  0.9860 -0.2294 -2.5951
 2533SOL     OW19234   2.374   1.456   6.080  0.0204 -0.1635 -0.2600
 2533SOL    HW119235   2.425   1.434   6.157 -2.5388 -1.7207  0.9784
 2533SOL    HW219236   2.437   1.503   6.025  1.9235 -2.9168 -0.4559
 2534SOL     OW19237   1.441   3.558   2.669 -0.3812  0.0334  0.6081
 2534SOL    HW119238   1.408   3.472   2.640 -0.3129  0.2618 -0.1421
 2534SOL    HW219239   1.422   3.627   2.605  0.3679 -0.3995 -0.0879
 2535SOL     OW19240   3.108   2.008   2.246  0.1877  0.1956 -0.1737
 2535SOL    HW119241   3.202   1.994   2.245  0.0466 -0.9659  2.2851
 2535SOL    HW219242   3.084   1.950   2.174 -0.5850 -0.3702  0.5300
 2536SOL     OW19243   3.307   4.673   1.639 -0.1302 -0.0829 -0.0795
 2536SOL    HW119244   3.250   0.008   1.667 -1.3796 -1.2200  0.2940
 2536SOL    HW219245   3.245   4.603   1.660 -0.2788 -0.1694 -0.8194
 2537SOL     OW19246   3.756   4.016  13.989  0.1838 -0.4431  0.4860
 2537SOL    HW119247   3.819   3.944  13.989 -2.0774 -2.4136 -1.3542
 2537SOL    HW219248   3.803   4.078  13.934 -1.3499  1.2120  1.0338
 2538SOL     OW19249   4.438   1.508  15.514 -0.1487 -0.5673  0.1527
 2538SOL    HW119250   4.521   1.485  15.473 -0.9810  0.0948 -1.8710
 2538SOL    HW219251   4.441   1.604  15.523  1.4755 -0.5150 -0.9735
 2539SOL     OW19252   0.390   2.186   4.440 -0.0076 -0.3082  0.6449
 2539SOL    HW119253   0.444   2.107   4.450 -1.6060 -1.2394  1.7850
 2539SOL    HW219254   0.457   2.251   4.419 -1.5522  0.5962 -1.5119
 2540SOL     OW19255   0.449   3.549  12.178  0.1942  0.5740 -0.0241
 2540SOL    HW119256   0.392   3.542  12.255  0.8449  0.2016  0.4178
 2540SOL    HW219257   0.405   3.502  12.107 -1.4759  1.3517  0.4755
 2541SOL     OW19258   2.782   3.846   4.996 -0.4764  0.1865  0.1540
 2541SOL    HW119259   2.708   3.785   4.995  1.2646 -1.9035 -0.2186
 2541SOL    HW219260   2.855   3.790   5.025 -0.3134 -1.0372 -2.6761
 2542SOL     OW19261   3.497   3.167   7.800 -0.3990 -0.0937 -0.4627
 2542SOL    HW119262   3.487   3.209   7.885 -1.5471 -0.1309 -0.5781
 2542SOL    HW219263   3.452   3.226   7.739 -2.9709  0.1858  1.7205
 2543SOL     OW19264   0.628   2.231   0.694  0.1968 -0.5039 -0.2633
 2543SOL    HW119265   0.548   2.196   0.654  0.6191 -1.2994 -0.3929
 2543SOL    HW219266   0.599   2.317   0.726 -3.1994 -1.9630  0.5915
 2544SOL     OW19267   2.238   0.409  15.491  0.1850 -0.5879 -0.4746
 2544SOL    HW119268   2.322   0.450  15.470  0.4374 -0.9196 -0.1134
 2544SOL    HW219269   2.203   0.486  15.536 -1.1285 -1.9213  0.8194
 2545SOL     OW19270   3.727   1.258   2.265 -0.1437  0.2560  0.3206
 2545SOL    HW119271   3.730   1.214   2.180 -0.1163 -0.8481  0.8901
 2545SOL    HW219272   3.798   1.322   2.257 -0.3654  0.9080  3.5644
 2546SOL     OW19273   0.013   1.741   4.920  0.1675  0.1295  0.1370
 2546SOL    HW119274   4.732   1.799   4.995 -0.2154 -0.0780  0.2088
 2546SOL    HW219275   4.683   1.677   4.946 -0.9681  1.2518 -0.0197
 2547SOL     OW19276   3.838   4.257   4.982  0.1333  0.3078 -0.1099
 2547SOL    HW119277   3.754   4.214   4.964  1.4358 -2.8582  1.4900
 2547SOL    HW219278   3.871   4.216   5.062 -1.2517 -0.5133  0.0406
 2548SOL     OW19279   3.459   1.583  12.580 -0.4745  0.4708 -0.0779
 2548SOL    HW119280   3.521   1.510  12.583  0.6907  1.3526 -2.1459
 2548SOL    HW219281   3.374   1.542  12.593  0.1986 -1.3296 -1.5172
 2549SOL     OW19282   2.202   2.749   0.927  0.0315 -0.0234 -0.2943
 2549SOL    HW119283   2.226   2.820   0.867  0.6433 -0.4125 -0.5035
 2549SOL    HW219284   2.288   2.749   0.967  0.3188  0.0241 -0.9048
 2550SOL     OW19285   2.372   0.075   0.866  0.2225  0.0765 -0.0741
 2550SOL    HW119286   2.331   0.130   0.932 -1.8860 -1.2174 -0.2944
 2550SOL    HW219287   2.443   0.130   0.835 -0.2868  1.7185  1.6794
 2551SOL     OW19288   0.110   3.725   9.159  0.0146  0.0053 -0.6949
 2551SOL    HW119289   0.097   3.810   9.116 -1.3711 -0.9992 -2.2847
 2551SOL    HW219290   0.060   3.660   9.109  1.2951 -0.3507 -1.5089
 2552SOL     OW19291   1.088   4.554   0.192  0.0288  0.8105  0.3320
 2552SOL    HW119292   1.038   4.543   0.272 -2.4037 -3.3048 -1.7975
 2552SOL    HW219293   1.022   4.573   0.126  1.1809  0.2304 -0.9825
 2553SOL     OW19294   0.762   1.996  11.118  0.0669 -0.3721  0.3462
 2553SOL    HW119295   0.707   2.009  11.195 -0.6196 -1.4069  0.0289
 2553SOL    HW219296   0.719   2.053  11.054  3.0466 -0.0669 -1.3806
 2554SOL     OW19297   1.576   2.472   2.808  0.3475  0.2193 -0.0091
 2554SOL    HW119298   1.497   2.526   2.812 -0.0937 -0.6431  2.7430
 2554SOL    HW219299   1.647   2.523   2.767 -0.4296 -0.4755 -2.1962
 2555SOL     OW19300   2.917   1.644   1.333 -0.2420 -0.0763  0.0703
 2555SOL    HW119301   2.949   1.603   1.414 -1.5386 -1.1113  0.0470
 2555SOL    HW219302   2.983   1.608   1.274 -0.6327 -0.7948  0.0769
 2556SOL     OW19303   2.444   4.671   8.133 -0.5451 -0.3938 -0.1753
 2556SOL    HW119304   2.398   4.589   8.150  0.6987 -1.1530 -0.4073
 2556SOL    HW219305   2.531   4.636   8.114 -1.3943 -1.5853 -1.8659
 2557SOL     OW19306   1.898   4.055   1.676  0.0800 -0.5695 -0.9580
 2557SOL    HW119307   1.904   3.976   1.731 -0.0385  0.1458  0.0889
 2557SOL    HW219308   1.843   4.027   1.604  0.0541 -0.3135 -1.0366
 2558SOL     OW19309   2.099   4.577  15.535  0.5155 -0.1163 -0.6666
 2558SOL    HW119310   2.151   4.652  15.508  0.9327 -1.1508 -2.7562
 2558SOL    HW219311   2.171   4.520  15.563  0.6258  0.9060  1.0813
 2559SOL     OW19312   2.463   1.433   0.446  0.2072  0.1729 -0.0744
 2559SOL    HW119313   2.558   1.428   0.453  0.1258 -3.6939 -2.1400
 2559SOL    HW219314   2.429   1.457   0.533  1.5716  1.0155  0.2376
 2560SOL     OW19315   3.408   0.044  16.896  0.3375  0.1275 -0.0222
 2560SOL    HW119316   3.472   0.108  16.864  0.2502  0.8484  1.2173
 2560SOL    HW219317   3.402   4.726  16.818 -1.5884 -1.4964  1.2365
 2561SOL     OW19318   0.967   2.593  11.222 -0.4692 -0.3706 -0.2748
 2561SOL    HW119319   0.954   2.636  11.137 -0.5891  1.0879  0.5014
 2561SOL    HW219320   1.061   2.576  11.210 -0.3136  1.7973 -2.0638
 2562SOL     OW19321   0.262   0.241   6.934  0.1436 -0.4297 -0.3224
 2562SOL    HW119322   0.339   0.201   6.974 -0.4189  1.2130  2.4698
 2562SOL    HW219323   0.290   0.333   6.933 -0.1052 -0.3988 -3.7307
 2563SOL     OW19324   0.974   4.305   1.266  0.2575 -0.3359 -0.2760
 2563SOL    HW119325   0.905   4.294   1.200  0.2070 -0.1348 -0.2559
 2563SOL    HW219326   0.994   4.212   1.280 -0.2416 -0.6614 -1.7107
 2564SOL     OW19327   4.407   2.460   1.897  0.0680 -0.4794 -0.5521
 2564SOL    HW119328   4.470   2.509   1.950  0.0950 -0.5671 -0.5038
 2564SOL    HW219329   4.349   2.532   1.871 -2.3927 -1.1103  3.1661
 2565SOL     OW19330   1.333   0.623  11.013 -0.0913 -0.2773  0.0189
 2565SOL    HW119331   1.427   0.637  11.021 -0.2246  0.8712 -0.2746
 2565SOL    HW219332   1.337   0.584  10.925  0.7285 -1.3034  0.5225
 2566SOL     OW19333   1.655   0.784   8.632 -0.5040  0.0243  0.1678
 2566SOL    HW119334   1.684   0.836   8.707 -0.1991 -2.3573  1.6908
 2566SOL    HW219335   1.563   0.761   8.649 -0.0309 -1.8884  0.1658
 2567SOL     OW19336   4.123   1.847   5.790  0.3864  0.4720  0.2093
 2567SOL    HW119337   4.059   1.867   5.722 -0.1680  0.3006  0.6799
 2567SOL    HW219338   4.088   1.898   5.863  0.0717  2.0728 -1.0634
 2568SOL     OW19339   4.465   0.448   9.425  0.2842  0.4142  0.6761
 2568SOL    HW119340   4.548   0.400   9.432  0.3285  0.5338  0.9643
 2568SOL    HW219341   4.473   0.482   9.515 -1.1205 -2.6174  1.9537
 2569SOL     OW19342   2.947   3.646  15.752 -0.2875  0.5144 -0.7745
 2569SOL    HW119343   2.996   3.702  15.693  1.2670  0.5416  0.5477
 2569SOL    HW219344   2.856   3.670  15.733 -0.8938  0.2936  1.7480
 2570SOL     OW19345   3.829   2.440   2.741 -0.8981  0.0642  0.1666
 2570SOL    HW119346   3.797   2.408   2.657 -2.5834 -0.0237  0.8580
 2570SOL    HW219347   3.923   2.429   2.723 -0.6005  1.5462  0.7828
 2571SOL     OW19348   0.370   4.201  14.364  0.6650  0.2194 -0.1380
 2571SOL    HW119349   0.372   4.204  14.268  0.3744  2.1706 -0.0890
 2571SOL    HW219350   0.465   4.202  14.381  0.7073  0.8504 -0.3730
 2572SOL     OW19351   3.544   0.642   0.623  0.2068  0.0020  0.2647
 2572SOL    HW119352   3.499   0.672   0.702 -0.2626 -0.1429  0.0522
 2572SOL    HW219353   3.619   0.587   0.648  3.0397  3.0004 -1.5634
 2573SOL     OW19354   1.525   2.135   5.772  0.3591  0.2407  0.0376
 2573SOL    HW119355   1.483   2.179   5.846 -0.3184 -1.5215  0.7098
 2573SOL    HW219356   1.461   2.065   5.760  0.5780 -0.2431  1.6602
 2574SOL     OW19357   0.186   3.628   2.243 -0.1814  0.0509 -0.7797
 2574SOL    HW119358   0.235   3.630   2.325 -2.3503  0.1838  0.5022
 2574SOL    HW219359   0.130   3.705   2.255  2.4577  2.0251 -1.2000
 2575SOL     OW19360   0.814   1.796   6.261  0.4540  0.2844 -0.8380
 2575SOL    HW119361   0.777   1.884   6.261  1.4038  0.6669 -3.3368
 2575SOL    HW219362   0.743   1.739   6.231  0.6028 -1.4248  2.0261
 2576SOL     OW19363   1.600   1.484   6.726 -0.1779  0.1270  0.1746
 2576SOL    HW119364   1.618   1.527   6.810 -1.6562 -1.8922  1.5432
 2576SOL    HW219365   1.518   1.524   6.700 -0.3662 -0.5081 -0.2214
 2577SOL     OW19366   4.401   2.017  14.456  0.5916  0.2750 -0.3997
 2577SOL    HW119367   4.320   2.026  14.406  0.5188  0.7428 -0.1960
 2577SOL    HW219368   4.455   2.095  14.438 -0.6003  1.5589  1.6864
 2578SOL     OW19369   1.268   2.383   7.383 -0.8384  0.1257  0.1035
 2578SOL    HW119370   1.243   2.469   7.415 -1.2146  0.2900 -0.6224
 2578SOL    HW219371   1.363   2.387   7.382 -0.9003  1.7956  1.4390
 2579SOL     OW19372   0.421   0.339   3.173 -0.2728 -0.0531  0.0001
 2579SOL    HW119373   0.379   0.352   3.258 -1.2578  3.0917 -0.9714
 2579SOL    HW219374   0.361   0.283   3.124 -1.2203  1.7768 -0.9567
 2580SOL     OW19375   2.106   1.661   4.401 -0.5680  0.7509  0.2063
 2580SOL    HW119376   2.179   1.706   4.444  0.6609 -3.5476  2.5691
 2580SOL    HW219377   2.100   1.719   4.325 -3.3513 -2.3732 -1.9793
 2581SOL     OW19378   2.304   0.074   2.565 -0.3055 -0.0208 -0.0990
 2581SOL    HW119379   2.241   0.090   2.635  0.4366  0.0727  0.5439
 2581SOL    HW219380   2.326   0.166   2.556 -1.4469  0.3028  0.4458
 2582SOL     OW19381   1.168   1.500   8.322 -0.3574 -0.5153 -0.2505
 2582SOL    HW119382   1.234   1.567   8.300  1.0777 -1.3959  1.3211
 2582SOL    HW219383   1.155   1.452   8.240  0.5872  2.0359 -1.9046
 2583SOL     OW19384   2.723   2.622  10.579 -0.1183 -0.2858  0.0652
 2583SOL    HW119385   2.799   2.634  10.637 -0.2705  2.9856 -0.4699
 2583SOL    HW219386   2.758   2.619  10.490  3.8193 -3.4269  1.6875
 2584SOL     OW19387   1.487   3.443  15.973 -0.1905  0.0939 -0.2749
 2584SOL    HW119388   1.435   3.493  15.911 -0.4234  0.9162  0.5840
 2584SOL    HW219389   1.523   3.523  16.011  2.0591 -1.4029  0.7478
 2585SOL     OW19390   1.834   1.139   5.051  0.0428  0.8761  0.0325
 2585SOL    HW119391   1.887   1.188   5.114 -0.7740 -0.5735  1.8616
 2585SOL    HW219392   1.770   1.099   5.110  1.8440  2.1345  2.8088
 2586SOL     OW19393   1.021   0.188   2.562  0.2672 -0.1387  0.1223
 2586SOL    HW119394   0.981   0.275   2.551 -0.2053 -0.4963 -0.9914
 2586SOL    HW219395   0.946   0.128   2.556 -0.2189  0.5525 -0.7697
 2587SOL     OW19396   3.285   2.443   0.542  0.3674  0.0211 -0.3897
 2587SOL    HW119397   3.368   2.431   0.588  0.0972  3.6843  1.0111
 2587SOL    HW219398   3.311   2.461   0.452 -1.7696  2.2571 -0.5257
 2588SOL     OW19399   2.923   3.616   1.120 -0.0223  0.0592  0.0944
 2588SOL    HW119400   2.971   3.537   1.099  0.3009  0.1898  0.3410
 2588SOL    HW219401   2.893   3.645   1.034 -0.5939  1.0778  0.6247
 2589SOL     OW19402   0.470   1.217   5.191 -0.4304  0.2397  0.1788
 2589SOL    HW119403   0.417   1.189   5.266 -0.2048 -1.3037 -0.2443
 2589SOL    HW219404   0.499   1.305   5.215  1.7603 -0.5474  0.4352
 2590SOL     OW19405   1.174   4.535   4.530  0.1204 -0.0996  0.1291
 2590SOL    HW119406   1.199   4.586   4.607  0.8793  0.7853 -0.7013
 2590SOL    HW219407   1.225   4.589   4.469  1.7625  0.0995  1.6588
 2591SOL     OW19408   4.616   2.310   6.428  0.6729  0.0098 -0.5098
 2591SOL    HW119409   4.644   2.391   6.471  1.8468  0.9636 -3.0813
 2591SOL    HW219410   4.527   2.308   6.464  0.9800 -3.1012  0.1319
 2592SOL     OW19411   3.071   1.861   8.473 -0.0775 -0.1382 -0.2653
 2592SOL    HW119412   3.000   1.926   8.472 -0.9201 -1.0453  0.6611
 2592SOL    HW219413   3.027   1.777   8.458  1.9649 -1.6218  2.0507
 2593SOL     OW19414   0.362   2.205  14.258 -0.1551 -1.1909 -0.2982
 2593SOL    HW119415   0.384   2.281  14.312 -0.7301 -0.7121 -0.7342
 2593SOL    HW219416   0.309   2.235  14.183 -2.5328 -0.8684  1.4913
 2594SOL     OW19417   2.688   3.751  15.887 -0.0140  0.0301 -0.0622
 2594SOL    HW119418   2.678   3.846  15.887 -1.7186 -0.1216  2.9290
 2594SOL    HW219419   2.691   3.740  15.792  0.7225  1.3474 -0.1903
 2595SOL     OW19420   1.926   4.219   9.243 -0.1565  0.6716  0.0213
 2595SOL    HW119421   1.905   4.166   9.320 -1.3377 -0.6187 -1.1866
 2595SOL    HW219422   1.912   4.308   9.275 -0.5549  0.9411 -0.8805
 2596SOL     OW19423   2.812   2.723  17.417 -0.0334  0.3438  0.1265
 2596SOL    HW119424   2.834   2.817  17.422  0.2127  0.2263  1.1883
 2596SOL    HW219425   2.731   2.715  17.467 -0.5693 -0.4402 -0.8675
 2597SOL     OW19426   2.388   3.023   8.111 -0.0616  0.1663 -0.3051
 2597SOL    HW119427   2.311   2.974   8.079 -0.0782  0.7968 -1.2330
 2597SOL    HW219428   2.412   2.982   8.194 -0.3187  0.7854  0.0694
 2598SOL     OW19429   1.653   1.049   8.473 -0.3310  0.0769  0.1315
 2598SOL    HW119430   1.698   1.016   8.551  0.2867  1.3380  0.3007
 2598SOL    HW219431   1.622   0.969   8.430 -1.0663  1.5887 -2.1634
 2599SOL     OW19432   2.701   0.978   1.508 -0.0581  0.3093  0.1830
 2599SOL    HW119433   2.617   0.991   1.463 -0.4096 -2.0837  0.1425
 2599SOL    HW219434   2.697   0.883   1.521 -0.1537 -0.0577 -2.3491
 2600SOL     OW19435   0.910   0.408   3.071 -0.1559 -0.6301 -0.0999
 2600SOL    HW119436   0.838   0.385   3.013 -1.8310 -0.6183  1.9706
 2600SOL    HW219437   0.899   0.345   3.142  0.1673  0.0500  0.5559
 2601SOL     OW19438   0.484   0.025   8.117 -0.0005 -0.0223 -0.2501
 2601SOL    HW119439   0.468   0.119   8.111  1.1482  0.0990 -1.3673
 2601SOL    HW219440   0.557   0.015   8.055 -0.5945 -1.1003 -0.7685
 2602SOL     OW19441   3.706   4.569   6.737 -0.0236  0.5203 -0.1227
 2602SOL    HW119442   3.618   4.604   6.752  0.8863  2.7067  0.1800
 2602SOL    HW219443   3.746   4.601   6.818  2.2705  0.7101 -1.3487
 2603SOL     OW19444   0.726   4.641  10.757  0.4861 -0.1658  0.1081
 2603SOL    HW119445   0.740   4.674  10.846  1.2363 -1.6276  0.5348
 2603SOL    HW219446   0.735   4.550  10.783  2.1937 -0.0338 -0.0033
 2604SOL     OW19447   3.902   2.644   3.062 -0.0897  0.3938 -0.1259
 2604SOL    HW119448   3.912   2.557   3.024  0.9411  0.4599 -0.0085
 2604SOL    HW219449   3.945   2.633   3.147 -0.8926  1.2882  0.3945
 2605SOL     OW19450   0.279   3.441   5.377 -0.0130 -0.2311  0.1247
 2605SOL    HW119451   0.333   3.489   5.313  1.8786 -1.0076  1.1650
 2605SOL    HW219452   0.350   3.391   5.416  1.9412  1.9798 -0.6200
 2606SOL     OW19453   2.128   0.205   3.990  0.0926 -0.1454  0.5647
 2606SOL    HW119454   2.072   0.234   4.062 -1.3415 -1.1424 -0.1459
 2606SOL    HW219455   2.208   0.181   4.037  0.9371 -0.2626 -0.9233
 2607SOL     OW19456   0.812   3.283   4.425  0.2254  0.1817 -0.0046
 2607SOL    HW119457   0.772   3.212   4.375  1.5527 -0.8171  0.3310
 2607SOL    HW219458   0.742   3.318   4.480  2.5209  0.9768  2.3932
 2608SOL     OW19459   1.346   1.088  17.615 -0.4496 -0.0596  0.1193
 2608SOL    HW119460   1.407   1.161  17.621 -0.8977  0.5258 -2.3317
 2608SOL    HW219461   1.407   1.015  17.607 -0.7050 -0.2917  0.2945
 2609SOL     OW19462   0.477   3.793   3.377 -0.7130 -0.4382  0.4705
 2609SOL    HW119463   0.485   3.763   3.468 -1.0890 -1.0857  0.2953
 2609SOL    HW219464   0.439   3.723   3.324  0.4438 -0.8099  0.1366
 2610SOL     OW19465   4.491   0.525  14.941 -0.1687 -0.5208 -0.3570
 2610SOL    HW119466   4.469   0.509  14.849 -1.5943  0.6053 -0.2115
 2610SOL    HW219467   4.539   0.607  14.930 -1.0742  0.4468  2.9797
 2611SOL     OW19468   2.553   2.959   9.407 -0.4915 -0.1556 -0.2072
 2611SOL    HW119469   2.579   2.867   9.408  0.7485  0.2358  3.0976
 2611SOL    HW219470   2.513   2.966   9.320  0.2970 -1.5012 -0.6804
 2612SOL     OW19471   4.349   0.729   4.950 -0.4057  0.4118 -0.2980
 2612SOL    HW119472   4.382   0.650   4.994  0.3997  1.5830  1.1965
 2612SOL    HW219473   4.394   0.790   5.009 -1.3036 -0.0596  0.8564
 2613SOL     OW19474   2.997   0.593   1.166 -0.2355 -0.5673 -0.2593
 2613SOL    HW119475   2.950   0.656   1.220 -1.7688 -2.4219  0.5922
 2613SOL    HW219476   3.023   0.531   1.234  2.2348  1.9930  1.1367
 2614SOL     OW19477   1.694   0.733   6.166  0.2280  0.2409 -0.4310
 2614SOL    HW119478   1.731   0.646   6.185  0.9010  0.3883 -1.0753
 2614SOL    HW219479   1.767   0.793   6.179 -0.0336  0.4691  0.0297
 2615SOL     OW19480   0.665   0.626   9.038 -0.0318  0.3138 -0.1563
 2615SOL    HW119481   0.696   0.596   9.123 -0.6836 -0.6128 -0.2479
 2615SOL    HW219482   0.708   0.708   9.015 -0.5114  0.2909 -1.1631
 2616SOL     OW19483   3.042   4.334   9.813 -0.1586  0.3901  0.0586
 2616SOL    HW119484   3.134   4.309   9.818 -0.2447  0.3940  1.7146
 2616SOL    HW219485   3.038   4.377   9.898  1.1807 -0.6321  0.6425
 2617SOL     OW19486   3.213   1.663   5.089  0.5127  0.1414 -0.1834
 2617SOL    HW119487   3.212   1.684   4.996  1.2303  0.8435 -0.0301
 2617SOL    HW219488   3.128   1.705   5.096  0.7597  0.2676  1.9742
 2618SOL     OW19489   3.546   2.217   7.032  0.2412 -0.3194 -0.5639
 2618SOL    HW119490   3.476   2.170   6.988  1.2225  0.1092 -2.5630
 2618SOL    HW219491   3.502   2.226   7.117  0.6316 -1.5373 -0.2220
 2619SOL     OW19492   4.690   1.464  16.819  0.2510  0.0598 -0.8114
 2619SOL    HW119493   0.031   1.520  16.820  0.3510 -0.0952  0.3443
 2619SOL    HW219494   4.703   1.375  16.852  0.7293  0.2716 -0.4431
 2620SOL     OW19495   2.220   3.249   6.536 -0.3104  0.2858 -0.0303
 2620SOL    HW119496   2.178   3.332   6.557  2.0866  2.6251 -4.4564
 2620SOL    HW219497   2.171   3.184   6.587 -2.5769  0.1326 -2.4262
 2621SOL     OW19498   2.788   3.957   1.200 -1.2100 -0.3897  0.4949
 2621SOL    HW119499   2.737   4.038   1.198 -0.3956  0.1397  0.9735
 2621SOL    HW219500   2.737   3.907   1.136  0.7035 -0.7296 -0.7645
 2622SOL     OW19501   4.610   0.241   5.724  0.3373 -0.3143 -0.5922
 2622SOL    HW119502   4.631   0.156   5.763  0.4919 -1.1931 -2.6228
 2622SOL    HW219503   4.566   0.221   5.642 -2.0115 -0.0240  0.6004
 2623SOL     OW19504   0.213   4.613   3.640 -0.1453 -0.4589  0.0038
 2623SOL    HW119505   0.179   4.641   3.725 -2.0513  0.2181 -0.9606
 2623SOL    HW219506   0.305   4.630   3.658 -1.1365  2.0873  2.5956
 2624SOL     OW19507   2.848   4.682   5.318 -0.6317  0.4379  0.1640
 2624SOL    HW119508   2.862   4.722   5.232 -1.6732 -1.2708 -0.7912
 2624SOL    HW219509   2.755   4.698   5.331 -1.0285 -1.0421 -0.9259
 2625SOL     OW19510   4.224   3.663   7.981 -0.2924  0.4277 -0.8585
 2625SOL    HW119511   4.279   3.742   7.985 -0.4749  0.4164  2.2557
 2625SOL    HW219512   4.270   3.600   8.037 -2.3671 -0.7273 -0.4583
 2626SOL     OW19513   3.485   3.089  15.412 -0.2400  0.0234  0.3339
 2626SOL    HW119514   3.465   3.172  15.454 -1.0810 -0.4194  0.8147
 2626SOL    HW219515   3.561   3.117  15.360  0.9222 -0.2519  1.8890
 2627SOL     OW19516   0.424   0.066  16.759 -0.7062 -0.3699 -0.4490
 2627SOL    HW119517   0.392   0.087  16.847 -2.1152 -0.7583 -0.8677
 2627SOL    HW219518   0.462   0.148  16.728  0.9319 -0.9817 -0.0538
 2628SOL     OW19519   1.959   0.152   8.262  0.1213 -0.7559 -0.1086
 2628SOL    HW119520   2.008   0.131   8.341  1.7159 -3.2280 -1.7492
 2628SOL    HW219521   1.919   0.232   8.294  3.3917  0.5773  0.6477
 2629SOL     OW19522   1.121   2.862   3.305  0.2214  0.4070  0.9223
 2629SOL    HW119523   1.132   2.825   3.217 -1.6998 -3.3768  2.2554
 2629SOL    HW219524   1.070   2.793   3.348 -1.7920  0.4103 -1.4608
 2630SOL     OW19525   1.487   2.378   4.212 -0.0086  0.3174 -0.2061
 2630SOL    HW119526   1.445   2.401   4.295 -3.0037 -3.4485 -0.7031
 2630SOL    HW219527   1.550   2.450   4.208  1.2349 -0.6910  1.5971
 2631SOL     OW19528   4.215   1.873  14.624 -0.0311 -0.1663 -0.3442
 2631SOL    HW119529   4.293   1.910  14.582  0.2566 -1.5166 -1.0038
 2631SOL    HW219530   4.186   1.944  14.681  0.2858 -0.8756  0.7045
 2632SOL     OW19531   2.455   2.903   3.401  0.1459 -0.1064  0.7285
 2632SOL    HW119532   2.439   2.972   3.465  1.8771 -0.0835  1.1193
 2632SOL    HW219533   2.451   2.822   3.452 -2.0226  0.9467  2.2471
 2633SOL     OW19534   4.703   3.587   5.247 -0.7325  0.4493  0.0202
 2633SOL    HW119535   4.734   3.663   5.296 -0.1891 -0.5157  1.1868
 2633SOL    HW219536   4.668   3.540   5.324 -1.6212 -0.6793 -1.0602
 2634SOL     OW19537   0.911   4.140   8.358 -0.1505 -0.6205  0.2002
 2634SOL    HW119538   0.979   4.082   8.390  1.7990  1.0814 -0.8496
 2634SOL    HW219539   0.963   4.203   8.307  2.2785 -1.4870  1.6261
 2635SOL     OW19540   2.087   0.199  10.821 -0.1081 -0.1395  0.5820
 2635SOL    HW119541   2.146   0.262  10.863  2.7172 -2.0619 -0.4437
 2635SOL    HW219542   2.025   0.258  10.779  1.7897  1.1406 -0.4055
 2636SOL     OW19543   1.381   4.243   3.356  0.0134 -0.0972 -0.2005
 2636SOL    HW119544   1.471   4.211   3.349 -0.3199 -0.7359 -1.6938
 2636SOL    HW219545   1.347   4.210   3.273  0.1311 -0.3500 -0.1478
 2637SOL     OW19546   3.639   3.641   5.670 -0.1934  0.0153  0.1262
 2637SOL    HW119547   3.602   3.729   5.682  1.0641  0.8273 -2.0013
 2637SOL    HW219548   3.640   3.611   5.761  0.1599 -0.4743 -0.0411
 2638SOL     OW19549   0.784   3.906   4.398 -0.6047  0.1978 -0.0814
 2638SOL    HW119550   0.716   3.929   4.462 -0.5152  2.2440 -0.7172
 2638SOL    HW219551   0.802   3.995   4.368  0.9438 -0.1682 -0.2368
 2639SOL     OW19552   4.548   4.600   3.921 -0.5696  0.7839 -0.0290
 2639SOL    HW119553   4.456   4.618   3.900 -0.0706 -0.6402 -3.4783
 2639SOL    HW219554   4.536   4.579   4.014  0.8552  1.7099  0.3703
 2640SOL     OW19555   1.733   1.188  13.500  0.2004  0.2145 -0.0612
 2640SOL    HW119556   1.752   1.173  13.593  2.1193 -0.4578 -0.5651
 2640SOL    HW219557   1.763   1.275  13.475 -2.8268  0.6639 -2.1276
 2641SOL     OW19558   1.793   4.285   5.617 -0.1819  0.4019 -0.2561
 2641SOL    HW119559   1.879   4.304   5.580 -0.6217  2.4441 -0.1897
 2641SOL    HW219560   1.794   4.189   5.615  1.1347  0.4104 -0.2555
 2642SOL     OW19561   0.397   4.333   6.455  0.0606 -0.0781 -0.3068
 2642SOL    HW119562   0.324   4.292   6.501 -0.0192 -1.6567 -1.8657
 2642SOL    HW219563   0.355   4.420   6.451 -1.3801 -0.6767  1.8883
 2643SOL     OW19564   3.004   4.137  12.131  0.1227 -0.1292 -0.5616
 2643SOL    HW119565   2.945   4.210  12.150 -0.6821 -0.5878 -1.3231
 2643SOL    HW219566   3.009   4.086  12.213  0.3482  1.8309  0.6401
 2644SOL     OW19567   2.573   1.971   1.957 -0.2597 -0.4580 -0.0420
 2644SOL    HW119568   2.554   2.065   1.951 -0.3280 -0.6195 -2.3720
 2644SOL    HW219569   2.511   1.941   2.024  0.3081 -3.5793 -0.9394
 2645SOL     OW19570   1.318   1.194   4.640  0.3586 -0.3565  0.4609
 2645SOL    HW119571   1.263   1.131   4.687  0.9931  0.3779  2.2076
 2645SOL    HW219572   1.402   1.158   4.669 -0.3887 -1.4017  1.3598
 2646SOL     OW19573   3.123   3.700   8.078 -0.4817  0.5148 -0.1608
 2646SOL    HW119574   3.108   3.782   8.126 -1.3193  1.6124 -2.2842
 2646SOL    HW219575   3.063   3.635   8.113 -1.1216 -0.5511 -3.2256
 2647SOL     OW19576   4.562   2.985  17.322 -0.4550  0.5495 -0.4267
 2647SOL    HW119577   4.503   3.015  17.392  1.4298  1.1901  0.8728
 2647SOL    HW219578   4.643   3.018  17.361 -1.1048  3.4255 -1.5268
 2648SOL     OW19579   1.949   0.407   8.031  0.1792 -0.0943 -0.6986
 2648SOL    HW119580   1.859   0.382   8.008 -0.4474  0.9371  0.5887
 2648SOL    HW219581   1.988   0.343   7.973  0.7586  0.2874 -0.7296
 2649SOL     OW19582   2.237   0.573   6.969  0.4448  0.3802  0.6129
 2649SOL    HW119583   2.178   0.594   7.042 -0.8331  0.0331 -0.3031
 2649SOL    HW219584   2.278   0.658   6.956  0.7713 -0.0753 -1.3770
 2650SOL     OW19585   1.086   1.788  15.347 -0.4013  0.3678  0.8369
 2650SOL    HW119586   1.090   1.834  15.263 -1.3646 -1.5811 -0.2631
 2650SOL    HW219587   1.100   1.852  15.417 -0.5689  0.2492  0.9772
 2651SOL     OW19588   0.006   0.784   9.053  0.0014 -0.0496  0.2946
 2651SOL    HW119589   4.668   0.793   9.113 -0.6338  1.1867 -0.6726
 2651SOL    HW219590   4.686   0.784   8.976  0.8797  0.7233 -0.3422
 2652SOL     OW19591   2.418   2.316   8.181  0.1040 -0.2843 -0.7832
 2652SOL    HW119592   2.485   2.336   8.115  2.8288 -0.8216  1.8181
 2652SOL    HW219593   2.472   2.285   8.254 -0.1489  0.9172 -0.0911
 2653SOL     OW19594   3.371   3.132   7.417  0.1449 -0.5174 -0.3224
 2653SOL    HW119595   3.327   3.091   7.342  0.3692 -1.5563  0.1144
 2653SOL    HW219596   3.347   3.074   7.489 -0.2134 -1.8912 -1.5475
 2654SOL     OW19597   3.612   1.276   6.465 -0.2665 -0.3665  0.6862
 2654SOL    HW119598   3.544   1.221   6.505 -1.8928  1.2524  0.1733
 2654SOL    HW219599   3.647   1.217   6.399  0.8782 -0.5605  1.4571
 2655SOL     OW19600   2.426   0.265   1.271  0.1179 -0.2848 -0.2619
 2655SOL    HW119601   2.482   0.242   1.197  1.6721  1.7141  0.3050
 2655SOL    HW219602   2.347   0.285   1.221  0.1016 -2.3029 -1.0770
 2656SOL     OW19603   2.735   1.245   8.101  0.4178 -0.5232  0.1123
 2656SOL    HW119604   2.702   1.282   8.019  0.3469 -2.3478 -0.6947
 2656SOL    HW219605   2.736   1.323   8.155 -0.4399  0.1169 -0.8020
 2657SOL     OW19606   3.475   3.763  11.690 -0.3891 -0.1235  0.2567
 2657SOL    HW119607   3.414   3.826  11.729 -0.4068 -0.5575  0.9323
 2657SOL    HW219608   3.551   3.820  11.680 -1.5284  1.2175 -0.8257
 2658SOL     OW19609   2.675   1.722   1.900 -0.0348 -0.2139 -0.1131
 2658SOL    HW119610   2.659   1.815   1.913 -0.4924 -0.4460  1.0062
 2658SOL    HW219611   2.589   1.691   1.928 -0.8416  2.6628  0.5666
 2659SOL     OW19612   0.318   2.724   1.745  0.0781 -0.0924  0.2680
 2659SOL    HW119613   0.349   2.659   1.808  0.1972  0.1498  0.4600
 2659SOL    HW219614   0.379   2.713   1.672 -0.8059 -2.6480 -0.0944
 2660SOL     OW19615   0.558   0.774   8.685 -0.6314 -0.1865 -0.4054
 2660SOL    HW119616   0.586   0.861   8.657  2.6284 -1.6089 -1.5399
 2660SOL    HW219617   0.468   0.771   8.652 -1.3896  1.1321  1.5417
 2661SOL     OW19618   0.919   4.645   4.867 -0.3101 -0.0862  0.1284
 2661SOL    HW119619   0.918   4.735   4.833  1.3060 -0.7177 -1.5476
 2661SOL    HW219620   0.826   4.619   4.868  0.4191 -2.6661  0.3801
 2662SOL     OW19621   2.429   2.215   3.187  0.4673  0.1718  0.3438
 2662SOL    HW119622   2.493   2.244   3.123  0.8201 -3.0779 -0.7731
 2662SOL    HW219623   2.371   2.167   3.128  1.0321  1.6161 -1.3828
 2663SOL     OW19624   1.752   4.100   2.168 -0.2136 -0.2583 -0.2534
 2663SOL    HW119625   1.752   4.118   2.262 -1.8712 -0.2454 -0.2693
 2663SOL    HW219626   1.682   4.150   2.127  0.1851  0.1192 -0.4771
 2664SOL     OW19627   0.849   0.610   7.043 -0.0568  0.1780 -0.4612
 2664SOL    HW119628   0.769   0.558   7.054 -0.5513  0.7216 -1.4422
 2664SOL    HW219629   0.877   0.579   6.957  1.2806  1.4713 -0.4875
 2665SOL     OW19630   0.366   2.025   3.987 -0.1410  0.0965 -0.5338
 2665SOL    HW119631   0.334   2.083   4.057 -0.4994  0.2986 -0.8670
 2665SOL    HW219632   0.385   1.947   4.039  1.7832  0.8898 -0.0496
 2666SOL     OW19633   2.612   0.589   1.905  0.4666  0.2939  0.1545
 2666SOL    HW119634   2.558   0.662   1.874 -1.7824 -1.1318  0.7156
 2666SOL    HW219635   2.567   0.581   1.989 -0.7449  1.2948 -0.3940
 2667SOL     OW19636   0.156   4.326   4.890 -0.1422  0.3823 -0.0914
 2667SOL    HW119637   0.070   4.300   4.924 -0.5264 -1.6311 -2.6234
 2667SOL    HW219638   0.209   4.264   4.941  1.7019  0.9998 -1.2842
 2668SOL     OW19639   2.379   1.118   8.063  0.2945 -0.2968 -0.2797
 2668SOL    HW119640   2.441   1.140   7.994  0.1001 -0.0644 -0.3794
 2668SOL    HW219641   2.312   1.186   8.057  0.4550 -0.0577  0.6134
 2669SOL     OW19642   4.037   2.962   4.291  0.2083  0.1718  0.2334
 2669SOL    HW119643   4.032   2.936   4.383 -0.4048 -2.9589 -0.7050
 2669SOL    HW219644   4.023   3.056   4.304 -2.8389  0.0154 -1.9461
 2670SOL     OW19645   1.970   1.313  13.374  0.3563  0.2747 -0.0192
 2670SOL    HW119646   2.043   1.271  13.330  0.5048  1.3274 -0.7618
 2670SOL    HW219647   2.017   1.378  13.426 -0.6772  1.7779 -0.9489
 2671SOL     OW19648   1.557   1.914   8.373 -0.5690 -0.2299  0.1959
 2671SOL    HW119649   1.545   2.004   8.342  0.9529  0.3963  1.4351
 2671SOL    HW219650   1.647   1.900   8.402  0.5000  0.4428 -2.7477
 2672SOL     OW19651   4.198   1.079   5.458  0.1107  0.0619  0.8956
 2672SOL    HW119652   4.172   1.170   5.468  1.8873  0.3930  2.3905
 2672SOL    HW219653   4.289   1.080   5.487  0.6523 -0.4998 -0.7777
 2673SOL     OW19654   2.923   0.836   8.732 -0.4630 -0.1274  0.4988
 2673SOL    HW119655   2.880   0.842   8.817  0.6343  0.0650  1.0465
 2673SOL    HW219656   2.863   0.777   8.688 -0.3757  0.0475  0.1496
 2674SOL     OW19657   2.653   2.367  10.769  0.1690 -0.2051 -0.5552
 2674SOL    HW119658   2.653   2.430  10.697 -0.7015  0.8256  0.3452
 2674SOL    HW219659   2.743   2.361  10.801  0.1934  1.8236 -0.2664
 2675SOL     OW19660   1.301   0.276   4.589  0.0334  0.1659  0.7964
 2675SOL    HW119661   1.351   0.198   4.613 -0.6224 -1.0168 -1.6379
 2675SOL    HW219662   1.239   0.281   4.662 -2.9552 -2.8987 -1.5090
 2676SOL     OW19663   0.469   3.122   1.612  0.0218  1.0640 -0.1967
 2676SOL    HW119664   0.563   3.109   1.624 -0.0679  1.2620  0.7533
 2676SOL    HW219665   0.456   3.171   1.694 -1.1411  0.9301 -0.2965
 2677SOL     OW19666   3.254   1.044   1.204 -0.0079 -0.1900 -0.0626
 2677SOL    HW119667   3.319   1.037   1.134 -0.8406 -1.1413 -0.7278
 2677SOL    HW219668   3.299   0.999   1.275 -1.1646 -1.1222  0.0909
 2678SOL     OW19669   0.300   1.682   4.719 -0.0166 -0.1904  0.1871
 2678SOL    HW119670   0.258   1.651   4.639 -1.4351 -1.4522  1.4269
 2678SOL    HW219671   0.380   1.720   4.683 -0.1734 -1.4635 -1.5124
 2679SOL     OW19672   2.712   3.122   2.182  0.1361  0.4439 -0.2134
 2679SOL    HW119673   2.740   3.207   2.149 -0.5212  0.7095 -0.0861
 2679SOL    HW219674   2.789   3.090   2.230 -0.2857 -0.2206  0.0204
 2680SOL     OW19675   4.372   1.455  14.470  0.3016 -0.1844 -0.8199
 2680SOL    HW119676   4.331   1.428  14.552  0.1803  2.0649 -0.1197
 2680SOL    HW219677   4.377   1.549  14.488 -0.6848 -0.0857 -1.0466
 2681SOL     OW19678   3.971   4.355  12.195 -0.6150  0.3558 -0.0957
 2681SOL    HW119679   3.895   4.298  12.184 -0.8761  0.7328 -0.2677
 2681SOL    HW219680   3.954   4.391  12.282 -1.4599 -1.1634  0.3536
 2682SOL     OW19681   1.120   0.459   7.112 -0.8095  0.8328  0.5637
 2682SOL    HW119682   1.208   0.448   7.075 -2.4587 -1.0417 -2.7704
 2682SOL    HW219683   1.121   0.392   7.180 -0.6208  1.3766  1.1017
 2683SOL     OW19684   2.163   3.856   7.376 -0.2529  0.0245 -0.0120
 2683SOL    HW119685   2.129   3.771   7.348 -0.3184  0.1638 -0.3468
 2683SOL    HW219686   2.094   3.903   7.423  1.5922  3.3748 -0.6980
 2684SOL     OW19687   4.647   3.313  12.308  0.1283  0.2859 -0.4127
 2684SOL    HW119688   4.553   3.306  12.287  0.2407 -0.3242 -0.7439
 2684SOL    HW219689   4.669   3.246  12.373  0.9361  0.9832  0.0252
 2685SOL     OW19690   4.101   4.609  16.144  0.5027  0.0282  0.2709
 2685SOL    HW119691   4.174   4.659  16.107  0.9887 -0.1142  1.0451
 2685SOL    HW219692   4.150   4.560  16.210  0.8792  1.3777  0.9878
 2686SOL     OW19693   2.761   4.610   9.281  0.1488 -0.2581  0.0486
 2686SOL    HW119694   2.778   4.690   9.231  0.0015  0.1111  0.5902
 2686SOL    HW219695   2.744   4.650   9.366  1.4967  1.5557 -0.5273
 2687SOL     OW19696   0.274   2.081   1.834 -0.1605  0.1890 -0.6521
 2687SOL    HW119697   0.216   2.116   1.766  2.3934  0.3699 -2.7428
 2687SOL    HW219698   0.320   2.018   1.778 -3.8512 -0.5159 -2.8649
 2688SOL     OW19699   4.207   1.320   2.445 -0.1475 -0.3572  0.1665
 2688SOL    HW119700   4.262   1.375   2.500  0.8017 -1.7483  0.6232
 2688SOL    HW219701   4.267   1.298   2.373 -1.1965 -0.8202 -0.5677
 2689SOL     OW19702   0.485   3.015   2.311 -0.0784 -0.0115 -0.2932
 2689SOL    HW119703   0.434   3.069   2.372 -0.0622 -0.4180  0.0876
 2689SOL    HW219704   0.462   2.923   2.322  0.0950  0.0817  0.8897
 2690SOL     OW19705   0.463   1.537   7.827  0.1458 -0.0900 -0.5616
 2690SOL    HW119706   0.448   1.600   7.756  1.0239  0.3020 -0.3994
 2690SOL    HW219707   0.557   1.520   7.837  0.1700  0.9295  0.9793
 2691SOL     OW19708   1.883   0.459   6.892  0.0834  0.2329 -0.1370
 2691SOL    HW119709   1.797   0.497   6.876  0.2519  0.5346 -0.3079
 2691SOL    HW219710   1.934   0.501   6.822 -1.5905  0.5522 -1.1499
 2692SOL     OW19711   0.161   4.083  14.517  0.2112 -0.3408  0.2927
 2692SOL    HW119712   0.224   4.118  14.454  1.0849 -1.2315  0.6754
 2692SOL    HW219713   0.129   4.157  14.567  1.2851 -0.7947  1.6360
 2693SOL     OW19714   2.623   4.552   8.909 -0.1489  0.2650 -0.3122
 2693SOL    HW119715   2.718   4.555   8.923 -0.1185 -0.5988 -0.3353
 2693SOL    HW219716   2.592   4.525   8.995  1.2179 -1.2584 -0.2977
 2694SOL     OW19717   2.648   1.061   2.664 -0.0315 -0.2310 -0.7452
 2694SOL    HW119718   2.662   1.143   2.711 -1.2300 -0.6631  0.3607
 2694SOL    HW219719   2.593   1.020   2.730 -0.9380  1.3490 -0.5246
 2695SOL     OW19720   4.344   2.581   3.834  0.2412 -0.8301  0.4079
 2695SOL    HW119721   4.396   2.541   3.763  0.7439  2.6750 -1.1779
 2695SOL    HW219722   4.407   2.593   3.905  0.2339  1.5846  0.0062
 2696SOL     OW19723   2.211   2.117   4.565  0.4154  0.0720  0.3435
 2696SOL    HW119724   2.230   2.113   4.658 -0.6370  0.4114  0.5782
 2696SOL    HW219725   2.122   2.153   4.563  0.7064  0.7939  0.3397
 2697SOL     OW19726   3.931   0.097  15.709 -0.0236  0.7183 -0.1270
 2697SOL    HW119727   3.899   0.172  15.659 -1.3807 -0.7287 -1.4381
 2697SOL    HW219728   3.925   0.114  15.803  1.3871 -1.8326  0.4319
 2698SOL     OW19729   2.656   0.491   5.644 -0.3404  0.5282 -0.7252
 2698SOL    HW119730   2.568   0.455   5.641  0.2335 -1.2756  2.8709
 2698SOL    HW219731   2.710   0.441   5.583  0.0065  0.8099 -0.6495
 2699SOL     OW19732   2.128   1.533   5.209  0.3221  0.1017  0.4583
 2699SOL    HW119733   2.149   1.572   5.294  4.2324  1.3945 -1.0661
 2699SOL    HW219734   2.035   1.523   5.225  0.0100 -0.3300 -1.5666
 2700SOL     OW19735   4.028   3.052   8.699 -0.0417  0.2001 -0.3814
 2700SOL    HW119736   4.075   3.030   8.779  0.9007  2.1130 -0.4189
 2700SOL    HW219737   3.938   3.062   8.731  0.0111 -0.2600 -0.1010
 2701SOL     OW19738   3.376   2.734   2.000  0.2249  0.1529  0.8044
 2701SOL    HW119739   3.426   2.743   2.080  1.0307  0.5431  0.2503
 2701SOL    HW219740   3.447   2.747   1.938 -0.9385  2.8324  0.0321
 2702SOL     OW19741   3.687   3.695   7.140  0.3483  0.0478  0.0754
 2702SOL    HW119742   3.631   3.663   7.070  0.2604  0.6271 -0.1179
 2702SOL    HW219743   3.624   3.675   7.210  0.1363  0.9076  0.1420
 2703SOL     OW19744   1.165   3.670  16.900  0.0275  0.5665  0.6657
 2703SOL    HW119745   1.255   3.700  16.916 -0.0616  0.8265  0.6807
 2703SOL    HW219746   1.187   3.656  16.807 -0.3616  1.0040  0.5070
 2704SOL     OW19747   0.395   4.473   6.086  0.7679 -0.1947 -0.3012
 2704SOL    HW119748   0.484   4.443   6.065  1.4356  1.7234 -0.2346
 2704SOL    HW219749   0.353   4.387   6.089 -0.9713  0.6561 -0.2514
 2705SOL     OW19750   4.254   1.764   6.549  0.4488  0.4628 -0.2008
 2705SOL    HW119751   4.181   1.737   6.492 -0.1988  1.1090  0.3241
 2705SOL    HW219752   4.313   1.689   6.550  0.3039  0.2955 -2.5216
 2706SOL     OW19753   1.963   4.293  11.736  0.1751 -0.0425 -0.6243
 2706SOL    HW119754   2.010   4.362  11.782 -0.6000 -1.3027  2.0367
 2706SOL    HW219755   2.004   4.307  11.650  1.8092  0.4965  0.2437
 2707SOL     OW19756   2.631   3.413   2.354 -0.1772 -0.1725 -0.1572
 2707SOL    HW119757   2.603   3.329   2.391  1.4712 -1.2482 -1.3712
 2707SOL    HW219758   2.684   3.388   2.279  0.0022  0.1296 -0.1334
 2708SOL     OW19759   2.843   2.619   9.192 -0.1107 -0.2127  0.1277
 2708SOL    HW119760   2.893   2.539   9.174  2.1818  1.1098  0.6594
 2708SOL    HW219761   2.757   2.576   9.202  0.3838 -0.7495  2.2341
 2709SOL     OW19762   2.320   3.990   9.215 -0.0671 -0.0367  0.2575
 2709SOL    HW119763   2.334   3.898   9.238 -0.1977  0.0595  0.7190
 2709SOL    HW219764   2.305   4.034   9.299  2.3347 -0.8746  1.1093
 2710SOL     OW19765   3.476   0.955  14.367 -0.1936  0.3873 -0.1970
 2710SOL    HW119766   3.382   0.940  14.366  0.1017 -1.5267  1.2425
 2710SOL    HW219767   3.487   1.046  14.394 -1.4412 -0.0880  1.8510
 2711SOL     OW19768   2.569   4.430   1.719  0.4111  0.3843 -0.2333
 2711SOL    HW119769   2.614   4.345   1.711  0.5306  0.3338  1.1068
 2711SOL    HW219770   2.536   4.450   1.631 -0.5406  0.4199  0.1305
 2712SOL     OW19771   3.696   0.999   4.112  0.3386 -0.0811 -0.2691
 2712SOL    HW119772   3.729   0.951   4.036  0.2071 -0.9903  0.2480
 2712SOL    HW219773   3.722   1.090   4.098  0.0431  0.0702  0.1666
 2713SOL     OW19774   0.704   2.006  15.718 -0.4988 -0.0855 -0.0621
 2713SOL    HW119775   0.659   1.963  15.645 -0.7147 -0.2461  0.1659
 2713SOL    HW219776   0.632   2.052  15.761 -0.2186  1.2405 -1.0252
 2714SOL     OW19777   4.406   4.526   6.577  0.2736 -0.2968  0.1311
 2714SOL    HW119778   4.330   4.468   6.565 -0.2236 -0.4228  4.0698
 2714SOL    HW219779   4.400   4.556   6.667 -0.9353 -1.1705  0.3444
 2715SOL     OW19780   0.951   0.693   5.347  0.1268  0.2264  0.5133
 2715SOL    HW119781   0.970   0.785   5.365 -2.6906  1.0705 -0.8365
 2715SOL    HW219782   1.023   0.645   5.387 -1.3140 -1.8777  0.5417
 2716SOL     OW19783   0.304   3.461   3.175  0.4818  0.0640  0.1656
 2716SOL    HW119784   0.236   3.528   3.181 -0.1090 -0.7729  2.8991
 2716SOL    HW219785   0.353   3.482   3.096 -1.9804 -0.0562 -1.3953
 2717SOL     OW19786   0.848   4.610   6.365 -0.5200 -0.3774 -0.2962
 2717SOL    HW119787   0.808   4.687   6.326 -1.3945  0.6724  2.6299
 2717SOL    HW219788   0.819   4.534   6.316 -1.8916  0.1833 -0.3520
 2718SOL     OW19789   3.620   1.678  16.225 -0.1267 -0.2168  0.6194
 2718SOL    HW119790   3.641   1.749  16.165  0.5829 -1.3117 -0.4033
 2718SOL    HW219791   3.671   1.608  16.186  0.8532  1.5172 -1.2202
 2719SOL     OW19792   0.338   2.557   2.903  0.1725  0.5809 -0.5366
 2719SOL    HW119793   0.413   2.593   2.951  1.2027 -3.1452  0.6369
 2719SOL    HW219794   0.373   2.542   2.816 -1.3222 -0.2204 -0.9959
 2720SOL     OW19795   4.520   4.344   7.485  0.2820  0.5414 -0.4632
 2720SOL    HW119796   4.519   4.322   7.578  1.8618 -0.8972 -0.7987
 2720SOL    HW219797   4.592   4.290   7.452 -0.5818 -0.2681 -1.0128
 2721SOL     OW19798   3.497   4.725  12.098  0.0637 -0.5706 -0.5759
 2721SOL    HW119799   3.546   0.070  12.108 -0.0538 -0.1496 -3.3812
 2721SOL    HW219800   3.410   0.028  12.090 -0.2929 -1.1300  0.5441
 2722SOL     OW19801   1.397   0.005   4.634 -0.1121 -0.5841 -0.6597
 2722SOL    HW119802   1.488   4.731   4.660 -0.4689 -0.9901  0.4039
 2722SOL    HW219803   1.405   0.002   4.538  0.1593 -1.6469 -0.6057
 2723SOL     OW19804   4.685   4.039  12.262  0.3832  0.2983 -0.2951
 2723SOL    HW119805   4.658   3.969  12.322  3.0687  1.4131  2.1818
 2723SOL    HW219806   4.612   4.100  12.255  1.0253  0.9827 -0.9546
 2724SOL     OW19807   2.275   1.751   9.484 -0.1364 -0.6602  0.1426
 2724SOL    HW119808   2.191   1.797   9.474 -0.4590 -1.3328 -0.2431
 2724SOL    HW219809   2.343   1.808   9.448 -0.3206 -1.1537 -1.0040
 2725SOL     OW19810   4.530   1.060   5.754  0.0862 -0.0342 -0.5658
 2725SOL    HW119811   4.531   1.094   5.665 -1.9987  2.3514  0.3470
 2725SOL    HW219812   4.471   0.986   5.738 -0.6099 -0.0052  1.8739
 2726SOL     OW19813   2.222   3.672  16.181 -0.1739  0.2288 -0.1978
 2726SOL    HW119814   2.305   3.672  16.133  0.3492 -3.4826  0.6647
 2726SOL    HW219815   2.193   3.585  16.154 -1.2871  0.2378  0.9454
 2727SOL     OW19816   4.014   1.241   3.466  0.2193 -0.8347 -0.2282
 2727SOL    HW119817   4.023   1.315   3.525 -2.3801 -0.7115  0.0396
 2727SOL    HW219818   4.029   1.285   3.382 -2.0475  0.0945 -0.1646
 2728SOL     OW19819   4.317   3.284   6.181 -0.6540  0.2003 -0.3289
 2728SOL    HW119820   4.318   3.327   6.095 -0.9756 -0.9194 -0.9004
 2728SOL    HW219821   4.323   3.355   6.244  0.7551 -0.2712  0.0730
 2729SOL     OW19822   0.049   4.041   8.940  0.0749  0.4525  0.3730
 2729SOL    HW119823   0.061   4.115   9.000 -1.1346  0.3372  0.7510
 2729SOL    HW219824   4.693   4.029   8.920 -0.1526  1.9090  0.5409
 2730SOL     OW19825   0.562   2.560  10.169 -0.0685 -0.0252 -0.2312
 2730SOL    HW119826   0.644   2.590  10.130 -0.7979  0.3740 -1.4634
 2730SOL    HW219827   0.595   2.542  10.257  0.8992 -0.7902 -0.7529
 2731SOL     OW19828   0.694   2.652  17.530  0.2227  0.3742  0.4604
 2731SOL    HW119829   0.634   2.599  17.477  0.0391  0.0583  0.9881
 2731SOL    HW219830   0.719   2.728  17.476 -1.7826  0.7470  0.0331
 2732SOL     OW19831   4.461   0.115   6.436 -0.5196  0.2214  0.1418
 2732SOL    HW119832   4.402   0.046   6.468 -0.1530  0.3923  1.1608
 2732SOL    HW219833   4.550   0.083   6.450 -0.5763  0.4767  1.0865
 2733SOL     OW19834   4.720   2.881   7.383 -0.0025 -0.4601 -0.6727
 2733SOL    HW119835   0.016   2.792   7.377  0.2288 -0.4585  0.7740
 2733SOL    HW219836   0.018   2.932   7.309 -0.6427  0.2924 -0.4566
 2734SOL     OW19837   0.040   4.562   1.150  0.1811 -0.0018  0.7170
 2734SOL    HW119838   4.728   4.591   1.072  0.7182 -1.1518 -0.0408
 2734SOL    HW219839   0.044   4.639   1.207  0.7269 -0.4886  1.3342
 2735SOL     OW19840   0.393   4.551  16.694  0.1775  0.3683  0.0274
 2735SOL    HW119841   0.485   4.541  16.669  0.8117  1.4880  1.8922
 2735SOL    HW219842   0.402   4.641  16.725 -0.5699  0.9872 -1.5383
 2736SOL     OW19843   0.848   2.510  15.995 -0.2791 -0.1615 -0.0841
 2736SOL    HW119844   0.936   2.537  16.021 -0.4944 -0.4117  0.8867
 2736SOL    HW219845   0.865   2.479  15.906  1.8687  1.0637 -0.1088
 2737SOL     OW19846   0.259   2.672   5.725  0.2403 -0.3091  0.0068
 2737SOL    HW119847   0.318   2.663   5.800 -0.5105  0.8435  0.7404
 2737SOL    HW219848   0.194   2.602   5.733  0.1597  0.0387  2.4772
 2738SOL     OW19849   4.457   3.419   1.482 -0.0237  0.2218  0.1388
 2738SOL    HW119850   4.527   3.414   1.547  0.7552  1.7982 -0.5900
 2738SOL    HW219851   4.431   3.510   1.492  1.2617  0.5101  0.8567
 2739SOL     OW19852   1.325   2.968   3.806 -0.8695  0.0144 -0.4681
 2739SOL    HW119853   1.318   2.960   3.711  1.5576  1.9236 -0.8175
 2739SOL    HW219854   1.251   3.020   3.836 -1.4390 -1.2269  0.2951
 2740SOL     OW19855   3.404   3.195  13.874  0.5565 -0.8299  0.9312
 2740SOL    HW119856   3.376   3.137  13.804 -2.7180  0.5991  1.0697
 2740SOL    HW219857   3.374   3.143  13.949 -1.7493 -1.4797 -0.4651
 2741SOL     OW19858   0.380   1.370   2.413  0.5523 -0.2113 -0.3114
 2741SOL    HW119859   0.290   1.369   2.381 -0.3150  0.0359  2.0955
 2741SOL    HW219860   0.412   1.456   2.383  2.7496 -1.3382 -1.2066
 2742SOL     OW19861   0.872   0.375   6.066  0.1716  0.0723 -0.3887
 2742SOL    HW119862   0.878   0.281   6.083  0.2471  0.1119 -0.1892
 2742SOL    HW219863   0.893   0.378   5.973  1.3763  1.6398 -0.0693
 2743SOL     OW19864   2.744   4.453   1.352 -0.5280  0.0182 -0.1892
 2743SOL    HW119865   2.794   4.504   1.416 -0.5468 -0.4359  0.1924
 2743SOL    HW219866   2.753   4.506   1.273 -2.4466  1.8347  0.8318
 2744SOL     OW19867   2.004   1.126   3.865 -0.1913 -0.3855  0.1514
 2744SOL    HW119868   2.024   1.068   3.791 -1.3185  0.6237 -0.9423
 2744SOL    HW219869   2.003   1.203   3.807 -1.9494  1.9210  3.2743
 2745SOL     OW19870   4.272   4.461   3.675  0.0888 -0.4336  0.3867
 2745SOL    HW119871   4.300   4.370   3.682  0.9394 -0.1675  0.4480
 2745SOL    HW219872   4.245   4.472   3.584  0.1382 -0.8831  0.3185
 2746SOL     OW19873   3.151   0.693   6.305 -0.2403  0.0717 -0.0646
 2746SOL    HW119874   3.179   0.665   6.392 -0.9371 -2.8585 -0.7770
 2746SOL    HW219875   3.214   0.762   6.283  0.5778 -1.6909 -3.2078
 2747SOL     OW19876   2.307   1.270   3.350  0.4260 -0.3350  0.2661
 2747SOL    HW119877   2.393   1.238   3.376  0.5841 -1.2051 -1.3620
 2747SOL    HW219878   2.292   1.232   3.264  2.0599 -0.5681  0.0874
 2748SOL     OW19879   4.282   1.641  13.996 -0.0112 -0.2413  0.2847
 2748SOL    HW119880   4.238   1.726  13.989  0.0774 -0.2831 -0.8337
 2748SOL    HW219881   4.254   1.610  14.082  1.5037 -0.0641  0.8498
 2749SOL     OW19882   0.231   4.522   5.066  0.1379 -0.0376  0.5458
 2749SOL    HW119883   0.179   4.487   5.139 -1.1089 -0.9402 -0.7551
 2749SOL    HW219884   0.220   4.446   5.008 -0.2910  0.7934 -0.4652
 2750SOL     OW19885   4.676   1.702   3.606  0.2264 -1.0411  0.2803
 2750SOL    HW119886   4.622   1.667   3.677 -1.3167 -0.3122 -0.5522
 2750SOL    HW219887   4.657   1.632   3.545 -0.7351  0.9832 -1.7372
 2751SOL     OW19888   2.446   3.076   3.609  0.1469  0.4619 -0.2817
 2751SOL    HW119889   2.530   3.117   3.588  0.6876  0.2958  1.5835
 2751SOL    HW219890   2.395   3.145   3.651 -0.2052 -0.2659  0.4818
 2752SOL     OW19891   4.175   4.370  17.253  0.3527  0.2961  0.7583
 2752SOL    HW119892   4.238   4.435  17.222 -0.1471 -0.6867 -2.3767
 2752SOL    HW219893   4.237   4.308  17.290  0.5730 -0.2462 -0.5233
 2753SOL     OW19894   1.049   1.484   9.299 -0.5228  0.0738 -0.2408
 2753SOL    HW119895   0.991   1.450   9.231  0.9073 -1.1822 -0.8598
 2753SOL    HW219896   1.019   1.448   9.382  1.7527 -0.0050  0.5630
 2754SOL     OW19897   1.499   3.861   4.721 -0.5919 -0.4696 -0.0125
 2754SOL    HW119898   1.460   3.811   4.793  3.0284 -0.3164  2.0388
 2754SOL    HW219899   1.445   3.836   4.646 -0.1739  0.6687 -0.6961
 2755SOL     OW19900   1.000   3.811   8.048 -0.4691  0.3982  0.4077
 2755SOL    HW119901   1.003   3.906   8.041  0.3657  0.5116  2.2151
 2755SOL    HW219902   1.077   3.790   7.996 -0.9249  0.5771 -0.3261
 2756SOL     OW19903   0.022   2.004  17.494  0.1611 -0.6406 -0.3206
 2756SOL    HW119904   4.686   2.022  17.435 -1.4227 -4.9976  0.2808
 2756SOL    HW219905   0.077   1.966  17.425 -0.4426  0.8047 -1.5812
 2757SOL     OW19906   4.044   1.731   2.878 -0.1906 -0.8434  0.3639
 2757SOL    HW119907   4.027   1.747   2.971 -0.0987  0.9857  0.0693
 2757SOL    HW219908   3.966   1.759   2.829  0.8528 -0.5079 -1.1122
 2758SOL     OW19909   1.829   1.925   1.558  0.3891 -0.0973  0.4426
 2758SOL    HW119910   1.904   1.866   1.546 -0.1950 -0.8224  0.3312
 2758SOL    HW219911   1.822   1.912   1.653 -1.7574 -2.1433  0.0105
 2759SOL     OW19912   4.529   2.850   5.729  0.7449  0.1174 -0.4076
 2759SOL    HW119913   4.535   2.762   5.691  0.5912 -0.7701  1.6601
 2759SOL    HW219914   4.441   2.874   5.701 -0.0723 -0.9014  1.2915
 2760SOL     OW19915   4.092   4.055   8.963 -0.4554 -0.3173  0.7403
 2760SOL    HW119916   4.170   4.110   8.964  0.7347 -2.0246  2.0544
 2760SOL    HW219917   4.117   3.984   9.023 -0.4889  1.1372  2.4787
 2761SOL     OW19918   1.540   3.389  16.670  0.3828  0.0542 -0.0763
 2761SOL    HW119919   1.547   3.352  16.582 -0.1574 -3.1909  1.2500
 2761SOL    HW219920   1.571   3.477  16.649  1.3546 -0.0586  0.8783
 2762SOL     OW19921   2.598   2.013   9.783  0.3390  0.1964  0.0155
 2762SOL    HW119922   2.684   1.970   9.784  0.8654  1.2516 -0.8737
 2762SOL    HW219923   2.558   1.964   9.856  1.6420 -1.3215 -0.2981
 2763SOL     OW19924   2.648   4.084  14.723 -0.8471 -0.0146 -0.1940
 2763SOL    HW119925   2.624   4.083  14.630 -0.4418 -1.5028 -0.2892
 2763SOL    HW219926   2.566   4.055  14.762  0.7559 -1.1346  2.3415
 2764SOL     OW19927   2.277   0.280   6.521  0.1927  0.3126  0.2627
 2764SOL    HW119928   2.223   0.213   6.478 -0.5825 -1.1647  3.5226
 2764SOL    HW219929   2.322   0.235   6.593 -1.0232 -2.0460 -0.4391
 2765SOL     OW19930   3.141   1.805   1.662 -0.1371  0.0479  0.2705
 2765SOL    HW119931   3.208   1.838   1.722  0.4954 -0.1220 -0.3286
 2765SOL    HW219932   3.068   1.852   1.700 -0.8463  0.8747 -2.0950
 2766SOL     OW19933   0.946   2.569  17.596 -0.0360 -0.0660 -0.0694
 2766SOL    HW119934   0.939   2.522  17.679 -3.4765  1.5473  0.5527
 2766SOL    HW219935   0.856   2.579  17.565 -0.3423 -1.8487  0.2612
 2767SOL     OW19936   4.175   2.522  17.348  0.0039  0.1323  0.0952
 2767SOL    HW119937   4.139   2.530  17.260  1.9276  0.2934 -0.6792
 2767SOL    HW219938   4.162   2.429  17.362 -0.7378  0.4919  1.7982
 2768SOL     OW19939   2.150   4.676  11.199  0.5638 -0.3812  0.0073
 2768SOL    HW119940   2.090   4.683  11.124  1.1527  0.9139 -0.3469
 2768SOL    HW219941   2.114   4.733  11.268 -0.1818  1.9591 -2.3150
 2769SOL     OW19942   3.875   3.843   4.998 -0.2318 -0.0632  0.4332
 2769SOL    HW119943   3.905   3.856   5.088 -1.2623 -1.5400  0.9963
 2769SOL    HW219944   3.780   3.858   5.005  0.0050  0.9212  1.5984
 2770SOL     OW19945   3.893   0.966   3.238 -0.5056  0.1138  0.1345
 2770SOL    HW119946   3.824   0.964   3.305  1.3195 -2.5340  1.9220
 2770SOL    HW219947   3.961   0.914   3.280 -0.8484 -0.8573 -0.5370
 2771SOL     OW19948   1.858   2.415   4.102  1.0328 -0.2771  0.3388
 2771SOL    HW119949   1.880   2.429   4.010 -1.6600  0.6288 -0.1776
 2771SOL    HW219950   1.823   2.326   4.098  2.7382 -0.9004 -0.4049
 2772SOL     OW19951   0.295   0.743   7.281  0.3812 -0.1790 -0.3407
 2772SOL    HW119952   0.368   0.765   7.224 -0.7362 -0.2203 -1.7710
 2772SOL    HW219953   0.323   0.676   7.344  0.0755 -1.5946 -1.7197
 2773SOL     OW19954   3.947   1.935   5.578  1.2071  0.0011  0.1735
 2773SOL    HW119955   4.026   1.982   5.551  0.5088 -0.0176 -1.8490
 2773SOL    HW219956   3.871   1.991   5.567  0.4481 -0.8932  0.8668
 2774SOL     OW19957   4.441   1.447   0.099  0.2746 -0.7858  0.0555
 2774SOL    HW119958   4.419   1.428   0.191 -1.3788 -0.0318 -0.1711
 2774SOL    HW219959   4.502   1.384   0.061  0.7068  1.1741 -2.4747
 2775SOL     OW19960   3.608   4.566   3.786 -0.1688 -0.3737  0.2233
 2775SOL    HW119961   3.636   4.596   3.700 -0.5360  0.4235  0.3782
 2775SOL    HW219962   3.582   4.479   3.755 -0.1114 -0.7441  1.2064
 2776SOL     OW19963   1.238   2.361   8.020 -0.3526 -0.0569 -0.1260
 2776SOL    HW119964   1.257   2.443   8.064 -0.5610  0.3335 -0.7578
 2776SOL    HW219965   1.327   2.327   8.017  0.3042  1.5797  1.3570
 2777SOL     OW19966   0.292   4.387   2.665 -0.0545  0.0969 -0.1276
 2777SOL    HW119967   0.363   4.324   2.674  0.3035  0.3185 -1.3291
 2777SOL    HW219968   0.298   4.441   2.744  0.3013 -1.6787  1.0495
 2778SOL     OW19969   0.966   2.863   8.602 -0.4537  0.1645 -0.1888
 2778SOL    HW119970   0.962   2.911   8.684 -2.2007  1.0258 -0.7788
 2778SOL    HW219971   0.990   2.772   8.622 -3.3640 -0.3373  0.9362
 2779SOL     OW19972   1.946   2.834  13.402  1.2063 -0.0772  0.3230
 2779SOL    HW119973   1.917   2.902  13.463 -3.0420 -3.3083  1.9486
 2779SOL    HW219974   2.038   2.846  13.426  1.2227 -1.5262  0.9554
 2780SOL     OW19975   3.620   1.122   6.922 -0.1731  0.2680 -0.0597
 2780SOL    HW119976   3.601   1.032   6.896  2.1232 -0.4352  0.6906
 2780SOL    HW219977   3.568   1.132   7.001 -0.5830  1.1616 -0.4372
 2781SOL     OW19978   2.236   3.474   5.861  0.1118  0.6927  0.8963
 2781SOL    HW119979   2.169   3.445   5.924 -0.9761 -0.8766 -0.9774
 2781SOL    HW219980   2.296   3.498   5.932  1.8034 -1.3848  0.1683
 2782SOL     OW19981   2.051   1.783   6.977  0.4573 -0.5140 -0.0674
 2782SOL    HW119982   2.020   1.742   6.896  1.2555 -1.2920  0.0216
 2782SOL    HW219983   1.968   1.785   7.025  1.3532  2.1450  1.3751
 2783SOL     OW19984   2.523   1.914   3.970  0.2470  0.3691 -0.3225
 2783SOL    HW119985   2.465   1.988   3.989  1.3570  1.3531 -0.7625
 2783SOL    HW219986   2.475   1.867   3.902 -1.2084 -0.8238  1.5374
 2784SOL     OW19987   1.709   2.101  12.997 -0.4125 -0.1283  0.0169
 2784SOL    HW119988   1.663   2.145  12.926  1.0369 -0.0941 -0.8952
 2784SOL    HW219989   1.798   2.109  12.963 -1.0656 -1.6696 -2.0685
 2785SOL     OW19990   2.326   3.727   1.535  0.6167  0.2348  0.3438
 2785SOL    HW119991   2.265   3.673   1.585  2.3748 -0.5498  1.6264
 2785SOL    HW219992   2.410   3.712   1.579  0.4936 -1.3763  0.0290
 2786SOL     OW19993   1.228   1.286   7.845 -0.2901 -0.0394 -0.3643
 2786SOL    HW119994   1.319   1.287   7.875 -1.0266 -1.4611  1.8925
 2786SOL    HW219995   1.185   1.350   7.900  0.5765 -0.8052  1.1999
 2787SOL     OW19996   2.440   2.052   6.548  0.3201 -0.7479 -0.2621
 2787SOL    HW119997   2.449   2.091   6.635  1.1897  2.6374 -1.8949
 2787SOL    HW219998   2.527   2.013   6.554  1.6922  2.1630 -1.3320
 2788SOL     OW19999   3.756   2.301  12.087 -0.1001 -1.2601  0.0087
 2788SOL    HW120000   3.741   2.386  12.129  0.2464 -1.2197  0.0469
 2788SOL    HW220001   3.767   2.251  12.169  0.2166  2.6648  2.3408
 2789SOL     OW20002   3.357   1.415   8.578  0.0316 -0.0859  0.3654
 2789SOL    HW120003   3.285   1.352   8.570  0.7330 -0.8884  0.3579
 2789SOL    HW220004   3.308   1.478   8.631 -1.2203 -0.0106 -0.8739
 2790SOL     OW20005   3.807   2.589   7.676  0.2031  0.3759  0.2519
 2790SOL    HW120006   3.752   2.521   7.717 -2.2470  2.3291  0.2197
 2790SOL    HW220007   3.746   2.627   7.612 -0.0959 -1.3214 -0.4806
 2791SOL     OW20008   4.370   4.521   4.487 -0.3571 -0.0974 -0.0849
 2791SOL    HW120009   4.367   4.475   4.402  0.6529  1.8726 -1.1704
 2791SOL    HW220010   4.307   4.474   4.543  1.0880 -0.6458  1.0811
 2792SOL     OW20011   1.567   3.489   2.108  0.5507 -0.0119  0.4238
 2792SOL    HW120012   1.554   3.584   2.107  2.0394  0.1642 -1.9045
 2792SOL    HW220013   1.626   3.475   2.182  2.9211 -0.0658 -1.4708
 2793SOL     OW20014   0.417   4.031   7.830 -0.2190 -0.2744 -0.0519
 2793SOL    HW120015   0.324   4.036   7.808 -0.1725 -2.5555 -0.8011
 2793SOL    HW220016   0.416   3.948   7.878 -0.2939 -1.8933 -2.8807
 2794SOL     OW20017   0.611   2.239  11.048  0.0665  0.0606 -0.2374
 2794SOL    HW120018   0.584   2.288  10.971  1.9385  1.7091  0.1765
 2794SOL    HW220019   0.522   2.240  11.085  0.0745  0.1327 -0.2206
 2795SOL     OW20020   3.985   4.453   6.390 -0.4867 -0.1562  0.7352
 2795SOL    HW120021   3.925   4.424   6.321  1.1942  0.5007 -0.9926
 2795SOL    HW220022   3.929   4.514   6.439  1.5466  1.4894  1.0345
 2796SOL     OW20023   2.939   0.127  10.029  0.2165 -0.5537 -0.7792
 2796SOL    HW120024   2.889   0.159   9.955  0.3049 -0.5952 -0.8580
 2796SOL    HW220025   2.891   0.047  10.051 -0.2673  0.4423  1.8223
 2797SOL     OW20026   1.562   3.310  14.398  0.4731 -0.3281  0.0182
 2797SOL    HW120027   1.618   3.318  14.321  2.7081 -0.1907  1.6665
 2797SOL    HW220028   1.479   3.291  14.354 -0.4868 -2.9378  2.9248
 2798SOL     OW20029   2.097   0.910  10.056 -0.1107  0.1403  0.3467
 2798SOL    HW120030   2.120   0.822  10.026  5.4267  1.7762 -0.1655
 2798SOL    HW220031   2.008   0.899  10.089 -0.9492  0.9762 -1.6573
 2799SOL     OW20032   4.255   0.512  15.141 -0.0658 -0.4639 -0.3494
 2799SOL    HW120033   4.262   0.418  15.160 -0.3266 -0.1770  1.1105
 2799SOL    HW220034   4.271   0.515  15.046 -0.3611  0.1447 -0.3795
 2800SOL     OW20035   0.454   0.353   7.769 -0.1617 -0.3655  0.1002
 2800SOL    HW120036   0.515   0.353   7.696 -1.3808  1.9196 -0.9405
 2800SOL    HW220037   0.366   0.334   7.737  0.9171 -1.3948 -2.1748
 2801SOL     OW20038   4.294   3.363   2.622  0.1606 -0.2433  0.4515
 2801SOL    HW120039   4.198   3.356   2.621  0.1350 -0.1234  2.0222
 2801SOL    HW220040   4.325   3.300   2.557  0.5881  1.4836 -1.0203
 2802SOL     OW20041   3.726   3.955   6.846  0.1005  0.8401 -0.0313
 2802SOL    HW120042   3.785   4.029   6.836  0.1340  0.9875  1.2128
 2802SOL    HW220043   3.691   3.963   6.758 -0.0458 -0.1158 -0.0571
 2803SOL     OW20044   4.713   0.271  16.344 -0.2669 -0.0758  0.8003
 2803SOL    HW120045   4.632   0.312  16.374 -1.1763 -0.9176 -0.5115
 2803SOL    HW220046   4.721   0.198  16.405 -1.2448 -0.4186  0.5276
 2804SOL     OW20047   3.697   1.969  10.048 -0.0435 -0.1866  0.1400
 2804SOL    HW120048   3.780   2.013  10.064  1.0568 -2.4905  0.6675
 2804SOL    HW220049   3.716   1.882  10.082  4.3672  0.5305 -0.5251
 2805SOL     OW20050   4.247   1.903   5.163 -0.2027  0.1255 -0.4145
 2805SOL    HW120051   4.269   1.871   5.076 -0.2712  0.2953 -0.4943
 2805SOL    HW220052   4.157   1.937   5.166 -0.4418 -0.4677 -0.8720
 2806SOL     OW20053   4.582   3.975   5.447 -0.5679 -0.5801  0.3748
 2806SOL    HW120054   4.525   4.047   5.418 -0.8188 -0.8284  0.2488
 2806SOL    HW220055   4.524   3.900   5.462 -0.6769 -0.2378  1.7040
 2807SOL     OW20056   1.806   1.574   3.272  0.0527 -0.1101  0.2766
 2807SOL    HW120057   1.727   1.583   3.325 -0.7430  1.1620 -1.1377
 2807SOL    HW220058   1.843   1.502   3.323 -0.5474 -0.1751  0.6188
 2808SOL     OW20059   0.007   2.809  11.757 -0.1041 -0.1187  0.6512
 2808SOL    HW120060   4.655   2.780  11.782 -0.2860 -0.6544 -0.6182
 2808SOL    HW220061   0.054   2.730  11.733  0.1214  0.3477 -0.4486
 2809SOL     OW20062   0.571   0.120   2.676  0.3941  0.2799 -0.3392
 2809SOL    HW120063   0.542   0.176   2.604 -1.9630 -0.8654 -0.3006
 2809SOL    HW220064   0.513   0.044   2.673 -3.4618  3.2553 -0.7862
 2810SOL     OW20065   1.313   1.488  16.621  0.6561  0.1540  0.0831
 2810SOL    HW120066   1.257   1.428  16.670 -1.8173  2.7302  0.4527
 2810SOL    HW220067   1.326   1.554  16.689 -1.9783 -0.5476  1.2748
 2811SOL     OW20068   2.579   2.542   4.799 -0.4489 -0.0389  0.0046
 2811SOL    HW120069   2.527   2.496   4.732  1.1662 -0.0724 -1.2176
 2811SOL    HW220070   2.666   2.505   4.788  0.6233  2.6311 -0.3746
 2812SOL     OW20071   3.989   2.218  16.050  0.1014  0.0020 -0.1451
 2812SOL    HW120072   4.004   2.198  16.142  1.1607  0.6588 -0.1763
 2812SOL    HW220073   4.002   2.132  16.011 -3.1089  0.2554 -1.8517
 2813SOL     OW20074   1.166   3.461   2.829  0.5531 -0.1204  0.4908
 2813SOL    HW120075   1.076   3.428   2.821  0.9395 -1.0283 -0.1059
 2813SOL    HW220076   1.160   3.544   2.876 -1.1978  0.3088 -0.4799
 2814SOL     OW20077   3.577   4.385   0.449 -0.1627  0.4410  0.0328
 2814SOL    HW120078   3.653   4.375   0.392  0.0961  0.6195  0.3454
 2814SOL    HW220079   3.537   4.463   0.410 -0.6842 -0.2493 -0.7892
 2815SOL     OW20080   0.318   2.893   9.831 -0.1889  0.3632 -0.1527
 2815SOL    HW120081   0.338   2.978   9.871 -1.4157 -0.2680  1.7900
 2815SOL    HW220082   0.400   2.845   9.836  0.5246  1.4714 -1.0796
 2816SOL     OW20083   0.259   3.821  11.134 -0.4506  0.1410  0.0612
 2816SOL    HW120084   0.315   3.798  11.207 -1.3511  0.7346  0.9418
 2816SOL    HW220085   0.253   3.740  11.083 -1.0697  0.9807 -1.2044
 2817SOL     OW20086   1.583   2.080   7.108  0.5063 -0.0468 -0.0713
 2817SOL    HW120087   1.538   2.077   7.024 -1.2285  0.8204  0.8246
 2817SOL    HW220088   1.649   2.146   7.086  0.9882 -0.7620 -0.7647
 2818SOL     OW20089   0.221   2.281   0.880  0.1156  0.4805  0.0566
 2818SOL    HW120090   0.140   2.283   0.829 -1.3112 -0.7938  2.2940
 2818SOL    HW220091   0.281   2.296   0.807 -0.9676 -0.5247 -1.0290
 2819SOL     OW20092   3.678   2.432   0.514 -0.4745  0.3857 -0.7664
 2819SOL    HW120093   3.752   2.493   0.517  0.6842 -1.0866  0.4761
 2819SOL    HW220094   3.624   2.473   0.446 -1.1363 -1.8845 -1.6150
 2820SOL     OW20095   0.787   0.622   8.706 -0.3740 -0.4072 -0.4490
 2820SOL    HW120096   0.804   0.651   8.796 -2.3562 -2.8789  0.7085
 2820SOL    HW220097   0.727   0.691   8.677 -1.2332 -0.5624  0.9771
 2821SOL     OW20098   1.525   2.932   0.529 -0.4114  0.3434 -0.0646
 2821SOL    HW120099   1.535   3.021   0.561 -1.0777  0.8135 -1.1733
 2821SOL    HW220100   1.479   2.878   0.593 -0.3302 -0.5429 -0.7332
 2822SOL     OW20101   2.770   1.729   2.884  0.5194  0.3357  0.7304
 2822SOL    HW120102   2.702   1.662   2.884  2.5947 -1.7697 -0.9053
 2822SOL    HW220103   2.715   1.807   2.877 -2.0773 -1.4298  1.6527
 2823SOL     OW20104   2.219   4.254  14.530 -0.0431 -0.3611 -0.4376
 2823SOL    HW120105   2.271   4.179  14.501  0.4710  0.1250 -0.7888
 2823SOL    HW220106   2.131   4.222  14.547  0.6939 -2.0041  0.2961
 2824SOL     OW20107   3.182   3.164   3.404  0.5006 -0.2499  0.3522
 2824SOL    HW120108   3.271   3.130   3.402  1.5038  2.4565 -3.6040
 2824SOL    HW220109   3.170   3.239   3.344  0.6532 -0.3260  0.2262
 2825SOL     OW20110   4.197   4.587   7.446 -0.3350  0.7165  0.0884
 2825SOL    HW120111   4.148   4.613   7.368 -2.0417  0.5547  1.1132
 2825SOL    HW220112   4.286   4.614   7.425 -1.6745  4.2537 -1.0375
 2826SOL     OW20113   2.956   3.330   6.291  0.1569  0.2356  0.3656
 2826SOL    HW120114   2.949   3.355   6.198  0.3964  1.9274  0.8016
 2826SOL    HW220115   2.897   3.400   6.317  0.2378  0.5437 -0.2801
 2827SOL     OW20116   0.656   2.042   1.990  0.0121 -0.3609  0.2489
 2827SOL    HW120117   0.649   1.983   1.916  0.6910 -0.6126  0.3864
 2827SOL    HW220118   0.683   2.121   1.943 -2.4042 -0.5710 -1.4621
 2828SOL     OW20119   3.397   1.744   8.716 -0.6776  0.1210  0.1308
 2828SOL    HW120120   3.379   1.836   8.694 -3.1125 -0.3884 -0.0977
 2828SOL    HW220121   3.485   1.731   8.681 -1.4453 -0.2263 -1.6815
 2829SOL     OW20122   3.075   0.148   5.380  0.1883 -0.2134 -0.2621
 2829SOL    HW120123   3.138   0.077   5.388 -1.7797 -2.0825 -1.3198
 2829SOL    HW220124   3.112   0.194   5.305  0.1229  2.1946  1.1549
 2830SOL     OW20125   0.765   4.186   5.488  0.5480 -0.0447 -0.1691
 2830SOL    HW120126   0.727   4.230   5.412  1.6200  0.5001 -0.3824
 2830SOL    HW220127   0.851   4.176   5.448  0.5879 -0.5280  0.0410
 2831SOL     OW20128   0.591   0.865   6.207  0.4667  0.1907 -1.3512
 2831SOL    HW120129   0.590   0.815   6.288 -0.3530 -0.3362 -1.6855
 2831SOL    HW220130   0.498   0.860   6.183 -0.3883 -0.9945  2.2137
 2832SOL     OW20131   0.809   3.608   6.996  0.1944  0.8735 -0.0394
 2832SOL    HW120132   0.784   3.624   7.087 -1.6590  0.5706 -0.5039
 2832SOL    HW220133   0.734   3.553   6.973  1.4865 -2.3146  3.2883
 2833SOL     OW20134   4.673   1.964   9.242 -0.3553 -0.0456 -0.2152
 2833SOL    HW120135   0.007   1.981   9.304 -1.1785  1.1775  0.3827
 2833SOL    HW220136   4.653   2.052   9.212  1.7614  0.2500 -0.7455
 2834SOL     OW20137   1.060   4.046   7.735  0.0198  0.2709 -0.6446
 2834SOL    HW120138   0.991   3.980   7.727 -0.0752  0.2173  0.6406
 2834SOL    HW220139   1.131   4.005   7.685 -0.6777 -2.1518  0.3432
 2835SOL     OW20140   3.713   0.529   4.662 -0.0121  0.1945  0.5585
 2835SOL    HW120141   3.775   0.561   4.728  0.2912  1.3964 -0.3101
 2835SOL    HW220142   3.764   0.472   4.605 -1.6166 -1.6871  1.0234
 2836SOL     OW20143   4.061   3.773   3.035  0.5011  0.2389  0.8733
 2836SOL    HW120144   4.127   3.839   3.015 -0.7352  1.2003  0.0379
 2836SOL    HW220145   4.116   3.696   3.019 -1.0212 -0.8067  0.7100
 2837SOL     OW20146   1.876   3.243  17.675 -0.2025  0.5529  0.7247
 2837SOL    HW120147   1.863   3.338  17.673  0.5128  0.6732  2.3111
 2837SOL    HW220148   1.954   3.218  17.626  0.7688  0.6954  2.1981
 2838SOL     OW20149   1.757   4.445   6.877  0.0574 -0.3780 -0.0975
 2838SOL    HW120150   1.724   4.363   6.916  0.4865 -1.4053 -1.9108
 2838SOL    HW220151   1.690   4.508   6.902 -0.0134 -0.8808  1.0237
 2839SOL     OW20152   3.225   0.790  12.490 -0.2902  0.0535 -0.0352
 2839SOL    HW120153   3.141   0.811  12.530 -0.2631 -0.4220  0.2695
 2839SOL    HW220154   3.233   0.698  12.514 -0.8418  0.7064  2.6935
 2840SOL     OW20155   4.266   1.165  15.600 -0.1788 -0.1260 -0.3687
 2840SOL    HW120156   4.330   1.144  15.533 -2.6391  0.8216 -3.0104
 2840SOL    HW220157   4.183   1.138  15.561  0.0526 -0.0681 -0.8994
 2841SOL     OW20158   1.885   0.019   2.906  0.5255  0.2248  0.0791
 2841SOL    HW120159   1.803   4.732   2.949  0.6727 -0.1180  0.1681
 2841SOL    HW220160   1.894   0.109   2.936 -0.9994  1.1129 -2.1070
 2842SOL     OW20161   1.053   2.990   0.709 -0.0644 -0.0298 -0.3204
 2842SOL    HW120162   1.102   2.993   0.791 -1.3412  0.6898  0.4219
 2842SOL    HW220163   1.074   2.904   0.672  2.4821  0.6093 -0.3347
 2843SOL     OW20164   0.815   0.073   4.454  0.2227 -0.8742  0.2792
 2843SOL    HW120165   0.893   0.067   4.399 -0.7210  0.9381 -1.2847
 2843SOL    HW220166   0.812   4.724   4.496 -0.0316  1.4387  4.9370
 2844SOL     OW20167   2.020   2.888  12.236 -0.6664  0.2317  0.2085
 2844SOL    HW120168   1.966   2.917  12.310 -0.5163 -1.0704  0.8477
 2844SOL    HW220169   1.973   2.928  12.164 -1.4730 -3.0541 -1.1157
 2845SOL     OW20170   1.384   0.507  10.767 -1.0521 -0.2520 -0.7889
 2845SOL    HW120171   1.437   0.543  10.696 -0.0583 -0.8989 -0.3775
 2845SOL    HW220172   1.301   0.501  10.719 -1.2268 -0.7432 -0.4272
 2846SOL     OW20173   1.063   1.553   2.155 -0.1761  0.1572 -0.4412
 2846SOL    HW120174   1.149   1.583   2.126 -0.9731  3.0704  0.2701
 2846SOL    HW220175   1.005   1.603   2.098 -0.3400  1.7059  1.1044
 2847SOL     OW20176   2.934   0.658   6.141  0.4564  0.3585  0.1404
 2847SOL    HW120177   2.923   0.742   6.096 -0.9243  0.0409 -0.1000
 2847SOL    HW220178   3.017   0.672   6.187  0.7094  1.6703 -0.7067
 2848SOL     OW20179   1.659   3.270   8.409  0.5142  0.5698 -0.2697
 2848SOL    HW120180   1.712   3.284   8.487  0.2324 -0.3957  0.0931
 2848SOL    HW220181   1.723   3.257   8.339  0.8655 -0.2127  0.1922
 2849SOL     OW20182   1.406   4.092  15.290 -0.0958  0.1968 -0.4687
 2849SOL    HW120183   1.491   4.047  15.285 -0.0798  0.1534  0.3175
 2849SOL    HW220184   1.363   4.023  15.239  0.6905 -0.9924  0.4666
 2850SOL     OW20185   2.785   1.674   4.847  0.1119 -0.1077  0.2271
 2850SOL    HW120186   2.835   1.600   4.883  0.8309  1.2598  2.0044
 2850SOL    HW220187   2.700   1.671   4.891 -0.0081 -0.9589 -0.0626
 2851SOL     OW20188   4.397   3.852   8.028 -0.8043 -0.1026  0.0991
 2851SOL    HW120189   4.486   3.884   8.038 -0.6894  0.5053 -3.0892
 2851SOL    HW220190   4.347   3.929   8.054 -0.9753  0.8856 -3.2143
 2852SOL     OW20191   2.452   0.098  11.656  0.0272 -0.3001 -0.2905
 2852SOL    HW120192   2.392   0.094  11.582 -0.4718 -0.6427  0.1280
 2852SOL    HW220193   2.383   0.072  11.717 -0.5263 -0.8008 -1.1316
 2853SOL     OW20194   2.216   2.810   8.027 -0.0122  0.4290 -0.1455
 2853SOL    HW120195   2.165   2.886   8.001 -2.7555 -1.2048  0.4792
 2853SOL    HW220196   2.210   2.752   7.951 -2.8233  0.1855  0.2612
 2854SOL     OW20197   3.915   1.541   8.673  0.4695 -0.4416  0.1182
 2854SOL    HW120198   3.975   1.539   8.747  0.0109 -2.1685  0.4538
 2854SOL    HW220199   3.851   1.475   8.700  0.1027  0.1930  0.7851
 2855SOL     OW20200   3.670   2.926   6.825  0.1767 -0.5418 -0.2539
 2855SOL    HW120201   3.721   2.928   6.744  0.1464 -2.3997 -0.3174
 2855SOL    HW220202   3.645   2.833   6.829  2.3762 -1.1542 -0.9612
 2856SOL     OW20203   1.084   1.185   5.986  0.1797 -0.4107  0.1093
 2856SOL    HW120204   1.135   1.121   6.035 -0.6194  0.5392  2.1872
 2856SOL    HW220205   1.018   1.136   5.937  0.2667 -0.8062  0.3878
 2857SOL     OW20206   4.176   3.072   4.536  0.6027 -0.3761  0.1519
 2857SOL    HW120207   4.137   3.154   4.567  0.4830 -0.3930  0.0484
 2857SOL    HW220208   4.181   3.025   4.619  2.4194  0.7179  0.6631
 2858SOL     OW20209   0.450   2.302   6.601  0.5241 -0.3006  0.3271
 2858SOL    HW120210   0.459   2.256   6.684  1.5608 -0.3800  0.1742
 2858SOL    HW220211   0.359   2.287   6.575  1.0048 -0.6811 -1.1487
 2859SOL     OW20212   4.301   2.555   9.235  0.2294  0.4369  0.0205
 2859SOL    HW120213   4.297   2.569   9.141 -0.3665 -2.5713 -0.3951
 2859SOL    HW220214   4.336   2.466   9.242 -0.1849  0.2527 -0.2424
 2860SOL     OW20215   2.217   4.331  12.234 -0.3559  0.3098 -0.2586
 2860SOL    HW120216   2.200   4.274  12.158  1.6826 -0.6916  0.0559
 2860SOL    HW220217   2.299   4.370  12.205 -0.3795  0.9538  0.5594
 2861SOL     OW20218   4.721   0.768   4.972 -0.0471  0.0262 -0.4335
 2861SOL    HW120219   4.716   0.774   4.877  0.0157  1.4871 -0.3395
 2861SOL    HW220220   0.078   0.746   4.974  0.4499  2.1542 -0.0880
 2862SOL     OW20221   1.539   3.568   3.991  0.0223  0.3566  0.6048
 2862SOL    HW120222   1.613   3.620   3.960 -0.5655 -0.1620 -1.6373
 2862SOL    HW220223   1.480   3.597   3.922  1.7517  0.7850 -0.7148
 2863SOL     OW20224   3.099   4.333  15.661 -0.0257  0.3346  0.0350
 2863SOL    HW120225   3.183   4.378  15.651 -1.1935  2.4385 -0.3891
 2863SOL    HW220226   3.122   4.250  15.703 -1.4782 -0.2172 -0.2480
 2864SOL     OW20227   2.693   4.183   6.060  0.0517 -0.7539  0.1554
 2864SOL    HW120228   2.660   4.109   6.109 -1.3311 -0.8872 -0.9977
 2864SOL    HW220229   2.768   4.153   6.008 -0.6450  1.4121 -2.0921
 2865SOL     OW20230   0.150   4.577   8.609 -0.7801  0.4254  0.3444
 2865SOL    HW120231   0.184   4.646   8.667  1.5015 -0.2732 -0.1562
 2865SOL    HW220232   0.066   4.563   8.652  0.1636 -2.1838  1.3344
 2866SOL     OW20233   2.104   2.890   9.305  0.1756 -0.1194  0.0451
 2866SOL    HW120234   2.147   2.825   9.360 -0.4571 -0.3998  0.2058
 2866SOL    HW220235   2.132   2.969   9.350 -2.0137  1.2959 -1.0660
 2867SOL     OW20236   0.165   3.090   2.156 -0.2563 -0.4836 -0.5069
 2867SOL    HW120237   0.096   3.050   2.104  1.7614 -3.1906 -1.0833
 2867SOL    HW220238   0.166   3.045   2.241 -0.8178  1.6752  0.6425
 2868SOL     OW20239   1.243   0.007   9.384 -0.1944  0.1712  0.3671
 2868SOL    HW120240   1.274   0.022   9.295 -0.3767 -0.7269  0.1536
 2868SOL    HW220241   1.248   4.649   9.396 -0.2640  0.2147  0.7483
 2869SOL     OW20242   3.319   1.931  12.519 -0.2128 -0.3736  0.1684
 2869SOL    HW120243   3.365   1.849  12.499  0.7070  0.5322 -1.4242
 2869SOL    HW220244   3.343   1.948  12.610  2.5880 -1.2594 -0.4118
 2870SOL     OW20245   2.362   4.723  16.431 -0.4464 -0.0711  0.0360
 2870SOL    HW120246   2.423   4.691  16.364 -0.3777  1.6067 -0.6989
 2870SOL    HW220247   2.369   4.647  16.490 -1.7952 -0.7722 -0.7071
 2871SOL     OW20248   1.764   0.768  10.888 -0.2095  0.0758  0.1252
 2871SOL    HW120249   1.706   0.746  10.961 -1.4045  2.1062 -0.1967
 2871SOL    HW220250   1.753   0.704  10.818  2.3972 -1.0914  0.7511
 2872SOL     OW20251   1.227   2.174   7.240 -0.1965  0.6695 -0.1337
 2872SOL    HW120252   1.240   2.259   7.283 -1.8332  0.0595  1.5809
 2872SOL    HW220253   1.305   2.128   7.270 -2.7611 -2.5300  1.6071
 2873SOL     OW20254   0.502   2.073   8.746  0.0145 -0.1398 -0.1577
 2873SOL    HW120255   0.540   2.160   8.759  0.7124 -0.6896  1.3934
 2873SOL    HW220256   0.551   2.016   8.805 -0.3428 -1.8493 -1.5208
 2874SOL     OW20257   4.700   1.826  11.350  0.3982 -0.2321 -0.2004
 2874SOL    HW120258   4.607   1.810  11.367  0.7019 -1.5189  0.2150
 2874SOL    HW220259   4.695   1.852  11.258 -0.2324  0.4525  0.0282
 2875SOL     OW20260   0.188   0.007  15.287  0.0722  0.1186  0.2224
 2875SOL    HW120261   0.107   0.047  15.257  2.3722  1.1858 -4.5857
 2875SOL    HW220262   0.171   0.015  15.381 -0.1585 -0.4033  0.2247
 2876SOL     OW20263   0.808   1.212   8.770 -0.3699 -0.2575  0.2056
 2876SOL    HW120264   0.865   1.282   8.738  0.1264  0.1260  1.9245
 2876SOL    HW220265   0.747   1.268   8.819 -0.0348  1.1038 -0.9154
 2877SOL     OW20266   2.073   2.749   8.738 -0.1852  0.2089  0.4615
 2877SOL    HW120267   2.034   2.747   8.825  0.8948  2.7167  1.0143
 2877SOL    HW220268   2.166   2.735   8.754 -0.3985 -0.1265  1.3979
 2878SOL     OW20269   4.642   2.420   3.078 -0.0880 -0.4356 -0.3316
 2878SOL    HW120270   4.667   2.472   3.155 -0.2097  0.4428 -0.8899
 2878SOL    HW220271   4.625   2.488   3.012  2.1450  1.2401  0.7935
 2879SOL     OW20272   2.739   0.418   8.906 -0.2901 -0.1661  0.0093
 2879SOL    HW120273   2.781   0.473   8.973  2.0149 -2.3927  0.3879
 2879SOL    HW220274   2.768   0.334   8.942  2.1293  1.9170  3.0258
 2880SOL     OW20275   3.923   3.862   8.134 -0.5237  0.0048  0.1765
 2880SOL    HW120276   3.926   3.902   8.047 -1.9457  0.8558  0.5121
 2880SOL    HW220277   3.926   3.768   8.120  0.0399 -0.1643  1.3685
 2881SOL     OW20278   2.528   0.403  13.481  0.3770 -0.2785  0.2337
 2881SOL    HW120279   2.535   0.353  13.400 -3.3622  0.9028 -0.8213
 2881SOL    HW220280   2.578   0.481  13.458 -0.2098  0.7373  2.3253
 2882SOL     OW20281   4.003   0.372   9.443 -0.1611  0.4859 -0.2105
 2882SOL    HW120282   3.936   0.340   9.382 -0.2941  0.7858 -0.2188
 2882SOL    HW220283   4.082   0.319   9.429  0.3723  0.9297  1.1484
 2883SOL     OW20284   3.266   1.748   2.588 -0.2993  0.1574 -0.1865
 2883SOL    HW120285   3.199   1.709   2.644 -0.3586 -1.4472 -1.3570
 2883SOL    HW220286   3.344   1.730   2.640 -1.7028  1.5233  2.3746
 2884SOL     OW20287   4.598   0.045  10.075 -0.7134  0.1663 -0.0464
 2884SOL    HW120288   4.611   4.736   9.993 -2.6790 -0.8546  0.2169
 2884SOL    HW220289   4.657   0.002  10.138 -0.2435  0.0896 -0.5358
 2885SOL     OW20290   0.112   3.675   4.572  0.3115  0.1834  0.0253
 2885SOL    HW120291   0.041   3.685   4.636  1.3645 -2.5489  1.5921
 2885SOL    HW220292   0.156   3.599   4.608  0.7427  0.3521 -0.1456
 2886SOL     OW20293   1.591   3.699   6.475 -0.5608  0.1301 -0.5024
 2886SOL    HW120294   1.520   3.657   6.427 -0.6930  0.1289 -0.3058
 2886SOL    HW220295   1.586   3.652   6.558  0.2363 -1.3268 -1.2783
 2887SOL     OW20296   4.376   4.602   6.875  0.8030  0.2833  0.5279
 2887SOL    HW120297   4.324   4.681   6.861  1.8558  0.9738  0.5447
 2887SOL    HW220298   4.333   4.576   6.956 -0.6876  0.8116 -0.0999
 2888SOL     OW20299   2.769   0.009   8.017  1.1210  0.1109 -0.4168
 2888SOL    HW120300   2.723   4.709   7.941 -1.3894 -1.0562  1.6575
 2888SOL    HW220301   2.841   4.683   8.024  0.7229 -0.6539 -2.9261
 2889SOL     OW20302   2.767   1.231   9.403  0.0672 -0.1921 -0.1955
 2889SOL    HW120303   2.856   1.266   9.395  0.5578 -1.4205 -0.1386
 2889SOL    HW220304   2.766   1.175   9.325  1.5253  0.9768 -1.0611
 2890SOL     OW20305   1.212   2.137   1.452 -0.3713 -0.0348 -0.1840
 2890SOL    HW120306   1.225   2.121   1.545 -0.5296 -0.3919 -0.2251
 2890SOL    HW220307   1.298   2.153   1.413  0.3499 -0.4085  1.2588
 2891SOL     OW20308   3.309   4.476   9.246  0.2218  0.0939  0.3804
 2891SOL    HW120309   3.397   4.452   9.216  0.1330  0.0106  0.1926
 2891SOL    HW220310   3.325   4.568   9.268 -1.0178  0.0651  1.3913
 2892SOL     OW20311   0.891   0.015   5.214 -0.3953  0.6833  0.1289
 2892SOL    HW120312   0.960   0.081   5.214  1.0099 -0.7928  0.4831
 2892SOL    HW220313   0.827   0.056   5.155 -1.4044 -0.5506  0.3597
 2893SOL     OW20314   4.050   2.408   2.266  0.6451 -0.1795 -0.6038
 2893SOL    HW120315   4.109   2.334   2.284  0.9202 -0.1079 -1.2275
 2893SOL    HW220316   3.985   2.387   2.334  1.4819  0.0081  0.2616
 2894SOL     OW20317   4.563   4.440   3.352 -0.0262  0.7389 -0.2246
 2894SOL    HW120318   4.651   4.451   3.388  0.4270 -0.2945 -1.0159
 2894SOL    HW220319   4.577   4.434   3.258  0.8718  2.2274 -0.2015
 2895SOL     OW20320   1.785   0.501  10.674 -0.2496  0.3350  0.5364
 2895SOL    HW120321   1.742   0.422  10.707  0.7082  0.1570  1.3799
 2895SOL    HW220322   1.868   0.482  10.718  0.3504 -1.6492 -1.4872
 2896SOL     OW20323   2.197   1.833  10.409 -0.3580 -0.5831 -0.3298
 2896SOL    HW120324   2.179   1.766  10.343  0.0040 -0.2373 -0.7727
 2896SOL    HW220325   2.187   1.770  10.481 -0.6696 -1.3133 -1.0074
 2897SOL     OW20326   0.380   3.956   2.294  0.5986  1.0223 -0.0175
 2897SOL    HW120327   0.461   3.910   2.314 -0.0188 -0.9891 -2.2259
 2897SOL    HW220328   0.349   3.974   2.383 -1.3855 -0.8009 -0.3473
 2898SOL     OW20329   2.357   3.908   7.164 -0.2580 -0.0095 -0.0666
 2898SOL    HW120330   2.271   3.907   7.205  0.0854  0.3585  0.6466
 2898SOL    HW220331   2.395   3.983   7.209 -4.6301  2.2814 -0.2469
 2899SOL     OW20332   4.464   0.183   3.871 -0.5204 -0.4186  0.7093
 2899SOL    HW120333   4.492   0.210   3.959 -0.9657  1.0941  0.3845
 2899SOL    HW220334   4.369   0.196   3.872  0.0960  4.1781 -0.2730
 2900SOL     OW20335   1.401   3.411   4.708 -0.3852 -0.3046  0.1743
 2900SOL    HW120336   1.403   3.320   4.679 -2.1683 -0.5229  0.7236
 2900SOL    HW220337   1.364   3.451   4.629 -0.7167 -1.5765 -0.3126
 2901SOL     OW20338   0.493   3.871  15.150 -0.1941  0.0677 -0.1786
 2901SOL    HW120339   0.500   3.780  15.180 -2.0408 -0.1378 -0.4104
 2901SOL    HW220340   0.554   3.906  15.215 -0.8667  0.1285  0.4172
 2902SOL     OW20341   2.871   0.432   7.003 -0.1869  0.1084 -0.2581
 2902SOL    HW120342   2.781   0.404   6.987 -0.2408 -0.6232  1.3113
 2902SOL    HW220343   2.866   0.524   6.979 -2.9301  0.5179  1.9057
 2903SOL     OW20344   0.923   3.978  14.751 -0.4699 -0.3148  0.2905
 2903SOL    HW120345   0.982   3.995  14.678 -0.6246  0.6437  0.3938
 2903SOL    HW220346   0.856   4.046  14.742  1.0962  0.9042 -2.1441
 2904SOL     OW20347   1.861   2.660   5.344 -0.1289 -0.1490 -0.2974
 2904SOL    HW120348   1.816   2.606   5.409  0.1195 -0.3177 -0.2660
 2904SOL    HW220349   1.941   2.679   5.392 -0.0072 -2.7832  0.5244
 2905SOL     OW20350   4.372   0.316   8.168 -0.3027  0.3769  0.1638
 2905SOL    HW120351   4.386   0.251   8.099 -1.2411  2.2447 -1.7804
 2905SOL    HW220352   4.336   0.390   8.118 -0.1750  0.7621  0.6436
 2906SOL     OW20353   3.450   3.793   3.448 -0.5295 -0.0234 -0.3998
 2906SOL    HW120354   3.495   3.710   3.431  0.4242  0.7156 -1.4643
 2906SOL    HW220355   3.459   3.806   3.543 -1.8721 -4.5473  0.3304
 2907SOL     OW20356   2.911   4.442   8.282 -0.2100 -1.1194  0.3693
 2907SOL    HW120357   2.897   4.365   8.339 -0.3246 -0.2084  1.5704
 2907SOL    HW220358   2.992   4.424   8.235  0.3866 -0.8077  1.2937
 2908SOL     OW20359   0.118   0.150   7.340  0.2502 -0.0756  0.0344
 2908SOL    HW120360   0.124   0.074   7.281  1.2132  0.1161 -0.1093
 2908SOL    HW220361   0.074   0.209   7.279 -0.2726 -1.8615 -1.3376
 2909SOL     OW20362   3.758   2.107   8.483  0.4558 -0.2365  0.6381
 2909SOL    HW120363   3.745   2.099   8.578  1.2145 -0.2360  0.7415
 2909SOL    HW220364   3.830   2.170   8.482  1.2287 -1.1244  0.1468
 2910SOL     OW20365   2.442   1.913   9.335  0.0323  0.0344  0.2139
 2910SOL    HW120366   2.369   1.922   9.273  0.5135 -1.2883 -0.5580
 2910SOL    HW220367   2.508   1.871   9.280  2.0275 -0.5595  3.1187
 2911SOL     OW20368   2.767   0.057  12.741  0.6046 -0.1881 -0.6010
 2911SOL    HW120369   2.802   0.048  12.830 -0.6854  0.3524 -0.0396
 2911SOL    HW220370   2.711   0.134  12.748  0.2760 -0.4426 -0.3879
 2912SOL     OW20371   2.397   4.061   5.739  0.2385  0.2405  0.0312
 2912SOL    HW120372   2.313   4.083   5.699 -0.6696 -1.5749  0.9122
 2912SOL    HW220373   2.378   3.992   5.803 -0.1826  0.9349  0.6531
 2913SOL     OW20374   4.359   4.206   6.949  0.4804  0.1457  0.2019
 2913SOL    HW120375   4.324   4.236   7.033  0.0341  0.2341 -0.0208
 2913SOL    HW220376   4.275   4.227   6.910  0.6893  0.8478  0.1316
 2914SOL     OW20377   0.409   3.817   7.335 -0.1134 -0.3236  0.0438
 2914SOL    HW120378   0.421   3.901   7.380 -0.0149  0.8761 -2.2154
 2914SOL    HW220379   0.476   3.759   7.371  1.1042  1.7272  1.0937
 2915SOL     OW20380   1.348   1.476   4.706 -0.1553 -0.1617 -0.1351
 2915SOL    HW120381   1.344   1.457   4.800 -0.5397  2.2172  0.3157
 2915SOL    HW220382   1.326   1.386   4.681  3.2245 -1.0548  0.0056
 2916SOL     OW20383   4.697   0.626   2.560  0.9209 -0.6042  0.3691
 2916SOL    HW120384   0.056   0.625   2.562  0.9191 -1.6591  0.0017
 2916SOL    HW220385   4.677   0.584   2.644  0.0115 -1.2132 -0.1466
 2917SOL     OW20386   1.744   4.104   5.326 -0.0241  0.0888  0.0955
 2917SOL    HW120387   1.696   4.033   5.368  3.0223 -2.4689 -0.7907
 2917SOL    HW220388   1.792   4.054   5.261 -0.0510 -1.2281  1.0881
 2918SOL     OW20389   3.039   4.468   1.566 -0.5882 -0.1261 -0.2780
 2918SOL    HW120390   3.022   4.410   1.640  0.5250  1.1194  0.9328
 2918SOL    HW220391   2.968   4.532   1.559 -2.3117 -2.0377 -0.4452
 2919SOL     OW20392   4.569   3.603   2.106 -1.0080  0.5157  0.1683
 2919SOL    HW120393   4.542   3.640   2.022 -2.4339 -0.2297  0.2927
 2919SOL    HW220394   4.585   3.675   2.166 -1.2888 -1.1041  2.1901
 2920SOL     OW20395   4.484   0.996   2.949 -0.0735  0.7694 -0.1164
 2920SOL    HW120396   4.435   1.009   2.868  2.1604  1.5133 -1.3353
 2920SOL    HW220397   4.419   0.946   2.998  1.9076  0.7662  2.4991
 2921SOL     OW20398   3.345   0.897  12.762 -1.0954 -0.6370  0.0265
 2921SOL    HW120399   3.421   0.881  12.706 -0.9657  0.6735 -0.1794
 2921SOL    HW220400   3.377   0.864  12.846 -0.8462 -1.4552 -0.3847
 2922SOL     OW20401   2.161   1.200   2.130  0.4035  0.0350  0.0299
 2922SOL    HW120402   2.114   1.279   2.152 -0.8039 -0.0327 -2.3208
 2922SOL    HW220403   2.208   1.236   2.055  0.8946  2.1088  1.3563
 2923SOL     OW20404   2.606   4.448   9.575  0.1793 -0.1307 -0.0183
 2923SOL    HW120405   2.514   4.473   9.581 -0.4181 -2.6696  1.7275
 2923SOL    HW220406   2.645   4.534   9.564 -0.7682  0.5401  1.9068
 2924SOL     OW20407   2.435   3.838   6.558 -0.5172  0.0770 -0.2279
 2924SOL    HW120408   2.465   3.794   6.478 -1.7049 -3.3380  1.2431
 2924SOL    HW220409   2.440   3.769   6.624  0.3318  0.0588 -0.3086
 2925SOL     OW20410   0.794   0.037  11.462  0.2214 -0.2035  0.1505
 2925SOL    HW120411   0.726   0.031  11.394  1.6925 -2.1940 -1.1377
 2925SOL    HW220412   0.868   0.067  11.410  0.5551 -1.1340  0.1017
 2926SOL     OW20413   0.096   2.168   3.956  0.7391  0.2730  0.1252
 2926SOL    HW120414   0.112   2.157   3.862 -1.1949 -1.0589 -0.0527
 2926SOL    HW220415   0.165   2.218   3.999  1.3969 -0.4525 -0.0765
 2927SOL     OW20416   3.150   4.004   8.449 -0.3850  0.7109  0.6766
 2927SOL    HW120417   3.185   3.915   8.448  0.8899  1.2412 -3.4183
 2927SOL    HW220418   3.230   4.055   8.465  1.4280 -1.3747 -1.5970
 2928SOL     OW20419   0.826   1.731   9.156  0.2721  0.9262 -0.2874
 2928SOL    HW120420   0.877   1.667   9.105 -1.4411 -1.6174  1.2148
 2928SOL    HW220421   0.777   1.672   9.212 -1.9509  3.0167 -0.0530
 2929SOL     OW20422   4.601   0.587   6.271  0.2321  0.0366 -0.4096
 2929SOL    HW120423   4.547   0.524   6.321  1.3979 -0.3754  0.3321
 2929SOL    HW220424   4.543   0.605   6.197 -0.0129 -0.4356 -0.3359
 2930SOL     OW20425   2.835   4.580   3.914 -0.0494 -0.0805 -1.0487
 2930SOL    HW120426   2.764   4.516   3.901  0.1718 -0.1544 -1.8972
 2930SOL    HW220427   2.856   4.581   3.820  1.4258  2.1686 -0.6755
 2931SOL     OW20428   1.513   2.586   2.118  0.3158 -0.0150  0.3753
 2931SOL    HW120429   1.532   2.505   2.070  0.6404 -0.4274  1.1981
 2931SOL    HW220430   1.423   2.601   2.090  0.4647  2.1730  1.0818
 2932SOL     OW20431   3.652   0.582  13.760  0.1327  0.2287  0.0049
 2932SOL    HW120432   3.582   0.572  13.695 -0.0102  0.5593  0.1060
 2932SOL    HW220433   3.648   0.677  13.758  3.5299  0.3005 -3.1716
 2933SOL     OW20434   4.623   3.291  10.976 -0.0765  0.0080  0.5350
 2933SOL    HW120435   4.531   3.270  10.992  0.0822  0.0257  1.4762
 2933SOL    HW220436   4.670   3.209  10.987  0.8987  0.3758 -0.8262
 2934SOL     OW20437   3.316   2.610   4.854  0.1404  0.1305 -0.7907
 2934SOL    HW120438   3.273   2.571   4.930  0.4588 -0.5882 -0.9840
 2934SOL    HW220439   3.404   2.597   4.890  0.2024 -0.6011 -1.1954
 2935SOL     OW20440   2.594   4.039  16.049  0.3079  0.5983 -0.3501
 2935SOL    HW120441   2.556   4.125  16.030  0.4507  1.1087  1.6021
 2935SOL    HW220442   2.654   4.038  15.975 -0.4274  0.2348 -0.9338
 2936SOL     OW20443   0.324   2.128  14.651 -0.0944  0.1706 -0.1623
 2936SOL    HW120444   0.354   2.054  14.704  1.1531  0.5818 -0.3067
 2936SOL    HW220445   0.411   2.165  14.636  0.0644 -0.3888 -0.6408
 2937SOL     OW20446   3.338   1.974   3.405  0.0732 -0.7959  0.7258
 2937SOL    HW120447   3.361   2.002   3.493  0.8590  0.3434  0.1592
 2937SOL    HW220448   3.404   2.020   3.354 -0.8531  0.2992  0.5095
 2938SOL     OW20449   4.475   3.999   1.085 -0.6753 -0.0585 -0.3426
 2938SOL    HW120450   4.468   4.056   1.009  2.3022  3.0800  1.7580
 2938SOL    HW220451   4.420   3.926   1.057 -1.0374  1.0940 -2.6325
 2939SOL     OW20452   3.703   1.225  15.205  0.4673 -0.0473  0.1372
 2939SOL    HW120453   3.701   1.321  15.210  0.2596 -0.0386 -0.1300
 2939SOL    HW220454   3.620   1.218  15.158  0.4980 -1.9032  0.3923
 2940SOL     OW20455   3.644   3.955   7.106 -0.5772  0.7644 -0.5962
 2940SOL    HW120456   3.695   3.962   7.026 -0.0731 -0.9517 -0.4098
 2940SOL    HW220457   3.654   3.862   7.125  2.0162  1.0502 -0.6602
 2941SOL     OW20458   3.284   0.290   8.221 -0.4674  0.3922 -0.0126
 2941SOL    HW120459   3.352   0.254   8.164 -0.9486  1.1821 -1.0844
 2941SOL    HW220460   3.332   0.309   8.302 -0.3165 -1.1334  0.2635
 2942SOL     OW20461   1.157   3.054   6.983 -0.1410 -0.2608  0.1430
 2942SOL    HW120462   1.228   3.089   6.929 -0.9173  0.8313 -0.1566
 2942SOL    HW220463   1.195   2.970   7.010  1.1629 -0.0054 -0.9065
 2943SOL     OW20464   4.516   2.451   7.175 -0.0530  0.2037 -0.0673
 2943SOL    HW120465   4.492   2.421   7.263 -1.5738  0.1553 -0.5026
 2943SOL    HW220466   4.562   2.530   7.200 -0.6067  0.6496 -0.4597
 2944SOL     OW20467   3.490   4.626   5.737 -0.0028 -0.4298  0.4291
 2944SOL    HW120468   3.469   4.686   5.808 -0.4100 -1.5178  1.2432
 2944SOL    HW220469   3.405   4.613   5.696  0.2644  2.1869 -0.9214
 2945SOL     OW20470   3.817   1.146   2.673  0.0970  0.3377 -0.2240
 2945SOL    HW120471   3.883   1.148   2.604  1.7150 -0.4000  1.3107
 2945SOL    HW220472   3.836   1.061   2.711 -1.2833  0.3814  0.5754
 2946SOL     OW20473   1.136   1.701   5.690  0.4580  0.2688  0.3568
 2946SOL    HW120474   1.075   1.630   5.671 -0.0333  0.6659  0.4528
 2946SOL    HW220475   1.160   1.679   5.780  2.2786 -0.1522 -0.2305
 2947SOL     OW20476   4.554   3.314   7.472 -0.0899  0.5542 -0.4974
 2947SOL    HW120477   4.487   3.277   7.415  2.4221 -0.3562 -2.8634
 2947SOL    HW220478   4.501   3.326   7.550  1.2279 -0.9384  0.6161
 2948SOL     OW20479   1.852   2.824   4.675 -0.3502 -0.1270  0.3041
 2948SOL    HW120480   1.874   2.806   4.767  1.2697  0.3535  0.0179
 2948SOL    HW220481   1.915   2.895   4.663  1.6648 -1.7897  0.9404
 2949SOL     OW20482   2.712   4.206  10.576 -0.4660  0.0882  0.4194
 2949SOL    HW120483   2.636   4.262  10.564  0.4652  0.9333 -1.5681
 2949SOL    HW220484   2.715   4.164  10.489 -0.2874  1.2091 -0.1115
 2950SOL     OW20485   0.592   0.347   4.811 -0.0562  0.0758  0.0240
 2950SOL    HW120486   0.556   0.429   4.844  0.0519 -0.6160  1.8578
 2950SOL    HW220487   0.621   0.372   4.724  1.8774  1.6617  1.1184
 2951SOL     OW20488   0.344   1.539   6.256 -0.4477 -0.5670 -0.1297
 2951SOL    HW120489   0.317   1.457   6.297 -2.5349 -1.2419 -2.8948
 2951SOL    HW220490   0.265   1.549   6.203  1.9982  0.4525 -3.6067
 2952SOL     OW20491   2.768   0.012   0.001  0.2258  0.2434  0.0417
 2952SOL    HW120492   2.836   0.070   0.036 -0.0098 -0.1192  1.1232
 2952SOL    HW220493   2.808   4.662   0.008 -1.8483 -0.8740 -2.2104
 2953SOL     OW20494   3.469   1.547   6.787  0.1497  0.1701 -0.6544
 2953SOL    HW120495   3.463   1.500   6.870  1.3737  1.4551  0.1447
 2953SOL    HW220496   3.547   1.505   6.751  0.8931  2.0213 -1.2175
 2954SOL     OW20497   3.690   1.631   5.559  0.3474 -0.5795 -0.2828
 2954SOL    HW120498   3.623   1.698   5.575 -0.1547 -1.8908  3.1983
 2954SOL    HW220499   3.639   1.571   5.504 -0.5205  1.0324 -1.2223
 2955SOL     OW20500   1.004   4.293  10.178  0.5819  0.8283 -0.2924
 2955SOL    HW120501   0.931   4.355  10.180 -1.6991 -1.7769 -2.1178
 2955SOL    HW220502   1.048   4.316  10.095  3.4959 -3.3773  0.0624
 2956SOL     OW20503   1.421   1.978  15.170 -0.5406 -0.4603 -0.0453
 2956SOL    HW120504   1.368   2.046  15.128  0.1700 -0.5558 -1.0922
 2956SOL    HW220505   1.381   1.898  15.138 -0.0317 -0.9168  0.4517
 2957SOL     OW20506   2.765   4.153   7.652 -0.4675  0.1007 -0.0409
 2957SOL    HW120507   2.810   4.219   7.599  2.5758 -0.9161  1.2791
 2957SOL    HW220508   2.714   4.207   7.712 -0.5830  1.3283 -1.2344
 2958SOL     OW20509   0.255   0.322   9.557 -0.0640  0.1579  0.6614
 2958SOL    HW120510   0.278   0.312   9.649  1.8916 -2.3591 -0.1140
 2958SOL    HW220511   0.334   0.356   9.514 -0.6367  0.2533 -0.3122
 2959SOL     OW20512   3.531   0.817   7.719 -0.1226 -0.1810 -0.1840
 2959SOL    HW120513   3.449   0.854   7.685 -0.1372 -1.5342 -1.6039
 2959SOL    HW220514   3.578   0.895   7.746  2.4650 -0.7033 -3.2977
 2960SOL     OW20515   0.621   3.702  10.934  0.2386 -0.4017  0.0001
 2960SOL    HW120516   0.689   3.653  10.981 -2.4993 -2.4141  1.8215
 2960SOL    HW220517   0.597   3.640  10.865 -0.7251  0.3570 -0.3480
 2961SOL     OW20518   3.668   4.618  14.465  0.1066  0.6593  0.0271
 2961SOL    HW120519   3.674   4.581  14.553 -0.7689  0.3546 -0.0450
 2961SOL    HW220520   3.584   4.582  14.439  0.6177 -0.2180 -0.4084
 2962SOL     OW20521   0.142   1.750   7.326  0.3029 -0.0050  0.4241
 2962SOL    HW120522   0.147   1.711   7.413  1.7568  0.1360  0.3985
 2962SOL    HW220523   0.161   1.682   7.261 -1.4408  0.8700 -1.0078
 2963SOL     OW20524   3.973   2.976   6.704  0.6511  0.0546  0.3596
 2963SOL    HW120525   3.906   2.954   6.639 -0.2364  0.3002  1.2003
 2963SOL    HW220526   4.038   2.913   6.673 -0.2241 -0.8956  0.4482
 2964SOL     OW20527   2.057   1.599  16.551 -0.1661  0.4346 -0.6285
 2964SOL    HW120528   1.988   1.613  16.617 -0.8775 -0.6925 -1.1428
 2964SOL    HW220529   2.110   1.678  16.568  2.6048 -2.1536  2.8543
 2965SOL     OW20530   0.166   2.633   6.381 -0.5312 -0.1521 -0.0770
 2965SOL    HW120531   0.095   2.629   6.316 -0.8695  0.3130  0.2629
 2965SOL    HW220532   0.242   2.657   6.329 -0.3532 -0.1362  0.1902
 2966SOL     OW20533   1.496   1.404  12.639  0.0780  0.0921  0.3153
 2966SOL    HW120534   1.480   1.326  12.693 -0.2058 -0.4875 -0.5976
 2966SOL    HW220535   1.565   1.448  12.688  0.1273 -0.7697  1.0332
 2967SOL     OW20536   0.290   2.722   6.118  0.3261  0.1953 -0.0469
 2967SOL    HW120537   0.271   2.797   6.061 -1.4634  0.8856  1.4564
 2967SOL    HW220538   0.352   2.680   6.058 -0.6235 -1.1964 -0.0563
 2968SOL     OW20539   0.529   4.595  12.208  0.3789 -0.1160  0.0530
 2968SOL    HW120540   0.570   4.666  12.258  0.4962 -0.2633  0.1662
 2968SOL    HW220541   0.545   4.521  12.268  0.9953 -0.9484 -1.1297
 2969SOL     OW20542   1.293   2.977  15.582  0.0933  0.2478 -0.2890
 2969SOL    HW120543   1.325   3.014  15.664 -0.8026  1.0235 -0.2866
 2969SOL    HW220544   1.254   2.896  15.617 -0.2423  2.4476  4.3844
 2970SOL     OW20545   1.537   3.457  16.946 -0.2011 -0.3685 -0.1495
 2970SOL    HW120546   1.524   3.414  16.862 -0.2006 -1.8486  0.6025
 2970SOL    HW220547   1.594   3.527  16.915 -0.4835 -0.6233 -1.2536
 2971SOL     OW20548   4.513   3.160   6.762 -0.1792 -0.2733  0.0650
 2971SOL    HW120549   4.455   3.224   6.719  1.3157  2.0401  1.4906
 2971SOL    HW220550   4.580   3.219   6.796 -0.7778  0.8252 -0.6189
 2972SOL     OW20551   2.464   3.723   6.316  0.6992  0.0096  0.5621
 2972SOL    HW120552   2.370   3.730   6.296  0.3169 -1.0961  1.9619
 2972SOL    HW220553   2.504   3.733   6.229 -2.2243  3.1557 -0.4449
 2973SOL     OW20554   3.853   3.514   8.937 -0.1265  0.0199  0.5882
 2973SOL    HW120555   3.898   3.547   9.014 -0.7255  2.7177 -0.2145
 2973SOL    HW220556   3.767   3.555   8.953  1.1594  2.3100  1.6084
 2974SOL     OW20557   1.406   1.939   6.263  0.3009  0.7260 -0.3580
 2974SOL    HW120558   1.374   1.853   6.238  0.1861  0.4039  0.8553
 2974SOL    HW220559   1.472   1.961   6.197 -1.4508  0.9173 -2.0292
 2975SOL     OW20560   0.198   0.306   3.342 -0.3175 -0.4441  0.0726
 2975SOL    HW120561   0.112   0.265   3.333 -0.8169  0.4508  0.8076
 2975SOL    HW220562   0.235   0.224   3.373  1.2081  1.1603  2.4324
 2976SOL     OW20563   1.367   2.088   2.803 -0.4466 -0.3079  0.4671
 2976SOL    HW120564   1.404   2.123   2.884 -3.5297 -0.8740  2.1205
 2976SOL    HW220565   1.383   2.165   2.748  0.3890  0.3133  1.5828
 2977SOL     OW20566   4.588   2.063   4.177  0.1025  0.3894  0.9235
 2977SOL    HW120567   4.624   2.112   4.104 -1.3387  1.9189  1.2420
 2977SOL    HW220568   4.530   2.120   4.228  1.1502  0.5096  1.9800
 2978SOL     OW20569   2.445   4.254  10.486  0.4993  0.3036  0.7658
 2978SOL    HW120570   2.428   4.193  10.558  0.5475 -0.9534 -0.3041
 2978SOL    HW220571   2.363   4.304  10.492  0.3322 -0.0024  1.0377
 2979SOL     OW20572   3.290   0.285   3.426 -0.5351  0.2063 -0.1240
 2979SOL    HW120573   3.385   0.275   3.426 -0.6708 -1.1703  0.9838
 2979SOL    HW220574   3.282   0.378   3.447  0.0832  0.7746 -2.5213
 2980SOL     OW20575   0.796   0.840  16.003 -0.1767  0.6624  0.4043
 2980SOL    HW120576   0.733   0.907  15.975 -0.0261  0.7104  0.1862
 2980SOL    HW220577   0.846   0.877  16.076 -0.0908  3.1983 -0.9417
 2981SOL     OW20578   2.324   2.846  14.396  0.2213 -0.3290 -0.4512
 2981SOL    HW120579   2.334   2.854  14.491 -0.6075 -2.0347 -0.2409
 2981SOL    HW220580   2.296   2.935  14.374 -0.1756  0.3406  2.7577
 2982SOL     OW20581   1.270   3.214   2.352  0.3524  1.0072  0.1957
 2982SOL    HW120582   1.239   3.300   2.322 -2.1126  0.0894  0.0939
 2982SOL    HW220583   1.365   3.224   2.345  0.2828 -0.2027 -2.5702
 2983SOL     OW20584   2.379   4.235  15.421  0.5094 -0.3090 -0.2109
 2983SOL    HW120585   2.434   4.177  15.369  0.1717  0.3689 -1.3214
 2983SOL    HW220586   2.298   4.183  15.424 -0.2038  0.9759  2.9174
 2984SOL     OW20587   3.665   3.589  12.118 -0.4336  0.0472 -0.3207
 2984SOL    HW120588   3.687   3.674  12.080  0.6441  0.1034  0.4168
 2984SOL    HW220589   3.614   3.553  12.046  0.9418 -0.4383 -1.0510
 2985SOL     OW20590   0.516   2.869   3.909  0.3774  0.5522 -0.6470
 2985SOL    HW120591   0.609   2.849   3.921  0.0657 -0.8664 -0.5532
 2985SOL    HW220592   0.491   2.885   4.000 -0.6914 -1.3410 -0.6097
 2986SOL     OW20593   3.462   3.055   3.119 -0.3307  0.4683  0.6825
 2986SOL    HW120594   3.525   2.989   3.089 -2.0725 -1.2143  0.7849
 2986SOL    HW220595   3.389   2.995   3.132 -1.1034  0.4403 -3.5966
 2987SOL     OW20596   1.375   2.885  14.518  0.7927 -0.4433  0.2898
 2987SOL    HW120597   1.313   2.866  14.588 -0.3924  0.0651 -0.6253
 2987SOL    HW220598   1.364   2.805  14.467 -2.4920 -1.1046  2.0664
 2988SOL     OW20599   0.475   3.099   6.443 -0.5236 -0.1638  0.2984
 2988SOL    HW120600   0.491   3.181   6.396 -2.8942  0.2950  0.3111
 2988SOL    HW220601   0.423   3.049   6.381 -1.3728  0.4873  0.4853
 2989SOL     OW20602   3.327   4.318   2.661 -0.2318  0.7179 -0.1806
 2989SOL    HW120603   3.394   4.323   2.593 -0.9475  0.2442 -0.9196
 2989SOL    HW220604   3.382   4.280   2.730 -1.3974 -0.1852  0.2571
 2990SOL     OW20605   1.153   2.327   3.890 -0.2699  0.0878 -0.5468
 2990SOL    HW120606   1.150   2.343   3.795  0.1203 -0.1665 -0.6009
 2990SOL    HW220607   1.242   2.354   3.914  0.5297 -3.0067 -0.0836
 2991SOL     OW20608   3.251   2.514   9.077  0.6281 -0.0965 -0.2546
 2991SOL    HW120609   3.184   2.538   9.013  0.5289 -0.1780 -0.1823
 2991SOL    HW220610   3.264   2.594   9.126  0.7798  0.6401 -1.4983
 2992SOL     OW20611   2.240   2.175  17.455 -0.5145 -0.1837 -0.4305
 2992SOL    HW120612   2.253   2.080  17.456  0.0305 -0.1227 -2.8856
 2992SOL    HW220613   2.146   2.190  17.463 -0.8619 -2.9630  0.8783
 2993SOL     OW20614   2.449   2.124   0.399  0.0473  0.3565 -0.1366
 2993SOL    HW120615   2.539   2.097   0.414  0.1631  1.2857  0.8204
 2993SOL    HW220616   2.403   2.059   0.453 -1.2808  2.4869  1.3034
 2994SOL     OW20617   2.915   3.005   2.626 -0.2517  0.6702 -0.0728
 2994SOL    HW120618   2.909   2.970   2.537 -2.1485  0.5912  0.0893
 2994SOL    HW220619   3.003   3.043   2.626 -0.3127  0.8022  1.5238
 2995SOL     OW20620   0.762   3.574  17.497 -0.0302  0.2395 -0.1968
 2995SOL    HW120621   0.713   3.518  17.557  0.0949 -1.2969 -1.5408
 2995SOL    HW220622   0.839   3.517  17.491 -1.9728 -2.1086 -2.6961
 2996SOL     OW20623   4.069   1.001   6.069 -0.1147  0.0073  0.2163
 2996SOL    HW120624   4.029   0.918   6.095 -0.4400  0.2374  0.4536
 2996SOL    HW220625   4.155   0.994   6.111 -0.0022  2.1684  0.3954
 2997SOL     OW20626   0.354   2.719  10.086 -0.6564  0.1769  0.3428
 2997SOL    HW120627   0.322   2.651  10.027  2.0829 -1.2553  0.5114
 2997SOL    HW220628   0.427   2.673  10.126 -0.6626  1.3500  1.6742
 2998SOL     OW20629   1.677   2.252   0.669  0.5562 -0.4028 -0.5392
 2998SOL    HW120630   1.694   2.346   0.668  1.1113 -0.5148 -1.4797
 2998SOL    HW220631   1.647   2.236   0.580  1.6655 -2.4786 -0.5468
 2999SOL     OW20632   4.353   4.009   1.756  0.0278  0.2603 -0.5223
 2999SOL    HW120633   4.259   3.994   1.761  0.1545 -0.3998 -0.1309
 2999SOL    HW220634   4.363   4.070   1.829 -2.1752 -0.0730  0.0702
 3000SOL     OW20635   2.945   2.247   2.231 -0.1605  0.1688  0.2939
 3000SOL    HW120636   2.893   2.222   2.155 -2.4676  0.4071  1.7810
 3000SOL    HW220637   2.999   2.169   2.242 -2.3231 -1.0075  2.5988
 3001SOL     OW20638   0.995   4.724  12.777 -0.1343 -0.0694 -0.1171
 3001SOL    HW120639   1.004   0.081  12.796 -0.9447 -0.1945  0.8399
 3001SOL    HW220640   1.021   4.683  12.859 -2.3326 -0.3889  0.4002
 3002SOL     OW20641   4.205   2.634   3.017 -0.4180 -0.2537  0.1315
 3002SOL    HW120642   4.287   2.595   3.048  0.2279  1.9375  1.1559
 3002SOL    HW220643   4.177   2.563   2.958 -1.1080  0.3094 -0.2181
 3003SOL     OW20644   1.869   3.236   1.589 -0.0139  0.4474  0.1645
 3003SOL    HW120645   1.898   3.149   1.561 -0.6659  0.1015  0.5597
 3003SOL    HW220646   1.949   3.284   1.566 -0.2712  0.5166 -0.5655
 3004SOL     OW20647   2.249   0.922   2.741  0.6885  0.3326 -0.4318
 3004SOL    HW120648   2.240   1.015   2.719 -2.6597  0.5545  2.0310
 3004SOL    HW220649   2.162   0.902   2.774  0.5387  1.4079 -0.1778
 3005SOL     OW20650   0.818   4.725  17.185 -0.2694 -0.1857 -0.1027
 3005SOL    HW120651   0.756   0.061  17.180 -0.5497 -0.3330  1.1661
 3005SOL    HW220652   0.836   4.720  17.279 -2.0558 -0.5672  0.2218
 3006SOL     OW20653   1.512   0.975   5.044 -0.1490 -0.8202 -0.1475
 3006SOL    HW120654   1.489   0.882   5.048  3.3672 -1.5528  3.1552
 3006SOL    HW220655   1.518   0.979   5.139 -0.3143 -0.4212 -0.1585
 3007SOL     OW20656   4.119   4.675   3.691 -0.2165  0.3005 -0.2395
 3007SOL    HW120657   4.198   4.699   3.643  0.2801  1.5537  1.1802
 3007SOL    HW220658   4.149   4.587   3.713  0.4661  0.1377 -1.8457
 3008SOL     OW20659   3.096   1.631   0.389 -0.2537 -0.3281  0.2896
 3008SOL    HW120660   3.131   1.672   0.310 -2.3439 -1.3181 -1.1487
 3008SOL    HW220661   3.170   1.648   0.446  1.1603 -2.0475 -1.0210
 3009SOL     OW20662   3.235   0.054   9.261 -0.1119  0.1345  0.3252
 3009SOL    HW120663   3.186   0.099   9.192  1.0707 -1.2431 -1.4111
 3009SOL    HW220664   3.167   0.061   9.328  0.7473 -0.4551  1.2609
 3010SOL     OW20665   4.532   3.793   4.405  0.4823  0.0275  0.2445
 3010SOL    HW120666   4.562   3.751   4.485  0.7467  1.4105  0.8743
 3010SOL    HW220667   4.569   3.734   4.338  2.6295  0.1315  1.3469
 3011SOL     OW20668   2.094   4.331   7.670 -0.0844  0.5567 -0.4071
 3011SOL    HW120669   2.072   4.294   7.756  0.3273  0.3656 -0.3814
 3011SOL    HW220670   2.148   4.409   7.685  0.8175  0.0561 -1.0718
 3012SOL     OW20671   3.899   1.606   5.178 -0.3393 -0.7702  0.7655
 3012SOL    HW120672   3.911   1.657   5.258  4.7483 -1.7272  0.5566
 3012SOL    HW220673   3.875   1.517   5.204 -2.8013 -0.0037  1.1456
 3013SOL     OW20674   4.430   3.213   5.206 -0.4308  0.4726 -0.6916
 3013SOL    HW120675   4.404   3.168   5.286  1.9120 -2.3017 -1.4540
 3013SOL    HW220676   4.352   3.266   5.192 -0.0659  1.5418  1.3414
 3014SOL     OW20677   3.765   2.328   6.476  0.4440 -0.1922  0.5123
 3014SOL    HW120678   3.783   2.261   6.541  1.4938 -2.5025 -2.2125
 3014SOL    HW220679   3.834   2.390   6.502 -0.7742  0.8900  1.2362
 3015SOL     OW20680   3.675   2.123   5.311 -0.2334  0.0467 -0.6848
 3015SOL    HW120681   3.622   2.050   5.280 -0.0531 -0.0547 -0.7506
 3015SOL    HW220682   3.688   2.173   5.230 -0.5898 -0.7037 -1.1989
 3016SOL     OW20683   0.166   4.541  14.582 -0.0507 -0.5100  0.0702
 3016SOL    HW120684   0.255   4.529  14.548  0.3545  0.2659  0.8707
 3016SOL    HW220685   0.147   4.451  14.609 -2.9572  0.6430  1.7774
 3017SOL     OW20686   1.151   2.606   0.370 -0.1911 -0.2211  0.3568
 3017SOL    HW120687   1.173   2.518   0.339  0.5218 -0.2490  0.9730
 3017SOL    HW220688   1.231   2.656   0.355 -0.7445  0.3138 -0.8188
 3018SOL     OW20689   2.575   3.201   9.000 -0.3073 -0.3312  0.2978
 3018SOL    HW120690   2.661   3.173   9.030  0.3407  0.3900 -0.8895
 3018SOL    HW220691   2.520   3.123   8.995  0.2791 -0.7373  0.2008
 3019SOL     OW20692   2.982   0.973   2.592 -0.1809  0.0426 -0.1815
 3019SOL    HW120693   3.023   1.052   2.627 -0.5196 -1.2376  3.0929
 3019SOL    HW220694   2.904   1.012   2.554 -1.4304 -0.2883  2.0902
 3020SOL     OW20695   0.728   0.248   6.794 -0.1156 -0.6039 -0.2533
 3020SOL    HW120696   0.711   0.329   6.746  0.1660 -0.3275  0.1147
 3020SOL    HW220697   0.799   0.276   6.851  0.2922  2.9663 -2.5374
 3021SOL     OW20698   2.507   2.896   2.484  0.0813 -0.3761  0.1618
 3021SOL    HW120699   2.532   2.908   2.576  1.4149 -1.0757 -0.0969
 3021SOL    HW220700   2.589   2.862   2.447  0.9521  0.5773  1.2309
 3022SOL     OW20701   0.012   4.715   2.957  0.3229 -0.2232 -0.0488
 3022SOL    HW120702   0.082   0.034   2.923  0.1517 -0.4482 -0.7713
 3022SOL    HW220703   0.039   4.706   3.048  0.5084  2.2358  0.1266
 3023SOL     OW20704   3.122   0.062   3.421 -0.1699 -0.0598 -0.3378
 3023SOL    HW120705   3.187   0.133   3.421  0.4395 -0.6007 -1.4959
 3023SOL    HW220706   3.069   0.089   3.346 -0.5955  0.7408  0.2538
 3024SOL     OW20707   3.127   2.523  13.062 -0.3741 -0.0362 -0.2705
 3024SOL    HW120708   3.060   2.468  13.101  1.2951 -0.8452  1.4712
 3024SOL    HW220709   3.079   2.604  13.074  1.1282  0.9345 -0.7837
 3025SOL     OW20710   4.049   0.041   3.210  0.1127 -0.1713  0.3181
 3025SOL    HW120711   4.118   0.096   3.246 -0.1400  1.5302 -1.8441
 3025SOL    HW220712   4.066   4.690   3.247  0.7568  0.0713  0.5990
 3026SOL     OW20713   3.572   3.137   3.721  0.1347 -0.0162  0.7542
 3026SOL    HW120714   3.539   3.069   3.779 -1.8425 -0.0660 -0.4344
 3026SOL    HW220715   3.492   3.180   3.690 -0.4979 -0.8208  1.2714
 3027SOL     OW20716   3.499   0.479   7.359 -0.1304  0.2969  0.0768
 3027SOL    HW120717   3.467   0.475   7.449 -0.2299 -0.3390  0.0167
 3027SOL    HW220718   3.546   0.562   7.363 -0.6060  0.6711 -1.9077
 3028SOL     OW20719   1.970   3.598   9.826 -0.5824  0.1642  0.7531
 3028SOL    HW120720   2.047   3.654   9.830 -0.3723 -0.0726 -0.0298
 3028SOL    HW220721   1.912   3.651   9.772 -2.9323 -0.2438  2.8505
 3029SOL     OW20722   3.739   1.887   2.356 -0.3719  0.3703 -0.1767
 3029SOL    HW120723   3.768   1.976   2.334  1.6203 -0.2064  0.0743
 3029SOL    HW220724   3.718   1.850   2.270  0.8383  1.1919 -0.8371
 3030SOL     OW20725   0.370   2.404   8.557  0.3006  0.4162 -0.4945
 3030SOL    HW120726   0.379   2.430   8.465 -0.6629 -1.4188 -1.0947
 3030SOL    HW220727   0.284   2.362   8.557  1.5797 -2.1872  0.6711
 3031SOL     OW20728   4.060   2.439   4.552  0.1781 -0.1024  0.0653
 3031SOL    HW120729   4.127   2.417   4.489  0.3818 -0.2642  0.3417
 3031SOL    HW220730   3.984   2.422   4.495  1.2200 -0.3844 -1.2375
 3032SOL     OW20731   2.722   0.344   9.529 -0.3987  0.1858  0.2638
 3032SOL    HW120732   2.797   0.335   9.588  0.6974  0.6842 -1.0428
 3032SOL    HW220733   2.770   0.332   9.447 -1.7056 -0.4536 -0.4166
 3033SOL     OW20734   3.790   2.263  14.426  0.3447  0.3095  0.4629
 3033SOL    HW120735   3.788   2.168  14.439 -0.5617  0.1188 -1.0255
 3033SOL    HW220736   3.748   2.261  14.339  0.4094  1.0263  0.4158
 3034SOL     OW20737   3.831   3.126   3.151 -0.2015 -0.2955 -0.1986
 3034SOL    HW120738   3.792   3.105   3.236 -0.5322 -0.0652 -0.2916
 3034SOL    HW220739   3.791   3.060   3.093  1.0215  0.5731 -2.0104
 3035SOL     OW20740   3.502   2.690   0.798 -0.0292  0.1962 -0.7528
 3035SOL    HW120741   3.439   2.746   0.843  0.0783  1.2987 -1.9691
 3035SOL    HW220742   3.582   2.730   0.832 -1.3122  1.8303  0.3793
 3036SOL     OW20743   1.197   3.868  14.915  0.0732 -0.2121  0.2264
 3036SOL    HW120744   1.210   3.803  14.846  0.4265 -2.4714  2.4274
 3036SOL    HW220745   1.119   3.910  14.879  0.7564 -1.4222 -2.7326
 3037SOL     OW20746   0.391   4.456  14.465 -0.0819 -0.0661 -0.4695
 3037SOL    HW120747   0.422   4.460  14.375  0.1560 -0.4493 -0.4071
 3037SOL    HW220748   0.367   4.363  14.471 -1.5585  0.2014 -2.5634
 3038SOL     OW20749   4.557   2.605  17.346  0.1956  0.2079 -0.9203
 3038SOL    HW120750   4.512   2.601  17.431  1.8735 -2.2699 -0.1487
 3038SOL    HW220751   4.498   2.659  17.295 -2.2984  0.5574  2.3325
 3039SOL     OW20752   0.220   3.842  14.640  0.0769  0.1726  0.3754
 3039SOL    HW120753   0.187   3.926  14.609  0.3022 -0.8709 -2.7363
 3039SOL    HW220754   0.315   3.854  14.646 -0.0326  1.3703 -0.4122
 3040SOL     OW20755   0.124   1.356   3.580  0.0969  0.7788  0.4582
 3040SOL    HW120756   0.111   1.263   3.561  0.7202  1.2675 -2.4251
 3040SOL    HW220757   0.209   1.357   3.623  0.6010  1.1455 -0.5385
 3041SOL     OW20758   0.677   3.765  16.928  0.0673 -0.0284  0.1518
 3041SOL    HW120759   0.718   3.690  16.971  0.5190 -0.5895 -1.2545
 3041SOL    HW220760   0.693   3.735  16.838 -0.9840  1.8059 -0.6329
 3042SOL     OW20761   4.237   3.664   7.411  0.1180 -0.3387 -0.4554
 3042SOL    HW120762   4.146   3.659   7.380  0.4277  1.4206 -1.6432
 3042SOL    HW220763   4.222   3.714   7.491  1.6875  2.5514 -1.9928
 3043SOL     OW20764   3.897   1.835   8.559 -0.4135 -0.0918  0.6250
 3043SOL    HW120765   3.916   1.750   8.599  3.1053  1.5018  2.3233
 3043SOL    HW220766   3.895   1.888   8.639 -0.2093 -1.2988  1.4153
 3044SOL     OW20767   1.352   1.640   3.839  0.0189 -0.3024  0.6008
 3044SOL    HW120768   1.279   1.666   3.896  0.9824  0.2260  1.5854
 3044SOL    HW220769   1.319   1.679   3.757  0.6528 -0.8803  0.0744
 3045SOL     OW20770   3.015   0.979   6.992 -0.4899 -0.2119 -0.3387
 3045SOL    HW120771   2.999   1.064   6.949 -0.6972  0.9163  1.9473
 3045SOL    HW220772   2.928   0.939   6.992  0.7773 -2.9360 -0.7649
 3046SOL     OW20773   0.653   2.815   7.571 -0.4109 -0.8887 -0.3121
 3046SOL    HW120774   0.618   2.742   7.622 -2.5290  0.8621  0.7393
 3046SOL    HW220775   0.741   2.821   7.607  0.2553  1.4029 -2.3513
 3047SOL     OW20776   0.087   2.688   2.995  0.3959 -0.2927 -0.2489
 3047SOL    HW120777   0.175   2.651   2.984  0.8647  0.1821  1.8583
 3047SOL    HW220778   0.104   2.740   3.074 -2.3772 -1.1099  0.8755
 3048SOL     OW20779   0.629   2.080  17.168  0.2148  0.0480  0.7979
 3048SOL    HW120780   0.582   2.154  17.130 -0.9886 -1.5666 -0.8781
 3048SOL    HW220781   0.569   2.053  17.237  0.3853 -1.7951  0.2487
 3049SOL     OW20782   3.597   3.980   8.025 -0.1904  0.8489 -0.1748
 3049SOL    HW120783   3.669   4.024   7.980  1.4356 -0.4076  1.2121
 3049SOL    HW220784   3.562   3.939   7.946  0.4235  0.4364 -0.2310
 3050SOL     OW20785   0.778   2.831   6.623 -0.0374  0.3420  0.3110
 3050SOL    HW120786   0.753   2.741   6.645  1.6608 -0.6749 -1.8039
 3050SOL    HW220787   0.802   2.864   6.710  0.0898  0.7673  0.1153
 3051SOL     OW20788   1.683   0.912   5.781  0.3269  0.0213 -0.2770
 3051SOL    HW120789   1.627   0.946   5.852  0.3085 -0.6349  0.0208
 3051SOL    HW220790   1.691   0.818   5.792  1.9307  0.2859  0.7360
 3052SOL     OW20791   2.369   1.606   8.825 -0.5910  0.3794  0.2538
 3052SOL    HW120792   2.379   1.616   8.919 -0.6984  1.9203  0.1036
 3052SOL    HW220793   2.384   1.697   8.797 -0.7810  0.7943  1.5172
 3053SOL     OW20794   3.328   3.557   2.831 -0.3836 -0.2099  0.2193
 3053SOL    HW120795   3.335   3.477   2.884  0.3823 -0.7339 -0.6731
 3053SOL    HW220796   3.285   3.526   2.751 -1.6519 -0.4152  0.9749
 3054SOL     OW20797   2.256   0.180  13.383  0.5161 -0.1401 -0.2685
 3054SOL    HW120798   2.338   0.172  13.334  1.0193  0.2204  0.5039
 3054SOL    HW220799   2.210   0.256  13.349  1.4946  0.7432  0.4004
 3055SOL     OW20800   0.465   0.284   3.861 -0.4912  0.0746 -0.0064
 3055SOL    HW120801   0.558   0.306   3.872 -0.2439 -0.3270 -1.1928
 3055SOL    HW220802   0.467   0.195   3.896 -0.1319  0.6683  1.4734
 3056SOL     OW20803   0.677   2.348   7.484 -0.0647  0.2206 -0.9344
 3056SOL    HW120804   0.657   2.420   7.424  1.4678  0.4286 -1.2017
 3056SOL    HW220805   0.592   2.322   7.518 -0.2249  0.0470 -1.4661
 3057SOL     OW20806   3.698   4.161  10.712 -0.6900  0.2367 -0.4781
 3057SOL    HW120807   3.720   4.230  10.649 -1.2314 -0.0072 -0.9296
 3057SOL    HW220808   3.726   4.209  10.790 -0.7057 -0.2537 -0.1726
 3058SOL     OW20809   3.399   0.846   4.963 -0.1217  0.3126 -0.3307
 3058SOL    HW120810   3.385   0.870   5.055  0.6225 -1.7948  0.3352
 3058SOL    HW220811   3.477   0.896   4.940  0.8481  0.4615  3.2872
 3059SOL     OW20812   3.716   1.835   7.687 -0.0129  0.3577 -0.1793
 3059SOL    HW120813   3.705   1.876   7.773  0.0291 -2.3931  1.1456
 3059SOL    HW220814   3.632   1.789   7.686  0.3404 -0.3464  1.6231
 3060SOL     OW20815   1.138   2.395   3.640  0.0829  0.7543 -0.2903
 3060SOL    HW120816   1.075   2.386   3.568  0.3785  1.5773 -0.6432
 3060SOL    HW220817   1.201   2.456   3.601  1.1237 -1.4016 -1.9611
 3061SOL     OW20818   2.648   3.122   8.644 -0.2215  0.2832  0.3576
 3061SOL    HW120819   2.593   3.189   8.604  0.6087 -0.7852 -2.6036
 3061SOL    HW220820   2.670   3.071   8.566 -0.9058 -0.4731  0.6621
 3062SOL     OW20821   0.510   4.412   6.903  0.4796  0.2378  0.0606
 3062SOL    HW120822   0.601   4.411   6.874 -0.2891  0.8116 -2.3767
 3062SOL    HW220823   0.505   4.322   6.935  0.2304  0.7210  1.3749
 3063SOL     OW20824   1.621   4.321   7.297 -0.2683  0.4496 -0.1404
 3063SOL    HW120825   1.705   4.361   7.276 -0.3686  0.9831  0.4719
 3063SOL    HW220826   1.630   4.317   7.392  3.2859  2.8030 -0.4024
 3064SOL     OW20827   0.946   0.696  12.981 -0.2515  0.5631 -0.3995
 3064SOL    HW120828   0.942   0.755  13.057  0.1999  1.6427 -1.2057
 3064SOL    HW220829   1.028   0.724  12.939  0.2707  1.0117  0.9100
 3065SOL     OW20830   1.130   2.574   8.343  0.0260 -0.6476 -0.1699
 3065SOL    HW120831   1.145   2.498   8.399 -0.7979 -1.0817 -0.5412
 3065SOL    HW220832   1.191   2.634   8.386 -1.1467  0.1331  0.3888
 3066SOL     OW20833   3.385   3.909   8.631  0.1898  0.5946 -0.1333
 3066SOL    HW120834   3.452   3.938   8.569  1.8365  0.0280  1.3854
 3066SOL    HW220835   3.401   3.968   8.704  0.3077  0.0057  0.3199
 3067SOL     OW20836   1.947   3.305  13.341  0.0926 -0.0174 -0.0788
 3067SOL    HW120837   1.893   3.381  13.319  1.5904  0.9862 -0.2535
 3067SOL    HW220838   2.035   3.339  13.325 -0.7843  3.0504  1.5500
 3068SOL     OW20839   3.993   3.315   3.534  0.2704  0.0467  0.0617
 3068SOL    HW120840   3.931   3.258   3.489  1.6982 -0.8318 -0.7941
 3068SOL    HW220841   4.002   3.269   3.618  0.6633  0.3660  0.1958
 3069SOL     OW20842   4.396   4.340   2.532  0.2088 -0.6144  0.3467
 3069SOL    HW120843   4.308   4.366   2.506  0.6112  1.0258  0.5584
 3069SOL    HW220844   4.384   4.360   2.625  1.8864 -1.4633  0.7425
 3070SOL     OW20845   3.297   2.374   2.832 -0.0979 -0.1741 -0.1437
 3070SOL    HW120846   3.275   2.427   2.755 -0.8669  0.8390  0.7668
 3070SOL    HW220847   3.267   2.431   2.902 -1.8522  2.1236 -2.7460
 3071SOL     OW20848   2.074   2.454  15.149  0.1631 -0.3816 -0.6377
 3071SOL    HW120849   2.031   2.369  15.161 -0.2626  0.1601  1.5820
 3071SOL    HW220850   2.003   2.516  15.136  2.2559  1.4064 -3.5319
 3072SOL     OW20851   0.192   0.303   7.679 -0.1808 -0.7737 -0.4117
 3072SOL    HW120852   0.108   0.321   7.720 -1.8580 -0.6706 -3.9862
 3072SOL    HW220853   0.172   0.216   7.647 -1.7926 -1.2800  1.9954
 3073SOL     OW20854   0.353   1.311  14.758  0.0423  0.0551 -0.1372
 3073SOL    HW120855   0.439   1.310  14.800  0.1637  0.5476 -0.3671
 3073SOL    HW220856   0.346   1.403  14.731  0.2004  0.1237  0.0601
 3074SOL     OW20857   2.277   1.589   1.725 -0.1393  0.2629  0.1285
 3074SOL    HW120858   2.233   1.519   1.677  2.9122 -0.6810 -1.3142
 3074SOL    HW220859   2.269   1.657   1.659 -2.5063  2.2446  2.4602
 3075SOL     OW20860   0.120   2.118  17.112 -0.1239  0.0878 -0.1708
 3075SOL    HW120861   0.110   2.148  17.021 -0.2192 -1.2257 -0.5893
 3075SOL    HW220862   0.152   2.030  17.090 -2.9658 -0.7669 -0.8204
 3076SOL     OW20863   4.266   3.114   7.881  0.3592 -0.1536 -0.5870
 3076SOL    HW120864   4.177   3.127   7.848  0.1333 -2.8110 -1.0183
 3076SOL    HW220865   4.258   3.021   7.902 -0.7461 -0.0019 -0.3277
 3077SOL     OW20866   4.103   3.224   9.466  1.0242 -0.6712 -0.6105
 3077SOL    HW120867   4.039   3.294   9.482  0.0010 -1.2663 -2.0951
 3077SOL    HW220868   4.117   3.198   9.557 -2.8980  0.6018  0.3770
 3078SOL     OW20869   2.012   2.886   3.313 -0.3086  0.7107 -0.1337
 3078SOL    HW120870   1.931   2.835   3.320 -0.4147  0.4702 -3.2112
 3078SOL    HW220871   2.074   2.814   3.297 -0.4032  0.4118  0.8584
 3079SOL     OW20872   0.525   2.118   7.122  0.3576 -0.1425 -0.0737
 3079SOL    HW120873   0.458   2.184   7.140 -0.2227 -0.2582 -1.7216
 3079SOL    HW220874   0.584   2.127   7.196 -1.2739 -2.0926  1.4547
 3080SOL     OW20875   2.571   1.717   2.540 -0.0535  0.2074  0.2624
 3080SOL    HW120876   2.559   1.651   2.472 -0.5180  0.1758  0.3751
 3080SOL    HW220877   2.558   1.801   2.496  1.4157 -0.0346 -0.6362
 3081SOL     OW20878   4.433   1.312  14.244  0.7229 -0.2255  0.7552
 3081SOL    HW120879   4.525   1.289  14.250  0.7368  0.0757  1.7628
 3081SOL    HW220880   4.412   1.358  14.326 -1.7595  2.1843 -1.2282
 3082SOL     OW20881   1.461   2.640  11.305  0.0404  0.2089 -0.1130
 3082SOL    HW120882   1.495   2.677  11.223  1.7493  0.3222  0.6388
 3082SOL    HW220883   1.547   2.612  11.335 -0.2162 -0.4528  0.0040
 3083SOL     OW20884   3.568   2.125   7.747  0.2875 -0.4981  0.6215
 3083SOL    HW120885   3.491   2.087   7.706 -1.9801  1.9565  2.6102
 3083SOL    HW220886   3.587   2.066   7.820  0.8248  0.2923  1.1124
 3084SOL     OW20887   2.618   0.245   1.451  0.2154 -0.2526 -0.7076
 3084SOL    HW120888   2.638   0.153   1.470  1.9364  0.4655  1.0362
 3084SOL    HW220889   2.544   0.238   1.392 -0.6091  1.0716  0.1716
 3085SOL     OW20890   3.600   3.373   3.137 -0.0273  0.2641  0.0990
 3085SOL    HW120891   3.680   3.323   3.120 -0.4561 -0.5383  0.4761
 3085SOL    HW220892   3.599   3.431   3.061 -0.1667  0.4523  0.2448
 3086SOL     OW20893   3.294   1.051   0.772 -0.3686  0.6931 -0.7626
 3086SOL    HW120894   3.207   1.033   0.806  0.0178 -1.0010 -0.6789
 3086SOL    HW220895   3.329   0.962   0.767 -0.7891  0.4311  1.3257
 3087SOL     OW20896   0.367   4.674  12.941 -0.4534 -0.2150 -0.2697
 3087SOL    HW120897   0.273   4.689  12.953 -0.4907  0.2180 -1.1170
 3087SOL    HW220898   0.383   4.619  13.018  1.8033  0.2284 -0.4454
 3088SOL     OW20899   0.506   2.945   6.732  0.3238  0.1440  0.0158
 3088SOL    HW120900   0.568   2.888   6.688 -2.1688 -2.2568 -0.4224
 3088SOL    HW220901   0.511   3.030   6.688  0.7077  0.2032  0.1816
 3089SOL     OW20902   1.312   0.773   7.334 -0.3819 -0.3032  0.2081
 3089SOL    HW120903   1.293   0.712   7.405 -0.3501 -1.1034 -0.4814
 3089SOL    HW220904   1.354   0.837   7.393  0.9638 -0.8164 -0.1870
 3090SOL     OW20905   2.783   1.132  15.867 -0.5974  0.0268  0.5238
 3090SOL    HW120906   2.817   1.217  15.839  3.0395 -1.4830  0.3356
 3090SOL    HW220907   2.688   1.142  15.860 -0.9550 -0.9581  4.0940
 3091SOL     OW20908   4.443   2.243   0.488  0.2763 -0.2302 -0.5499
 3091SOL    HW120909   4.363   2.214   0.533  1.0027 -0.7159  0.4034
 3091SOL    HW220910   4.496   2.279   0.558  0.4063 -2.3691  0.4573
 3092SOL     OW20911   4.668   1.266  11.600  0.7083 -0.3903  0.2575
 3092SOL    HW120912   0.015   1.294  11.637  0.7491  0.8710 -0.7704
 3092SOL    HW220913   4.602   1.274  11.669  0.6428 -0.6521  0.2235
 3093SOL     OW20914   1.132   2.354  11.603 -0.3543  0.0150  0.3708
 3093SOL    HW120915   1.085   2.271  11.602  2.1636 -1.3898 -2.0610
 3093SOL    HW220916   1.060   2.412  11.630 -1.9261 -1.7210 -0.0597
 3094SOL     OW20917   1.721   1.185   0.681  0.2629  0.5185  0.6059
 3094SOL    HW120918   1.673   1.169   0.600  1.8248 -1.7289  0.1319
 3094SOL    HW220919   1.651   1.165   0.743  0.7406 -1.3198  0.5560
 3095SOL     OW20920   4.357   1.681   1.678  0.0724  0.6579 -0.5035
 3095SOL    HW120921   4.445   1.694   1.714 -1.0816 -0.8347  2.8739
 3095SOL    HW220922   4.313   1.759   1.712 -0.8174  0.4795 -1.2259
 3096SOL     OW20923   3.715   2.270   3.585 -0.5495 -0.1316 -0.2845
 3096SOL    HW120924   3.696   2.363   3.595  2.1214  0.3842 -0.0447
 3096SOL    HW220925   3.630   2.231   3.564 -1.2931  0.5632  1.4177
 3097SOL     OW20926   3.253   3.991   5.020 -0.5179  0.3567  0.5263
 3097SOL    HW120927   3.248   3.953   4.933  0.4272 -1.7608  1.3966
 3097SOL    HW220928   3.274   4.081   4.997 -0.9707 -0.0652 -1.5068
 3098SOL     OW20929   2.180   2.436   5.132 -0.0300 -0.2684 -0.2469
 3098SOL    HW120930   2.115   2.371   5.105 -0.3283 -0.4834  0.9653
 3098SOL    HW220931   2.258   2.381   5.137 -1.1847 -1.7801  1.4141
 3099SOL     OW20932   4.303   1.829   9.603 -0.4201  0.2052 -0.1983
 3099SOL    HW120933   4.298   1.734   9.616  0.3099  0.1008 -0.7160
 3099SOL    HW220934   4.355   1.836   9.523  1.3207  1.2308  1.0244
 3100SOL     OW20935   3.048   1.642   9.434 -0.0918  0.0405 -0.5098
 3100SOL    HW120936   3.075   1.732   9.417 -2.8375  1.0912  0.9343
 3100SOL    HW220937   2.953   1.650   9.441  0.0293  0.9622  0.0725
 3101SOL     OW20938   4.045   4.406  12.673  0.7526 -0.6142  0.1390
 3101SOL    HW120939   4.126   4.380  12.717  1.2102  0.1466 -0.2501
 3101SOL    HW220940   3.977   4.354  12.714  0.4679  2.7179  3.9530
 3102SOL     OW20941   4.231   4.026  15.380 -0.2138 -0.6690  0.3386
 3102SOL    HW120942   4.256   4.114  15.408 -2.2955 -0.3774  1.2522
 3102SOL    HW220943   4.303   3.981  15.426  1.7132  0.5636 -1.4875
 3103SOL     OW20944   4.364   3.093   5.445  0.0364  0.0958  0.4034
 3103SOL    HW120945   4.432   3.026   5.443 -1.2723 -1.1675 -0.8958
 3103SOL    HW220946   4.284   3.043   5.431  0.3222 -0.1106 -0.5170
 3104SOL     OW20947   4.190   1.245   6.928 -0.1821 -0.1720 -0.8803
 3104SOL    HW120948   4.155   1.278   6.845 -2.8195  1.5925  0.9353
 3104SOL    HW220949   4.182   1.312   6.996 -1.4603  0.2729 -1.4702
 3105SOL     OW20950   0.615   1.366   3.915  0.0183 -0.0964 -0.2034
 3105SOL    HW120951   0.640   1.343   4.005 -0.1885 -1.5699 -0.5188
 3105SOL    HW220952   0.635   1.282   3.873  1.8797  0.5440 -0.5695
 3106SOL     OW20953   4.061   2.735   6.634  0.0455 -0.0563  0.3765
 3106SOL    HW120954   4.011   2.654   6.625  0.5127 -0.3179  0.1779
 3106SOL    HW220955   4.111   2.739   6.552  2.0239 -0.3042  1.5818
 3107SOL     OW20956   1.922   2.822   1.069  0.0846 -0.0548 -0.2817
 3107SOL    HW120957   1.989   2.832   1.001  1.4751 -2.5452  0.7562
 3107SOL    HW220958   1.969   2.848   1.149 -1.6068  1.6078  0.1743
 3108SOL     OW20959   0.586   3.395   7.499 -0.1496  0.2491 -0.2850
 3108SOL    HW120960   0.602   3.313   7.545  1.4837  1.1307  0.6900
 3108SOL    HW220961   0.506   3.420   7.546 -0.0402 -0.8948  0.5152
 3109SOL     OW20962   0.989   0.919  16.503  0.1282  0.0407 -0.2303
 3109SOL    HW120963   1.058   0.970  16.545 -0.5159 -1.1970  2.3286
 3109SOL    HW220964   1.023   0.831  16.518  0.0841  0.1710  0.6129
 3110SOL     OW20965   2.598   4.582   6.834 -0.2988  0.5255 -0.5884
 3110SOL    HW120966   2.581   4.525   6.759 -1.8459  0.7375 -0.4008
 3110SOL    HW220967   2.521   4.639   6.832 -0.0741  0.8208 -0.6286
 3111SOL     OW20968   3.492   1.357   3.396  0.0086  0.2479 -0.3115
 3111SOL    HW120969   3.580   1.321   3.398  0.0227  0.3220  1.0154
 3111SOL    HW220970   3.491   1.385   3.488 -2.6349  1.7278 -0.7837
 3112SOL     OW20971   3.828   4.468   1.752 -0.0489 -0.3560 -0.0264
 3112SOL    HW120972   3.875   4.551   1.743 -0.5869 -0.0312  0.1317
 3112SOL    HW220973   3.845   4.420   1.671 -0.6939  0.5801 -0.7230
 3113SOL     OW20974   2.059   1.763   3.274 -0.0178 -0.4037 -0.6168
 3113SOL    HW120975   2.020   1.677   3.288 -1.4134  0.3214 -0.0230
 3113SOL    HW220976   2.035   1.768   3.181  3.3618 -0.0182 -1.4676
 3114SOL     OW20977   2.452   3.571  15.584  0.2825  0.3045  0.5500
 3114SOL    HW120978   2.361   3.591  15.604 -0.1597  0.8100 -2.0426
 3114SOL    HW220979   2.453   3.484  15.624  1.2175  0.4545  0.8626
 3115SOL     OW20980   4.309   2.879   3.065  0.5861 -0.0004 -0.0671
 3115SOL    HW120981   4.262   2.797   3.051  0.4200 -0.2086  1.7311
 3115SOL    HW220982   4.237   2.931   3.099  0.6175  0.9513 -1.4406
 3116SOL     OW20983   0.055   4.207   7.936 -0.1738 -0.4149  0.1963
 3116SOL    HW120984   4.722   4.262   7.900 -0.4864 -2.1492 -1.8011
 3116SOL    HW220985   0.118   4.277   7.954  0.3681 -0.5343 -1.2598
 3117SOL     OW20986   2.099   0.823   5.341 -0.2914 -0.7695 -0.2926
 3117SOL    HW120987   2.045   0.852   5.414  1.8084  0.6431  0.6844
 3117SOL    HW220988   2.165   0.776   5.392  0.6094  1.7062  0.7994
 3118SOL     OW20989   0.390   0.981   8.451  0.0863  0.2976 -0.1962
 3118SOL    HW120990   0.462   0.939   8.404 -0.6438  0.8321 -1.7884
 3118SOL    HW220991   0.317   0.932   8.415 -0.8983  2.2261 -0.8102
 3119SOL     OW20992   2.607   4.250   5.821 -0.1034 -0.0571  0.1850
 3119SOL    HW120993   2.628   4.217   5.908 -0.0135 -0.5744 -0.0336
 3119SOL    HW220994   2.540   4.184   5.802  2.3551 -2.3174 -0.6798
 3120SOL     OW20995   1.341   1.729   8.122  0.1733 -0.0525 -0.6881
 3120SOL    HW120996   1.282   1.732   8.047 -2.2572 -0.9237  1.2097
 3120SOL    HW220997   1.304   1.801   8.172 -1.1406 -0.9625 -0.3420
 3121SOL     OW20998   2.446   3.279   2.683  0.1089 -0.2578 -0.4535
 3121SOL    HW120999   2.426   3.216   2.751 -0.2853  1.7554  1.2905
 3121SOL    HW221000   2.542   3.283   2.686  0.0636  1.1068 -0.4308
 3122SOL     OW21001   0.809   4.392   7.391 -0.0982 -0.8041  0.5259
 3122SOL    HW121002   0.819   4.305   7.431 -3.4927 -1.0670  0.8436
 3122SOL    HW221003   0.714   4.406   7.381  0.1419  2.2875  2.6538
 3123SOL     OW21004   0.697   1.900  15.091 -0.7604 -0.1327 -0.3607
 3123SOL    HW121005   0.680   1.919  14.999  0.0525  1.5638 -0.1685
 3123SOL    HW221006   0.609   1.904  15.128 -0.2933  2.1426  0.4941
 3124SOL     OW21007   3.961   1.916   2.182 -0.4088  0.4196  0.0032
 3124SOL    HW121008   4.054   1.904   2.163 -0.6772  1.3396 -1.8181
 3124SOL    HW221009   3.929   1.976   2.115 -1.6200 -1.0751 -0.7660
 3125SOL     OW21010   4.699   0.378   7.798 -0.3372  0.1045 -0.3438
 3125SOL    HW121011   4.615   0.343   7.769 -0.6478  1.6380 -1.3338
 3125SOL    HW221012   4.709   0.331   7.880  3.2224 -1.3864 -1.6583
 3126SOL     OW21013   1.580   1.260   8.829 -0.5352  0.1758  0.4065
 3126SOL    HW121014   1.505   1.224   8.781  0.5512 -0.1866 -1.0286
 3126SOL    HW221015   1.606   1.336   8.778 -0.0065 -0.1600  0.1712
 3127SOL     OW21016   2.873   2.474   5.626 -0.0765 -0.2014  0.3840
 3127SOL    HW121017   2.849   2.471   5.718  0.0156  1.4158  0.4537
 3127SOL    HW221018   2.965   2.502   5.631  0.3880 -1.1833 -2.7726
 3128SOL     OW21019   2.100   0.699   9.453  0.4903  0.2696  0.1660
 3128SOL    HW121020   2.150   0.636   9.401 -1.8960 -0.8737 -0.7436
 3128SOL    HW221021   2.068   0.641   9.522 -0.2735 -0.8353 -1.1174
 3129SOL     OW21022   3.633   3.546   2.913  0.1425 -0.1015  0.4499
 3129SOL    HW121023   3.681   3.608   2.858  1.1558 -1.6477 -0.4042
 3129SOL    HW221024   3.545   3.559   2.878 -0.2564 -0.0390  1.4663
 3130SOL     OW21025   2.471   3.121   4.654  0.0258 -0.1664 -0.1315
 3130SOL    HW121026   2.524   3.096   4.578 -0.2776  0.5435 -0.5777
 3130SOL    HW221027   2.389   3.146   4.611 -0.2798 -0.0702  0.5027
 3131SOL     OW21028   1.736   2.924  11.906  0.1893 -0.2807 -0.1326
 3131SOL    HW121029   1.734   2.878  11.991 -0.3041  0.9625  0.5190
 3131SOL    HW221030   1.754   3.015  11.926  1.4597 -0.5563  0.0114
 3132SOL     OW21031   2.036   2.055  10.328  0.0391  0.0769  0.1922
 3132SOL    HW121032   2.095   1.984  10.352  0.5331  1.1599  2.1777
 3132SOL    HW221033   1.949   2.015  10.334 -1.2342  2.8295  0.4157
 3133SOL     OW21034   2.439   1.539   1.944  0.1244 -0.1153  0.1332
 3133SOL    HW121035   2.380   1.569   1.875  2.2354 -1.9055 -2.4649
 3133SOL    HW221036   2.424   1.445   1.934  0.8166 -0.1054 -1.0702
 3134SOL     OW21037   1.015   2.656   6.989 -0.2006 -0.1461  0.0347
 3134SOL    HW121038   0.968   2.592   7.043  0.0323  0.4814  0.9743
 3134SOL    HW221039   1.104   2.658   7.024  1.3518 -1.3204 -3.7981
 3135SOL     OW21040   1.497   1.752   8.863  1.1699  0.2120  0.3751
 3135SOL    HW121041   1.445   1.771   8.941 -1.0624  0.0704 -1.0626
 3135SOL    HW221042   1.438   1.687   8.824 -0.3391  1.9679 -0.2639
 3136SOL     OW21043   0.297   0.046   8.388  0.4589 -0.1502 -0.1096
 3136SOL    HW121044   0.350   0.111   8.434  0.1620 -1.0076  1.4451
 3136SOL    HW221045   0.210   0.085   8.401  0.1156 -0.8181 -0.3844
 3137SOL     OW21046   2.254   3.919   9.586 -0.3417 -0.2332  0.0398
 3137SOL    HW121047   2.339   3.949   9.552  0.3849  0.5613  2.5500
 3137SOL    HW221048   2.202   3.999   9.595  0.0987  0.2046 -1.2785
 3138SOL     OW21049   4.197   4.415   1.662  0.0323  0.4800  0.2206
 3138SOL    HW121050   4.141   4.384   1.732  0.7361 -1.6186 -0.1413
 3138SOL    HW221051   4.258   4.468   1.714  2.9979 -2.4244 -0.3338
 3139SOL     OW21052   1.523   2.554   1.118 -0.1655 -0.7095  0.3260
 3139SOL    HW121053   1.561   2.580   1.034  0.1326  0.7243  0.9018
 3139SOL    HW221054   1.591   2.576   1.182  0.1583 -0.5003 -0.0854
 3140SOL     OW21055   0.357   0.954  16.916 -0.0826 -0.1473  0.2179
 3140SOL    HW121056   0.337   0.863  16.893  0.2888  0.5499 -2.9126
 3140SOL    HW221057   0.452   0.960  16.929 -0.2031  0.2619  0.8856
 3141SOL     OW21058   2.750   3.032   9.102  0.7322  0.1768  0.7032
 3141SOL    HW121059   2.718   2.942   9.091  0.8784  0.2962 -0.7021
 3141SOL    HW221060   2.811   3.029   9.175 -1.0515 -1.3229  2.1556
 3142SOL     OW21061   1.464   3.135   8.609  0.3203 -0.1645  0.6925
 3142SOL    HW121062   1.373   3.165   8.612  0.8359  1.5031 -0.0030
 3142SOL    HW221063   1.506   3.217   8.582 -2.6682  1.0482 -0.2777
 3143SOL     OW21064   2.200   0.932   9.360  0.5306  0.5620 -0.1079
 3143SOL    HW121065   2.178   0.959   9.449 -4.8124 -1.3273 -0.8006
 3143SOL    HW221066   2.156   0.847   9.348  0.7077  0.5350 -0.5801
 3144SOL     OW21067   0.526   0.471   0.856  0.6868  0.6150  0.0855
 3144SOL    HW121068   0.451   0.432   0.811  0.3947  0.8085  0.4049
 3144SOL    HW221069   0.588   0.398   0.854  0.2734  0.3554 -2.9017
 3145SOL     OW21070   3.613   4.571   2.365 -0.3584 -0.1434 -0.3429
 3145SOL    HW121071   3.605   4.656   2.320  1.4040  0.1897 -0.0017
 3145SOL    HW221072   3.700   4.588   2.400 -0.2654  1.1777 -1.1972
 3146SOL     OW21073   3.592   0.300   7.180 -0.4259  0.4449 -0.2523
 3146SOL    HW121074   3.554   0.365   7.238 -3.5728 -1.1624 -0.5271
 3146SOL    HW221075   3.525   0.232   7.191 -0.7382  0.1835 -3.5487
 3147SOL     OW21076   1.114   2.948   5.178 -0.0943  0.0219  0.3432
 3147SOL    HW121077   1.080   3.036   5.164  2.7952  1.0338 -0.4325
 3147SOL    HW221078   1.082   2.941   5.268 -0.5367 -2.3869 -0.0010
 3148SOL     OW21079   1.302   3.793   2.137  0.0374  0.0322  0.5687
 3148SOL    HW121080   1.391   3.785   2.172  1.2791  1.9187 -2.1721
 3148SOL    HW221081   1.290   3.888   2.140 -1.5627 -0.0900 -2.6486
 3149SOL     OW21082   0.431   4.704   6.250 -0.7263  0.2536 -0.0789
 3149SOL    HW121083   0.353   4.706   6.305 -1.4826 -1.5241 -1.0913
 3149SOL    HW221084   0.424   4.623   6.199  2.5114  0.0444 -0.2050
 3150SOL     OW21085   4.505   3.096   1.849 -0.3629  0.2968 -0.5222
 3150SOL    HW121086   4.547   3.150   1.782  0.1252 -0.5233 -0.8778
 3150SOL    HW221087   4.475   3.025   1.792 -1.7280  0.8816 -0.5123
 3151SOL     OW21088   2.583   1.431   6.545  0.5832  0.2560  0.2333
 3151SOL    HW121089   2.665   1.439   6.593 -0.1972 -4.1321  2.2888
 3151SOL    HW221090   2.553   1.521   6.559  2.4814  1.1027 -1.2008
 3152SOL     OW21091   1.159   2.100   5.198  0.1210 -0.2057 -0.3682
 3152SOL    HW121092   1.188   2.136   5.115 -0.3871 -2.8816 -1.7219
 3152SOL    HW221093   1.196   2.012   5.204  0.0752 -0.2217 -0.3082
 3153SOL     OW21094   1.984   4.078   5.064  0.0383 -0.1464 -0.2869
 3153SOL    HW121095   1.931   4.140   5.014  0.3348  0.6536  0.3973
 3153SOL    HW221096   2.032   4.130   5.127 -3.2563  1.6647  0.7181
 3154SOL     OW21097   4.032   0.102  17.689  0.4212 -0.5507  0.4836
 3154SOL    HW121098   4.110   0.057  17.721  1.9195  0.5109 -1.6749
 3154SOL    HW221099   4.062   0.149  17.611 -0.8715 -1.3355 -0.4985
 3155SOL     OW21100   3.558   4.321  10.065 -0.1351  0.1700  0.0665
 3155SOL    HW121101   3.603   4.246  10.103  1.4976  0.3927 -1.4072
 3155SOL    HW221102   3.525   4.355  10.148 -1.3138 -1.9154  0.4282
 3156SOL     OW21103   3.544   1.906   9.031  0.5230 -0.0713  0.2206
 3156SOL    HW121104   3.472   1.843   9.032  0.6889 -0.3147 -2.1850
 3156SOL    HW221105   3.596   1.873   8.957 -0.2080 -0.2051 -0.2376
 3157SOL     OW21106   2.312   0.063   4.587 -0.1130 -0.0216 -0.5774
 3157SOL    HW121107   2.270   0.103   4.511  0.4788  0.1108 -0.8365
 3157SOL    HW221108   2.398   0.055   4.546 -0.7539 -0.9392 -1.7468
 3158SOL     OW21109   4.677   3.225   3.690 -0.2805 -0.5123  0.5655
 3158SOL    HW121110   4.730   3.195   3.617 -0.9420 -0.0174 -0.1134
 3158SOL    HW221111   0.000   3.284   3.734 -0.4378  0.0771 -0.0193
 3159SOL     OW21112   0.605   2.607   5.022  0.3662 -0.0007 -0.0456
 3159SOL    HW121113   0.659   2.669   4.973  0.1412  0.9304  0.8949
 3159SOL    HW221114   0.577   2.661   5.096 -0.3809 -1.7600  0.9555
 3160SOL     OW21115   4.009   3.268   4.343 -0.9480 -0.0549  0.4742
 3160SOL    HW121116   4.017   3.363   4.341  0.7232 -0.2389 -1.4835
 3160SOL    HW221117   3.970   3.245   4.259 -0.5507 -1.4122  0.6474
 3161SOL     OW21118   3.667   0.048  12.697  0.3103  0.7920 -0.6691
 3161SOL    HW121119   3.634   4.697  12.675 -2.0544  2.2967 -3.0295
 3161SOL    HW221120   3.756   0.030  12.726 -0.3722 -1.5851 -0.0345
 3162SOL     OW21121   1.123   1.453   3.514  0.1184  0.1859  0.0443
 3162SOL    HW121122   1.209   1.411   3.509  0.3690  0.8339 -1.0596
 3162SOL    HW221123   1.059   1.389   3.482 -0.1086  0.9435 -1.0167
 3163SOL     OW21124   0.350   3.279   8.578  0.2436 -0.2573  0.4003
 3163SOL    HW121125   0.313   3.333   8.508  1.1210 -0.5610 -0.2973
 3163SOL    HW221126   0.295   3.201   8.583 -1.4966  0.9643  0.2243
 3164SOL     OW21127   2.732   1.787   4.361  0.7475 -0.1357  0.2653
 3164SOL    HW121128   2.639   1.765   4.365  1.0603 -1.1667  1.8396
 3164SOL    HW221129   2.762   1.755   4.446  0.4344 -0.8401  0.1117
 3165SOL     OW21130   0.995   2.465   9.894  0.5539  0.1507  0.4015
 3165SOL    HW121131   1.030   2.380   9.869 -2.0445 -0.1514 -2.2058
 3165SOL    HW221132   0.996   2.508   9.808 -0.4948 -1.7531 -0.5719
 3166SOL     OW21133   2.325   4.672   6.279  0.1188  0.0977 -0.5499
 3166SOL    HW121134   2.247   4.712   6.319  1.0293 -0.9014  2.2141
 3166SOL    HW221135   2.391   4.687   6.347 -0.5855  0.6667  0.0192
 3167SOL     OW21136   3.467   3.785  10.815  0.0452  0.1247  0.3747
 3167SOL    HW121137   3.511   3.858  10.859  0.3089 -0.8537  1.7132
 3167SOL    HW221138   3.411   3.754  10.886  0.0601 -1.7850 -0.4512
 3168SOL     OW21139   0.677   0.870   4.948 -0.2112 -0.0156 -0.1080
 3168SOL    HW121140   0.628   0.862   4.866  0.3716 -1.4572 -0.3171
 3168SOL    HW221141   0.676   0.963   4.970 -2.6157 -0.3827  1.3311
 3169SOL     OW21142   0.229   1.242   4.024 -0.3076 -0.7015 -0.3854
 3169SOL    HW121143   0.157   1.193   4.062 -0.8964 -0.5037 -1.2257
 3169SOL    HW221144   0.249   1.194   3.944  0.3091 -3.1298  1.2409
 3170SOL     OW21145   4.586   0.285  12.469 -0.2041  0.4069  0.5073
 3170SOL    HW121146   4.681   0.297  12.460 -0.1621 -0.0954  0.3140
 3170SOL    HW221147   4.548   0.372  12.454  1.1616  1.1364  1.2843
 3171SOL     OW21148   2.053   0.470  10.785 -0.5036 -0.5137 -0.3474
 3171SOL    HW121149   2.074   0.467  10.878 -2.8170 -0.6167  0.1616
 3171SOL    HW221150   2.144   0.482  10.756 -0.6690 -0.0511 -0.6768
 3172SOL     OW21151   4.205   1.258   2.807  0.1160 -0.1298  0.4226
 3172SOL    HW121152   4.210   1.238   2.713  2.5999 -0.6915  0.6692
 3172SOL    HW221153   4.146   1.331   2.827  0.6564  0.9303 -1.8172
 3173SOL     OW21154   1.289   2.997   3.546 -0.4695 -0.2282  0.2748
 3173SOL    HW121155   1.238   3.060   3.495 -0.5032  0.1940  0.8311
 3173SOL    HW221156   1.382   3.019   3.536 -0.6095  0.0413 -0.4256
 3174SOL     OW21157   0.078   0.687  12.441 -0.2758 -0.5173  0.5430
 3174SOL    HW121158   0.041   0.605  12.408 -0.9305  0.6867 -1.7549
 3174SOL    HW221159   0.171   0.664  12.439 -0.4357 -0.9713 -2.1748
 3175SOL     OW21160   0.025   2.523  10.973 -0.5983 -0.4503 -0.7318
 3175SOL    HW121161   4.669   2.543  10.986 -0.1107  0.2509  1.6619
 3175SOL    HW221162   0.064   2.608  10.955 -1.2293  0.1720  0.7999
 3176SOL     OW21163   4.123   0.133   9.234  0.8352  0.0071 -0.1827
 3176SOL    HW121164   4.105   0.039   9.245 -0.9346  0.4260  0.4061
 3176SOL    HW221165   4.201   0.147   9.289 -0.2398 -2.7236  2.0730
 3177SOL     OW21166   0.149   0.484   4.103 -0.2446 -0.2680 -0.5838
 3177SOL    HW121167   0.188   0.516   4.021 -1.5871  2.7834 -0.0290
 3177SOL    HW221168   0.077   0.546   4.114 -0.2237 -0.0882 -1.4150
 3178SOL     OW21169   4.265   0.119   0.529  0.1458  0.5161  0.2883
 3178SOL    HW121170   4.258   0.210   0.558  0.4233  0.7762 -0.4740
 3178SOL    HW221171   4.319   0.134   0.452  0.0251 -0.9909 -0.0843
 3179SOL     OW21172   2.643   2.047  12.329 -0.5911  0.8863  0.2912
 3179SOL    HW121173   2.585   2.036  12.253 -1.3359 -1.8312  1.2727
 3179SOL    HW221174   2.648   1.957  12.360  0.7816  0.9580  0.2534
 3180SOL     OW21175   2.052   2.323   3.781  0.2820 -0.5886 -0.4091
 3180SOL    HW121176   2.005   2.407   3.783  1.7057  0.1829  0.3455
 3180SOL    HW221177   2.045   2.297   3.689 -1.2558 -0.8674 -0.2239
 3181SOL     OW21178   2.799   0.328  15.402 -0.0350 -0.5910 -0.7110
 3181SOL    HW121179   2.886   0.295  15.423 -0.3244 -1.2056 -0.4740
 3181SOL    HW221180   2.804   0.412  15.448 -2.7271  0.5509 -2.4634
 3182SOL     OW21181   2.180   1.483   9.248  0.4999 -0.1898 -0.7020
 3182SOL    HW121182   2.141   1.407   9.206  0.2082  0.7100 -2.0633
 3182SOL    HW221183   2.231   1.436   9.314  0.2731  2.3394  1.2501
 3183SOL     OW21184   0.744   0.318   0.830  0.1278  0.7088 -0.2217
 3183SOL    HW121185   0.780   0.238   0.868 -1.0598  0.7237  0.9575
 3183SOL    HW221186   0.807   0.386   0.851  0.7535 -0.7511  2.6550
 3184SOL     OW21187   4.329   2.295   4.758 -0.0905  0.1640 -0.2200
 3184SOL    HW121188   4.275   2.242   4.698  1.8037  0.3755 -2.1199
 3184SOL    HW221189   4.405   2.321   4.706 -0.4331  2.4594  0.4267
 3185SOL     OW21190   4.045   1.449   2.909 -0.1623  0.5010 -0.0915
 3185SOL    HW121191   4.034   1.541   2.884  0.2250  0.0371 -2.0089
 3185SOL    HW221192   3.954   1.421   2.901 -0.1321  0.6565 -1.0153
 3186SOL     OW21193   2.432   3.110   2.899 -0.2644 -1.0416  0.4633
 3186SOL    HW121194   2.360   3.124   2.961 -0.3339  2.5216 -0.3951
 3186SOL    HW221195   2.507   3.136   2.953 -0.6269  0.3247  0.3116
 3187SOL     OW21196   3.907   4.464   9.738  0.1282  0.5658  0.1031
 3187SOL    HW121197   3.858   4.412   9.675 -0.0523 -1.1514  1.6739
 3187SOL    HW221198   3.860   4.440   9.818  0.3509 -3.2268 -0.8963
 3188SOL     OW21199   3.551   2.536   4.349 -0.0533  0.1086 -0.0547
 3188SOL    HW121200   3.460   2.565   4.352  0.3181  1.2015  0.8307
 3188SOL    HW221201   3.595   2.599   4.290  1.3862 -1.3273 -0.5237
 3189SOL     OW21202   3.336   1.819   8.150  0.3439 -0.1080  0.0283
 3189SOL    HW121203   3.353   1.841   8.241  0.4780  3.1448 -0.7726
 3189SOL    HW221204   3.419   1.793   8.111  0.5031  1.3315 -0.6147
 3190SOL     OW21205   4.244   0.349   2.157 -0.0833 -0.5026 -0.6429
 3190SOL    HW121206   4.253   0.261   2.120  1.8195 -0.7645  0.4150
 3190SOL    HW221207   4.203   0.396   2.085  0.7114  1.3198  0.0813
 3191SOL     OW21208   0.721   1.474   3.166 -0.8993 -1.0326  0.2746
 3191SOL    HW121209   0.672   1.424   3.231 -2.8581  0.4653 -0.0315
 3191SOL    HW221210   0.660   1.549   3.169 -1.2635 -1.3240  0.1098
 3192SOL     OW21211   1.301   3.971  12.272  0.1651 -0.0623 -0.1598
 3192SOL    HW121212   1.328   4.007  12.187 -1.1946 -1.2402 -1.0997
 3192SOL    HW221213   1.377   3.929  12.311  0.1216  0.8678  0.9404
 3193SOL     OW21214   3.783   2.962   7.739 -0.0343  0.3114  0.4337
 3193SOL    HW121215   3.805   2.881   7.786 -0.5237 -0.4138 -0.5972
 3193SOL    HW221216   3.839   3.027   7.782  0.7180  0.6308 -1.0360
 3194SOL     OW21217   2.148   2.655   2.812  0.2642 -0.4309 -0.1096
 3194SOL    HW121218   2.210   2.696   2.753  0.7506 -1.9763 -0.6875
 3194SOL    HW221219   2.180   2.692   2.894 -0.4940 -0.9040  0.4075
 3195SOL     OW21220   1.576   2.322   7.366  0.2075 -0.4019  0.2640
 3195SOL    HW121221   1.617   2.247   7.410 -1.7396 -1.5381  0.1225
 3195SOL    HW221222   1.609   2.393   7.421 -2.8016  0.9492  0.3053
 3196SOL     OW21223   2.662   0.360   4.644 -0.0265 -0.4731  0.0794
 3196SOL    HW121224   2.594   0.320   4.699 -0.8224  0.7060 -0.0564
 3196SOL    HW221225   2.737   0.324   4.692  2.5152 -0.7701 -4.1259
 3197SOL     OW21226   4.392   1.770   3.127  0.0597 -0.4243  0.8014
 3197SOL    HW121227   4.420   1.861   3.126 -0.3092 -0.3019  1.9399
 3197SOL    HW221228   4.458   1.726   3.181  1.0598  1.6075  1.2263
 3198SOL     OW21229   1.742   3.749   7.979  0.1001  0.0749 -0.7882
 3198SOL    HW121230   1.742   3.783   8.069  0.8016 -1.0098 -0.3806
 3198SOL    HW221231   1.809   3.805   7.939  2.8611 -1.4933  1.6007
 3199SOL     OW21232   3.869   2.393  15.116 -0.0946 -0.0943 -0.0739
 3199SOL    HW121233   3.964   2.382  15.105 -0.2608 -0.7415 -0.8295
 3199SOL    HW221234   3.870   2.429  15.205  1.2712 -2.6651  0.9755
 3200SOL     OW21235   4.388   4.331   2.806  0.0979 -0.1895 -0.3369
 3200SOL    HW121236   4.442   4.294   2.875  0.4991  0.6737 -0.1960
 3200SOL    HW221237   4.312   4.277   2.827  3.1639 -4.0018  0.7799
 3201SOL     OW21238   2.787   2.752   8.435  0.3440 -0.5308 -0.1462
 3201SOL    HW121239   2.736   2.832   8.422  2.0022  0.6581  0.6057
 3201SOL    HW221240   2.855   2.762   8.368 -1.5612  1.4118 -1.7953
 3202SOL     OW21241   2.954   3.302   9.253 -0.4041 -0.0312 -0.9733
 3202SOL    HW121242   3.001   3.336   9.176  1.4942 -0.8333 -0.1853
 3202SOL    HW221243   2.989   3.215   9.269 -3.3538 -1.0770 -0.3571
 3203SOL     OW21244   2.186   3.359   6.937 -0.1185  0.2528  0.3603
 3203SOL    HW121245   2.258   3.302   6.962  1.3892  1.7943 -0.4811
 3203SOL    HW221246   2.204   3.425   7.005  0.1609  0.4171  0.1254
 3204SOL     OW21247   2.619   2.704   9.466  0.1362  0.2116  0.3378
 3204SOL    HW121248   2.602   2.617   9.430  1.6931 -0.5508  1.4246
 3204SOL    HW221249   2.714   2.705   9.481  0.3601 -2.6862 -0.8802
 3205SOL     OW21250   0.385   2.483   1.009 -0.3617 -0.0555  0.1869
 3205SOL    HW121251   0.336   2.427   0.948 -0.2923 -1.5249  1.4672
 3205SOL    HW221252   0.319   2.502   1.077 -1.3643  0.9982 -1.0861
 3206SOL     OW21253   2.879   4.410   5.273  0.4712 -0.0360  0.2007
 3206SOL    HW121254   2.785   4.399   5.261  0.4425 -0.9178  1.2028
 3206SOL    HW221255   2.886   4.498   5.310 -0.1144 -0.1315  0.5422
 3207SOL     OW21256   2.911   1.999   4.389 -0.7391 -0.4135  0.1085
 3207SOL    HW121257   2.841   1.937   4.367 -1.0933 -0.1103  0.3885
 3207SOL    HW221258   2.960   1.989   4.307 -0.1034 -1.3400  0.6023
 3208SOL     OW21259   0.136   0.395   4.787 -0.1121  0.1479 -0.6687
 3208SOL    HW121260   0.147   0.313   4.738 -0.4344 -0.8893  0.9678
 3208SOL    HW221261   0.040   0.397   4.795  0.1840 -0.2086  3.2049
 3209SOL     OW21262   3.763   0.219   8.586  0.2300  0.4097 -0.0321
 3209SOL    HW121263   3.763   0.311   8.561 -3.9777  0.5378  0.3519
 3209SOL    HW221264   3.851   0.201   8.617  0.0614 -0.0462  0.1893
 3210SOL     OW21265   4.444   2.399   6.730  0.4565  0.4792  0.1395
 3210SOL    HW121266   4.453   2.440   6.816 -0.8289 -1.6589  1.2993
 3210SOL    HW221267   4.516   2.336   6.739  0.2018 -0.1671 -2.1745
 3211SOL     OW21268   3.186   3.496   3.544  0.1922  0.0051 -0.4080
 3211SOL    HW121269   3.108   3.504   3.599  2.3234  0.6634  2.5225
 3211SOL    HW221270   3.175   3.570   3.484 -0.5070  1.8271  1.9591
 3212SOL     OW21271   0.782   3.602  17.232  0.4778 -0.0214 -0.0199
 3212SOL    HW121272   0.778   3.586  17.326 -0.6417  0.2807 -0.0193
 3212SOL    HW221273   0.875   3.602  17.208  0.8972  0.8862  1.6042
 3213SOL     OW21274   2.594   1.748   8.711  0.6683 -0.3292 -0.2508
 3213SOL    HW121275   2.541   1.797   8.775  0.7548 -0.9506  0.2915
 3213SOL    HW221276   2.646   1.819   8.674 -0.4547  0.4430 -0.3754
 3214SOL     OW21277   3.888   2.449   9.108  0.1478  0.0261 -0.5793
 3214SOL    HW121278   3.793   2.451   9.111  0.1343  0.0154 -0.9650
 3214SOL    HW221279   3.914   2.538   9.084 -0.5148  0.2005 -0.6393
 3215SOL     OW21280   3.927   2.733  14.474 -0.7572  0.4060  0.1177
 3215SOL    HW121281   3.939   2.654  14.421  1.7849  1.9322 -1.6229
 3215SOL    HW221282   3.847   2.715  14.523 -0.7872  2.3594  0.7717
 3216SOL     OW21283   1.662   2.119   7.518  0.0130 -0.2534  0.2667
 3216SOL    HW121284   1.743   2.147   7.560  0.2872  0.8587 -0.9885
 3216SOL    HW221285   1.645   2.038   7.566  0.5821 -0.8988 -0.6079
 3217SOL     OW21286   3.125   3.410   6.650 -0.0398  0.1665 -0.2655
 3217SOL    HW121287   3.121   3.487   6.593 -1.2161  0.9106  0.8390
 3217SOL    HW221288   3.037   3.374   6.655  0.6167 -1.3306  0.7413
 3218SOL     OW21289   4.134   4.364   6.907  0.4643  0.7936  0.3231
 3218SOL    HW121290   4.105   4.430   6.845  0.4998  0.5273  0.0248
 3218SOL    HW221291   4.184   4.417   6.969  1.0866  1.9591 -1.1868
 3219SOL     OW21292   2.578   1.954  16.933 -0.0140  0.2858  0.1470
 3219SOL    HW121293   2.559   1.931  16.842 -2.8416 -1.4150  1.1513
 3219SOL    HW221294   2.499   1.918  16.974  1.1565  0.2523  2.3546
 3220SOL     OW21295   3.619   4.676  10.200 -0.3393  0.1728  0.4226
 3220SOL    HW121296   3.634   4.584  10.225 -1.4200  0.5430  2.5045
 3220SOL    HW221297   3.697   4.718  10.235 -0.6238  0.6422  0.4953
 3221SOL     OW21298   0.316   1.258   6.917 -0.8809 -0.0256 -0.2667
 3221SOL    HW121299   0.345   1.232   7.004 -0.6810  0.4815 -0.1816
 3221SOL    HW221300   0.247   1.320   6.940 -0.5319  0.7408 -1.2631
 3222SOL     OW21301   2.599   2.773  17.602 -0.2530 -0.1875 -0.7206
 3222SOL    HW121302   2.601   2.849  17.659  1.2128 -1.8865  1.4899
 3222SOL    HW221303   2.523   2.728  17.637 -0.5611 -1.0807 -2.5024
 3223SOL     OW21304   2.765   1.241   8.475  0.0694 -0.1856  0.3617
 3223SOL    HW121305   2.834   1.174   8.478  0.9818  0.7700  0.6203
 3223SOL    HW221306   2.689   1.194   8.510  1.8842 -2.1249  1.7322
 3224SOL     OW21307   1.981   3.128   5.288  0.5170 -0.4928  0.4332
 3224SOL    HW121308   1.979   3.101   5.196  0.7966  0.0606  0.2661
 3224SOL    HW221309   2.054   3.075   5.319  0.4712 -0.1176  1.1786
 3225SOL     OW21310   0.383   4.123   4.151  0.1220 -0.5770  0.1793
 3225SOL    HW121311   0.477   4.138   4.160  0.1191  0.8880 -2.1196
 3225SOL    HW221312   0.344   4.207   4.174 -0.0562 -1.1307  1.8461
 3226SOL     OW21313   0.888   1.966   2.595 -0.2700 -0.2731  0.3379
 3226SOL    HW121314   0.980   1.991   2.607 -0.5714  1.7235 -1.5707
 3226SOL    HW221315   0.889   1.874   2.571 -2.0539  0.1014 -1.2141
 3227SOL     OW21316   1.461   0.997   3.673  0.1612 -0.1152  0.4323
 3227SOL    HW121317   1.442   1.091   3.671 -0.4495 -0.1602  3.8915
 3227SOL    HW221318   1.446   0.971   3.764 -1.6091 -1.2991 -0.1872
 3228SOL     OW21319   1.236   4.324   8.799 -0.6371 -0.3761  0.4130
 3228SOL    HW121320   1.208   4.235   8.778  0.3565 -0.8684  1.1622
 3228SOL    HW221321   1.245   4.357   8.710  2.9917 -0.3319  0.7980
 3229SOL     OW21322   2.958   3.590   3.261 -0.1844 -0.2090 -0.3302
 3229SOL    HW121323   2.969   3.607   3.168  0.2861 -0.7458 -0.3699
 3229SOL    HW221324   3.023   3.654   3.290 -1.2085  0.4110  0.6280
 3230SOL     OW21325   0.710   4.161  10.118 -0.0592  0.0626 -0.3055
 3230SOL    HW121326   0.730   4.076  10.079 -1.9853 -1.5987  2.4215
 3230SOL    HW221327   0.732   4.133  10.207  0.0193  0.8982 -0.0629
 3231SOL     OW21328   2.177   1.337   7.524  0.5797  0.0865 -0.2702
 3231SOL    HW121329   2.225   1.417   7.506 -1.6692  1.6244  0.5565
 3231SOL    HW221330   2.104   1.368   7.579  0.0755  0.3085 -1.0643
 3232SOL     OW21331   3.930   2.284   1.752 -0.3113 -0.2157  0.2994
 3232SOL    HW121332   3.979   2.330   1.683 -0.6173 -1.2567 -0.6178
 3232SOL    HW221333   3.923   2.353   1.817 -1.7652 -2.0206  2.0518
 3233SOL     OW21334   3.272   0.766   2.858  0.2065  0.1217  0.7689
 3233SOL    HW121335   3.234   0.780   2.945 -2.6049 -0.7889 -0.3003
 3233SOL    HW221336   3.196   0.715   2.828  0.6638  0.3411 -0.7964
 3234SOL     OW21337   4.498   3.180  12.671  0.5807 -0.0818  0.1771
 3234SOL    HW121338   4.522   3.173  12.764  1.4484 -1.3109 -0.1445
 3234SOL    HW221339   4.419   3.126  12.678  1.0140 -0.3441  3.2324
 3235SOL     OW21340   2.174   2.372   6.766 -0.0583 -0.3178 -0.6767
 3235SOL    HW121341   2.144   2.355   6.676  0.5315 -0.8305 -0.7718
 3235SOL    HW221342   2.248   2.424   6.736  1.4982 -1.4099  1.3602
 3236SOL     OW21343   4.437   1.504   8.783  0.0577  0.2634  0.5294
 3236SOL    HW121344   4.372   1.574   8.773 -1.6263 -1.1635  1.5163
 3236SOL    HW221345   4.473   1.524   8.870  0.7840  2.2167 -0.2107
 3237SOL     OW21346   2.902   4.110   1.476  0.4813 -0.4967  0.7453
 3237SOL    HW121347   2.825   4.115   1.419  1.1707 -1.5632 -0.2561
 3237SOL    HW221348   2.971   4.088   1.414 -0.1772 -0.2911 -0.0618
 3238SOL     OW21349   2.606   0.864   4.683  0.0669  0.0303 -0.3210
 3238SOL    HW121350   2.524   0.905   4.710  1.4998  2.0208  0.9836
 3238SOL    HW221351   2.625   0.888   4.593 -0.1552  1.6375  0.0691
 3239SOL     OW21352   2.030   1.616   4.774  0.2710  0.4413  0.4754
 3239SOL    HW121353   2.064   1.704   4.759  1.2028 -0.2768 -1.7851
 3239SOL    HW221354   2.097   1.574   4.828  0.7253  0.6046  0.0416
 3240SOL     OW21355   3.941   0.128  12.387 -0.2971 -0.0348 -0.2299
 3240SOL    HW121356   4.023   0.088  12.358  0.1396  0.9535 -0.3773
 3240SOL    HW221357   3.888   0.092  12.315  0.2218 -2.1248  0.4447
 3241SOL     OW21358   0.532   0.183   7.264 -0.2346  0.5894  0.1572
 3241SOL    HW121359   0.457   0.242   7.254  1.8561  2.8004 -2.1695
 3241SOL    HW221360   0.503   0.117   7.201  1.1853 -0.7363  0.9057
 3242SOL     OW21361   4.524   3.591  17.469 -0.3121 -0.1069  0.1613
 3242SOL    HW121362   4.601   3.553  17.512  0.0418 -2.1480 -2.2584
 3242SOL    HW221363   4.543   3.684  17.459 -2.8736  0.3184 -0.8240
 3243SOL     OW21364   1.408   4.337  10.398 -0.1141  0.3680  0.0152
 3243SOL    HW121365   1.440   4.406  10.340 -0.2248  0.3101 -0.1159
 3243SOL    HW221366   1.342   4.298  10.341 -0.7091 -0.1785  1.0856
 3244SOL     OW21367   2.654   1.972   2.953 -0.5149  0.5630  0.3700
 3244SOL    HW121368   2.725   2.035   2.960 -0.7605  0.7378  1.2219
 3244SOL    HW221369   2.587   2.036   2.931  0.8334  2.6864  2.5525
 3245SOL     OW21370   1.577   3.957   7.869  0.0765 -0.0512 -0.1600
 3245SOL    HW121371   1.495   3.997   7.898 -0.7158 -2.2963  0.7043
 3245SOL    HW221372   1.579   3.874   7.917  0.2987  0.0248 -0.0392
 3246SOL     OW21373   1.278   4.175  13.888 -0.1343  0.7129  0.5726
 3246SOL    HW121374   1.336   4.200  13.960 -0.0654 -0.3067  0.8844
 3246SOL    HW221375   1.195   4.185  13.934  0.6206 -1.8612  2.5360
 3247SOL     OW21376   4.553   3.519  14.336  0.3887 -0.1787 -0.3702
 3247SOL    HW121377   4.563   3.425  14.350 -0.3676 -0.1140  0.6316
 3247SOL    HW221378   4.459   3.534  14.331  0.1181 -1.0141  2.2697
 3248SOL     OW21379   3.425   3.518  17.413 -0.0258 -0.1764  0.1581
 3248SOL    HW121380   3.463   3.487  17.495  0.5447  0.1760  0.0285
 3248SOL    HW221381   3.502   3.522  17.357 -1.0891 -2.3288 -1.4455
 3249SOL     OW21382   3.928   3.890   0.649 -0.3286  0.1001  0.0296
 3249SOL    HW121383   3.843   3.933   0.653 -0.4432 -0.0383 -0.9341
 3249SOL    HW221384   3.954   3.876   0.741  0.2455  0.9548 -0.0017
 3250SOL     OW21385   4.718   2.014   1.488  0.2513  0.1355  0.0121
 3250SOL    HW121386   4.655   2.024   1.560 -0.5156 -2.5776 -0.2564
 3250SOL    HW221387   0.052   2.065   1.527  0.5617 -0.5897  0.4127
 3251SOL     OW21388   3.771   4.116  11.926  0.1719  0.1160 -0.4396
 3251SOL    HW121389   3.778   4.174  12.002  1.1764  0.2374 -0.6256
 3251SOL    HW221390   3.680   4.089  11.935  0.2035  0.2598  0.3412
 3252SOL     OW21391   1.034   1.139   2.689 -0.8813  0.7358 -0.0163
 3252SOL    HW121392   1.102   1.154   2.755  0.0014 -0.7165 -0.5944
 3252SOL    HW221393   0.956   1.180   2.727 -1.3763 -0.1004 -0.1450
 3253SOL     OW21394   3.812   1.152   5.193 -0.0923  0.3465  0.1713
 3253SOL    HW121395   3.863   1.229   5.221  1.2839 -0.0102 -1.3593
 3253SOL    HW221396   3.743   1.195   5.142 -0.7119 -1.3929 -0.4517
 3254SOL     OW21397   2.797   0.358  17.353 -0.1474 -0.1037  0.7067
 3254SOL    HW121398   2.802   0.328  17.262  0.3080  0.1680  0.6431
 3254SOL    HW221399   2.878   0.327  17.392  0.6631 -1.7111 -2.2461
 3255SOL     OW21400   1.273   2.975   6.020 -0.4912 -0.3302  0.3040
 3255SOL    HW121401   1.230   3.061   6.024  0.0224 -0.1039  0.9188
 3255SOL    HW221402   1.252   2.950   5.930 -0.1827 -2.2350  0.7619
 3256SOL     OW21403   0.434   3.194  10.165  0.2182  0.2352  0.3648
 3256SOL    HW121404   0.514   3.206  10.217  0.9241  2.0646 -1.1747
 3256SOL    HW221405   0.404   3.105  10.186  0.1431 -0.1890 -1.6034
 3257SOL     OW21406   4.188   2.456   4.047  1.1289 -0.0069  0.2610
 3257SOL    HW121407   4.143   2.384   4.004  0.5835 -0.4620  1.5930
 3257SOL    HW221408   4.230   2.496   3.970 -1.2072 -1.7289 -1.9072
 3258SOL     OW21409   4.438   4.030   8.574  0.2351 -0.3530  0.6721
 3258SOL    HW121410   4.426   4.119   8.542  1.6229 -1.2225 -2.2819
 3258SOL    HW221411   4.374   3.976   8.528  1.3026  0.6282 -1.9078
 3259SOL     OW21412   3.103   4.102  11.397 -0.7947 -0.1831  0.3574
 3259SOL    HW121413   3.101   4.060  11.483  1.1922 -0.6118  0.2013
 3259SOL    HW221414   3.069   4.188  11.421 -1.0894 -0.2505  0.1763
 3260SOL     OW21415   3.512   0.003   5.032 -0.0991  0.1944 -0.5547
 3260SOL    HW121416   3.512   4.644   5.023  0.4581  0.0279  1.0972
 3260SOL    HW221417   3.545   0.024   5.120 -1.5480 -0.1339  0.0805
 3261SOL     OW21418   1.196   0.199   6.225 -0.0712  0.0186  0.7278
 3261SOL    HW121419   1.191   0.254   6.304 -0.5421 -2.4946  2.4361
 3261SOL    HW221420   1.288   0.171   6.226  0.0490  0.4095  0.4091
 3262SOL     OW21421   2.232   1.432   4.368  0.6548  0.6625  0.5583
 3262SOL    HW121422   2.183   1.377   4.306  1.6535  2.1230 -1.5061
 3262SOL    HW221423   2.165   1.499   4.382 -0.4220 -0.1353 -0.6999
 3263SOL     OW21424   4.227   4.249   7.212  0.4082 -0.3536 -0.2175
 3263SOL    HW121425   4.133   4.241   7.195  0.3660 -1.2484  0.4136
 3263SOL    HW221426   4.251   4.170   7.260 -0.2030 -0.8755 -0.7824
 3264SOL     OW21427   3.907   1.598   0.690  0.2868  0.2101 -0.3731
 3264SOL    HW121428   3.943   1.682   0.662  0.9605 -0.5705 -1.8740
 3264SOL    HW221429   3.924   1.584   0.783  1.6643  1.8986 -0.3662
 3265SOL     OW21430   1.518   1.399   4.344  0.4132 -0.1745  0.8216
 3265SOL    HW121431   1.423   1.386   4.352  0.1597  0.4158 -1.1630
 3265SOL    HW221432   1.546   1.372   4.431  0.5647 -1.3013  0.4293
 3266SOL     OW21433   3.797   4.300   7.480  0.4727  0.0239 -0.2131
 3266SOL    HW121434   3.828   4.262   7.562 -0.3301  2.7544  1.3585
 3266SOL    HW221435   3.749   4.221   7.457  1.3599  0.2061 -2.6938
 3267SOL     OW21436   2.784   0.149   8.774 -0.5806  0.7137 -0.3573
 3267SOL    HW121437   2.877   0.156   8.751 -0.6871  2.3662 -0.3091
 3267SOL    HW221438   2.766   0.080   8.710  0.7355  1.5749 -1.6502
 3268SOL     OW21439   1.570   2.583   7.488 -0.3384 -0.1982  0.1501
 3268SOL    HW121440   1.665   2.589   7.484 -0.4416  2.9710  2.1456
 3268SOL    HW221441   1.549   2.612   7.577  0.0212 -0.3692  0.2897
 3269SOL     OW21442   4.080   4.244   5.521  0.3505 -0.4047 -0.2414
 3269SOL    HW121443   4.140   4.179   5.556  0.1801 -0.7706 -0.6283
 3269SOL    HW221444   4.019   4.191   5.470  0.3974  0.3613 -1.1136
 3270SOL     OW21445   0.309   3.521   7.379 -1.1171 -0.7106 -0.1098
 3270SOL    HW121446   0.300   3.431   7.410 -0.8710 -0.6270  0.2004
 3270SOL    HW221447   0.222   3.555   7.401 -1.0638 -1.3547  1.0743
 3271SOL     OW21448   1.229   4.247   7.812  0.0860 -0.2158  0.3703
 3271SOL    HW121449   1.159   4.181   7.806 -2.6123  2.7191 -0.5049
 3271SOL    HW221450   1.297   4.209   7.756  1.2716  2.0081  0.3218
 3272SOL     OW21451   3.315   4.270   8.893 -0.1052  0.7755  0.1637
 3272SOL    HW121452   3.242   4.318   8.931 -0.0687  1.9757 -1.2831
 3272SOL    HW221453   3.395   4.306   8.930  1.3759 -0.3418 -1.8809
 3273SOL     OW21454   2.346   3.004   7.296  0.0041  0.2287  0.1344
 3273SOL    HW121455   2.341   2.978   7.204 -0.5715  2.0453 -0.3398
 3273SOL    HW221456   2.425   3.059   7.294 -0.3836  0.8922  2.6833
 3274SOL     OW21457   1.227   0.681  13.300 -0.3493  0.9451  0.5074
 3274SOL    HW121458   1.152   0.706  13.245  0.1478 -1.2986 -1.2193
 3274SOL    HW221459   1.183   0.657  13.381 -1.3384  2.3781  0.3893
 3275SOL     OW21460   4.653   2.552  12.428  0.1485  0.5418  0.5230
 3275SOL    HW121461   4.690   2.640  12.418  1.1272 -0.1939 -2.2791
 3275SOL    HW221462   4.612   2.571  12.512 -1.8018 -1.1632 -0.0359
 3276SOL     OW21463   3.455   2.015   4.299  0.1252  0.0162 -0.0710
 3276SOL    HW121464   3.438   1.921   4.311 -2.1899  0.2201 -1.6064
 3276SOL    HW221465   3.549   2.022   4.286  0.0478  1.2254  0.0283
 3277SOL     OW21466   4.403   4.696   2.829 -0.1163 -0.1989 -0.2256
 3277SOL    HW121467   4.391   0.005   2.745  2.6472  0.8167 -0.0684
 3277SOL    HW221468   4.429   0.031   2.886  0.1984 -0.4192 -0.0958
 3278SOL     OW21469   3.383   2.577   9.398 -0.0176 -0.0219  0.4111
 3278SOL    HW121470   3.331   2.620   9.466 -0.2953  0.9684 -0.4296
 3278SOL    HW221471   3.352   2.608   9.313 -1.4210 -0.9930  0.5664
 3279SOL     OW21472   4.667   1.553  12.096 -0.1727 -0.6535 -0.3417
 3279SOL    HW121473   4.576   1.547  12.066  0.9097 -2.6867 -3.1747
 3279SOL    HW221474   4.703   1.579  12.011  0.7403  0.7942  0.4800
 3280SOL     OW21475   3.506   2.134   8.325 -0.2468  0.1270 -0.0210
 3280SOL    HW121476   3.598   2.130   8.353  0.1680 -1.2420 -1.5985
 3280SOL    HW221477   3.469   2.212   8.367 -1.5583 -0.5650  0.1043
 3281SOL     OW21478   1.668   2.069   3.126  0.1368  0.3037  0.2406
 3281SOL    HW121479   1.602   2.136   3.145  0.7354  0.7906  0.6117
 3281SOL    HW221480   1.630   2.000   3.072  0.4931 -0.3299  0.8001
 3282SOL     OW21481   4.385   2.782   5.020  0.0051 -0.3096  0.1214
 3282SOL    HW121482   4.444   2.821   4.955  0.3857 -1.1096 -0.0195
 3282SOL    HW221483   4.351   2.858   5.068  0.3098 -0.1297  0.0519
 3283SOL     OW21484   2.389   4.634  15.477  0.0342 -0.5572 -0.0774
 3283SOL    HW121485   2.450   4.588  15.420 -1.2965 -0.4325 -1.5760
 3283SOL    HW221486   2.362   4.711  15.429  2.2864  0.1844 -0.1378
 3284SOL     OW21487   3.305   2.439   6.965  0.4066  0.5420 -0.1235
 3284SOL    HW121488   3.378   2.478   7.013 -0.3889 -0.4676  1.8807
 3284SOL    HW221489   3.237   2.506   6.973  0.5295  0.7175 -0.4965
 3285SOL     OW21490   3.959   1.126  15.223  0.3555  0.4099  0.4387
 3285SOL    HW121491   3.868   1.155  15.221  0.4743  0.6896 -0.8126
 3285SOL    HW221492   3.952   1.043  15.176 -4.1333  0.3811  1.1659
 3286SOL     OW21493   3.172   3.625  16.588 -0.1490 -0.8941 -0.0396
 3286SOL    HW121494   3.219   3.708  16.598  0.0051 -1.0468  0.4746
 3286SOL    HW221495   3.114   3.611  16.663 -0.1624 -3.1462 -0.4747
 3287SOL     OW21496   4.411   2.543  11.456  0.1979  0.9135  0.6729
 3287SOL    HW121497   4.501   2.540  11.488  0.5195  1.1232 -0.2216
 3287SOL    HW221498   4.358   2.549  11.536 -2.4910 -0.9725 -0.9866
 3288SOL     OW21499   4.170   1.804   4.445  0.4408  0.3216  0.0594
 3288SOL    HW121500   4.245   1.814   4.503 -0.4891 -1.4316  1.5640
 3288SOL    HW221501   4.097   1.825   4.503 -0.0482  0.0093 -0.4392
 3289SOL     OW21502   4.135   3.418   6.703 -0.0221  0.8111  0.0089
 3289SOL    HW121503   4.168   3.507   6.704  0.6479  0.5688 -0.4561
 3289SOL    HW221504   4.052   3.426   6.655  0.3914  1.7169 -0.5521
 3290SOL     OW21505   3.588   3.381   6.748  0.5100 -0.6181 -0.0320
 3290SOL    HW121506   3.532   3.304   6.744  1.0927 -1.0171 -0.5493
 3290SOL    HW221507   3.657   3.338   6.798 -0.0689 -0.3766  0.9692
 3291SOL     OW21508   3.839   3.200   1.729 -0.0868 -0.0156  0.1023
 3291SOL    HW121509   3.820   3.226   1.639 -0.9517 -2.9058 -0.5292
 3291SOL    HW221510   3.799   3.273   1.777 -0.6028 -1.3570  1.7052
 3292SOL     OW21511   4.686   2.349   8.878 -0.0236  0.4919  0.5167
 3292SOL    HW121512   4.675   2.422   8.939  1.0907  1.6010 -0.6048
 3292SOL    HW221513   4.641   2.391   8.805 -1.7224 -0.5697  0.9667
 3293SOL     OW21514   3.613   1.544   8.656 -0.4173  0.4850  0.1654
 3293SOL    HW121515   3.653   1.567   8.572  1.4403  1.1316  1.2270
 3293SOL    HW221516   3.541   1.487   8.630 -0.9613  1.4572 -0.4554
 3294SOL     OW21517   0.116   0.674   5.258 -0.2701 -0.2462  0.3938
 3294SOL    HW121518   0.094   0.640   5.171  0.3554 -1.6952  0.8009
 3294SOL    HW221519   0.210   0.683   5.243 -0.1718  0.5657  1.4747
 3295SOL     OW21520   2.775   0.552  12.609  0.0680  0.3212 -0.4059
 3295SOL    HW121521   2.821   0.539  12.692 -0.4922  0.7586 -0.0295
 3295SOL    HW221522   2.822   0.622  12.566  1.0221 -0.1905 -0.1938
 3296SOL     OW21523   3.598   1.735   0.616 -0.3136  0.1591 -0.2780
 3296SOL    HW121524   3.609   1.642   0.637  0.2450  0.5851  1.3598
 3296SOL    HW221525   3.686   1.770   0.601 -0.3691  0.7554  0.7736
 3297SOL     OW21526   1.892   2.372   6.846  0.2116  0.0493  0.3133
 3297SOL    HW121527   1.985   2.381   6.826  0.1371 -0.5323 -0.2956
 3297SOL    HW221528   1.860   2.462   6.838 -0.4880 -0.1151  1.2542
 3298SOL     OW21529   3.875   1.487   5.834  0.4512 -0.8156  0.5435
 3298SOL    HW121530   3.865   1.580   5.813 -0.1413 -0.5255  2.1091
 3298SOL    HW221531   3.939   1.475   5.905  0.8236  0.7973  0.4888
 3299SOL     OW21532   2.244   1.244   3.020 -0.0467  0.2734  0.0596
 3299SOL    HW121533   2.205   1.323   2.983 -0.1200  1.3942  2.5336
 3299SOL    HW221534   2.174   1.179   3.008 -1.1072  0.9489  2.5540
 3300SOL     OW21535   1.403   4.460   5.741  0.5185  0.1359  0.2915
 3300SOL    HW121536   1.427   4.553   5.741  1.0795 -0.0023  0.5202
 3300SOL    HW221537   1.395   4.450   5.647 -3.9167  1.4334  0.5653
 3301SOL     OW21538   1.434   3.875   3.252 -0.1778 -0.7902  0.1316
 3301SOL    HW121539   1.364   3.914   3.304 -0.5116  1.2343 -1.8133
 3301SOL    HW221540   1.386   3.796   3.229 -0.3071 -0.3100 -1.2855
 3302SOL     OW21541   4.656   0.109   0.521 -0.0743  0.6758  0.1013
 3302SOL    HW121542   4.714   0.180   0.549 -2.0142  1.2761  2.6358
 3302SOL    HW221543   4.652   0.121   0.426  0.7645 -0.2627 -0.0503
 3303SOL     OW21544   4.571   3.414  13.518  0.5945  0.7879  0.2045
 3303SOL    HW121545   4.511   3.469  13.569  0.1397  0.1147  0.3970
 3303SOL    HW221546   4.647   3.402  13.574  2.7821  2.5500 -2.4268
 3304SOL     OW21547   1.800   0.272   7.842 -0.2013  0.7078  0.2450
 3304SOL    HW121548   1.807   0.177   7.848  0.3575  0.5481 -3.2961
 3304SOL    HW221549   1.710   0.290   7.818 -0.8091 -0.9398  1.2854
 3305SOL     OW21550   0.374   3.715   5.569  0.0203  0.1122 -0.1362
 3305SOL    HW121551   0.395   3.749   5.483  1.9934 -4.0191 -1.2924
 3305SOL    HW221552   0.355   3.623   5.549 -1.4197  1.0905 -3.2422
 3306SOL     OW21553   1.132   1.227  16.458  0.4842  0.3001 -0.1754
 3306SOL    HW121554   1.190   1.163  16.417  1.0202  0.0403  0.9964
 3306SOL    HW221555   1.183   1.308  16.453 -0.4325  0.8877 -0.0391
 3307SOL     OW21556   2.778   0.454   6.357 -0.0775  0.2748  0.5440
 3307SOL    HW121557   2.749   0.544   6.374  2.4407  1.0123  0.9253
 3307SOL    HW221558   2.695   0.407   6.354 -0.3200  0.6531  1.4128
 3308SOL     OW21559   4.073   4.649   7.691 -0.6370 -1.0547 -0.2610
 3308SOL    HW121560   4.011   4.699   7.638  0.0892  0.8241  0.6716
 3308SOL    HW221561   4.119   4.597   7.626 -0.7109 -2.1031  0.5180
 3309SOL     OW21562   0.487   0.303  16.960  0.7280 -0.0755 -0.0853
 3309SOL    HW121563   0.421   0.339  16.901  0.8625  0.5231  0.1295
 3309SOL    HW221564   0.432   0.293  17.038 -2.0700  2.5423 -1.7034
 3310SOL     OW21565   0.591   0.995  13.475  0.2535 -0.2647 -0.0084
 3310SOL    HW121566   0.544   1.043  13.544 -1.4161 -0.6009 -0.9042
 3310SOL    HW221567   0.515   0.954  13.434  0.5099  1.2354 -1.9719
 3311SOL     OW21568   1.358   0.783   5.668 -0.3588 -0.1429  0.1494
 3311SOL    HW121569   1.392   0.755   5.752 -0.1372 -2.6503 -0.7942
 3311SOL    HW221570   1.411   0.735   5.605 -1.5057 -0.1115 -0.8344
 3312SOL     OW21571   2.100   1.954   9.402  0.2468  0.1367 -0.2612
 3312SOL    HW121572   2.006   1.953   9.421 -0.0500 -2.9039 -1.9413
 3312SOL    HW221573   2.126   2.036   9.445 -0.4497 -0.0272  0.4847
 3313SOL     OW21574   4.259   4.470  13.419 -0.2110  0.4435 -0.1129
 3313SOL    HW121575   4.226   4.558  13.400 -0.1147  0.3255 -0.7979
 3313SOL    HW221576   4.348   4.485  13.387  0.3629  0.6796  1.5884
 3314SOL     OW21577   0.871   1.774   8.818 -0.8370  0.0866  0.5120
 3314SOL    HW121578   0.931   1.833   8.772 -0.1847 -0.9396  0.0456
 3314SOL    HW221579   0.814   1.761   8.742 -0.5878 -0.7570  0.4696
 3315SOL     OW21580   0.966   1.561  14.037  0.4422  0.2853  0.9086
 3315SOL    HW121581   0.985   1.560  14.131  1.4968  0.7523  0.7061
 3315SOL    HW221582   0.979   1.472  14.004 -0.1661 -0.3946  2.5119
 3316SOL     OW21583   0.447   1.070   4.302  0.6479  0.2385 -1.0127
 3316SOL    HW121584   0.538   1.042   4.312  0.1922 -0.9325 -0.1256
 3316SOL    HW221585   0.439   1.154   4.348 -2.6894 -1.1478  0.9045
 3317SOL     OW21586   3.025   3.958   2.808 -0.0240  0.3086  0.1712
 3317SOL    HW121587   3.116   3.961   2.838  0.1069  0.0883 -0.2041
 3317SOL    HW221588   3.015   4.053   2.810  0.0987  0.3403 -1.2683
 3318SOL     OW21589   2.249   2.802   4.576  0.2197  0.1093  0.0728
 3318SOL    HW121590   2.201   2.749   4.639 -0.4145 -0.4499 -0.8805
 3318SOL    HW221591   2.301   2.858   4.633  2.4708  1.0277 -2.8571
 3319SOL     OW21592   2.595   2.135  10.471  0.5133  0.1306  0.1996
 3319SOL    HW121593   2.644   2.217  10.481 -0.2580  0.2297  3.2986
 3319SOL    HW221594   2.664   2.075  10.444  0.8518 -0.1322  1.6777
 3320SOL     OW21595   2.033   3.622   8.056  0.1433 -0.1635 -0.2951
 3320SOL    HW121596   2.065   3.563   7.988  0.2959 -0.6254  0.1767
 3320SOL    HW221597   2.001   3.558   8.119  1.3130 -0.2290  0.2370
 3321SOL     OW21598   4.687   1.695   9.177 -0.1830 -0.3706 -0.1656
 3321SOL    HW121599   0.046   1.700   9.185 -0.2175 -1.9733  1.1121
 3321SOL    HW221600   4.682   1.790   9.189 -3.3027 -0.5620 -0.0896
 3322SOL     OW21601   0.983   0.173   2.085 -0.2735  0.4086  0.6789
 3322SOL    HW121602   1.051   0.143   2.025 -2.5858  1.6879 -2.5440
 3322SOL    HW221603   0.912   0.189   2.023 -0.0624  1.5861  0.7319
 3323SOL     OW21604   0.431   0.144   4.714  0.5683 -0.4720 -0.5143
 3323SOL    HW121605   0.466   0.161   4.627  3.0298  1.2698  0.8326
 3323SOL    HW221606   0.478   0.200   4.776  1.4026 -0.5539 -1.0909
 3324SOL     OW21607   0.956   0.832   6.956 -0.2940  0.1008 -0.1011
 3324SOL    HW121608   0.920   0.754   6.998 -0.5863  0.0206 -0.5010
 3324SOL    HW221609   0.914   0.841   6.870 -1.1550  0.5554  0.3635
 3325SOL     OW21610   3.419   2.595   3.172  0.1163 -0.1537 -0.4171
 3325SOL    HW121611   3.403   2.637   3.088  0.3288  0.1899 -0.2878
 3325SOL    HW221612   3.481   2.524   3.155  0.1910 -0.0923 -0.4001
 3326SOL     OW21613   3.602   2.591  12.406 -0.1308 -0.0864  0.7419
 3326SOL    HW121614   3.538   2.660  12.386 -0.3167 -0.6021 -0.3903
 3326SOL    HW221615   3.637   2.573  12.319 -2.5963  1.3607 -0.5430
 3327SOL     OW21616   3.138   1.873   6.339 -0.3749  0.0665 -0.1504
 3327SOL    HW121617   3.172   1.916   6.417  0.4543 -2.5203  0.8924
 3327SOL    HW221618   3.089   1.945   6.299 -1.7343 -0.9648 -0.3418
 3328SOL     OW21619   2.898   2.945  12.490 -0.0343  0.2250 -0.0837
 3328SOL    HW121620   2.822   2.894  12.520  2.0972 -3.2867 -0.5624
 3328SOL    HW221621   2.928   2.879  12.427  1.0896  0.4993  0.1729
 3329SOL     OW21622   1.455   2.130   8.202  0.0350  0.0355  0.5487
 3329SOL    HW121623   1.402   2.127   8.122  0.2712  3.0693  0.2684
 3329SOL    HW221624   1.538   2.108   8.159 -0.1456 -1.8275  1.1704
 3330SOL     OW21625   3.655   4.493   9.419 -0.0603 -0.3070 -0.0066
 3330SOL    HW121626   3.615   4.578   9.407  0.9245  0.4659  2.1253
 3330SOL    HW221627   3.749   4.513   9.412  0.1404 -1.5323 -0.9306
 3331SOL     OW21628   2.512   4.667   5.954 -0.6946  0.3455  0.8640
 3331SOL    HW121629   2.603   4.664   5.982 -1.0299 -0.7535  1.8107
 3331SOL    HW221630   2.478   4.578   5.959  0.8871 -0.4528 -2.4995
 3332SOL     OW21631   1.398   0.501  10.455  0.1968  0.9817 -0.1873
 3332SOL    HW121632   1.318   0.549  10.476  0.6094  0.8032  1.7693
 3332SOL    HW221633   1.371   0.410  10.467 -1.1677  1.3119 -0.7126
 3333SOL     OW21634   2.900   3.299  14.225 -0.7053 -0.2668  0.1853
 3333SOL    HW121635   2.962   3.276  14.157 -1.4099  1.2087 -0.9700
 3333SOL    HW221636   2.954   3.326  14.300 -0.7558 -0.9523  0.4656
 3334SOL     OW21637   0.012   3.376   5.711 -0.6411 -0.3376  0.1897
 3334SOL    HW121638   4.674   3.352   5.767 -1.3528 -0.5121 -0.8315
 3334SOL    HW221639   4.723   3.465   5.685 -0.5243 -1.0470 -2.2733
 3335SOL     OW21640   1.332   1.788   2.793 -0.0224 -0.1500  0.3003
 3335SOL    HW121641   1.333   1.884   2.789 -1.5514 -0.1885 -0.8399
 3335SOL    HW221642   1.251   1.772   2.745 -0.3268  2.6001 -0.1357
 3336SOL     OW21643   2.215   3.553   9.495  0.1631  0.3402 -0.1991
 3336SOL    HW121644   2.240   3.637   9.456 -1.9577  0.5208 -1.1862
 3336SOL    HW221645   2.261   3.560   9.578 -0.5997 -0.3761  0.2756
 3337SOL     OW21646   3.641   2.704   7.467 -0.1099 -0.1699 -0.5500
 3337SOL    HW121647   3.578   2.757   7.418 -1.0768 -0.6323  0.2088
 3337SOL    HW221648   3.712   2.769   7.461  1.9012 -2.1089  2.3347
 3338SOL     OW21649   1.158   4.164  15.353 -0.1563 -0.1515  0.3437
 3338SOL    HW121650   1.248   4.149  15.325  0.3080 -0.9664  2.2840
 3338SOL    HW221651   1.168   4.149  15.447 -0.3820  0.3555  0.4478
 3339SOL     OW21652   1.357   0.798   2.608 -0.5055 -0.4051 -0.2393
 3339SOL    HW121653   1.418   0.850   2.555  0.0497 -0.2401  0.5574
 3339SOL    HW221654   1.278   0.838   2.572  0.6431  0.2558 -2.0668
 3340SOL     OW21655   0.851   2.345  17.391  0.2114  0.5959  0.3993
 3340SOL    HW121656   0.774   2.366  17.444 -0.6846  0.1430 -0.7157
 3340SOL    HW221657   0.829   2.260  17.351  0.5037  0.9824 -0.5695
 3341SOL     OW21658   0.252   0.538  16.103  0.0583 -0.0847  1.1799
 3341SOL    HW121659   0.324   0.526  16.165 -0.1309 -1.3876  1.1499
 3341SOL    HW221660   0.277   0.622  16.065 -0.8636 -1.0935 -1.6577
 3342SOL     OW21661   2.161   4.211   1.692 -0.1749 -0.5004  0.6902
 3342SOL    HW121662   2.130   4.125   1.666 -3.0249  1.1346 -1.2491
 3342SOL    HW221663   2.079   4.251   1.722 -1.4077 -2.1349 -0.5255
 3343SOL     OW21664   2.758   3.894   2.939  0.2344  0.1998  0.1717
 3343SOL    HW121665   2.850   3.913   2.920  0.1278  0.6284  0.0822
 3343SOL    HW221666   2.734   3.932   2.854 -0.5588 -0.7890 -0.0605
 3344SOL     OW21667   3.371   4.128   7.096  0.4199 -0.3453  0.8570
 3344SOL    HW121668   3.452   4.168   7.127  1.3013 -0.4298 -1.2967
 3344SOL    HW221669   3.354   4.058   7.159  1.6233 -1.9084 -0.5543
 3345SOL     OW21670   3.188   1.735   3.528  0.3787 -0.2803 -0.0837
 3345SOL    HW121671   3.191   1.706   3.437  0.7155 -1.9904  0.4642
 3345SOL    HW221672   3.241   1.813   3.514  1.7433 -0.9691  1.2470
 3346SOL     OW21673   2.932   1.719   7.234  0.1824  0.1493  0.6500
 3346SOL    HW121674   2.974   1.633   7.245 -0.5991  0.2282  4.2389
 3346SOL    HW221675   2.863   1.695   7.172 -0.9656  1.8588  1.2779
 3347SOL     OW21676   1.643   4.203   5.052 -0.0949 -0.1145  0.7015
 3347SOL    HW121677   1.674   4.114   5.068 -1.0082 -0.7878 -1.1892
 3347SOL    HW221678   1.631   4.228   5.143  2.7008 -0.3470  1.1424
 3348SOL     OW21679   2.730   3.950   8.420 -0.1518 -0.0912 -0.1078
 3348SOL    HW121680   2.784   3.990   8.352 -1.3867  1.6824 -0.0342
 3348SOL    HW221681   2.735   4.004   8.498  0.2511  2.0963 -1.6378
 3349SOL     OW21682   2.505   3.112  10.610 -0.1912 -0.4820 -0.5809
 3349SOL    HW121683   2.547   3.133  10.693 -0.2842  1.1922 -0.9473
 3349SOL    HW221684   2.429   3.063  10.641 -0.2088 -0.3416 -0.4038
 3350SOL     OW21685   1.572   2.773   3.902 -0.5351  0.3438 -0.0102
 3350SOL    HW121686   1.622   2.744   3.825 -2.7777 -2.0640 -0.5458
 3350SOL    HW221687   1.488   2.789   3.859  0.2944  0.4504 -1.6048
 3351SOL     OW21688   1.080   0.421   9.822 -0.2819 -0.5075 -0.3038
 3351SOL    HW121689   1.025   0.451   9.749  1.0692 -0.3516 -1.2485
 3351SOL    HW221690   1.149   0.486   9.831 -2.4475  1.7026  0.2656
 3352SOL     OW21691   3.495   3.817   3.709  0.0408 -0.3976  0.1765
 3352SOL    HW121692   3.515   3.871   3.786  1.5401 -0.6303 -0.0515
 3352SOL    HW221693   3.415   3.775   3.739 -0.0894 -0.1891  0.1212
 3353SOL     OW21694   0.981   1.940  15.074 -0.3769 -0.0080 -0.1058
 3353SOL    HW121695   1.021   1.878  15.014  0.8882  0.4253  0.2797
 3353SOL    HW221696   0.886   1.934  15.072 -0.2666 -1.9091  1.0526
 3354SOL     OW21697   2.302   2.256   3.410 -0.2962 -0.0152 -0.1198
 3354SOL    HW121698   2.330   2.250   3.319 -0.2260  0.0294 -0.1011
 3354SOL    HW221699   2.338   2.341   3.434 -1.3588  0.4037 -0.0128
 3355SOL     OW21700   2.892   0.252  14.570  0.2129 -0.1203  0.2316
 3355SOL    HW121701   2.947   0.179  14.598  2.3144  1.4300  0.1997
 3355SOL    HW221702   2.803   0.224  14.589  1.6383 -3.6383  1.5051
 3356SOL     OW21703   4.000   3.610  13.870 -0.3897  0.5578  0.1325
 3356SOL    HW121704   4.053   3.613  13.790 -1.8206  0.3333 -0.8052
 3356SOL    HW221705   3.941   3.539  13.846 -0.2601  0.4610  0.0996
 3357SOL     OW21706   2.331   0.530   9.564 -0.0152 -0.1807 -0.1016
 3357SOL    HW121707   2.333   0.593   9.492  1.6983  1.3188  1.2305
 3357SOL    HW221708   2.324   0.582   9.644 -3.4148 -1.1401  0.1954
 3358SOL     OW21709   1.616   3.646   3.069  0.1264  0.4181 -0.3120
 3358SOL    HW121710   1.701   3.627   3.108  0.0638  0.2692 -0.2461
 3358SOL    HW221711   1.571   3.562   3.082  1.4281 -0.1303  0.6023
 3359SOL     OW21712   0.572   3.510   2.152 -0.8008 -0.2491  0.3250
 3359SOL    HW121713   0.646   3.512   2.091 -1.3334 -0.6820 -0.3345
 3359SOL    HW221714   0.601   3.427   2.190 -0.7947  0.2704  1.4462
 3360SOL     OW21715   2.575   1.906  13.103 -0.5100  0.6711 -0.1131
 3360SOL    HW121716   2.622   1.941  13.178  1.2430  0.5569 -1.1747
 3360SOL    HW221717   2.485   1.928  13.131  0.0152  0.4061  1.8027
 3361SOL     OW21718   0.792   4.657  17.455  0.5972  0.2590 -0.0204
 3361SOL    HW121719   0.700   4.634  17.459  0.3377  1.3782  0.4392
 3361SOL    HW221720   0.832   4.572  17.436 -0.2091 -0.0450 -0.3652
 3362SOL     OW21721   1.949   2.547   8.591 -0.0356  0.3458 -0.5238
 3362SOL    HW121722   1.996   2.627   8.614 -0.6700  1.0631 -1.6714
 3362SOL    HW221723   2.020   2.489   8.616  1.2693  1.7797 -0.9343
 3363SOL     OW21724   2.060   0.394   3.317 -0.3109  0.2190 -0.1417
 3363SOL    HW121725   2.099   0.472   3.356  0.2674  0.8597 -2.0575
 3363SOL    HW221726   1.998   0.359   3.382  3.3482 -0.7672  2.8229
 3364SOL     OW21727   1.100   0.530  14.499  0.2856 -0.3373 -0.4332
 3364SOL    HW121728   1.119   0.470  14.571 -0.4676 -0.6318 -0.4777
 3364SOL    HW221729   1.127   0.609  14.546 -0.2481 -0.7802  0.6132
 3365SOL     OW21730   1.740   3.555  17.127  0.6125 -0.6457 -0.1948
 3365SOL    HW121731   1.722   3.468  17.090  0.2833 -0.2451 -0.9663
 3365SOL    HW221732   1.650   3.584  17.139  0.3204 -0.9189 -1.6799
 3366SOL     OW21733   1.568   2.571   3.134  0.1722 -0.4613 -0.4586
 3366SOL    HW121734   1.473   2.561   3.138  0.2524 -0.3837  1.5850
 3366SOL    HW221735   1.587   2.608   3.048  1.6506 -0.1519 -0.0018
 3367SOL     OW21736   4.139   1.848   1.773 -0.0436  0.7740 -0.2079
 3367SOL    HW121737   4.048   1.878   1.772  0.7944  3.2957 -0.8708
 3367SOL    HW221738   4.169   1.882   1.689 -0.9611  1.2326 -0.3485
 3368SOL     OW21739   1.999   2.921   7.268 -0.0885 -0.1454  0.2185
 3368SOL    HW121740   2.046   2.955   7.192  2.0030 -2.5647  0.4234
 3368SOL    HW221741   1.932   2.860   7.238 -0.1063 -0.5368  1.0394
 3369SOL     OW21742   4.294   1.784   6.824 -0.0750 -0.0526  1.1394
 3369SOL    HW121743   4.262   1.764   6.736  0.2378 -1.7199  1.4218
 3369SOL    HW221744   4.239   1.859   6.849 -0.8199 -0.0811 -0.3749
 3370SOL     OW21745   0.362   2.512   8.317 -0.6788  0.1119 -0.4698
 3370SOL    HW121746   0.448   2.509   8.274 -0.9574  2.0184 -1.1768
 3370SOL    HW221747   0.335   2.601   8.295 -1.7554 -0.8800 -3.1365
 3371SOL     OW21748   0.526   2.716   3.064 -0.5550 -0.4262  0.0334
 3371SOL    HW121749   0.553   2.798   3.024 -0.2558 -0.3228  0.4417
 3371SOL    HW221750   0.595   2.707   3.130 -1.2304  2.1264  1.0718
 3372SOL     OW21751   4.631   2.177   6.760 -0.0292  0.5908  0.2904
 3372SOL    HW121752   4.598   2.107   6.816 -1.2863  2.0740  1.3753
 3372SOL    HW221753   4.701   2.220   6.808  1.7687 -0.8453 -1.0280
 3373SOL     OW21754   1.301   4.722   4.344  0.1057  0.3914  0.0252
 3373SOL    HW121755   1.351   4.679   4.275 -1.6007 -1.8454  0.1985
 3373SOL    HW221756   1.313   0.075   4.312 -1.2577 -0.1896 -2.1007
 3374SOL     OW21757   0.836   1.848   8.096  0.2888  0.4723 -0.2228
 3374SOL    HW121758   0.844   1.881   8.006  3.7149  2.2108  0.7088
 3374SOL    HW221759   0.776   1.912   8.135 -0.2365  0.6628 -1.3453
 3375SOL     OW21760   0.835   3.545   3.056 -0.0110 -0.5964 -0.2228
 3375SOL    HW121761   0.868   3.462   3.090  0.4724 -0.7142 -0.9812
 3375SOL    HW221762   0.753   3.509   3.023 -0.4102 -0.2507  0.3928
 3376SOL     OW21763   1.864   3.122   9.720  0.0513 -0.1309  0.2066
 3376SOL    HW121764   1.898   3.209   9.739 -1.9338  0.3672  1.4724
 3376SOL    HW221765   1.897   3.068   9.792 -1.0404 -1.1190 -0.0336
 3377SOL     OW21766   1.390   4.096   1.422  0.3848 -0.1325  0.3051
 3377SOL    HW121767   1.439   4.073   1.501 -0.1637 -2.6348 -0.1035
 3377SOL    HW221768   1.411   4.189   1.412  2.0644 -0.6314 -0.7346
 3378SOL     OW21769   2.128   2.984   5.693  0.3609 -0.2695  0.2311
 3378SOL    HW121770   2.080   3.067   5.697  0.1579 -0.6346  5.1942
 3378SOL    HW221771   2.191   3.003   5.763 -1.3499  0.9690  1.4289
 3379SOL     OW21772   2.965   0.956  10.573  0.7322 -0.3749 -0.4015
 3379SOL    HW121773   3.043   1.010  10.587  1.8411 -2.5495  1.8686
 3379SOL    HW221774   2.989   0.877  10.621  0.9386 -1.7043 -2.7215
 3380SOL     OW21775   2.412   0.895   4.106 -0.9221  0.4350  0.6525
 3380SOL    HW121776   2.449   0.809   4.126  2.0980  2.3209  3.1601
 3380SOL    HW221777   2.461   0.951   4.166 -1.6183  1.8040 -0.0700
 3381SOL     OW21778   0.081   1.176   1.836 -0.5000  0.0352 -0.2544
 3381SOL    HW121779   0.046   1.232   1.766  1.4310 -0.0230 -1.2812
 3381SOL    HW221780   0.074   1.088   1.801  1.9723  0.4865 -1.9046
 3382SOL     OW21781   0.946   1.796   1.995  0.3752  0.2357 -0.3151
 3382SOL    HW121782   0.861   1.786   2.039  0.6819 -0.4647  0.1240
 3382SOL    HW221783   0.994   1.858   2.050  1.6077 -0.1118 -0.9903
 3383SOL     OW21784   2.240   3.573   9.124 -0.2187 -0.1687  0.0475
 3383SOL    HW121785   2.263   3.491   9.080  0.7355  0.7570 -1.1503
 3383SOL    HW221786   2.146   3.569   9.105  0.1744 -1.9794 -1.4680
 3384SOL     OW21787   2.417   1.294   9.293  0.1312 -0.2715 -0.3790
 3384SOL    HW121788   2.461   1.230   9.349  0.7755 -0.9386 -1.6681
 3384SOL    HW221789   2.443   1.265   9.206 -1.7117  1.5773 -1.5328
 3385SOL     OW21790   3.131   3.931  17.505  0.0841 -0.5809  0.2144
 3385SOL    HW121791   3.114   3.948  17.598 -1.3934  2.5858 -0.6132
 3385SOL    HW221792   3.170   3.844  17.504  2.6075  0.5837 -1.0638
 3386SOL     OW21793   2.694   3.882   5.855  0.3107 -0.5533 -0.5292
 3386SOL    HW121794   2.758   3.947   5.884 -3.6843  3.3777 -0.3862
 3386SOL    HW221795   2.717   3.878   5.762 -2.7902  3.2449 -1.4931
 3387SOL     OW21796   2.589   3.968  15.478 -0.6551  0.2777 -0.6693
 3387SOL    HW121797   2.654   4.009  15.420 -0.4113  0.4311 -0.2847
 3387SOL    HW221798   2.574   4.031  15.548  0.6401  0.6816 -0.7458
 3388SOL     OW21799   4.513   3.555   6.605 -0.1853 -0.1095  0.1752
 3388SOL    HW121800   4.557   3.630   6.565 -0.5095  0.1042  0.2258
 3388SOL    HW221801   4.437   3.603   6.636  1.5369  1.5982  1.7966
 3389SOL     OW21802   4.018   2.824   0.478 -0.7775 -0.1446 -0.3842
 3389SOL    HW121803   4.071   2.887   0.429  0.0788 -0.3526  0.2651
 3389SOL    HW221804   4.056   2.837   0.565 -1.4639 -0.4288 -0.0460
 3390SOL     OW21805   0.719   0.081   6.262  0.5183  0.2971  0.0556
 3390SOL    HW121806   0.629   0.047   6.264  0.0983  1.5134  1.7104
 3390SOL    HW221807   0.707   0.164   6.307 -0.2831 -0.9951  2.2331
 3391SOL     OW21808   4.277   1.417   1.762  0.0038 -0.2107 -0.2228
 3391SOL    HW121809   4.326   1.493   1.730 -0.7397 -0.5584 -2.1296
 3391SOL    HW221810   4.266   1.429   1.857 -1.5283 -0.7221 -0.3339
 3392SOL     OW21811   1.142   0.299   4.811 -0.6575  0.1099  0.3295
 3392SOL    HW121812   1.188   0.221   4.845 -1.0296  1.2582  3.5164
 3392SOL    HW221813   1.127   0.341   4.896  3.2504 -2.7976  2.4776
 3393SOL     OW21814   2.614   4.566   2.001 -0.5185  0.6217 -0.1530
 3393SOL    HW121815   2.539   4.542   2.056 -0.5441  1.4596  0.1820
 3393SOL    HW221816   2.618   4.489   1.945  1.1438  0.9743 -0.4995
 3394SOL     OW21817   1.441   3.281  14.653  0.1607  0.1438 -0.0276
 3394SOL    HW121818   1.491   3.286  14.572  1.9570  0.8349  1.1181
 3394SOL    HW221819   1.512   3.311  14.709 -0.5125  0.4059  0.6859
 3395SOL     OW21820   4.598   1.955   6.007 -0.0944 -0.1724  0.4564
 3395SOL    HW121821   4.676   1.918   5.966 -1.0135  1.0399 -2.3840
 3395SOL    HW221822   4.567   1.886   6.066 -0.0887 -0.1023  0.5415
 3396SOL     OW21823   2.017   4.614   3.398  0.0630  0.5004  0.6522
 3396SOL    HW121824   2.094   4.606   3.453 -0.7008  1.0531  1.8030
 3396SOL    HW221825   2.045   4.558   3.325  1.2151  0.7130  0.9457
 3397SOL     OW21826   1.741   1.983   5.091 -0.0178 -0.5478 -0.1480
 3397SOL    HW121827   1.662   1.963   5.042 -0.0080  1.6543 -1.0538
 3397SOL    HW221828   1.784   1.899   5.076 -3.4687 -2.3782  0.2251
 3398SOL     OW21829   4.043   4.047   0.172  0.7462  0.5096  0.1025
 3398SOL    HW121830   4.105   3.978   0.198  0.4051  1.2020  2.6952
 3398SOL    HW221831   4.037   4.088   0.258  0.5216 -0.4629  0.5478
 3399SOL     OW21832   3.726   1.719   3.208 -0.0069  0.2588  0.5302
 3399SOL    HW121833   3.703   1.642   3.260 -0.6007  0.1499  0.1074
 3399SOL    HW221834   3.698   1.787   3.269 -1.3989  0.9153 -0.8492
 3400SOL     OW21835   2.423   1.619  16.554  0.0358 -0.2360  0.6426
 3400SOL    HW121836   2.491   1.686  16.561  0.9307 -1.0596 -0.2918
 3400SOL    HW221837   2.349   1.668  16.591  0.7064  0.9625  0.4142
 3401SOL     OW21838   1.736   4.601   6.200  0.1514 -1.1152  0.4533
 3401SOL    HW121839   1.688   4.535   6.149 -1.4148  0.1512  0.2682
 3401SOL    HW221840   1.727   4.556   6.284  2.0075 -2.0598  0.1455
 3402SOL     OW21841   0.375   4.163   5.587 -0.3426  0.1857  0.8499
 3402SOL    HW121842   0.279   4.155   5.585 -0.1153 -2.0752 -1.2957
 3402SOL    HW221843   0.392   4.086   5.532 -1.7554  1.2561 -1.0695
 3403SOL     OW21844   3.156   1.980   8.714 -0.0766 -0.2840  0.0674
 3403SOL    HW121845   3.123   1.939   8.634 -1.4041  1.1255 -0.1291
 3403SOL    HW221846   3.191   2.061   8.676 -0.1072 -0.1994  0.2185
 3404SOL     OW21847   3.246   2.752  17.269 -0.4555  0.1504 -0.1690
 3404SOL    HW121848   3.167   2.702  17.250  1.9671 -3.4275 -0.9427
 3404SOL    HW221849   3.310   2.680  17.269 -0.6493 -0.0179 -3.5197
 3405SOL     OW21850   1.132   2.991   8.381  0.1329  1.0906  0.8964
 3405SOL    HW121851   1.144   2.911   8.431  0.4602  0.4264 -0.2494
 3405SOL    HW221852   1.038   3.008   8.387  0.2111  1.8687 -0.0912
 3406SOL     OW21853   1.998   0.206  13.076  0.1983  0.0518  0.6922
 3406SOL    HW121854   1.905   0.218  13.054 -0.2976 -1.6392  1.8784
 3406SOL    HW221855   2.015   0.278  13.136 -0.1556  0.8854 -0.1889
 3407SOL     OW21856   3.024   3.050   9.376 -0.3745 -0.3154  0.0513
 3407SOL    HW121857   2.999   2.960   9.396  0.0631 -0.8015 -1.5868
 3407SOL    HW221858   3.037   3.068   9.470  0.0270 -1.4567  0.2203
 3408SOL     OW21859   0.107   2.519   6.074  0.1668  0.0207  0.1250
 3408SOL    HW121860   0.023   2.537   6.115  1.2248  1.8244  1.5139
 3408SOL    HW221861   0.161   2.597   6.083 -2.0995  1.5156  0.7297
 3409SOL     OW21862   4.136   0.536  15.500 -0.2910 -0.0533 -0.8026
 3409SOL    HW121863   4.115   0.563  15.589  0.1301 -3.3526  0.2812
 3409SOL    HW221864   4.063   0.483  15.469  0.1130 -1.7241  1.1360
 3410SOL     OW21865   3.621   2.083  12.719 -0.0102  0.8302 -0.1051
 3410SOL    HW121866   3.636   2.000  12.675  0.1550 -0.4232  2.3004
 3410SOL    HW221867   3.600   2.135  12.642  0.5257 -1.0753 -1.5373
 3411SOL     OW21868   0.075   2.078  10.921 -0.9292 -0.3207 -0.2539
 3411SOL    HW121869   0.116   2.004  10.965  1.3297  2.0225  1.6014
 3411SOL    HW221870   0.072   2.046  10.831  1.8821 -1.7533  0.1507
 3412SOL     OW21871   2.659   1.388   4.085  0.2343  0.3307  0.1104
 3412SOL    HW121872   2.626   1.477   4.071 -1.2986 -0.4822 -1.4695
 3412SOL    HW221873   2.605   1.379   4.164  2.0519 -0.3654  1.2692
 3413SOL     OW21874   0.894   0.518   4.305  0.4111  0.0595 -0.0858
 3413SOL    HW121875   0.969   0.467   4.335 -0.5223 -1.5575 -0.5387
 3413SOL    HW221876   0.926   0.606   4.328 -1.9271  0.8806  0.0276
 3414SOL     OW21877   2.497   4.663  16.203 -0.3338  0.0412 -0.1824
 3414SOL    HW121878   2.466   4.696  16.119 -0.6243  0.2745  0.0178
 3414SOL    HW221879   2.591   4.663  16.184 -0.2116 -3.4727  0.4101
 3415SOL     OW21880   3.859   0.860   8.834 -0.0319  0.3362  0.3206
 3415SOL    HW121881   3.767   0.877   8.852  0.2530  0.6681  1.4847
 3415SOL    HW221882   3.862   0.848   8.739 -1.3188 -0.1862  0.3512
 3416SOL     OW21883   0.361   1.523  16.996  0.1517  0.3110  0.4606
 3416SOL    HW121884   0.301   1.474  17.053 -1.3810  1.3485 -0.2536
 3416SOL    HW221885   0.445   1.478  16.997  0.0026  0.0663  1.6014
 3417SOL     OW21886   0.881   3.320   8.235  0.4945 -0.0828  0.6370
 3417SOL    HW121887   0.873   3.254   8.303 -0.8287  1.9968  2.5006
 3417SOL    HW221888   0.815   3.389   8.247  0.6793  0.2634 -0.3396
 3418SOL     OW21889   4.138   1.129   0.139  0.4755  0.3661  0.2085
 3418SOL    HW121890   4.118   1.221   0.127  1.2442  0.5173  0.1216
 3418SOL    HW221891   4.222   1.129   0.095  0.8957 -1.9484  0.9789
 3419SOL     OW21892   0.518   2.972   5.970 -0.1177  0.1813 -0.3881
 3419SOL    HW121893   0.603   2.929   5.979 -0.9750 -1.1583  1.1527
 3419SOL    HW221894   0.540   3.058   6.005 -2.3073 -0.2911  2.1597
 3420SOL     OW21895   0.120   3.877  11.892  0.3365  0.2075 -0.2939
 3420SOL    HW121896   0.199   3.929  11.874  0.3126 -0.4637 -2.3067
 3420SOL    HW221897   0.152   3.835  11.972 -1.7278 -0.8489 -0.0225
 3421SOL     OW21898   1.818   2.380   5.957  0.1278  0.1408 -0.2086
 3421SOL    HW121899   1.868   2.459   5.979 -1.2988  0.9408  0.1891
 3421SOL    HW221900   1.725   2.405   5.959 -0.4552 -2.1325  0.3946
 3422SOL     OW21901   2.684   0.484   6.656  0.0001  0.6537  0.0400
 3422SOL    HW121902   2.625   0.535   6.711  0.9177  0.0138  1.6519
 3422SOL    HW221903   2.685   0.537   6.577 -0.6508  5.3237  3.1651
 3423SOL     OW21904   0.155   3.026   7.769 -0.1661  0.1248  0.1270
 3423SOL    HW121905   0.121   3.057   7.685 -0.7886 -0.3982  0.1898
 3423SOL    HW221906   0.229   3.084   7.785 -0.0966  0.0043  0.2475
 3424SOL     OW21907   4.212   4.696   0.199 -0.1884  0.1511  1.0978
 3424SOL    HW121908   4.254   0.036   0.240 -2.7822  3.1045 -1.7758
 3424SOL    HW221909   4.242   4.626   0.257 -1.6398 -0.4972  1.0651
 3425SOL     OW21910   3.965   2.624  11.258  0.3852  0.1062 -0.2848
 3425SOL    HW121911   3.997   2.633  11.168  1.3975  0.4060  0.0942
 3425SOL    HW221912   3.873   2.609  11.237 -0.2054  2.6686  0.4256
 3426SOL     OW21913   2.582   0.592   4.778 -0.1729  0.3854 -0.2327
 3426SOL    HW121914   2.587   0.656   4.707 -0.2424  2.5312  1.7231
 3426SOL    HW221915   2.606   0.518   4.721 -1.0507 -0.9204  1.1074
 3427SOL     OW21916   3.284   3.660   5.117  0.2512  0.0357 -0.7203
 3427SOL    HW121917   3.299   3.570   5.147  0.0517  1.0495  2.4998
 3427SOL    HW221918   3.338   3.654   5.039  0.7053 -2.4316 -0.2305
 3428SOL     OW21919   2.590   0.050   1.735 -0.2623  0.1058  0.1489
 3428SOL    HW121920   2.550   4.728   1.800  1.3342  0.6500  1.6507
 3428SOL    HW221921   2.593   0.131   1.787  0.8548  0.0274  0.2192
 3429SOL     OW21922   0.438   0.251   8.564  0.9427 -0.0113 -0.3329
 3429SOL    HW121923   0.400   0.245   8.651  1.2624  1.8608 -0.0479
 3429SOL    HW221924   0.526   0.223   8.587  0.7269  1.0485  1.7785
 3430SOL     OW21925   1.970   0.161   2.520 -0.4616 -0.1150 -0.6334
 3430SOL    HW121926   1.970   0.093   2.588 -1.3763 -1.0436 -1.5639
 3430SOL    HW221927   1.967   0.236   2.579 -0.2896  1.0112 -2.0590
 3431SOL     OW21928   1.042   4.441  15.611 -0.1550  0.0070 -0.2089
 3431SOL    HW121929   1.104   4.368  15.610 -0.6130 -0.3828  0.4341
 3431SOL    HW221930   1.107   4.505  15.641  0.4625  0.0371 -1.5976
 3432SOL     OW21931   1.940   0.211   6.156  0.5947  0.1384 -0.2801
 3432SOL    HW121932   1.942   0.302   6.185  0.2990 -0.7135  2.3485
 3432SOL    HW221933   1.852   0.209   6.119  1.0097  1.4357 -1.3509
 3433SOL     OW21934   3.433   0.467   2.477  0.0037  0.0166  0.0338
 3433SOL    HW121935   3.454   0.498   2.565  1.5365 -1.3452  0.1318
 3433SOL    HW221936   3.364   0.406   2.502  0.9805 -0.8499  0.5656
 3434SOL     OW21937   3.836   0.477  10.664  0.0068 -0.2127  0.3533
 3434SOL    HW121938   3.884   0.449  10.742  3.0754  0.8121 -1.1803
 3434SOL    HW221939   3.903   0.502  10.600  0.5447 -1.0181  0.6037
 3435SOL     OW21940   3.912   2.714   8.563 -0.8466 -0.3292  0.6342
 3435SOL    HW121941   3.850   2.729   8.491 -0.3784  0.5142  0.4141
 3435SOL    HW221942   3.988   2.763   8.532  0.3815 -1.3678  2.0092
 3436SOL     OW21943   2.468   0.922   5.719  0.5966 -0.1622  0.0889
 3436SOL    HW121944   2.535   0.875   5.669 -0.5725 -0.6757 -0.9773
 3436SOL    HW221945   2.487   1.010   5.685 -2.4285  0.1775 -0.7569
 3437SOL     OW21946   3.350   3.814   1.111 -0.4080 -0.1476  0.3658
 3437SOL    HW121947   3.275   3.806   1.171  0.5920 -0.2765  1.5957
 3437SOL    HW221948   3.414   3.795   1.180 -0.6684 -0.7714  0.4370
 3438SOL     OW21949   0.524   4.526  12.653 -0.3501 -0.3645  0.4374
 3438SOL    HW121950   0.618   4.514  12.657 -0.0996  0.2793 -2.8665
 3438SOL    HW221951   0.508   4.612  12.612 -2.9880 -1.6208 -1.1816
 3439SOL     OW21952   0.378   2.234  17.690 -0.0934 -0.3863  0.2591
 3439SOL    HW121953   0.343   2.320  17.671 -1.8722 -1.4041 -1.0892
 3439SOL    HW221954   0.354   2.186  17.611 -1.7196 -1.6762  1.5403
 3440SOL     OW21955   2.622   4.467   5.247 -0.1348  0.3363 -0.3307
 3440SOL    HW121956   2.638   4.404   5.177  2.2606  1.2919 -0.6557
 3440SOL    HW221957   2.547   4.518   5.218  0.0066  0.2168 -0.8987
 3441SOL     OW21958   3.460   3.745   1.353  0.2088  0.6698  1.0752
 3441SOL    HW121959   3.411   3.784   1.425 -0.2021  0.5068  0.8860
 3441SOL    HW221960   3.527   3.809   1.332  1.6754 -1.1145  0.3737
 3442SOL     OW21961   2.824   4.358   9.179  0.2246  0.7758 -0.1649
 3442SOL    HW121962   2.903   4.348   9.231 -1.2023 -1.2519  1.6138
 3442SOL    HW221963   2.791   4.444   9.207 -1.5351 -0.1791  0.6598
 3443SOL     OW21964   3.926   1.084  14.929 -0.5267  0.6691  0.0119
 3443SOL    HW121965   3.911   1.029  14.852 -0.2896  0.3232  0.2145
 3443SOL    HW221966   3.919   1.015  14.994  0.7263  1.2246  0.7259
 3444SOL     OW21967   4.668   3.678   4.764 -0.1517 -0.1752 -0.7966
 3444SOL    HW121968   4.629   3.592   4.781 -0.1027 -0.2580 -1.1064
 3444SOL    HW221969   4.725   3.685   4.840 -2.3657 -0.5334  0.9036
 3445SOL     OW21970   0.624   0.386   5.402  0.1136 -0.0523 -0.5036
 3445SOL    HW121971   0.639   0.309   5.458  0.7309 -1.2594 -2.3433
 3445SOL    HW221972   0.697   0.393   5.342  0.7171 -2.1617 -0.0252
 3446SOL     OW21973   3.076   0.739   3.974 -0.5426 -1.0434 -0.0992
 3446SOL    HW121974   2.981   0.740   3.988 -0.5286 -3.7205  0.2102
 3446SOL    HW221975   3.089   0.671   3.908 -2.5170 -0.4297 -1.1237
 3447SOL     OW21976   2.775   2.271   8.953  0.5073 -0.2095  0.4439
 3447SOL    HW121977   2.745   2.181   8.960 -0.9505  0.2923  0.5122
 3447SOL    HW221978   2.694   2.315   8.979 -0.3522 -2.8261  2.2275
 3448SOL     OW21979   3.995   2.234   8.884  0.1775  0.3622 -0.3561
 3448SOL    HW121980   3.925   2.261   8.943 -0.0369 -1.3202  0.1678
 3448SOL    HW221981   4.069   2.271   8.932  0.2478  0.5112 -0.5822
 3449SOL     OW21982   2.202   1.610  11.125  0.3424 -0.0498  0.2323
 3449SOL    HW121983   2.209   1.581  11.034  4.3915  0.0302  0.5243
 3449SOL    HW221984   2.139   1.552  11.168 -0.6005  0.0391 -1.0282
 3450SOL     OW21985   1.741   3.949   8.709 -0.6522 -0.9008  0.3689
 3450SOL    HW121986   1.684   3.940   8.785  1.0884 -0.6074  1.7196
 3450SOL    HW221987   1.669   3.935   8.648 -2.1977  2.9891  1.2705
 3451SOL     OW21988   1.871   4.109   9.484 -1.0429  0.1907  0.4552
 3451SOL    HW121989   1.776   4.111   9.496 -0.9267  1.5937  1.1104
 3451SOL    HW221990   1.892   4.023   9.521 -2.8765 -0.7913 -0.8158
 3452SOL     OW21991   0.409   4.466  17.115 -0.0031  0.4757 -0.1287
 3452SOL    HW121992   0.374   4.388  17.160 -0.6148  1.1104  0.5126
 3452SOL    HW221993   0.472   4.419  17.061 -1.3083 -0.9546 -0.4122
 3453SOL     OW21994   4.094   4.038  12.965  0.1693  0.4086  0.0761
 3453SOL    HW121995   4.047   3.973  12.914 -0.3927  0.8951 -0.0290
 3453SOL    HW221996   4.180   3.996  12.963 -0.2922 -0.5004 -1.1104
 3454SOL     OW21997   2.396   0.384   3.448  0.7658  0.1483 -0.4785
 3454SOL    HW121998   2.388   0.289   3.445  0.4477  0.1501  0.2374
 3454SOL    HW221999   2.385   0.398   3.353 -0.7265 -0.8462 -0.4549
 3455SOL     OW22000   3.976   3.455   4.591  0.0544  0.3662  0.4848
 3455SOL    HW122001   3.954   3.502   4.671  1.9258 -0.0947  1.2687
 3455SOL    HW222002   4.000   3.374   4.635 -0.8344 -0.5780 -0.7585
 3456SOL     OW22003   4.075   0.781  15.620 -0.4357 -0.3662 -0.0487
 3456SOL    HW122004   4.065   0.868  15.581 -4.9037 -1.0086 -0.3354
 3456SOL    HW222005   4.012   0.791  15.692  1.9155  0.1827  1.9550
 3457SOL     OW22006   1.230   4.112   1.074 -0.2927  0.4620  0.4506
 3457SOL    HW122007   1.258   4.169   1.002 -1.9446  2.2343  1.1811
 3457SOL    HW222008   1.263   4.024   1.055  1.8546  1.6547 -1.4239
 3458SOL     OW22009   1.700   0.481  15.940 -0.2125  0.5492 -0.0035
 3458SOL    HW122010   1.754   0.409  15.907 -1.2893 -0.5803  0.6523
 3458SOL    HW222011   1.691   0.542  15.867  0.7460 -2.3399 -2.5208
 3459SOL     OW22012   2.902   4.527   6.566  0.2423  0.3647  0.1093
 3459SOL    HW122013   2.876   4.522   6.475  0.3027  0.7502  0.0711
 3459SOL    HW222014   2.867   4.613   6.588 -0.1875  0.1106  0.4201
 3460SOL     OW22015   4.736   2.853   6.590  0.3402  0.1801  0.5226
 3460SOL    HW122016   0.070   2.859   6.655  0.9589  0.8230 -0.2104
 3460SOL    HW222017   4.674   2.814   6.652  0.0334  1.7487  1.1980
 3461SOL     OW22018   0.014   3.988   1.224  0.0172  0.0949 -0.4145
 3461SOL    HW122019   4.686   3.968   1.156 -2.2486 -0.7426  1.9709
 3461SOL    HW222020   0.021   3.900   1.261 -0.5303  0.1236 -0.2492
 3462SOL     OW22021   2.314   0.926   3.410 -0.0459  0.0683  0.7228
 3462SOL    HW122022   2.348   0.971   3.488 -0.7222 -0.1601  1.1517
 3462SOL    HW222023   2.245   0.985   3.380  1.7652  2.4173  1.1459
 3463SOL     OW22024   0.735   3.694  15.596  0.2491 -0.1991 -0.0663
 3463SOL    HW122025   0.753   3.668  15.505  1.0071  1.0438 -0.2768
 3463SOL    HW222026   0.642   3.674  15.602  0.2115  0.6665  2.1164
 3464SOL     OW22027   1.957   2.143   2.518 -0.0582  0.3424 -0.6690
 3464SOL    HW122028   2.045   2.164   2.551  0.1048 -3.2130  1.1562
 3464SOL    HW222029   1.913   2.219   2.557 -1.4706 -2.0882  2.4228
 3465SOL     OW22030   4.257   0.689   8.184  0.4760 -0.4279  0.8167
 3465SOL    HW122031   4.307   0.633   8.125  0.3820  0.0056  0.3314
 3465SOL    HW222032   4.237   0.760   8.124  1.5404 -2.0914 -1.4866
 3466SOL     OW22033   1.524   3.034   9.201  0.1170 -0.0752 -0.2253
 3466SOL    HW122034   1.617   3.047   9.219  0.2931  0.2497 -1.3774
 3466SOL    HW222035   1.493   3.117   9.166  0.2561 -1.0472 -2.6853
 3467SOL     OW22036   0.572   2.328   3.155 -0.2103  0.0159 -0.3013
 3467SOL    HW122037   0.544   2.236   3.151 -1.1859  0.2549  0.9125
 3467SOL    HW222038   0.645   2.323   3.217 -0.7652  3.4903  0.6610
 3468SOL     OW22039   3.072   1.835   2.000 -0.5569 -0.8216  0.1459
 3468SOL    HW122040   3.158   1.840   1.958 -0.4776  1.1457  0.5431
 3468SOL    HW222041   3.022   1.865   1.924 -0.4880 -0.3913  0.2676
 3469SOL     OW22042   1.927   4.712   1.986  0.1387  0.7396  0.7221
 3469SOL    HW122043   2.001   4.685   1.932 -1.4423  1.0775 -1.5836
 3469SOL    HW222044   1.946   0.070   1.981 -1.8150  1.2705  3.1725
 3470SOL     OW22045   2.893   4.562   2.075 -0.1826  0.2367  0.0873
 3470SOL    HW122046   2.889   4.653   2.045 -0.8641  0.0033 -0.5182
 3470SOL    HW222047   2.798   4.560   2.087 -0.1613 -1.1205  0.0125
 3471SOL     OW22048   2.275   3.609  11.838  0.0886  0.0386  0.2653
 3471SOL    HW122049   2.289   3.526  11.794 -0.7937  0.1088 -0.1613
 3471SOL    HW222050   2.281   3.582  11.930 -0.5686  2.7405  1.1299
 3472SOL     OW22051   4.018   1.019   5.796 -0.2818  0.5156  0.0313
 3472SOL    HW122052   4.058   1.101   5.768 -1.3172  0.3408 -1.9381
 3472SOL    HW222053   4.032   1.026   5.891  0.2671  0.9905 -0.0859
 3473SOL     OW22054   2.810   0.629  17.356  0.0033  0.3729 -0.1116
 3473SOL    HW122055   2.848   0.669  17.435 -0.4905 -1.2029  0.9284
 3473SOL    HW222056   2.810   0.539  17.390  0.1308  1.4637  2.7999
 3474SOL     OW22057   3.978   4.033  10.170 -0.1811  0.1781  0.0481
 3474SOL    HW122058   4.035   4.070  10.237 -1.3588  0.0103  1.1240
 3474SOL    HW222059   4.011   4.080  10.093  2.9504 -1.0784  0.6194
 3475SOL     OW22060   3.943   3.213   5.436 -0.0638 -0.1477  0.1014
 3475SOL    HW122061   3.873   3.173   5.385  1.2274 -0.3025 -1.5293
 3475SOL    HW222062   3.929   3.302   5.405 -0.5820 -0.2036  0.1811
 3476SOL     OW22063   3.119   3.768   1.252  0.2346 -0.5806  0.3486
 3476SOL    HW122064   3.133   3.695   1.314  0.2515 -1.4699 -0.7007
 3476SOL    HW222065   3.044   3.728   1.207 -0.0007  0.2209  0.0399
 3477SOL     OW22066   0.522   3.722   8.664 -0.0418 -0.2237  0.1879
 3477SOL    HW122067   0.539   3.752   8.753  1.4824 -1.4513  0.3211
 3477SOL    HW222068   0.446   3.671   8.690  0.3920 -1.9512 -1.8768
 3478SOL     OW22069   2.087   1.585   1.966 -0.0229 -0.2706 -0.1968
 3478SOL    HW122070   2.055   1.498   1.943  1.3637 -0.6338 -0.7517
 3478SOL    HW222071   2.175   1.576   1.928  1.0321  2.6297  1.5803
 3479SOL     OW22072   3.251   0.160   7.410 -0.2852 -0.5078  0.8901
 3479SOL    HW122073   3.318   0.126   7.350 -0.5294 -0.3894  0.5521
 3479SOL    HW222074   3.242   0.252   7.388  1.6852  0.2743  3.4289
 3480SOL     OW22075   3.767   2.779   7.978  0.0177 -0.5235 -0.5260
 3480SOL    HW122076   3.731   2.855   8.024 -0.4605 -2.5062  2.3842
 3480SOL    HW222077   3.684   2.732   7.973 -0.9383  1.0751  0.2398
 3481SOL     OW22078   2.107   3.812  12.495  0.2089 -0.0753  0.2729
 3481SOL    HW122079   2.166   3.740  12.517  0.2275 -0.1979 -0.1869
 3481SOL    HW222080   2.168   3.884  12.483  3.2854 -3.1297 -2.4092
 3482SOL     OW22081   2.508   0.181  13.275  0.1907  0.7537 -0.1631
 3482SOL    HW122082   2.516   0.229  13.193 -2.1920 -1.3861 -1.6558
 3482SOL    HW222083   2.536   0.093  13.253 -1.6497 -0.1878  1.2713
 3483SOL     OW22084   2.221   3.414  13.275 -0.3032  0.2469 -0.2295
 3483SOL    HW122085   2.274   3.411  13.354 -1.1230 -1.3384  0.2408
 3483SOL    HW222086   2.241   3.504  13.248 -1.1826  0.7445  0.7863
 3484SOL     OW22087   1.086   3.684   2.960  0.6800  0.2567  0.1801
 3484SOL    HW122088   1.078   3.746   2.888  1.9141  0.5026  0.2479
 3484SOL    HW222089   0.993   3.664   2.972  0.1862  2.3064 -0.3907
 3485SOL     OW22090   4.312   3.431   1.240  0.3935 -0.2090 -0.0040
 3485SOL    HW122091   4.261   3.491   1.294  0.6250  0.7345 -0.8225
 3485SOL    HW222092   4.378   3.391   1.296 -0.8375  1.0513  2.3230
 3486SOL     OW22093   3.939   4.043   1.835  0.2775  0.1961 -0.0798
 3486SOL    HW122094   3.881   3.968   1.848  1.2177 -0.2059  1.7988
 3486SOL    HW222095   3.870   4.107   1.815  0.9332  1.0804  0.5068
 3487SOL     OW22096   3.482   4.652   1.155  0.0585  0.3445 -0.2871
 3487SOL    HW122097   3.465   4.705   1.233  0.5270 -1.1644  0.8343
 3487SOL    HW222098   3.396   4.647   1.112 -1.3342  1.3332  2.3447
 3488SOL     OW22099   4.052   2.150   6.277  0.2041  0.2185  0.1764
 3488SOL    HW122100   4.041   2.238   6.241 -1.4551  0.6941  1.8082
 3488SOL    HW222101   4.078   2.169   6.367 -2.5141  0.7872  0.8397
 3489SOL     OW22102   4.554   1.512   1.848  0.1571 -0.0511 -0.2248
 3489SOL    HW122103   4.573   1.418   1.849  1.2187  0.1857  1.4284
 3489SOL    HW222104   4.582   1.535   1.937  0.4538  0.8336 -0.5401
 3490SOL     OW22105   1.535   0.441   1.781  0.3299  0.1122 -0.0181
 3490SOL    HW122106   1.488   0.382   1.722 -3.0419  0.4364  2.3433
 3490SOL    HW222107   1.546   0.378   1.852  2.3276  0.7717  0.2702
 3491SOL     OW22108   4.145   2.862  13.367 -0.3071 -1.0144  0.3528
 3491SOL    HW122109   4.124   2.882  13.459 -0.4600  1.0425 -0.1185
 3491SOL    HW222110   4.198   2.785  13.383 -0.4916 -0.9514  1.3108
 3492SOL     OW22111   3.986   1.694   9.501  0.2494 -0.2739 -0.3933
 3492SOL    HW122112   4.038   1.704   9.580 -0.4753 -0.7102  0.1331
 3492SOL    HW222113   3.906   1.660   9.541 -0.2902 -0.8909 -1.9597
 3493SOL     OW22114   0.239   1.483   1.917  0.3662 -0.1692  0.0159
 3493SOL    HW122115   0.285   1.399   1.912  0.7723 -0.0314  1.3448
 3493SOL    HW222116   0.189   1.463   1.996 -0.7991  0.2975 -0.6157
 3494SOL     OW22117   2.163   0.892   8.290 -0.2091 -0.3880 -0.0607
 3494SOL    HW122118   2.085   0.840   8.271 -0.0483 -0.9450  0.7873
 3494SOL    HW222119   2.126   0.980   8.303  2.7367  1.1708 -2.3189
 3495SOL     OW22120   0.408   3.714   2.099 -0.1405  0.0570  0.1550
 3495SOL    HW122121   0.482   3.653   2.106  0.9252  1.1846 -1.3112
 3495SOL    HW222122   0.335   3.665   2.138 -0.9972  0.0905 -1.4017
 3496SOL     OW22123   1.616   4.650   9.547  0.3252 -0.0144 -0.1462
 3496SOL    HW122124   1.576   4.724   9.592  1.2742  0.1915  0.3630
 3496SOL    HW222125   1.671   4.701   9.488  0.2070  0.9064  0.5306
 3497SOL     OW22126   2.094   1.490   3.359 -0.2253 -0.2755 -0.4221
 3497SOL    HW122127   2.094   1.491   3.454 -0.9353  1.7434 -0.4557
 3497SOL    HW222128   2.187   1.475   3.341 -0.2568  0.6596 -1.3822
 3498SOL     OW22129   0.637   0.510   6.133  0.4328 -0.3452 -0.3531
 3498SOL    HW122130   0.711   0.463   6.094  1.7118  1.0649  0.3899
 3498SOL    HW222131   0.621   0.454   6.209 -0.7003 -1.5607 -1.4905
 3499SOL     OW22132   3.132   3.521   8.803 -0.0830 -0.6928 -0.3421
 3499SOL    HW122133   3.135   3.616   8.801 -0.1364 -0.6588  1.3303
 3499SOL    HW222134   3.225   3.501   8.792  0.0290 -0.0086 -0.6213
 3500SOL     OW22135   1.276   3.504   5.924 -0.5359  0.9034  0.1744
 3500SOL    HW122136   1.276   3.419   5.968 -2.7207  0.8462  0.0611
 3500SOL    HW222137   1.282   3.569   5.993 -1.4598  1.2228 -0.0408
 3501SOL     OW22138   4.508   0.890   0.932 -0.0072 -0.6265 -0.3900
 3501SOL    HW122139   4.507   0.932   0.846 -1.2994  0.0750 -0.0308
 3501SOL    HW222140   4.545   0.965   0.979 -1.8837  0.1542 -0.1938
 3502SOL     OW22141   1.879   3.163   4.470 -0.3598  0.3782 -0.1891
 3502SOL    HW122142   1.806   3.101   4.470  0.0222 -0.0634 -0.2318
 3502SOL    HW222143   1.904   3.138   4.558 -0.1968  2.2491  0.2957
 3503SOL     OW22144   2.060   2.198   3.526  0.1342 -0.3837 -0.4346
 3503SOL    HW122145   2.135   2.210   3.467 -0.6222 -0.8932 -1.4927
 3503SOL    HW222146   1.988   2.183   3.465  0.1863 -1.8109 -0.1546
 3504SOL     OW22147   2.890   3.063   9.975 -0.2678  0.3539 -0.2264
 3504SOL    HW122148   2.920   3.154   9.968  0.9172  0.0119  0.4161
 3504SOL    HW222149   2.797   3.065   9.995 -0.3012 -1.3285 -0.2464
 3505SOL     OW22150   0.101   2.209   1.644  0.0381 -0.0943  0.1694
 3505SOL    HW122151   0.052   2.251   1.714  0.0350  1.1617 -0.5869
 3505SOL    HW222152   0.176   2.267   1.633 -0.0652  0.1746  0.9151
 3506SOL     OW22153   4.058   0.689  15.271 -0.1124  0.6456  0.1182
 3506SOL    HW122154   4.138   0.654  15.233 -0.8771 -2.5460  1.4644
 3506SOL    HW222155   4.085   0.668  15.361 -0.0948 -0.6743 -0.1979
 3507SOL     OW22156   0.905   3.703   5.054 -0.2302 -0.4325 -0.1290
 3507SOL    HW122157   0.855   3.623   5.073  1.5193 -1.6200 -0.4914
 3507SOL    HW222158   0.839   3.772   5.064  1.6270  1.0337  1.9022
 3508SOL     OW22159   2.912   3.955  16.021 -0.2269  0.5314  0.3649
 3508SOL    HW122160   2.867   3.880  15.981 -0.8717  0.2897  1.5636
 3508SOL    HW222161   2.917   3.924  16.111  0.4790 -1.1277 -0.2360
 3509SOL     OW22162   1.332   3.105   9.801  0.0288 -0.5165  0.9490
 3509SOL    HW122163   1.300   3.032   9.853  0.9562  0.8116  3.3746
 3509SOL    HW222164   1.253   3.158   9.791  0.5143 -0.2979 -1.8642
 3510SOL     OW22165   1.026   2.936  15.834 -0.1060 -0.1979 -0.1077
 3510SOL    HW122166   1.021   2.857  15.886  2.3785 -1.4276 -1.7691
 3510SOL    HW222167   1.120   2.931  15.821 -0.0456  3.0234 -1.0794
 3511SOL     OW22168   1.348   1.627   6.687 -0.0286  0.1086 -0.2979
 3511SOL    HW122169   1.291   1.657   6.616 -1.1723 -2.1711 -0.3552
 3511SOL    HW222170   1.287   1.635   6.761  1.0402  0.3242  0.5549
 3512SOL     OW22171   4.450   4.489  10.930 -0.2018 -0.5120  0.1950
 3512SOL    HW122172   4.543   4.473  10.948 -0.6865 -0.7199  2.4863
 3512SOL    HW222173   4.406   4.439  10.999  1.1008  0.0733  1.4450
 3513SOL     OW22174   2.405   2.473   6.634  0.2587  0.6539  0.5240
 3513SOL    HW122175   2.388   2.504   6.545 -0.2693  0.3726  0.5278
 3513SOL    HW222176   2.485   2.419   6.635 -0.1211  0.0789 -0.0423
 3514SOL     OW22177   0.909   3.119   0.448 -0.2148 -0.8888  1.4555
 3514SOL    HW122178   0.966   3.061   0.398 -1.9732 -0.4091 -1.1561
 3514SOL    HW222179   0.976   3.143   0.511  0.6676 -0.0837  0.2244
 3515SOL     OW22180   4.524   0.132   3.067  0.4527  0.3407 -0.7830
 3515SOL    HW122181   4.573   0.134   3.149  1.9545  1.4884 -1.6954
 3515SOL    HW222182   4.587   0.084   3.013  1.5009  1.5943 -0.7025
 3516SOL     OW22183   2.430   3.431   1.832 -0.5311  0.4752 -0.4813
 3516SOL    HW122184   2.444   3.385   1.914  1.9312  1.2999 -0.4316
 3516SOL    HW222185   2.365   3.372   1.795 -0.4105 -0.0570  0.1524
 3517SOL     OW22186   4.286   4.413   5.426  0.1113 -0.8798  0.6431
 3517SOL    HW122187   4.199   4.376   5.417 -0.6870  1.6904 -2.3966
 3517SOL    HW222188   4.345   4.339   5.409 -0.3708 -1.2596  0.6485
 3518SOL     OW22189   2.677   0.406   2.764 -0.0780  0.6901 -0.4410
 3518SOL    HW122190   2.743   0.346   2.799 -1.5696  0.1115  1.3526
 3518SOL    HW222191   2.602   0.391   2.820  0.6819  1.4707  0.7873
 3519SOL     OW22192   1.424   3.725   4.945  0.5471 -0.3482 -0.5014
 3519SOL    HW122193   1.371   3.651   4.974  0.7073 -1.1537 -2.2258
 3519SOL    HW222194   1.392   3.801   4.994 -0.1065 -2.1390  1.8351
 3520SOL     OW22195   3.699   1.713   4.536  1.0532  0.6742  0.5000
 3520SOL    HW122196   3.698   1.617   4.541  1.3318  0.7502  2.2301
 3520SOL    HW222197   3.649   1.724   4.456  2.1334  2.0696  0.0323
 3521SOL     OW22198   2.253   3.646   4.353  0.2051 -0.0662  0.0379
 3521SOL    HW122199   2.257   3.740   4.339  0.2516 -0.3562 -1.9207
 3521SOL    HW222200   2.171   3.629   4.307 -0.8806  1.0562  1.5797
 3522SOL     OW22201   0.603   4.581  13.610  0.3441  0.3992  0.2553
 3522SOL    HW122202   0.598   4.656  13.551  2.2507  0.7251  0.5094
 3522SOL    HW222203   0.608   4.610  13.700 -0.4387  1.9484 -0.2143
 3523SOL     OW22204   1.300   1.239   4.363 -0.0272 -0.3930 -0.3998
 3523SOL    HW122205   1.368   1.176   4.339  0.4469  0.4369 -1.2366
 3523SOL    HW222206   1.289   1.211   4.454  0.4128  0.2280 -0.1577
 3524SOL     OW22207   0.712   2.606   1.788  0.2856 -0.1278  0.1527
 3524SOL    HW122208   0.623   2.613   1.821  0.0681 -0.0217 -0.4610
 3524SOL    HW222209   0.760   2.603   1.872  1.3313 -1.0532 -0.4731
 3525SOL     OW22210   1.511   1.360   4.067  0.1657 -0.0537  0.2094
 3525SOL    HW122211   1.520   1.362   4.162 -3.0751 -0.3023  0.5234
 3525SOL    HW222212   1.601   1.385   4.045  0.1801 -0.0550  0.2678
 3526SOL     OW22213   4.696   3.165   3.313 -0.0430 -0.0281 -0.4275
 3526SOL    HW122214   0.004   3.171   3.229 -0.0281  0.1740 -0.4068
 3526SOL    HW222215   4.620   3.223   3.317  0.4217  0.5969 -0.6604
 3527SOL     OW22216   0.340   3.012   3.244  0.6140 -0.3551  0.0767
 3527SOL    HW122217   0.374   3.101   3.256  0.1545 -0.0802 -0.7107
 3527SOL    HW222218   0.384   2.976   3.322 -0.5275  0.0599  0.9093
 3528SOL     OW22219   2.273   4.577  14.170 -0.1004 -0.1552  0.3046
 3528SOL    HW122220   2.219   4.573  14.249  1.0874 -0.8512  1.0684
 3528SOL    HW222221   2.358   4.581  14.213 -0.1672 -0.0309  0.4245
 3529SOL     OW22222   3.708   0.293  15.582 -0.1369  0.0346  0.4227
 3529SOL    HW122223   3.720   0.381  15.616  1.5179  0.1388 -0.4061
 3529SOL    HW222224   3.616   0.288  15.605 -0.3193  0.1538 -0.2892
 3530SOL     OW22225   1.822   1.717   9.127 -0.2640 -0.0292 -0.6176
 3530SOL    HW122226   1.805   1.678   9.042  2.7659 -1.1787 -0.6864
 3530SOL    HW222227   1.736   1.707   9.169  0.2878  2.2151  1.0991
 3531SOL     OW22228   4.660   1.468  15.351  0.1429  0.8791  0.1005
 3531SOL    HW122229   4.695   1.524  15.282 -0.3507  2.2811  0.9866
 3531SOL    HW222230   0.005   1.454  15.399  0.6625  2.1338 -0.4266
 3532SOL     OW22231   4.125   4.353  11.182  0.4920 -0.7601  0.2796
 3532SOL    HW122232   4.137   4.365  11.276 -1.5067 -1.2632  0.5925
 3532SOL    HW222233   4.047   4.299  11.174 -0.8985  1.0943  1.2744
 3533SOL     OW22234   3.288   1.911   1.854 -0.4530  0.3136  0.6960
 3533SOL    HW122235   3.301   2.004   1.837  1.5927  0.2214  1.7970
 3533SOL    HW222236   3.319   1.911   1.945 -0.4554 -0.5874  0.6968
 3534SOL     OW22237   2.796   3.327   0.838  0.0688 -0.4875  0.3415
 3534SOL    HW122238   2.841   3.391   0.783  0.9556  0.6902  2.4096
 3534SOL    HW222239   2.754   3.273   0.772 -1.8622 -0.0729  1.2368
 3535SOL     OW22240   4.582   1.577   4.315  0.4275 -0.2047 -0.5103
 3535SOL    HW122241   4.555   1.623   4.394  0.9744 -0.0369 -0.4217
 3535SOL    HW222242   4.670   1.613   4.320  0.5603 -0.9747  2.4070
 3536SOL     OW22243   0.283   1.918   2.067  0.4038  0.0316  0.4697
 3536SOL    HW122244   0.355   1.856   2.056  1.1386  1.2450 -1.5911
 3536SOL    HW222245   0.329   1.995   2.034 -1.3489  1.2125  0.7850
 3537SOL     OW22246   3.460   0.512  15.412 -0.3535 -0.6109  0.0378
 3537SOL    HW122247   3.490   0.462  15.488  0.1408 -0.3266  0.0277
 3537SOL    HW222248   3.399   0.448  15.375 -1.5498 -0.8552  2.3791
 3538SOL     OW22249   2.722   3.424  10.685  0.1332 -0.4799 -0.3051
 3538SOL    HW122250   2.798   3.403  10.738 -0.3211 -0.7272  0.2476
 3538SOL    HW222251   2.673   3.492  10.731  2.5309  2.3700 -2.0093
 3539SOL     OW22252   0.812   4.030   3.873  0.1881  0.1677 -0.0847
 3539SOL    HW122253   0.892   4.072   3.839 -0.6612  0.9063 -1.1976
 3539SOL    HW222254   0.761   4.026   3.792 -1.6757  0.7547  1.0614
 3540SOL     OW22255   2.377   4.312   1.508 -0.1495  0.3454  0.0186
 3540SOL    HW122256   2.314   4.247   1.479 -1.3049  0.9243  1.2415
 3540SOL    HW222257   2.363   4.316   1.602 -2.4283 -0.3694 -0.3035
 3541SOL     OW22258   1.047   3.364  11.072  0.2665  0.2027 -0.6499
 3541SOL    HW122259   0.987   3.371  10.997 -0.6665 -1.7169 -0.0973
 3541SOL    HW222260   1.086   3.451  11.063  0.5868  0.1627  0.3426
 3542SOL     OW22261   3.085   3.503   4.489 -0.0352 -0.8582 -0.0503
 3542SOL    HW122262   3.120   3.464   4.409  2.0551 -1.2294  1.0370
 3542SOL    HW222263   2.999   3.463   4.492 -0.5177  0.0964 -1.2383
 3543SOL     OW22264   0.406   1.132   4.921 -0.8362 -0.0100  0.0177
 3543SOL    HW122265   0.387   1.213   4.874 -1.0137 -0.3219 -0.4481
 3543SOL    HW222266   0.453   1.168   4.996  1.0541  0.4453 -1.3873
 3544SOL     OW22267   4.538   0.282   4.115  0.1948 -0.6041  0.4954
 3544SOL    HW122268   4.497   0.208   4.160  1.7899 -0.4831  2.1260
 3544SOL    HW222269   4.625   0.271   4.153 -0.4554 -2.8313  1.3148
 3545SOL     OW22270   3.191   2.284  13.574  0.5321 -0.3290  0.0429
 3545SOL    HW122271   3.145   2.349  13.626 -1.5801 -0.9114 -1.0914
 3545SOL    HW222272   3.195   2.327  13.488  0.0535  0.7753  0.5715
 3546SOL     OW22273   3.809   2.216   7.681 -0.4354  0.0893 -0.4129
 3546SOL    HW122274   3.720   2.193   7.710 -0.0573 -0.5035  0.2541
 3546SOL    HW222275   3.860   2.190   7.757  0.9559  1.7640 -0.7803
 3547SOL     OW22276   2.460   1.850   7.773 -0.1304 -0.2117  0.2789
 3547SOL    HW122277   2.446   1.826   7.682 -0.6406 -0.6024  0.4661
 3547SOL    HW222278   2.500   1.769   7.804 -0.0389  0.3740  1.6964
 3548SOL     OW22279   3.773   3.813   9.214 -0.1347 -0.0489  0.1377
 3548SOL    HW122280   3.722   3.835   9.292  0.1521 -1.6264  0.7707
 3548SOL    HW222281   3.769   3.891   9.158  0.4761 -0.3222 -0.2955
 3549SOL     OW22282   0.951   3.483   5.980 -0.5590 -0.3105  0.0620
 3549SOL    HW122283   0.932   3.513   6.068 -2.7838 -1.1994 -0.1249
 3549SOL    HW222284   0.861   3.495   5.950 -0.1404  2.8104 -0.0220
 3550SOL     OW22285   3.009   2.418   3.461  0.3062  0.7894 -0.3358
 3550SOL    HW122286   3.005   2.329   3.495 -2.1432  1.8833  2.2618
 3550SOL    HW222287   3.017   2.475   3.537 -0.3952  0.0927  0.2585
 3551SOL     OW22288   3.453   4.272   6.572  0.0913 -0.2105 -0.3577
 3551SOL    HW122289   3.431   4.233   6.487  0.2468  0.8778 -0.8991
 3551SOL    HW222290   3.401   4.352   6.563 -0.3090 -0.4235  0.0642
 3552SOL     OW22291   3.967   2.031   3.316  0.6160 -0.2535 -0.2714
 3552SOL    HW122292   3.878   2.013   3.347  0.7084 -1.5134 -0.7012
 3552SOL    HW222293   3.981   2.124   3.329 -1.2536 -0.0471  0.1752
 3553SOL     OW22294   3.352   4.306   1.985 -1.1293  0.3138  0.0183
 3553SOL    HW122295   3.403   4.356   2.049  2.2390  0.2274 -2.5492
 3553SOL    HW222296   3.298   4.373   1.943 -0.1138  0.9848 -0.2229
 3554SOL     OW22297   3.274   1.310   6.710  0.4465  0.4910  0.0868
 3554SOL    HW122298   3.337   1.381   6.702  0.1105  0.7198 -0.4615
 3554SOL    HW222299   3.224   1.345   6.784 -0.4759 -0.9481  0.1437
 3555SOL     OW22300   0.784   4.463   2.670 -0.1100  0.0527  0.1232
 3555SOL    HW122301   0.703   4.413   2.682 -0.8836  0.3914 -3.8144
 3555SOL    HW222302   0.846   4.392   2.656 -0.3204  0.3446 -2.1858
 3556SOL     OW22303   0.713   2.639   8.372 -0.1801  0.1908  0.4453
 3556SOL    HW122304   0.737   2.579   8.442  2.3905 -0.1712 -0.7637
 3556SOL    HW222305   0.676   2.577   8.309  0.0022 -0.3461  0.8672
 3557SOL     OW22306   0.806   2.471   2.695  0.1205 -0.4108  0.0595
 3557SOL    HW122307   0.824   2.526   2.772 -1.1311 -0.3251  0.2853
 3557SOL    HW222308   0.737   2.528   2.661  0.4805  0.5177  0.8770
 3558SOL     OW22309   3.360   1.691   8.993 -0.0467  0.1786  0.1655
 3558SOL    HW122310   3.407   1.627   9.045 -1.8036 -1.0892  0.2029
 3558SOL    HW222311   3.384   1.670   8.903  2.4197 -2.2413  1.3928
 3559SOL     OW22312   3.401   2.865   3.501  0.8037  0.6947  0.1884
 3559SOL    HW122313   3.333   2.798   3.504 -1.2530  2.8123  0.7979
 3559SOL    HW222314   3.371   2.923   3.572 -2.5610  0.5446 -1.1105
 3560SOL     OW22315   0.325   2.157  11.086  1.1548 -0.1243  0.0553
 3560SOL    HW122316   0.350   2.103  11.011 -1.3467  0.9855 -1.5820
 3560SOL    HW222317   0.269   2.224  11.046 -1.1990 -2.3249 -0.3051
 3561SOL     OW22318   3.954   1.631  14.803  0.3171  0.3155 -0.4768
 3561SOL    HW122319   3.928   1.637  14.711  0.5235 -0.4133 -0.5799
 3561SOL    HW222320   3.929   1.540  14.818 -1.7709  0.8682 -0.5288
 3562SOL     OW22321   2.093   4.514  11.828 -0.5337  0.3212 -1.0912
 3562SOL    HW122322   2.086   4.505  11.923 -0.3269  2.3418 -0.8903
 3562SOL    HW222323   2.152   4.589  11.824 -0.7213  0.4781 -0.8855
 3563SOL     OW22324   2.813   2.506   8.329 -0.3261 -0.0836 -0.2230
 3563SOL    HW122325   2.898   2.510   8.286  0.4436  0.1355  1.2938
 3563SOL    HW222326   2.797   2.591   8.370  2.5251 -0.0339  0.7773
 3564SOL     OW22327   3.418   0.492  12.084 -0.2680 -0.2662 -0.3553
 3564SOL    HW122328   3.354   0.563  12.079  0.5132  0.4136 -0.7689
 3564SOL    HW222329   3.498   0.543  12.069 -0.0327 -0.0535  1.6537
 3565SOL     OW22330   4.050   1.071  15.949 -0.2399  0.2361  0.1875
 3565SOL    HW122331   3.983   1.114  16.002 -1.1130 -0.6644 -0.1926
 3565SOL    HW222332   4.120   1.099  16.007 -0.7590 -0.2518  1.0482
 3566SOL     OW22333   3.672   4.412   4.476 -0.0771 -0.1185 -0.1147
 3566SOL    HW122334   3.619   4.451   4.545 -2.3357 -0.2896 -1.7689
 3566SOL    HW222335   3.626   4.421   4.393 -3.2038 -2.4506  1.3608
 3567SOL     OW22336   2.074   0.298   0.431  0.0403  0.4023 -0.1256
 3567SOL    HW122337   2.065   0.233   0.361  1.4147  1.9124 -1.6646
 3567SOL    HW222338   2.158   0.279   0.474  0.4127  1.2161 -0.5045
 3568SOL     OW22339   0.406   3.136   8.104 -0.0550  0.1025  0.0226
 3568SOL    HW122340   0.498   3.127   8.128  0.0649 -0.5332 -0.6867
 3568SOL    HW222341   0.375   3.210   8.156  1.5863  0.5737  0.3334
 3569SOL     OW22342   2.249   2.749   1.947  0.1023 -0.3243  0.0194
 3569SOL    HW122343   2.290   2.742   1.860  0.7149 -0.2815  0.3038
 3569SOL    HW222344   2.251   2.844   1.958 -3.6441 -0.6130  2.9336
 3570SOL     OW22345   1.280   0.809   0.619  0.3895 -0.2109  0.0302
 3570SOL    HW122346   1.248   0.752   0.689  2.2221 -0.8286  0.3915
 3570SOL    HW222347   1.261   0.752   0.545  0.3991  0.4579 -0.4801
 3571SOL     OW22348   1.753   1.544   7.761 -0.1855 -0.5848 -0.0879
 3571SOL    HW122349   1.771   1.581   7.847  1.9986 -1.2002 -0.2714
 3571SOL    HW222350   1.843   1.516   7.740  0.5598  0.9308  1.1192
 3572SOL     OW22351   1.390   3.908  13.899 -0.6990 -0.5785 -0.2826
 3572SOL    HW122352   1.471   3.953  13.878 -0.5461 -1.7760 -2.3056
 3572SOL    HW222353   1.324   3.975  13.879  0.2064  0.7367  1.1566
 3573SOL     OW22354   1.213   0.442   6.764 -0.1245 -0.6502 -0.4389
 3573SOL    HW122355   1.291   0.394   6.792 -0.1621 -0.6667 -0.3591
 3573SOL    HW222356   1.261   0.507   6.714  0.2588  0.0654  0.8394
 3574SOL     OW22357   3.708   4.058   3.156  0.1474 -0.3292 -0.5482
 3574SOL    HW122358   3.747   4.034   3.239 -1.4518  1.2579  0.6584
 3574SOL    HW222359   3.619   4.070   3.189  0.4017 -3.2092  1.1095
 3575SOL     OW22360   3.852   0.130   6.834  0.0712  0.6283 -0.2148
 3575SOL    HW122361   3.883   0.181   6.908  0.9335 -1.9109  1.1895
 3575SOL    HW222362   3.761   0.159   6.835 -0.1376 -0.0505  0.9381
 3576SOL     OW22363   3.663   2.917  12.743  0.6385  0.0363  0.1968
 3576SOL    HW122364   3.625   3.000  12.713  0.9064  0.5323  1.2369
 3576SOL    HW222365   3.588   2.894  12.799  1.1097 -1.8305  0.0612
 3577SOL     OW22366   3.775   2.085   1.646  0.1253  0.9479 -0.0402
 3577SOL    HW122367   3.819   2.155   1.693  2.1405 -1.0230  1.0205
 3577SOL    HW222368   3.766   2.127   1.560  0.9779 -3.1311 -2.1149
 3578SOL     OW22369   2.389   4.260   6.163 -0.3382 -0.0705  0.2962
 3578SOL    HW122370   2.363   4.329   6.102 -1.8637  0.0401  1.0668
 3578SOL    HW222371   2.346   4.184   6.123  0.0661 -0.7286  1.1209
 3579SOL     OW22372   2.341   3.850  14.104  0.1762 -0.8816 -0.2510
 3579SOL    HW122373   2.359   3.766  14.146  0.6880 -0.5656  0.1683
 3579SOL    HW222374   2.246   3.851  14.116  0.2998 -1.1269  0.7787
 3580SOL     OW22375   4.417   3.897   3.933 -0.5228 -0.2050  0.7439
 3580SOL    HW122376   4.507   3.906   3.901 -0.5348 -0.1840  0.7158
 3580SOL    HW222377   4.421   3.945   4.016  1.3039 -0.3582  0.7628
 3581SOL     OW22378   4.642   1.286   3.269  0.3144  0.1408 -0.6624
 3581SOL    HW122379   4.574   1.219   3.258 -0.4958  0.5468  1.8476
 3581SOL    HW222380   4.670   1.282   3.178 -0.4518 -2.2008 -0.8010
 3582SOL     OW22381   4.250   3.047   2.741  0.2478 -0.0433  0.5912
 3582SOL    HW122382   4.248   3.132   2.697 -1.0771  0.7385  2.2039
 3582SOL    HW222383   4.158   3.048   2.767  0.1261 -1.0055  0.2138
 3583SOL     OW22384   0.787   1.682  11.720 -0.4934 -0.4577  0.6095
 3583SOL    HW122385   0.772   1.765  11.765 -1.4628 -0.0866 -0.3810
 3583SOL    HW222386   0.841   1.702  11.643  0.4958 -0.1745  1.3811
 3584SOL     OW22387   2.339   2.696   6.829 -0.1744 -0.2503 -0.0721
 3584SOL    HW122388   2.368   2.629   6.768 -2.3817 -1.9366  0.7530
 3584SOL    HW222389   2.256   2.659   6.859 -0.2444 -0.8514 -1.0299
 3585SOL     OW22390   2.656   4.087  11.930 -0.1365 -0.4501 -0.0110
 3585SOL    HW122391   2.586   4.028  11.900  1.3108 -2.8779  1.3764
 3585SOL    HW222392   2.659   4.140  11.851  0.8633  1.9657  1.6663
 3586SOL     OW22393   1.108   4.281   4.473 -0.6813 -0.0045 -0.7760
 3586SOL    HW122394   1.141   4.368   4.495 -0.4191 -0.4164  0.5257
 3586SOL    HW222395   1.065   4.300   4.390 -1.6771 -0.6654 -0.4124
 3587SOL     OW22396   3.068   0.532   2.027  0.3892  0.0671  0.0979
 3587SOL    HW122397   2.974   0.520   2.039  0.1706  1.1318 -0.5167
 3587SOL    HW222398   3.103   0.491   2.106 -1.0726 -0.5673  0.4146
 3588SOL     OW22399   0.010   1.988   0.028 -0.4979  0.5644  0.1323
 3588SOL    HW122400   0.106   1.991   0.027 -0.4836  1.6540  2.6501
 3588SOL    HW222401   4.727   1.981  17.679 -2.4162 -0.2967  0.5874
 3589SOL     OW22402   1.544   2.664   8.141 -0.1322 -0.1398  0.3384
 3589SOL    HW122403   1.603   2.734   8.166 -0.0713  0.6746 -2.0423
 3589SOL    HW222404   1.467   2.714   8.113 -1.0166 -0.6952  1.7828
 3590SOL     OW22405   1.077   2.888  11.507  0.1946 -0.5667 -0.5326
 3590SOL    HW122406   1.136   2.813  11.507  1.8593  0.7519  1.4726
 3590SOL    HW222407   1.140   2.960  11.501 -3.4063  2.7325  1.3691
 3591SOL     OW22408   0.069   4.460   7.452  0.6545 -0.1995 -0.0924
 3591SOL    HW122409   0.065   4.491   7.362 -0.3020  1.0809  0.3889
 3591SOL    HW222410   0.049   4.542   7.497 -3.4673 -1.0019 -0.4570
 3592SOL     OW22411   2.766   2.782   9.003  1.0617 -0.0483  0.1662
 3592SOL    HW122412   2.799   2.713   9.059  0.6467  0.2055  0.7251
 3592SOL    HW222413   2.738   2.728   8.928  1.0941  1.6399 -1.0626
 3593SOL     OW22414   4.186   2.045   9.426  0.0172 -0.1558  0.3737
 3593SOL    HW122415   4.095   2.072   9.439 -0.2781 -0.8020 -0.3826
 3593SOL    HW222416   4.194   1.983   9.499 -1.3733 -0.8447 -0.0479
 3594SOL     OW22417   1.599   1.603   4.877 -0.6046  0.1589  0.3033
 3594SOL    HW122418   1.624   1.511   4.884 -3.6159 -0.5775  1.1879
 3594SOL    HW222419   1.642   1.631   4.796 -2.0293  1.7298  0.1031
 3595SOL     OW22420   0.869   4.143  12.681 -0.3327  0.1972 -0.1351
 3595SOL    HW122421   0.953   4.097  12.684  0.1777  1.2333  2.0422
 3595SOL    HW222422   0.811   4.073  12.653 -0.0365 -0.4504  0.8596
 3596SOL     OW22423   3.869   3.959  15.095 -0.0978 -0.2669 -0.2274
 3596SOL    HW122424   3.922   3.950  15.015  1.6682  2.8074  0.5865
 3596SOL    HW222425   3.931   3.910  15.150  0.6503  1.2316  0.2685
 3597SOL     OW22426   3.216   2.658   3.479  0.1674 -0.6389 -0.0752
 3597SOL    HW122427   3.137   2.640   3.529 -0.4943 -1.6972 -1.4984
 3597SOL    HW222428   3.181   2.683   3.393 -0.0420 -2.0561 -0.4037
 3598SOL     OW22429   2.035   3.956   4.079  0.3274  0.2545  0.2693
 3598SOL    HW122430   2.000   4.040   4.049 -0.9426  0.4039  2.1750
 3598SOL    HW222431   2.115   3.943   4.028 -0.4400  1.6430 -1.2834
 3599SOL     OW22432   0.242   0.157  15.536  0.1404 -0.2040 -0.3014
 3599SOL    HW122433   0.252   0.225  15.603  0.8051 -1.3677  0.7934
 3599SOL    HW222434   0.312   0.177  15.475 -0.4844  0.6327 -0.7342
 3600SOL     OW22435   3.461   2.684   2.901  0.3972 -0.0644  0.7895
 3600SOL    HW122436   3.428   2.670   2.812  2.7809 -0.3221 -0.0539
 3600SOL    HW222437   3.550   2.656   2.880  0.9301  3.6049 -1.7913
 3601SOL     OW22438   3.054   1.903   5.114  0.8185 -0.2553  0.1105
 3601SOL    HW122439   3.016   1.976   5.163 -0.5787 -1.5059  0.8933
 3601SOL    HW222440   3.041   1.936   5.025 -0.7693  0.5327  0.6261
 3602SOL     OW22441   1.091   2.745   0.606  0.4541  0.5172 -0.1091
 3602SOL    HW122442   1.096   2.685   0.532 -0.2211  1.0044 -0.5445
 3602SOL    HW222443   1.005   2.706   0.625  1.1263 -0.2699  1.3783
 3603SOL     OW22444   4.358   0.174  12.618  0.3665  0.2498 -0.1139
 3603SOL    HW122445   4.434   0.232  12.614  0.3363  0.3188  0.2791
 3603SOL    HW222446   4.393   0.114  12.552 -0.9485 -0.8294  0.1777
 3604SOL     OW22447   4.172   0.346   7.626  0.2034 -0.2877  0.1283
 3604SOL    HW122448   4.116   0.296   7.686 -0.1513 -0.1875 -0.1212
 3604SOL    HW222449   4.114   0.352   7.550  1.1016 -1.3807 -0.6558
 3605SOL     OW22450   4.578   3.375   4.548  0.9749  0.0078 -0.2787
 3605SOL    HW122451   4.559   3.288   4.512  1.8415 -0.5840  0.6855
 3605SOL    HW222452   4.546   3.435   4.481 -0.7994  2.4051  2.7478
 3606SOL     OW22453   0.244   1.937   0.754 -0.4391 -0.3367  0.2199
 3606SOL    HW122454   0.202   1.852   0.743 -2.2681  0.5406  0.5796
 3606SOL    HW222455   0.186   1.968   0.823 -2.4710  0.3506 -1.8146
 3607SOL     OW22456   1.414   4.244  13.666 -0.1648  0.1534 -0.2437
 3607SOL    HW122457   1.458   4.163  13.690 -2.8206 -2.1575 -3.3210
 3607SOL    HW222458   1.353   4.240  13.739 -0.1782  1.5366 -0.1644
 3608SOL     OW22459   3.795   4.491   3.186 -0.4264 -0.1481 -0.1460
 3608SOL    HW122460   3.785   4.418   3.247  0.4510 -0.7039 -0.6656
 3608SOL    HW222461   3.888   4.489   3.165 -0.2615  0.1539  0.5538
 3609SOL     OW22462   1.656   2.183   4.302 -0.7132  0.1558 -0.2758
 3609SOL    HW122463   1.638   2.089   4.298  1.0014 -0.1930 -0.0170
 3609SOL    HW222464   1.582   2.219   4.252 -0.7501 -0.6969 -0.8318
 3610SOL     OW22465   1.409   2.210   6.002 -0.6664 -0.7207 -0.2863
 3610SOL    HW122466   1.437   2.124   6.033  1.2460 -0.3026 -0.8941
 3610SOL    HW222467   1.382   2.259   6.080 -2.5211 -1.9768 -0.1353
 3611SOL     OW22468   4.380   2.127   5.252 -0.1516 -0.1734 -0.1363
 3611SOL    HW122469   4.467   2.156   5.224 -0.1687  2.0851  2.1317
 3611SOL    HW222470   4.345   2.071   5.183 -1.3392 -0.1319  0.4342
 3612SOL     OW22471   4.208   1.564   3.230 -0.6261 -0.1723 -0.2972
 3612SOL    HW122472   4.123   1.581   3.272 -2.2460 -2.2181 -2.7166
 3612SOL    HW222473   4.231   1.641   3.178 -0.4255  1.0662  1.6362
 3613SOL     OW22474   4.268   2.810   5.720  0.1334  0.2476 -0.3928
 3613SOL    HW122475   4.240   2.718   5.720  1.9514 -0.3083  1.3951
 3613SOL    HW222476   4.184   2.853   5.706 -0.4498 -0.7609  0.0289
 3614SOL     OW22477   1.212   2.035   4.637  0.2224  0.0227 -0.1118
 3614SOL    HW122478   1.297   2.058   4.676  0.3943 -0.0900 -0.4175
 3614SOL    HW222479   1.241   1.997   4.554 -1.2774 -0.2396 -0.5061
 3615SOL     OW22480   1.276   0.529  14.238  0.1239 -0.2075  0.5083
 3615SOL    HW122481   1.349   0.494  14.289 -0.2844 -1.5252  0.1870
 3615SOL    HW222482   1.201   0.531  14.298 -0.6707 -1.7477 -0.4210
 3616SOL     OW22483   2.309   3.367   3.590 -0.0783  0.0256  0.5173
 3616SOL    HW122484   2.346   3.304   3.528 -2.2611  0.1315 -0.8963
 3616SOL    HW222485   2.296   3.440   3.529 -1.7773 -0.8995 -0.2327
 3617SOL     OW22486   1.673   0.013   4.162 -0.0471 -0.3074 -0.2666
 3617SOL    HW122487   1.764   0.026   4.187  0.0614  0.8188 -1.2399
 3617SOL    HW222488   1.635   0.082   4.216  0.1799 -0.9338  0.7098
 3618SOL     OW22489   4.045   4.531  14.972  0.1742  0.4359 -0.2282
 3618SOL    HW122490   4.050   4.594  15.043 -1.2229  0.8560 -0.4952
 3618SOL    HW222491   4.136   4.512  14.949  0.2993  1.5893 -0.6606
 3619SOL     OW22492   0.656   4.271   6.437  0.8375  0.1208 -0.3260
 3619SOL    HW122493   0.566   4.303   6.434  1.2434  1.2305 -0.7638
 3619SOL    HW222494   0.650   4.215   6.513 -0.2691  0.4276 -0.1851
 3620SOL     OW22495   4.210   3.025   6.974 -0.4723  0.4050 -0.1991
 3620SOL    HW122496   4.167   3.035   7.059 -1.5120 -1.4577 -0.4965
 3620SOL    HW222497   4.162   3.082   6.914  0.6944 -1.2078 -2.6295
 3621SOL     OW22498   4.130   4.429   2.159  0.7016  0.5827 -0.3542
 3621SOL    HW122499   4.111   4.418   2.066  2.7800 -0.7713 -0.6066
 3621SOL    HW222500   4.098   4.348   2.198  0.5686  0.1266 -1.4105
 3622SOL     OW22501   4.126   1.861   9.918  0.5363  0.1619  0.7044
 3622SOL    HW122502   4.197   1.820   9.968  0.8563 -1.4010 -1.0358
 3622SOL    HW222503   4.183   1.922   9.871 -1.8534  0.0894 -2.2754
 3623SOL     OW22504   0.132   3.533   7.736  0.7811 -0.1220 -0.0752
 3623SOL    HW122505   0.127   3.457   7.794 -1.6126  1.6341  2.0453
 3623SOL    HW222506   0.226   3.548   7.724  0.6791  2.5292  2.2160
 3624SOL     OW22507   2.067   0.360  16.462  0.0613 -1.0367  0.0481
 3624SOL    HW122508   2.074   0.365  16.557  0.7599  1.1425 -0.1302
 3624SOL    HW222509   2.077   0.267  16.439 -1.4088 -0.9722 -0.8864
 3625SOL     OW22510   2.697   3.181   7.699 -0.1313 -0.3232 -0.9478
 3625SOL    HW122511   2.659   3.231   7.626  1.0384  1.1261 -0.5715
 3625SOL    HW222512   2.783   3.221   7.715 -0.1039 -0.7378 -0.0831
 3626SOL     OW22513   3.950   2.130   0.722 -0.5181 -0.4062 -0.1191
 3626SOL    HW122514   3.871   2.128   0.668 -0.4262 -0.1202 -0.2644
 3626SOL    HW222515   3.920   2.077   0.796  0.3485  1.1616  1.3563
 3627SOL     OW22516   3.269   0.076   6.983 -0.0473  0.4051  0.2568
 3627SOL    HW122517   3.262   0.014   6.910  1.4539 -1.3311  1.5899
 3627SOL    HW222518   3.188   0.126   6.974  0.6993  1.9380  2.0250
 3628SOL     OW22519   4.687   3.845   6.804 -0.0246 -0.2217 -0.0620
 3628SOL    HW122520   4.708   3.761   6.846 -2.1192 -0.5991  0.2395
 3628SOL    HW222521   4.642   3.889   6.877  0.3124 -2.5309  1.5512
 3629SOL     OW22522   4.063   3.692   8.797  0.4673 -0.0233 -0.2365
 3629SOL    HW122523   3.981   3.741   8.789  0.4024 -0.3797 -1.6388
 3629SOL    HW222524   4.071   3.686   8.892 -1.4308 -2.2863 -0.2072
 3630SOL     OW22525   2.710   1.546   8.578 -0.0374  0.1295  0.4266
 3630SOL    HW122526   2.657   1.606   8.629 -2.4687 -0.0158 -1.8823
 3630SOL    HW222527   2.661   1.554   8.496  1.0703 -1.7468 -0.4345
 3631SOL     OW22528   1.029   3.972   5.096  0.0826  0.1692 -0.3373
 3631SOL    HW122529   0.992   3.946   5.180  0.2857 -0.8790 -0.5671
 3631SOL    HW222530   1.018   3.894   5.041  0.6399 -0.1088 -0.0572
 3632SOL     OW22531   1.706   0.155  14.032 -0.2453 -0.1623 -1.0591
 3632SOL    HW122532   1.738   0.213  14.101 -0.8342  2.7151 -3.2110
 3632SOL    HW222533   1.703   0.222  13.964  2.1747 -0.5606 -1.5577
 3633SOL     OW22534   0.916   4.500  12.072  0.6441  0.1096  0.1800
 3633SOL    HW122535   0.952   4.414  12.051  2.1251  1.3071 -2.2552
 3633SOL    HW222536   0.970   4.518  12.149 -1.1180  2.1609  0.9499
 3634SOL     OW22537   4.466   2.150   7.516  0.0369  0.0094 -0.5680
 3634SOL    HW122538   4.534   2.084   7.499 -0.0548  0.0757 -1.1879
 3634SOL    HW222539   4.392   2.125   7.460  0.2061 -0.0955 -0.7442
 3635SOL     OW22540   1.597   0.444   2.375 -0.1883  0.2511  0.2871
 3635SOL    HW122541   1.577   0.532   2.344  1.7069  0.7513  0.4542
 3635SOL    HW222542   1.642   0.457   2.459  1.0718 -1.1127 -0.1830
 3636SOL     OW22543   2.940   0.087   6.465  0.2475  0.3876 -0.3751
 3636SOL    HW122544   2.855   0.085   6.509  0.0049  0.7907 -0.8280
 3636SOL    HW222545   2.971   0.172   6.497 -0.9531  1.2832 -1.5824
 3637SOL     OW22546   2.705   2.684   8.753  0.3432  0.4638  0.2653
 3637SOL    HW122547   2.669   2.768   8.726  0.3486  0.4838  0.3211
 3637SOL    HW222548   2.774   2.681   8.687  0.3383 -0.9213  0.3186
 3638SOL     OW22549   4.203   4.015   4.091 -0.0230  0.0543 -0.3636
 3638SOL    HW122550   4.223   3.929   4.129 -1.5414 -0.1736 -0.0790
 3638SOL    HW222551   4.189   4.061   4.174 -1.4517 -0.6263 -0.2233
 3639SOL     OW22552   3.169   2.964   4.741  0.5068 -0.1997 -0.2750
 3639SOL    HW122553   3.192   3.056   4.723 -0.7782  0.6583  2.4994
 3639SOL    HW222554   3.119   2.970   4.822 -1.6891  1.3053 -1.7285
 3640SOL     OW22555   3.238   2.009   0.570  0.1383  0.0141 -0.6129
 3640SOL    HW122556   3.262   2.057   0.649  0.6828 -0.1260 -0.6933
 3640SOL    HW222557   3.203   2.085   0.525 -0.3280  0.9798  1.4029
 3641SOL     OW22558   0.344   3.565   2.932  0.3907 -0.2000  0.0773
 3641SOL    HW122559   0.378   3.647   2.896  0.7073  0.2444  1.4152
 3641SOL    HW222560   0.261   3.557   2.884 -1.1151  0.6696  2.5920
 3642SOL     OW22561   0.305   1.883   7.808  0.5047 -0.0831  0.4459
 3642SOL    HW122562   0.210   1.893   7.802  0.4329  0.5042  2.5737
 3642SOL    HW222563   0.314   1.831   7.888 -0.8343  0.1872  0.7764
 3643SOL     OW22564   4.635   1.380   3.820 -0.0296 -0.8813  0.3642
 3643SOL    HW122565   4.719   1.424   3.831 -1.7802  2.2364  1.4910
 3643SOL    HW222566   4.605   1.364   3.909 -0.8785 -0.6586  0.1226
 3644SOL     OW22567   2.499   0.888   3.830  0.0813  0.7525  0.0027
 3644SOL    HW122568   2.505   0.798   3.798 -0.0491  0.9574 -0.5904
 3644SOL    HW222569   2.467   0.877   3.920  1.4773  1.2643  0.5608
 3645SOL     OW22570   3.629   3.840  16.570  0.2269  0.1664 -0.5635
 3645SOL    HW122571   3.540   3.811  16.589  0.9346 -2.0956 -0.6897
 3645SOL    HW222572   3.654   3.766  16.515 -0.3311  0.2417 -0.9145
 3646SOL     OW22573   2.696   0.752   7.392  0.6815 -0.1214 -0.8924
 3646SOL    HW122574   2.744   0.757   7.475 -1.5555 -0.4914  0.4064
 3646SOL    HW222575   2.698   0.657   7.378 -0.9473 -0.2015 -0.5169
 3647SOL     OW22576   1.589   2.688   9.409  0.1743  0.5616  0.4422
 3647SOL    HW122577   1.519   2.739   9.368 -1.8039 -3.6765 -1.4750
 3647SOL    HW222578   1.619   2.755   9.471  0.1019  1.7685 -0.8111
 3648SOL     OW22579   4.433   4.709   8.214  0.9494 -0.3839  0.6006
 3648SOL    HW122580   4.513   4.664   8.187  0.2188 -1.1760 -0.2555
 3648SOL    HW222581   4.442   0.059   8.172  1.6505 -2.2407 -3.0813
 3649SOL     OW22582   0.626   1.029   6.904 -0.0773  0.4898  0.0287
 3649SOL    HW122583   0.696   0.981   6.859 -0.0417 -0.5515  1.2087
 3649SOL    HW222584   0.548   0.973   6.901 -0.5441  1.1497  0.1049
 3650SOL     OW22585   2.231   4.021  16.644 -0.2079 -0.0766  0.1656
 3650SOL    HW122586   2.307   4.054  16.598  1.5387 -2.8107  1.0799
 3650SOL    HW222587   2.288   3.979  16.709  1.2945 -0.6276 -1.5268
 3651SOL     OW22588   4.458   1.353   2.811  0.0067  0.3014 -0.5700
 3651SOL    HW122589   4.481   1.393   2.894 -0.8652 -1.4349  0.5087
 3651SOL    HW222590   4.379   1.309   2.842 -1.4605  1.8686 -2.0905
 3652SOL     OW22591   1.328   1.328   5.910 -0.2965  0.3669 -0.0070
 3652SOL    HW122592   1.254   1.276   5.941 -0.2217  0.5188  0.4238
 3652SOL    HW222593   1.392   1.271   5.866  2.0395  3.0703 -0.1514
 3653SOL     OW22594   4.417   0.206   7.666  0.6707  0.6032 -0.1912
 3653SOL    HW122595   4.481   0.171   7.605  2.6183 -0.1924  2.2898
 3653SOL    HW222596   4.369   0.265   7.609 -0.5406 -1.7804 -1.6215
 3654SOL     OW22597   2.686   1.355   4.906 -0.5502  0.0870 -0.1275
 3654SOL    HW122598   2.650   1.307   4.831  0.2083 -2.1182  0.9503
 3654SOL    HW222599   2.780   1.347   4.891  0.0198  2.5666  2.0536
 3655SOL     OW22600   2.356   4.524   7.425 -0.0726  0.2089  0.2829
 3655SOL    HW122601   2.268   4.490   7.412  0.3801 -0.8259 -0.0224
 3655SOL    HW222602   2.333   4.565   7.508  3.7127 -0.2588  1.5487
 3656SOL     OW22603   4.117   3.370  17.377 -0.3883  0.1486 -0.1314
 3656SOL    HW122604   4.178   3.358  17.449  0.4136 -0.4349 -0.9130
 3656SOL    HW222605   4.054   3.304  17.406 -2.0554  2.2548  1.0579
 3657SOL     OW22606   4.327   2.954   1.675 -0.6172  0.4116  0.3467
 3657SOL    HW122607   4.267   2.998   1.735 -0.1965 -0.1022  1.1526
 3657SOL    HW222608   4.347   3.027   1.616  0.6993 -0.5960 -0.4590
 3658SOL     OW22609   1.188   3.498   8.602 -0.5212 -0.2558 -0.0490
 3658SOL    HW122610   1.272   3.469   8.566 -1.5215 -0.1957 -2.4061
 3658SOL    HW222611   1.131   3.456   8.538 -0.7064  0.1592 -0.1556
 3659SOL     OW22612   1.879   1.584   6.300 -0.3505  0.5225  0.1771
 3659SOL    HW122613   1.917   1.529   6.232 -1.3335  1.2522 -0.9758
 3659SOL    HW222614   1.888   1.528   6.377 -2.1302 -0.5481 -0.3885
 3660SOL     OW22615   4.652   4.593   6.863  0.1946 -0.2568  0.1382
 3660SOL    HW122616   4.560   4.616   6.848 -0.4676 -1.5590  2.3111
 3660SOL    HW222617   4.649   4.561   6.953  1.6453 -0.5974  0.0550
 3661SOL     OW22618   3.522   3.102   6.661 -0.1285  0.1327  0.1378
 3661SOL    HW122619   3.588   3.066   6.721  0.0707  1.3105  0.6390
 3661SOL    HW222620   3.549   3.072   6.575 -1.5980 -0.1790 -0.1968
 3662SOL     OW22621   3.307   0.920   8.033 -0.2255 -0.3561 -0.3720
 3662SOL    HW122622   3.249   0.879   7.969 -2.1862  1.3653  0.2929
 3662SOL    HW222623   3.333   0.849   8.091 -1.4763  0.4374  1.1627
 3663SOL     OW22624   3.005   0.305   9.649 -0.7885  0.3084  0.5076
 3663SOL    HW122625   3.031   0.385   9.604 -2.9379  0.3612 -0.6154
 3663SOL    HW222626   2.966   0.338   9.730  0.5426 -1.9557  2.0778
 3664SOL     OW22627   0.769   0.220   3.680  0.0298 -0.0305  0.5364
 3664SOL    HW122628   0.840   0.156   3.689 -1.6351 -1.4833  3.2180
 3664SOL    HW222629   0.711   0.180   3.615 -0.1298  2.1323 -0.6265
 3665SOL     OW22630   1.192   3.503  16.172 -0.0660 -0.1353  0.0590
 3665SOL    HW122631   1.120   3.441  16.186  1.3720 -1.2005  2.7108
 3665SOL    HW222632   1.142   3.585  16.169  2.1868  1.2393  0.2681
 3666SOL     OW22633   1.275   4.118   4.627 -0.0614  0.0352 -0.4258
 3666SOL    HW122634   1.219   4.182   4.583  2.3261  0.6592 -2.5525
 3666SOL    HW222635   1.255   4.036   4.583 -1.8956 -1.7237  3.6616
 3667SOL     OW22636   1.104   2.549  16.057 -0.1159  0.1606  0.0721
 3667SOL    HW122637   1.139   2.636  16.078  0.7471  0.2402 -1.6961
 3667SOL    HW222638   1.137   2.531  15.969 -0.4731 -1.4129  0.2564
 3668SOL     OW22639   2.745   3.694   8.745 -0.8981  0.3524 -0.0145
 3668SOL    HW122640   2.742   3.609   8.790 -1.3954  0.1126 -0.5074
 3668SOL    HW222641   2.712   3.758   8.807 -0.3097  1.2019 -0.5824
 3669SOL     OW22642   1.992   4.680   6.067 -0.0262 -0.9645  0.4650
 3669SOL    HW122643   2.014   0.031   6.101  1.4089 -1.7539  1.6045
 3669SOL    HW222644   1.944   4.647   6.142  2.2148 -2.4190  1.2523
 3670SOL     OW22645   3.997   1.567   3.420 -0.2012 -0.0943 -0.3755
 3670SOL    HW122646   4.015   1.634   3.485  0.8466  1.2073 -2.0003
 3670SOL    HW222647   3.903   1.583   3.411  0.0772  2.4603  1.4671
 3671SOL     OW22648   1.056   0.216   5.140 -0.0129  0.4553  0.2865
 3671SOL    HW122649   1.136   0.269   5.139 -0.4333  1.0389 -1.5810
 3671SOL    HW222650   0.998   0.265   5.198 -2.5624 -3.4779  1.0388
 3672SOL     OW22651   1.924   3.283   6.876  0.2824 -0.4690 -0.3676
 3672SOL    HW122652   1.942   3.267   6.784 -2.0738 -0.2109 -0.8610
 3672SOL    HW222653   2.010   3.266   6.915  0.6235 -0.0714 -0.9470
 3673SOL     OW22654   2.855   3.018   4.799 -0.0877 -0.1803 -0.2046
 3673SOL    HW122655   2.765   2.998   4.827 -0.3215  0.9714 -0.1435
 3673SOL    HW222656   2.893   3.048   4.881 -1.2327 -1.3588  0.7719
 3674SOL     OW22657   2.292   2.776   3.213  0.1710  0.3468 -0.3085
 3674SOL    HW122658   2.335   2.831   3.280  2.0202  0.3104 -1.4741
 3674SOL    HW222659   2.347   2.699   3.207 -0.7823 -0.5466  2.3402
 3675SOL     OW22660   4.421   2.928   8.661  0.3422  0.2289  0.4075
 3675SOL    HW122661   4.505   2.909   8.703  0.4514  0.1555  0.1540
 3675SOL    HW222662   4.433   2.885   8.577  0.2352 -0.2589  0.6400
 3676SOL     OW22663   0.013   2.456  11.245 -0.1369 -0.3449 -0.3643
 3676SOL    HW122664   0.015   2.484  11.153  0.8309 -0.6290 -0.4237
 3676SOL    HW222665   0.100   2.433  11.276 -1.0567 -0.5135  2.0648
 3677SOL     OW22666   0.376   1.138   1.202  0.3373 -0.0519  0.0686
 3677SOL    HW122667   0.303   1.077   1.193  0.1879  0.1506 -0.0905
 3677SOL    HW222668   0.436   1.090   1.258  0.2439 -0.2314  0.0131
 3678SOL     OW22669   3.036   0.054   1.126 -0.2147 -0.2978 -0.1994
 3678SOL    HW122670   2.955   0.006   1.144  0.6830 -1.4454  0.7580
 3678SOL    HW222671   3.050   0.088   1.214 -2.5847  0.4480 -0.1026
 3679SOL     OW22672   4.488   1.314  15.192 -0.2364 -0.0780  0.0474
 3679SOL    HW122673   4.505   1.397  15.235 -2.9106  0.3753  0.2550
 3679SOL    HW222674   4.501   1.251  15.263 -1.9527 -0.5115 -0.0095
 3680SOL     OW22675   4.129   2.806  13.652 -0.1022  0.3872 -0.2596
 3680SOL    HW122676   4.127   2.739  13.720 -2.5208  1.5283  0.7870
 3680SOL    HW222677   4.211   2.848  13.679  1.3277 -1.6641 -1.4540
 3681SOL     OW22678   3.903   1.350  14.928 -0.2763 -0.3673 -0.1754
 3681SOL    HW122679   3.899   1.254  14.924 -2.2900 -0.3041  0.2276
 3681SOL    HW222680   3.970   1.357  14.996 -2.6485 -0.4694  2.1993
 3682SOL     OW22681   2.798   3.917   7.257  0.0177  0.6065 -0.3543
 3682SOL    HW122682   2.722   3.909   7.199 -0.7536 -0.3365  0.8093
 3682SOL    HW222683   2.851   3.982   7.209  0.4957 -0.5026 -1.3336
 3683SOL     OW22684   2.859   4.270   6.632  0.4218  0.2206  0.0578
 3683SOL    HW122685   2.769   4.264   6.601  0.1075  0.6627  0.9060
 3683SOL    HW222686   2.880   4.360   6.609 -0.1600  0.3391 -0.0060
 3684SOL     OW22687   4.073   2.636   3.661  0.0394 -0.6080 -0.2093
 3684SOL    HW122688   4.151   2.637   3.717  0.4843 -1.7261 -0.7996
 3684SOL    HW222689   4.045   2.727   3.672  1.2288 -0.0279 -1.9661
 3685SOL     OW22690   3.011   0.505   5.259  0.4989  0.5132 -0.0684
 3685SOL    HW122691   3.025   0.430   5.202 -1.6951  0.7040 -0.8299
 3685SOL    HW222692   2.991   0.574   5.196 -2.1303 -2.0146 -1.9727
 3686SOL     OW22693   1.136   1.876   2.377  0.5851  0.2218  0.8840
 3686SOL    HW122694   1.212   1.822   2.356 -0.7737 -1.0809 -0.7202
 3686SOL    HW222695   1.110   1.827   2.455 -0.9668 -1.5254 -0.7458
 3687SOL     OW22696   3.735   1.945   3.873  0.3198 -0.3184  0.0443
 3687SOL    HW122697   3.692   1.859   3.875 -0.2728 -0.0319 -0.2641
 3687SOL    HW222698   3.726   1.967   3.966 -1.4146 -2.4144  0.4016
 3688SOL     OW22699   4.080   2.885   9.041 -0.4188 -0.0527 -0.1137
 3688SOL    HW122700   4.118   2.954   8.986 -0.2863  1.7381  2.2301
 3688SOL    HW222701   4.139   2.814   9.015 -0.6057 -0.7759  1.4679
 3689SOL     OW22702   0.494   3.280   1.849  0.2434  0.4620  0.1644
 3689SOL    HW122703   0.568   3.231   1.886  1.3248  3.0838  1.4479
 3689SOL    HW222704   0.441   3.280   1.929  1.5304 -0.8381  1.0243
 3690SOL     OW22705   0.635   3.811  10.666  0.6921  0.6853 -0.1516
 3690SOL    HW122706   0.653   3.857  10.748  1.8312 -0.8791  0.4832
 3690SOL    HW222707   0.590   3.882  10.620 -0.3279  0.4810  0.5360
 3691SOL     OW22708   3.330   1.479   4.123 -0.0017 -0.2002  0.0966
 3691SOL    HW122709   3.272   1.542   4.166 -0.4184  0.7195 -1.7950
 3691SOL    HW222710   3.360   1.440   4.205  4.3815  0.9384 -0.9228
 3692SOL     OW22711   3.514   4.133   5.624  0.2947  0.0348 -0.2464
 3692SOL    HW122712   3.605   4.103   5.618  0.7538  1.2662  0.4470
 3692SOL    HW222713   3.528   4.222   5.592 -1.4242  0.2184 -0.4924
 3693SOL     OW22714   3.930   1.686   5.452  0.1435 -0.4376  0.2676
 3693SOL    HW122715   3.845   1.661   5.488 -0.6897  1.5896 -0.3251
 3693SOL    HW222716   3.957   1.756   5.511  0.8207 -1.6499  1.4129
 3694SOL     OW22717   3.816   1.307  12.216 -0.3391  1.0545  0.1284
 3694SOL    HW122718   3.874   1.303  12.291  0.5837  0.4818 -0.6086
 3694SOL    HW222719   3.735   1.268  12.249  0.6153  0.4634  1.7364
 3695SOL     OW22720   4.480   3.483  14.658 -0.1282 -0.5104 -0.4723
 3695SOL    HW122721   4.447   3.564  14.619  0.6495  0.9674  1.9372
 3695SOL    HW222722   4.507   3.511  14.746  2.2165  1.6153 -1.8420
 3696SOL     OW22723   4.671   0.680   4.132 -0.0119  0.3303 -0.2324
 3696SOL    HW122724   4.684   0.713   4.221  2.4788 -0.8811 -0.1504
 3696SOL    HW222725   4.719   0.744   4.081  0.1162 -1.6453 -2.5818
 3697SOL     OW22726   4.015   0.139   8.709  0.0754 -0.2209 -0.2544
 3697SOL    HW122727   4.005   0.224   8.752  1.0574 -0.4206  0.3736
 3697SOL    HW222728   3.994   0.090   8.789 -2.5573  0.9262 -0.2316
 3698SOL     OW22729   1.182   0.616  10.569 -0.0545 -0.6250  0.3864
 3698SOL    HW122730   1.091   0.585  10.571 -0.2006 -0.1835  0.6747
 3698SOL    HW222731   1.176   0.655  10.656 -0.5618  0.4578 -0.1280
 3699SOL     OW22732   3.112   3.962   4.059 -0.4486 -0.3529 -0.1576
 3699SOL    HW122733   3.098   4.049   4.094  1.2242 -0.4801  0.7993
 3699SOL    HW222734   3.198   3.946   4.096 -0.1405 -1.3147 -1.2707
 3700SOL     OW22735   3.544   2.748   0.533  0.4447  0.4381 -0.0014
 3700SOL    HW122736   3.538   2.724   0.626 -2.8284  1.3958  0.0204
 3700SOL    HW222737   3.603   2.822   0.546  0.4563  0.2378  1.1291
 3701SOL     OW22738   2.052   2.881  15.309  0.2887 -0.0827  0.0345
 3701SOL    HW122739   2.011   2.810  15.359  1.6879 -0.9603 -0.0860
 3701SOL    HW222740   1.983   2.907  15.248 -0.7298 -2.4041  0.1739
 3702SOL     OW22741   0.308   4.256  17.242  0.5578  0.1317 -0.2519
 3702SOL    HW122742   0.318   4.161  17.251 -0.1186 -0.0089 -0.9714
 3702SOL    HW222743   0.227   4.270  17.291  2.2665  2.0565  2.0223
 3703SOL     OW22744   3.546   0.116   4.641  0.6146  0.0128 -0.0234
 3703SOL    HW122745   3.481   0.139   4.575 -0.0952 -0.8005  0.3790
 3703SOL    HW222746   3.553   0.200   4.686 -0.9237  1.0822 -1.7565
 3704SOL     OW22747   1.303   4.405   8.104  0.0323 -0.2416  0.0315
 3704SOL    HW122748   1.286   4.415   8.010  0.2880  1.1699  0.1332
 3704SOL    HW222749   1.394   4.376   8.096 -0.6518 -2.9969  2.1946
 3705SOL     OW22750   3.372   1.078  15.320  0.2076  0.9328 -0.4893
 3705SOL    HW122751   3.401   1.167  15.340 -2.0360  1.5487 -0.0158
 3705SOL    HW222752   3.434   1.024  15.369 -0.5613 -0.0924 -0.6537
 3706SOL     OW22753   2.658   2.843  12.561  0.2086 -0.2975 -0.2367
 3706SOL    HW122754   2.626   2.762  12.601  0.7206 -0.3757  0.0204
 3706SOL    HW222755   2.576   2.884  12.534 -0.2054 -1.3516 -0.5578
 3707SOL     OW22756   3.522   4.263  15.134 -0.0805  0.6679  0.3911
 3707SOL    HW122757   3.605   4.309  15.143  1.1203 -1.2885 -0.4977
 3707SOL    HW222758   3.479   4.317  15.200  0.6179 -1.3301  2.5129
 3708SOL     OW22759   2.353   3.651   4.725  0.5692  0.0830  0.5483
 3708SOL    HW122760   2.410   3.583   4.689  1.3700 -0.1757  2.3062
 3708SOL    HW222761   2.314   3.701   4.653  0.8046 -3.1283 -1.8558
 3709SOL     OW22762   3.887   0.983   5.544 -0.4759  0.0554 -0.8002
 3709SOL    HW122763   3.981   0.986   5.531 -0.1447 -1.8365  1.1477
 3709SOL    HW222764   3.880   1.048   5.614  1.0896  0.2570 -0.8337
 3710SOL     OW22765   1.117   0.883   7.992  0.0665 -0.1592  0.0966
 3710SOL    HW122766   1.021   0.885   7.989  0.0245 -0.9834  0.8764
 3710SOL    HW222767   1.129   0.800   8.036 -0.4726 -0.2950 -0.0102
 3711SOL     OW22768   1.249   0.011   8.004  0.1547 -0.4582  0.0592
 3711SOL    HW122769   1.187   0.023   8.077 -0.5294  2.1207 -0.9351
 3711SOL    HW222770   1.233   4.653   7.999 -1.9720 -0.0542 -0.9080
 3712SOL     OW22771   1.275   2.725  16.969 -0.4276  0.0019 -0.1440
 3712SOL    HW122772   1.312   2.729  16.881 -1.1154  1.0550 -0.3833
 3712SOL    HW222773   1.350   2.747  17.024  0.3836 -1.2790 -0.7408
 3713SOL     OW22774   3.100   4.712  17.689 -0.5768  0.0343 -0.2723
 3713SOL    HW122775   3.160   4.671  17.626 -0.9766 -0.1903 -0.5042
 3713SOL    HW222776   3.053   4.634  17.717 -1.2247  0.6563  0.3830
 3714SOL     OW22777   2.408   3.447   1.076  0.1855 -0.1770  0.2473
 3714SOL    HW122778   2.455   3.529   1.091  1.2104 -0.5356 -1.0697
 3714SOL    HW222779   2.472   3.394   1.029  0.6995  0.3203  0.3857
 3715SOL     OW22780   3.719   1.319   4.126 -0.1368 -0.2430  0.3973
 3715SOL    HW122781   3.796   1.263   4.130  0.8682  1.1967  1.1131
 3715SOL    HW222782   3.733   1.363   4.210 -0.9928  0.0764  0.3774
 3716SOL     OW22783   3.848   1.101   6.345  0.1954  0.1744  0.1951
 3716SOL    HW122784   3.863   1.159   6.270  1.3051  1.1773  1.1849
 3716SOL    HW222785   3.934   1.090   6.385  0.1150  1.6315  0.7653
 3717SOL     OW22786   0.463   0.776   9.171 -0.0109 -0.1214  0.0756
 3717SOL    HW122787   0.385   0.722   9.154  0.7536 -1.1063 -0.3341
 3717SOL    HW222788   0.532   0.710   9.160  0.4762  0.7530 -2.0155
 3718SOL     OW22789   2.470   0.476   8.642  0.4078 -0.4031  0.0685
 3718SOL    HW122790   2.542   0.414   8.630  2.9699  2.3356  1.2042
 3718SOL    HW222791   2.479   0.531   8.564  0.5319 -2.0541 -1.0844
 3719SOL     OW22792   0.533   1.942   0.795  0.6720 -0.0320  0.1194
 3719SOL    HW122793   0.573   2.020   0.757 -0.8863  0.3639 -0.7277
 3719SOL    HW222794   0.447   1.937   0.753  0.1086 -0.6058  1.3581
 3720SOL     OW22795   2.068   2.572   0.787 -0.4538  0.3161  0.2277
 3720SOL    HW122796   2.053   2.605   0.699 -0.0841 -0.1051  0.0077
 3720SOL    HW222797   2.110   2.647   0.828  0.8026 -1.1645  1.6908
 3721SOL     OW22798   0.827   2.631   3.181 -0.3113 -0.6271 -0.2073
 3721SOL    HW122799   0.901   2.570   3.181 -0.0485 -0.3125  0.5339
 3721SOL    HW222800   0.816   2.639   3.086 -1.2722 -0.8099 -0.1068
 3722SOL     OW22801   1.329   2.739   7.863  0.2750  0.1176  0.0344
 3722SOL    HW122802   1.261   2.721   7.929  0.0958  2.3866  0.4416
 3722SOL    HW222803   1.361   2.823   7.896  1.1539 -0.1934 -0.0135
 3723SOL     OW22804   0.118   0.570   7.165  0.2876  0.2692  0.6457
 3723SOL    HW122805   0.154   0.647   7.209 -0.0484 -0.1155  1.5794
 3723SOL    HW222806   0.150   0.567   7.074  0.3981 -0.4772  0.7117
 3724SOL     OW22807   1.452   1.919   5.452  0.1478  0.4792 -0.3449
 3724SOL    HW122808   1.533   1.970   5.446 -0.5681  1.5704 -0.6543
 3724SOL    HW222809   1.434   1.916   5.546  1.6771  1.9827  0.0138
 3725SOL     OW22810   2.810   2.256  12.273 -0.2602  0.0400  0.6548
 3725SOL    HW122811   2.775   2.252  12.184  3.4704  0.2111 -0.8049
 3725SOL    HW222812   2.744   2.197  12.310  0.4678 -0.1301  1.6925
 3726SOL     OW22813   1.237   3.493   6.587  0.1945 -0.1747 -0.0308
 3726SOL    HW122814   1.189   3.575   6.599  0.4463 -0.0586  0.1520
 3726SOL    HW222815   1.315   3.510   6.639  1.2633  0.0806 -1.7159
 3727SOL     OW22816   3.415   1.968   2.116  0.3218  0.2533 -0.1511
 3727SOL    HW122817   3.396   1.957   2.209  2.7371  1.3707  0.4674
 3727SOL    HW222818   3.470   1.890   2.114  0.4058  0.2913  0.6740
 3728SOL     OW22819   0.151   3.299   8.119  0.4321  0.0634 -0.0518
 3728SOL    HW122820   0.143   3.228   8.055 -3.9814  0.7794 -0.2775
 3728SOL    HW222821   0.102   3.368   8.074 -1.4570  0.1236  2.1243
 3729SOL     OW22822   0.582   1.381   6.077 -0.4711 -0.2918 -0.2799
 3729SOL    HW122823   0.517   1.312   6.090 -0.7069 -0.1483 -0.7039
 3729SOL    HW222824   0.639   1.358   6.150  0.2091 -1.9783 -1.3342
 3730SOL     OW22825   2.605   3.161  12.392  0.2565 -0.4229  0.0510
 3730SOL    HW122826   2.649   3.202  12.466 -0.5540  2.4992 -1.1045
 3730SOL    HW222827   2.539   3.119  12.446  0.8028  0.2138  1.2109
 3731SOL     OW22828   2.264   4.440  10.563 -0.6378  0.4797  0.4225
 3731SOL    HW122829   2.189   4.453  10.622 -1.8396  0.6054 -1.1432
 3731SOL    HW222830   2.326   4.418  10.633  0.0692 -2.0708 -1.0355
 3732SOL     OW22831   2.072   3.230  12.842  0.6254  0.5188 -0.6591
 3732SOL    HW122832   2.064   3.324  12.827  0.8137  0.0030 -4.0223
 3732SOL    HW222833   2.088   3.223  12.936 -1.4180 -1.6963 -0.4731
 3733SOL     OW22834   2.465   1.465   5.699  0.0648 -0.2407  0.0628
 3733SOL    HW122835   2.538   1.497   5.751 -1.5519  1.3161  1.3936
 3733SOL    HW222836   2.399   1.529   5.725 -0.0739  0.1702 -1.2916
 3734SOL     OW22837   0.311   1.784  11.987 -0.0888 -0.4024  0.2158
 3734SOL    HW122838   0.382   1.801  12.049 -0.9131  1.0088  0.7852
 3734SOL    HW222839   0.266   1.868  11.999 -0.4078 -0.9598  2.9867
 3735SOL     OW22840   3.104   3.252   4.886  0.3166  0.5707  0.3742
 3735SOL    HW122841   3.044   3.322   4.911  0.4342  0.1186  1.8964
 3735SOL    HW222842   3.164   3.301   4.830 -1.9801  1.6723 -1.0985
 3736SOL     OW22843   3.678   1.058  15.418 -0.5836  0.1938 -0.2364
 3736SOL    HW122844   3.632   1.109  15.485  0.7053 -0.0958  0.8614
 3736SOL    HW222845   3.681   1.113  15.340  1.7672 -1.6803 -1.4595
 3737SOL     OW22846   3.294   2.367  12.584 -0.2854 -0.7771  0.1008
 3737SOL    HW122847   3.220   2.424  12.562 -0.3347 -2.0895 -3.1581
 3737SOL    HW222848   3.264   2.353  12.674 -2.1116 -1.4972 -0.6109
 3738SOL     OW22849   1.168   2.752  14.663 -0.7377 -0.5208  0.5818
 3738SOL    HW122850   1.094   2.701  14.629 -1.8673  1.6170 -0.2456
 3738SOL    HW222851   1.118   2.820  14.708  1.6458  1.0253  0.8862
 3739SOL     OW22852   1.298   4.242   6.107  0.2599 -0.4216 -0.2621
 3739SOL    HW122853   1.234   4.306   6.137  0.2676 -1.4810  2.0610
 3739SOL    HW222854   1.256   4.195   6.036  1.3468 -1.2217 -0.3795
 3740SOL     OW22855   2.828   2.247  15.101  0.7216  0.4849 -0.1038
 3740SOL    HW122856   2.814   2.245  15.196  1.1778  2.2613 -0.0137
 3740SOL    HW222857   2.896   2.314  15.099  2.2223 -1.0324 -0.3574
 3741SOL     OW22858   3.487   4.647  16.649 -0.2695  0.4226  0.3815
 3741SOL    HW122859   3.575   4.643  16.613  0.5581  1.9806  2.2065
 3741SOL    HW222860   3.441   4.673  16.570 -0.5352 -0.2487  0.3154
 3742SOL     OW22861   1.441   0.056  13.948  0.1591 -0.1758 -0.6373
 3742SOL    HW122862   1.512   0.118  13.963  1.4789 -1.8304 -0.0537
 3742SOL    HW222863   1.459   0.023  13.860  0.6993 -0.9067 -0.2505
 3743SOL     OW22864   0.337   4.041  11.849 -0.1131 -0.5200  0.3577
 3743SOL    HW122865   0.360   4.062  11.758 -2.2613  1.0078  0.1696
 3743SOL    HW222866   0.400   4.090  11.902 -0.1393  1.0273 -1.0312
 3744SOL     OW22867   1.617   2.713   1.760 -0.1724 -0.9482 -0.0640
 3744SOL    HW122868   1.578   2.661   1.690 -0.2928 -0.7037 -0.1753
 3744SOL    HW222869   1.533   2.747   1.793  0.3111  1.0181 -0.8507
 3745SOL     OW22870   1.989   1.325   3.192  0.3045 -0.1221  0.1316
 3745SOL    HW122871   2.020   1.394   3.251  2.0723  0.4749 -1.5056
 3745SOL    HW222872   2.057   1.259   3.204 -0.6183 -1.2675 -0.9266
 3746SOL     OW22873   0.569   2.647  17.185  0.5030  0.7674 -0.3849
 3746SOL    HW122874   0.536   2.635  17.096 -1.3916  0.8027  0.3279
 3746SOL    HW222875   0.529   2.577  17.235  1.2444  0.1200 -0.6976
 3747SOL     OW22876   0.225   2.650  13.745 -0.3186  0.5914  0.4613
 3747SOL    HW122877   0.312   2.633  13.782 -0.1531 -0.7778 -0.5516
 3747SOL    HW222878   0.199   2.568  13.703 -0.8203  1.5534 -1.1123
 3748SOL     OW22879   4.476   3.978   3.585  0.0107  1.2088 -0.0481
 3748SOL    HW122880   4.405   3.947   3.642 -0.5036 -1.2753 -2.0473
 3748SOL    HW222881   4.547   3.922   3.615  0.4651  2.0523  0.4662
 3749SOL     OW22882   1.830   3.134   3.553 -0.2743 -0.4099 -0.2343
 3749SOL    HW122883   1.914   3.161   3.516 -0.0949  1.6426  1.6772
 3749SOL    HW222884   1.771   3.209   3.538 -2.9852 -2.0746  2.0669
 3750SOL     OW22885   0.702   2.183   5.721  0.1646 -0.5495 -0.2222
 3750SOL    HW122886   0.752   2.112   5.680 -0.1011 -0.3044 -0.9658
 3750SOL    HW222887   0.766   2.234   5.772 -1.8507 -0.0444  1.8031
 3751SOL     OW22888   2.205   1.093   6.551 -0.2775  0.2401  0.4842
 3751SOL    HW122889   2.288   1.137   6.570 -2.5855  5.0421 -0.5993
 3751SOL    HW222890   2.181   1.057   6.636  1.4573 -0.5047  0.6620
 3752SOL     OW22891   2.528   1.584   7.872 -0.4631 -0.1132  0.3598
 3752SOL    HW122892   2.535   1.634   7.953  0.4088 -0.2402  0.3715
 3752SOL    HW222893   2.568   1.501   7.901 -0.1228 -0.0155  0.1710
 3753SOL     OW22894   4.189   4.504   6.008  0.1121  0.1702 -0.2216
 3753SOL    HW122895   4.260   4.550   5.962 -0.5726 -0.0469 -1.5056
 3753SOL    HW222896   4.210   4.410   6.009 -0.9909 -0.0136  2.7373
 3754SOL     OW22897   1.659   3.090   2.748 -0.0774 -0.0966 -0.8575
 3754SOL    HW122898   1.629   3.104   2.658 -0.7227  2.9469 -0.1774
 3754SOL    HW222899   1.715   3.168   2.756 -0.1342 -0.0533 -0.8879
 3755SOL     OW22900   3.102   1.886   9.312  0.1504  0.2043 -0.1774
 3755SOL    HW122901   3.193   1.904   9.334 -0.0332 -0.6568  1.3287
 3755SOL    HW222902   3.112   1.887   9.217 -1.8651 -1.5636 -0.4211
 3756SOL     OW22903   2.296   2.520   5.720  0.1080 -0.0336 -0.1923
 3756SOL    HW122904   2.201   2.517   5.729  0.0053  1.3403 -0.9041
 3756SOL    HW222905   2.305   2.517   5.625 -0.2020  2.0995 -0.2934
 3757SOL     OW22906   1.250   0.400  16.603 -0.0274  0.6265 -0.1133
 3757SOL    HW122907   1.336   0.411  16.644  0.5187  1.5438 -1.4968
 3757SOL    HW222908   1.217   0.323  16.648 -0.7308  1.1188  0.2157
 3758SOL     OW22909   3.757   1.145   1.219 -0.5338 -0.3132 -0.9885
 3758SOL    HW122910   3.742   1.224   1.271 -1.8811 -1.1047 -0.1629
 3758SOL    HW222911   3.745   1.076   1.284  0.2208  0.7121  0.2460
 3759SOL     OW22912   4.477   0.643  10.802  0.4050  0.4336 -0.4538
 3759SOL    HW122913   4.521   0.657  10.886  0.1951 -2.6946  0.1952
 3759SOL    HW222914   4.537   0.592  10.747  0.3705 -0.9200  0.7722
 3760SOL     OW22915   2.565   1.127   1.767 -0.7957 -0.1457 -0.3139
 3760SOL    HW122916   2.619   1.100   1.692  0.3426  0.2289  0.3802
 3760SOL    HW222917   2.569   1.048   1.822 -0.4783 -1.0959 -1.6897
 3761SOL     OW22918   4.519   4.009   4.205  0.5802 -0.4599  0.1629
 3761SOL    HW122919   4.514   3.958   4.287 -0.3276  1.1051  1.0750
 3761SOL    HW222920   4.500   4.094   4.246  1.2054  0.0389 -0.5931
 3762SOL     OW22921   3.281   4.393  17.231 -0.5146  0.1742 -0.1913
 3762SOL    HW122922   3.321   4.477  17.208  1.2196 -0.0766  1.9165
 3762SOL    HW222923   3.230   4.417  17.308  2.2811 -0.7268  1.9103
 3763SOL     OW22924   3.549   2.523   9.677  0.2365  0.2002  0.1645
 3763SOL    HW122925   3.509   2.591   9.624 -0.0106  2.4711  3.2666
 3763SOL    HW222926   3.633   2.566   9.695  1.1789 -0.5710 -2.4687
 3764SOL     OW22927   3.440   3.397   3.986  0.3049  0.8943 -0.2183
 3764SOL    HW122928   3.396   3.377   3.903  1.3379  2.1223 -1.0389
 3764SOL    HW222929   3.375   3.460   4.017  2.4446  2.8984  0.1974
 3765SOL     OW22930   4.389   2.517   3.170  0.3677  0.4888 -0.5420
 3765SOL    HW122931   4.427   2.429   3.171  0.2257  0.4494  2.2855
 3765SOL    HW222932   4.452   2.575   3.212 -1.5491  2.1437  0.0543
 3766SOL     OW22933   0.185   3.642  13.166 -0.1386  0.1900 -0.4862
 3766SOL    HW122934   0.142   3.709  13.111 -0.7153  0.5978  0.4697
 3766SOL    HW222935   0.108   3.611  13.214 -0.1036 -1.0648 -1.2381
 3767SOL     OW22936   2.468   2.225   2.166 -0.0265 -0.6390 -0.3887
 3767SOL    HW122937   2.517   2.234   2.084  1.3809 -0.2669  0.4861
 3767SOL    HW222938   2.469   2.319   2.188 -1.1726 -0.2846 -1.8345
 3768SOL     OW22939   2.562   3.983  13.410  0.4213 -0.3307 -0.1400
 3768SOL    HW122940   2.579   4.056  13.469  1.1461 -2.1588  1.9105
 3768SOL    HW222941   2.500   4.026  13.351  0.8706  1.9719  1.0494
 3769SOL     OW22942   2.387   2.255   8.656 -0.5703 -0.2697 -0.2931
 3769SOL    HW122943   2.414   2.227   8.569 -0.6554 -0.0906 -0.3788
 3769SOL    HW222944   2.476   2.262   8.690  0.3670  2.6083 -3.2638
 3770SOL     OW22945   2.626   1.574   9.121 -0.3745  0.3093  0.1161
 3770SOL    HW122946   2.650   1.497   9.069 -1.3253  0.5649 -0.7022
 3770SOL    HW222947   2.546   1.550   9.168 -0.6732  0.2248 -0.4361
 3771SOL     OW22948   2.737   0.932   1.165 -0.1226 -0.1369  0.1686
 3771SOL    HW122949   2.793   1.005   1.137  1.0722 -0.9382  0.4834
 3771SOL    HW222950   2.800   0.886   1.221  0.3794  0.5750  0.1953
 3772SOL     OW22951   2.534   3.671   5.270 -0.1168  0.2919 -0.1814
 3772SOL    HW122952   2.452   3.716   5.290 -0.9469 -1.4133  0.2150
 3772SOL    HW222953   2.587   3.690   5.347  1.8765 -0.5682 -1.3381
 3773SOL     OW22954   1.757   0.037  11.118 -0.2842 -0.3097  0.4500
 3773SOL    HW122955   1.800   4.708  11.174  1.0420 -0.0245 -0.2175
 3773SOL    HW222956   1.668   0.003  11.122 -0.6828  0.6320 -0.3906
 3774SOL     OW22957   0.796   4.337  14.014 -0.3080  0.1231 -0.4660
 3774SOL    HW122958   0.708   4.341  13.978 -1.0979 -1.3611  1.3437
 3774SOL    HW222959   0.852   4.350  13.937  0.6465 -0.4661  0.1166
 3775SOL     OW22960   3.236   0.999   2.390  0.2881  0.0668  0.8993
 3775SOL    HW122961   3.186   0.953   2.323  0.8814 -0.9109  1.1261
 3775SOL    HW222962   3.283   0.924   2.426 -0.8331 -1.3240 -0.5686
 3776SOL     OW22963   3.736   1.624   6.485 -0.4426 -0.1907 -0.4380
 3776SOL    HW122964   3.785   1.698   6.448  1.5054 -0.9779  0.5876
 3776SOL    HW222965   3.740   1.564   6.410 -0.1617 -0.6688 -0.0404
 3777SOL     OW22966   1.741   1.426  11.074  0.0774  0.5646  0.5171
 3777SOL    HW122967   1.801   1.456  11.006  0.0825  0.2460  0.3846
 3777SOL    HW222968   1.757   1.494  11.140 -2.4001  0.0758  1.6352
 3778SOL     OW22969   1.259   3.983   7.526 -0.4226 -0.0272  0.3867
 3778SOL    HW122970   1.334   4.034   7.496  0.5269 -2.1070 -0.7799
 3778SOL    HW222971   1.278   3.894   7.495 -0.1160 -0.3811  1.5960
 3779SOL     OW22972   4.428   1.178   9.211  0.2214 -0.0219 -0.2228
 3779SOL    HW122973   4.474   1.155   9.130  1.0257  1.6389 -0.2423
 3779SOL    HW222974   4.477   1.122   9.271 -0.8491 -1.0843 -0.3402
 3780SOL     OW22975   2.973   2.573   3.687  0.4528  0.3873  0.3699
 3780SOL    HW122976   2.910   2.514   3.727  1.0432 -0.5108 -0.0164
 3780SOL    HW222977   3.040   2.572   3.756  0.9378  2.9907 -0.0566
 3781SOL     OW22978   2.656   1.993  16.296  0.4125  0.0440 -0.3169
 3781SOL    HW122979   2.658   2.026  16.386  2.2162 -0.1925 -0.2728
 3781SOL    HW222980   2.619   1.906  16.307  2.0088 -0.8601 -2.2139
 3782SOL     OW22981   3.898   4.363   4.609  0.1696  0.0802 -0.8203
 3782SOL    HW122982   3.873   4.415   4.686  0.1715  0.7371 -1.2623
 3782SOL    HW222983   3.822   4.360   4.550 -1.1095  1.9563  0.7178
 3783SOL     OW22984   0.220   4.003   3.600  0.0912 -0.4596  0.2289
 3783SOL    HW122985   0.182   4.087   3.623 -0.2403  0.2392 -2.9664
 3783SOL    HW222986   0.291   4.003   3.664  0.5101  0.4943 -0.2390
 3784SOL     OW22987   0.328   1.545   3.097 -0.2606 -0.2228  0.1932
 3784SOL    HW122988   0.408   1.595   3.114  2.3951 -3.7165 -1.7850
 3784SOL    HW222989   0.293   1.533   3.185  1.0878  1.3150  0.9377
 3785SOL     OW22990   0.610   1.357  13.484  0.2674 -0.4206  0.1090
 3785SOL    HW122991   0.661   1.284  13.519 -1.2523 -1.4500  0.1865
 3785SOL    HW222992   0.583   1.403  13.563  0.5066  1.7052 -1.0540
 3786SOL     OW22993   2.697   3.387  16.581 -0.4057 -0.3827  0.1284
 3786SOL    HW122994   2.606   3.374  16.608 -0.0609 -2.6576  0.1503
 3786SOL    HW222995   2.747   3.317  16.623 -1.2435 -1.1746 -0.2210
 3787SOL     OW22996   0.674   0.113  13.453 -0.0473  0.4580  0.3354
 3787SOL    HW122997   0.735   0.050  13.415 -2.0191 -0.9517 -0.4868
 3787SOL    HW222998   0.621   0.132  13.376  2.8282  0.5153 -1.6188
 3788SOL     OW22999   0.183   0.822   3.620  0.0429  0.5551 -0.4150
 3788SOL    HW123000   0.136   0.905   3.621 -0.0034  0.5197  0.1653
 3788SOL    HW223001   0.267   0.832   3.664  0.7278  1.4693 -1.9156
 3789SOL     OW23002   1.290   1.037  16.365 -0.1970  0.1098 -0.0897
 3789SOL    HW123003   1.327   1.055  16.279  1.9663 -2.1135  0.3788
 3789SOL    HW223004   1.250   0.954  16.339  0.0711  0.2145 -0.8243
 3790SOL     OW23005   2.175   1.770   2.240  0.3525  0.0333 -0.2310
 3790SOL    HW123006   2.089   1.744   2.206 -0.1582 -0.7730  1.6556
 3790SOL    HW223007   2.150   1.856   2.274  0.8926  0.1960 -0.2482
 3791SOL     OW23008   3.891   4.185   5.217 -0.1264 -0.4317  0.2896
 3791SOL    HW123009   3.952   4.118   5.248  3.1435  2.1885 -0.4133
 3791SOL    HW223010   3.927   4.259   5.266 -2.5336 -0.0601  1.4574
 3792SOL     OW23011   4.725   0.227   8.029  0.3047  0.1918 -0.1946
 3792SOL    HW123012   0.071   0.178   8.030  1.8030  2.6995 -1.5208
 3792SOL    HW223013   4.712   0.253   8.120 -2.4973 -1.4732 -0.1173
 3793SOL     OW23014   1.077   4.347   4.005  0.4473 -0.0350  0.2363
 3793SOL    HW123015   1.081   4.276   3.942 -1.1369  0.1027 -0.0043
 3793SOL    HW223016   1.025   4.405   3.950  2.1996 -0.0401 -1.4358
 3794SOL     OW23017   0.859   1.633  15.197 -0.1553 -0.4593 -0.3131
 3794SOL    HW123018   0.801   1.696  15.154  2.2043 -0.7172 -3.8970
 3794SOL    HW223019   0.853   1.667  15.286 -1.1270  1.0614 -0.9537
 3795SOL     OW23020   1.991   2.256   4.672  0.1155  0.3332 -0.5763
 3795SOL    HW123021   1.934   2.298   4.608 -1.1229 -1.5195 -0.6894
 3795SOL    HW223022   1.983   2.317   4.745 -2.9935  1.6894 -2.0495
 3796SOL     OW23023   1.003   3.700   8.579  0.1982 -0.3147  0.2345
 3796SOL    HW123024   1.060   3.625   8.595  0.7772 -0.4324 -2.3827
 3796SOL    HW223025   1.035   3.729   8.494  0.3617 -1.5128 -0.1094
 3797SOL     OW23026   4.584   0.345  12.806 -0.3340  0.5029  0.2493
 3797SOL    HW123027   4.541   0.405  12.867 -0.5849  1.4293 -0.8414
 3797SOL    HW223028   4.625   0.410  12.750  1.3182 -0.9785 -0.2512
 3798SOL     OW23029   1.793   3.183   7.716  0.5049 -0.3858 -0.1669
 3798SOL    HW123030   1.711   3.136   7.736  1.8790 -2.8132 -0.2782
 3798SOL    HW223031   1.831   3.135   7.643  1.8114  0.4010  0.0007
 3799SOL     OW23032   4.368   0.697  15.491  0.3922 -0.6695  0.0140
 3799SOL    HW123033   4.287   0.662  15.528 -1.0259  1.0917 -1.4447
 3799SOL    HW223034   4.332   0.775  15.449  0.2210 -0.0782  1.2647
 3800SOL     OW23035   0.595   4.016  15.910  0.2087  0.3828  0.1922
 3800SOL    HW123036   0.624   4.106  15.927 -1.8711  0.8691  1.1492
 3800SOL    HW223037   0.634   3.977  15.988  0.6043 -2.3449 -1.4083
 3801SOL     OW23038   3.013   3.059   0.130  0.2581 -0.2873  0.1999
 3801SOL    HW123039   3.042   3.030   0.044  2.0226  0.5598  0.5130
 3801SOL    HW223040   2.939   3.000   0.143  0.6060 -0.9924 -0.9734
 3802SOL     OW23041   4.012   1.251   6.701  0.8793  0.6097 -0.2705
 3802SOL    HW123042   4.094   1.256   6.652  2.5132  1.7695  2.6228
 3802SOL    HW223043   3.962   1.318   6.655  3.1717  0.8997 -2.2966
 3803SOL     OW23044   0.790   2.329   6.215  0.8850 -0.3903 -0.3465
 3803SOL    HW123045   0.736   2.284   6.150  0.0320  0.5669 -0.2977
 3803SOL    HW223046   0.749   2.415   6.206 -0.1672 -0.9428 -0.8851
 3804SOL     OW23047   3.702   3.188   2.762  0.9484  0.5221 -0.7738
 3804SOL    HW123048   3.687   3.100   2.797  0.3341  0.7263 -0.5136
 3804SOL    HW223049   3.616   3.216   2.732  0.3407 -1.2120 -0.6700
 3805SOL     OW23050   2.448   0.522   4.418  0.5060  0.4523 -0.4032
 3805SOL    HW123051   2.383   0.515   4.488 -1.6919  0.5642 -2.4648
 3805SOL    HW223052   2.411   0.453   4.362 -0.8361  0.3069  0.6583
 3806SOL     OW23053   1.413   3.645   6.752 -0.0910  0.7418  0.1775
 3806SOL    HW123054   1.479   3.708   6.783  0.6622 -0.5370  1.1986
 3806SOL    HW223055   1.422   3.578   6.821 -0.7433  1.2789  0.7841
 3807SOL     OW23056   3.255   3.620   2.145 -0.0685 -0.2524  0.0953
 3807SOL    HW123057   3.167   3.619   2.108 -0.3725 -1.4657  0.8536
 3807SOL    HW223058   3.294   3.681   2.082 -0.3494  0.3798  0.5365
 3808SOL     OW23059   3.599   1.799   6.859  0.4462 -0.4915 -0.1051
 3808SOL    HW123060   3.531   1.816   6.924  0.5631 -2.3474  0.4857
 3808SOL    HW223061   3.598   1.704   6.856  0.3261 -0.5687  2.3211
 3809SOL     OW23062   2.988   0.968  15.884 -0.4975 -0.2086  0.0076
 3809SOL    HW123063   2.953   0.913  15.954 -1.7049  0.6566  0.0798
 3809SOL    HW223064   2.910   1.023  15.876 -0.7885 -0.5779  0.3065
 3810SOL     OW23065   3.378   2.260   7.925  0.2513  0.1573  0.2805
 3810SOL    HW123066   3.330   2.188   7.884 -2.7476  2.4412 -0.2556
 3810SOL    HW223067   3.456   2.257   7.871  0.0872  0.2741  0.0405
 3811SOL     OW23068   3.003   0.615  12.766 -0.0323  0.2493 -0.0648
 3811SOL    HW123069   3.017   0.593  12.858 -3.4292 -1.2237  0.1033
 3811SOL    HW223070   3.083   0.580  12.727 -0.5279  0.4428 -1.2505
 3812SOL     OW23071   0.233   3.469   4.717  0.2196 -0.7937 -0.1949
 3812SOL    HW123072   0.206   3.523   4.791 -1.6040 -3.1651  0.8481
 3812SOL    HW223073   0.324   3.499   4.711  0.4229 -1.2703  0.4874
 3813SOL     OW23074   2.859   4.229  14.865 -0.3953  0.6528  0.3742
 3813SOL    HW123075   2.796   4.301  14.874 -1.1335  0.2250 -1.3138
 3813SOL    HW223076   2.807   4.164  14.818 -0.4984  1.6241 -0.8712
 3814SOL     OW23077   3.757   0.647   6.843 -0.0063 -0.1241 -0.1898
 3814SOL    HW123078   3.714   0.599   6.914  0.7308 -1.2228 -0.4814
 3814SOL    HW223079   3.803   0.717   6.889 -0.6575  0.5211 -0.5387
 3815SOL     OW23080   1.628   4.004   7.203  1.2456  0.0482 -0.3391
 3815SOL    HW123081   1.586   3.990   7.118 -1.3105 -0.0958  0.9260
 3815SOL    HW223082   1.711   4.045   7.180  0.6721  1.0754 -0.5952
 3816SOL     OW23083   3.014   4.055   5.113  0.3115 -0.0081  0.4535
 3816SOL    HW123084   3.099   4.017   5.089  0.3450  0.8034 -0.6839
 3816SOL    HW223085   2.961   3.978   5.133  1.1970 -1.1417 -1.5069
 3817SOL     OW23086   1.864   2.270   3.053 -0.3194 -0.7661 -0.8055
 3817SOL    HW123087   1.828   2.184   3.032 -0.9350 -0.3303 -1.5237
 3817SOL    HW223088   1.947   2.259   3.007 -0.4772 -0.7402 -1.0947
 3818SOL     OW23089   0.313   4.014   4.749 -0.5702  0.6798 -0.3424
 3818SOL    HW123090   0.236   4.063   4.718  1.1312  3.4783 -0.1621
 3818SOL    HW223091   0.311   3.940   4.689 -0.6034 -0.4725  1.0886
 3819SOL     OW23092   0.858   0.325  13.814  0.0538  0.5487 -0.1725
 3819SOL    HW123093   0.858   0.277  13.897 -0.6593  3.5302  1.5399
 3819SOL    HW223094   0.768   0.324  13.781  1.4301  2.0994 -3.9897
 3820SOL     OW23095   2.798   4.615   0.848 -0.0467 -0.4387  0.7432
 3820SOL    HW123096   2.779   4.705   0.820  0.6949 -0.6790 -0.5555
 3820SOL    HW223097   2.891   4.617   0.828 -0.1377  1.2394  0.4801
 3821SOL     OW23098   0.087   4.292   4.447  0.0050  0.1271  0.4523
 3821SOL    HW123099   0.164   4.299   4.391 -0.0349 -0.8108  0.2910
 3821SOL    HW223100   0.116   4.336   4.527  1.5403 -0.2579  0.0953
 3822SOL     OW23101   4.476   1.330   7.647 -0.3931  0.2910 -0.6495
 3822SOL    HW123102   4.412   1.358   7.713  0.7763 -2.3337  1.5780
 3822SOL    HW223103   4.558   1.337   7.695 -1.3837  0.4461  1.0067
 3823SOL     OW23104   0.453   2.458   0.397 -0.2253 -0.2729 -0.3429
 3823SOL    HW123105   0.412   2.405   0.329  0.1948 -0.7310 -0.2493
 3823SOL    HW223106   0.438   2.549   0.374  1.9258  0.1237 -0.2187
 3824SOL     OW23107   0.235   3.836   8.778  0.7488  0.4956  0.1783
 3824SOL    HW123108   0.204   3.747   8.795 -1.2508  1.5284  2.0229
 3824SOL    HW223109   0.172   3.886   8.831 -0.1748  1.4065 -1.7866
 3825SOL     OW23110   0.722   1.931   4.363 -0.0747 -0.3865  0.0779
 3825SOL    HW123111   0.768   1.916   4.446  1.1511  2.3231 -0.1155
 3825SOL    HW223112   0.766   1.862   4.312 -0.4326  0.3340 -1.2017
 3826SOL     OW23113   1.764   4.544   5.677  0.2589  0.4414  0.0176
 3826SOL    HW123114   1.671   4.562   5.659 -0.3763 -0.8749  2.0329
 3826SOL    HW223115   1.776   4.452   5.656 -0.4489  0.1658  0.8143
 3827SOL     OW23116   4.094   3.996   1.609  0.2248 -0.5603 -0.1587
 3827SOL    HW123117   4.105   4.071   1.551 -0.7854 -0.6911 -0.5061
 3827SOL    HW223118   4.044   4.033   1.682  1.7741 -0.9882  1.1331
 3828SOL     OW23119   3.117   1.131   9.476 -0.0623 -0.4722  0.2823
 3828SOL    HW123120   3.125   1.225   9.459  0.6331 -0.6775 -0.4979
 3828SOL    HW223121   3.062   1.134   9.555 -0.6810  0.2751 -0.1700
 3829SOL     OW23122   3.884   0.373   3.395 -0.1244 -0.1753 -0.1315
 3829SOL    HW123123   3.967   0.359   3.349 -0.9433 -0.4662 -1.4983
 3829SOL    HW223124   3.862   0.458   3.359  0.8952 -1.3292 -3.4590
 3830SOL     OW23125   3.143   2.839  11.208 -0.1124  0.1538 -0.1511
 3830SOL    HW123126   3.053   2.861  11.231 -0.8501 -1.7742 -1.1457
 3830SOL    HW223127   3.166   2.924  11.171  0.0462  0.1922  0.0350
 3831SOL     OW23128   4.111   0.895   0.267 -0.6644  0.1006 -0.4601
 3831SOL    HW123129   4.021   0.925   0.278 -1.0550 -0.7406 -1.3765
 3831SOL    HW223130   4.127   0.961   0.199  0.3503  0.1752 -0.1539
 3832SOL     OW23131   4.632   1.713   1.698  0.3310  0.1117 -0.2494
 3832SOL    HW123132   4.607   1.633   1.745 -0.3363 -0.9330 -2.4044
 3832SOL    HW223133   4.727   1.704   1.697  0.3337  0.5384 -5.1188
 3833SOL     OW23134   4.271   1.369   7.414  0.0846 -0.2362 -0.2726
 3833SOL    HW123135   4.249   1.282   7.448 -1.2651 -0.1632 -0.9789
 3833SOL    HW223136   4.291   1.417   7.495  2.3329 -0.9674 -0.3890
 3834SOL     OW23137   4.165   3.353   7.073 -0.2707 -0.2587  0.1874
 3834SOL    HW123138   4.126   3.297   7.005  0.6188  0.3435 -0.8159
 3834SOL    HW223139   4.255   3.354   7.040 -1.1338  0.5353 -2.1730
 3835SOL     OW23140   1.149   4.616   1.568  0.4032 -0.9180  0.3706
 3835SOL    HW123141   1.091   4.685   1.602  1.6454  1.4829 -2.3872
 3835SOL    HW223142   1.147   4.639   1.475  2.0705 -1.2872  0.2540
 3836SOL     OW23143   3.336   0.985   3.824  0.1046  0.4178 -0.3088
 3836SOL    HW123144   3.424   1.011   3.798  0.2090  1.3777  1.0089
 3836SOL    HW223145   3.277   1.024   3.760 -1.2582  0.0915  0.7365
 3837SOL     OW23146   3.411   3.762   7.542 -0.3711  0.2096  0.5618
 3837SOL    HW123147   3.318   3.741   7.547  0.1612 -1.6509  2.8510
 3837SOL    HW223148   3.427   3.807   7.625 -0.4292 -3.2144  2.4020
 3838SOL     OW23149   1.611   3.749   3.628 -0.3075 -0.1264 -0.5342
 3838SOL    HW123150   1.537   3.728   3.685 -0.6674 -1.3995 -1.4765
 3838SOL    HW223151   1.677   3.791   3.683  0.3631 -2.6328  0.6211
 3839SOL     OW23152   2.216   3.122   3.101 -0.1643 -0.7300 -0.4449
 3839SOL    HW123153   2.130   3.164   3.105  1.0355  1.4855  1.6552
 3839SOL    HW223154   2.185   3.038   3.068 -0.6232  0.3324 -2.6997
 3840SOL     OW23155   4.244   4.269   7.523  0.4026 -0.2677 -0.5493
 3840SOL    HW123156   4.216   4.361   7.519  0.2617 -0.2151  1.3709
 3840SOL    HW223157   4.337   4.272   7.502 -0.1326  2.4748 -2.5457
 3841SOL     OW23158   3.234   2.725  10.494  0.2287 -0.5140 -0.6759
 3841SOL    HW123159   3.212   2.779  10.418 -0.7734 -0.2521 -0.2067
 3841SOL    HW223160   3.236   2.789  10.565  0.5584 -1.9033  0.5530
 3842SOL     OW23161   1.878   3.686  17.335 -0.1063  0.5232  0.1420
 3842SOL    HW123162   1.824   3.646  17.267  1.1744 -0.4157 -0.3120
 3842SOL    HW223163   1.923   3.611  17.373 -2.4086 -1.1325 -0.4208
 3843SOL     OW23164   1.780   3.921   6.316 -0.0936 -0.0483  0.3400
 3843SOL    HW123165   1.768   4.009   6.353 -0.7285  0.0416 -0.0775
 3843SOL    HW223166   1.743   3.945   6.231 -0.7036 -2.4543 -0.0575
 3844SOL     OW23167   3.448   0.892  13.038  0.2802  0.0536  0.2452
 3844SOL    HW123168   3.481   0.974  13.075  0.2413 -0.5275  1.5671
 3844SOL    HW223169   3.467   0.829  13.108 -0.3240  1.4514  1.6596
 3845SOL     OW23170   0.576   4.034  12.981  0.1596 -0.0118 -0.0830
 3845SOL    HW123171   0.644   4.099  12.999  2.4936 -1.8211 -2.2657
 3845SOL    HW223172   0.517   4.044  13.055 -1.2632  1.0022 -1.3564
 3846SOL     OW23173   1.327   3.928   5.401  0.1825  0.0352  0.2443
 3846SOL    HW123174   1.288   3.841   5.414  1.0857 -0.4884 -0.5365
 3846SOL    HW223175   1.348   3.921   5.308  0.4549  0.0303  0.3079
 3847SOL     OW23176   1.155   2.320   2.256 -0.2073  0.3137 -0.4162
 3847SOL    HW123177   1.191   2.299   2.170  0.5275 -2.7160  0.6006
 3847SOL    HW223178   1.189   2.253   2.316 -0.3087  0.0319 -0.6729
 3848SOL     OW23179   3.639   4.176   4.108 -0.1912  0.0498 -0.7302
 3848SOL    HW123180   3.561   4.185   4.053 -0.8859  0.8650  0.4001
 3848SOL    HW223181   3.590   4.158   4.188 -1.2044  0.0301 -1.3428
 3849SOL     OW23182   1.497   3.156   2.168 -0.1969  0.0363 -0.3210
 3849SOL    HW123183   1.503   3.067   2.132  0.7619 -0.1994  0.4227
 3849SOL    HW223184   1.444   3.196   2.099  1.2646 -1.5170 -2.3535
 3850SOL     OW23185   0.759   2.825   6.061  0.2697 -0.0879 -0.0341
 3850SOL    HW123186   0.808   2.897   6.021  0.2309 -1.9844 -3.5610
 3850SOL    HW223187   0.730   2.859   6.145 -0.0695 -0.2187 -0.0960
 3851SOL     OW23188   0.150   1.985   9.419 -0.6600 -0.2716 -0.3844
 3851SOL    HW123189   0.160   1.925   9.345 -0.3549  1.0136 -1.4036
 3851SOL    HW223190   0.237   2.013   9.447 -0.8450 -1.5159  1.3872
 3852SOL     OW23191   0.012   0.238   6.406  0.0244  0.2254  0.0573
 3852SOL    HW123192   0.080   0.193   6.457  2.6213  2.3052 -1.6135
 3852SOL    HW223193   4.709   0.297   6.470  0.7859 -1.6370  2.2442
 3853SOL     OW23194   1.232   4.071   2.093  0.1232 -0.0889 -0.1941
 3853SOL    HW123195   1.276   4.137   2.148 -0.3318 -0.9269  1.1712
 3853SOL    HW223196   1.277   4.096   2.012 -0.7579 -0.5588 -0.8217
 3854SOL     OW23197   2.995   4.118   6.934 -0.3584 -0.7568  0.8322
 3854SOL    HW123198   3.024   4.085   6.849 -0.6285 -2.1339  1.2763
 3854SOL    HW223199   2.901   4.118   6.919 -0.4196 -2.7090  1.1915
 3855SOL     OW23200   3.422   4.436   7.263 -0.0360 -0.1382 -0.4973
 3855SOL    HW123201   3.382   4.514   7.300  2.2178 -0.1826  2.0700
 3855SOL    HW223202   3.393   4.435   7.172 -0.1498  0.2055 -0.4623
 3856SOL     OW23203   1.545   4.083  17.663  0.0427  0.9067  0.6036
 3856SOL    HW123204   1.547   4.046   0.007 -0.0330  0.2721  0.3394
 3856SOL    HW223205   1.502   4.168  17.674 -0.3551  0.7700  0.1164
 3857SOL     OW23206   2.045   1.852   5.096 -0.5011  0.6969 -0.7447
 3857SOL    HW123207   1.967   1.832   5.044 -0.1275 -1.0333 -0.6186
 3857SOL    HW223208   2.016   1.867   5.186  0.7646  2.3039 -0.6011
 3858SOL     OW23209   0.478   0.878   1.788 -0.1687 -0.6684 -0.2203
 3858SOL    HW123210   0.490   0.895   1.881  1.6774  2.3507 -0.9889
 3858SOL    HW223211   0.539   0.806   1.770  3.0475  1.7065  1.1297
 3859SOL     OW23212   0.812   3.257  13.084 -0.0866 -0.1156 -0.1576
 3859SOL    HW123213   0.862   3.293  13.157 -0.4563 -0.0240  0.0503
 3859SOL    HW223214   0.783   3.176  13.126 -1.3399  0.5284  0.1977
 3860SOL     OW23215   1.554   1.788   3.924  0.2935  0.1749  0.7044
 3860SOL    HW123216   1.490   1.722   3.899  1.1042  0.1471 -1.2498
 3860SOL    HW223217   1.603   1.800   3.843 -0.7439 -1.4981 -0.1871
 3861SOL     OW23218   1.870   3.575   3.061  0.2657  0.2283 -0.2047
 3861SOL    HW123219   1.936   3.521   3.104  0.4854 -0.7519 -1.7768
 3861SOL    HW223220   1.918   3.656   3.047 -1.0483  0.5994 -2.5292
 3862SOL     OW23221   3.472   4.144   1.652  0.2321  0.0969 -0.0405
 3862SOL    HW123222   3.414   4.106   1.718  0.7174  0.7459  0.7754
 3862SOL    HW223223   3.424   4.130   1.570 -1.9713  0.8769  1.1059
 3863SOL     OW23224   1.375   2.880   2.528  0.1097 -0.1095  0.1078
 3863SOL    HW123225   1.444   2.941   2.501  1.4058 -0.9772  1.5059
 3863SOL    HW223226   1.415   2.798   2.500  0.0480  0.3994 -1.4783
 3864SOL     OW23227   0.984   1.275  15.396 -0.5533 -0.1016 -0.3516
 3864SOL    HW123228   1.017   1.339  15.460  0.3610 -2.1557  1.2077
 3864SOL    HW223229   1.065   1.238  15.362 -0.7989  0.5225 -1.6255
 3865SOL     OW23230   3.878   0.824  16.086 -0.4269 -0.1230  1.0219
 3865SOL    HW123231   3.878   0.920  16.087 -0.6247 -0.1226 -0.2506
 3865SOL    HW223232   3.794   0.818  16.131  0.0051 -1.9530  1.5603
 3866SOL     OW23233   3.865   4.564   8.712 -0.0159  0.5045  0.0525
 3866SOL    HW123234   3.787   4.609   8.680  0.4343  1.1254 -0.1574
 3866SOL    HW223235   3.850   4.486   8.658  0.5231 -1.3554  2.5735
 3867SOL     OW23236   2.995   1.197   7.551  0.0878  0.0760  0.5516
 3867SOL    HW123237   3.055   1.137   7.596 -0.8508 -2.0639 -1.0140
 3867SOL    HW223238   2.916   1.156   7.586 -1.3683  0.9625 -1.7394
 3868SOL     OW23239   1.525   1.188  12.808 -0.1751  0.6206 -0.1556
 3868SOL    HW123240   1.597   1.245  12.835  1.7757 -1.3768 -1.0313
 3868SOL    HW223241   1.533   1.119  12.874 -2.1203  0.7840  0.2298
 3869SOL     OW23242   2.364   3.646   3.880 -0.0880  0.6364  0.2905
 3869SOL    HW123243   2.433   3.603   3.830  1.5501  1.5279  1.8027
 3869SOL    HW223244   2.306   3.571   3.867  0.5344  0.0558  0.8897
 3870SOL     OW23245   2.205   2.853   0.472  0.1341 -0.2259  0.0497
 3870SOL    HW123246   2.241   2.862   0.561 -0.9104 -1.3390  0.5876
 3870SOL    HW223247   2.230   2.763   0.451  0.5283  0.1516 -1.0914
 3871SOL     OW23248   1.088   0.663   3.245 -0.4067  0.7098  0.4706
 3871SOL    HW123249   1.039   0.721   3.304  0.4098  1.2445  0.6248
 3871SOL    HW223250   1.117   0.593   3.303 -1.0570 -1.2919 -1.6491
 3872SOL     OW23251   3.142   1.646   3.264  0.0869  0.4236 -0.5303
 3872SOL    HW123252   3.093   1.633   3.183 -0.7131 -2.4067  0.4175
 3872SOL    HW223253   3.228   1.608   3.244  0.7185  1.9457 -0.6873
 3873SOL     OW23254   3.401   2.033   2.687 -0.1098 -0.6422 -0.1166
 3873SOL    HW123255   3.451   2.062   2.763 -0.4409  1.2553 -0.6084
 3873SOL    HW223256   3.461   1.961   2.666  0.3899 -0.1965 -0.2287
 3874SOL     OW23257   3.264   1.392  12.641 -0.5074  0.1843 -0.1124
 3874SOL    HW123258   3.209   1.402  12.562 -0.6280  0.4011  0.0012
 3874SOL    HW223259   3.315   1.311  12.633 -2.4757 -1.1181  0.2273
 3875SOL     OW23260   0.808   1.947   6.677 -0.2838  0.1242 -0.6123
 3875SOL    HW123261   0.797   1.970   6.769  2.5740 -1.3087  0.1005
 3875SOL    HW223262   0.723   1.909   6.656 -0.2651 -0.4873  0.4169
 3876SOL     OW23263   3.850   1.528   1.615  0.5362 -0.4491 -0.3503
 3876SOL    HW123264   3.764   1.517   1.656  0.3654  0.3762 -0.4998
 3876SOL    HW223265   3.900   1.539   1.696 -2.7485 -0.2617  1.6393
 3877SOL     OW23266   1.820   2.195   8.384  0.2935  0.7086 -0.1479
 3877SOL    HW123267   1.883   2.147   8.438  0.8944  1.9483  0.2496
 3877SOL    HW223268   1.744   2.189   8.441  1.1217  0.9744  0.9891
 3878SOL     OW23269   2.226   3.533   7.144  0.2990  0.2156 -0.7425
 3878SOL    HW123270   2.292   3.502   7.205 -0.5939  1.2051  0.7294
 3878SOL    HW223271   2.144   3.525   7.194 -0.7148 -0.2905 -2.4723
 3879SOL     OW23272   4.404   1.809   3.427  0.1397  0.0569  0.3208
 3879SOL    HW123273   4.420   1.721   3.459 -2.5783 -0.2251  0.8920
 3879SOL    HW223274   4.383   1.854   3.509  2.2269  0.6861  0.5148
 3880SOL     OW23275   2.677   2.503   6.950  0.2577  0.0291  0.0294
 3880SOL    HW123276   2.764   2.537   6.970  1.1304 -1.0680 -1.8738
 3880SOL    HW223277   2.646   2.571   6.891  4.0682  2.9180  1.3574
 3881SOL     OW23278   2.137   4.083   5.701  0.1711 -0.3554 -0.7258
 3881SOL    HW123279   2.079   4.014   5.669  0.6803  0.5680 -3.6145
 3881SOL    HW223280   2.103   4.157   5.651  0.9192 -0.7368 -1.7959
 3882SOL     OW23281   2.342   4.160   7.616  0.2266 -0.5183 -0.3423
 3882SOL    HW123282   2.426   4.152   7.570  1.2211  1.3536  1.1609
 3882SOL    HW223283   2.318   4.247   7.584 -2.5004 -0.9408  0.6017
 3883SOL     OW23284   4.238   2.912   9.265  0.7823 -0.4655 -0.5609
 3883SOL    HW123285   4.235   2.854   9.342  2.2193  0.4012  0.1608
 3883SOL    HW223286   4.155   2.902   9.219  0.5409 -0.6590 -0.0855
 3884SOL     OW23287   4.446   3.359  16.158  0.1241  0.2584 -0.1497
 3884SOL    HW123288   4.486   3.411  16.088  0.5298  2.5966  1.8283
 3884SOL    HW223289   4.526   3.352  16.209  0.1883 -4.3449 -0.8878
 3885SOL     OW23290   4.280   1.675   9.226 -0.1962  0.7678 -0.2585
 3885SOL    HW123291   4.333   1.596   9.230  2.4889  2.5885  0.4729
 3885SOL    HW223292   4.310   1.724   9.303 -2.6488 -0.0955  1.2601
 3886SOL     OW23293   1.289   0.080   4.889 -0.0027  0.5980  0.3070
 3886SOL    HW123294   1.337   0.045   4.813  1.0469 -0.8181  1.6109
 3886SOL    HW223295   1.284   0.002   4.944 -3.0039 -0.2276 -1.1073
 3887SOL     OW23296   0.771   0.967   4.298  0.1868  0.6790  0.3411
 3887SOL    HW123297   0.729   0.997   4.218  3.0911 -0.9834 -1.8078
 3887SOL    HW223298   0.702   0.909   4.332  3.4017 -1.7433  2.7839
 3888SOL     OW23299   3.302   2.749   9.213 -0.0733 -0.2992 -0.3222
 3888SOL    HW123300   3.352   2.823   9.247  0.7349 -0.8875 -0.2366
 3888SOL    HW223301   3.231   2.794   9.168 -1.9065 -0.6066  2.3117
 3889SOL     OW23302   2.680   3.594   4.747 -0.1042  0.3981  0.1190
 3889SOL    HW123303   2.629   3.521   4.713 -1.2443 -0.4069  3.5972
 3889SOL    HW223304   2.647   3.603   4.837 -0.8855  0.2462 -0.1535
 3890SOL     OW23305   2.483   3.146   0.944  0.5886 -0.0725 -0.3313
 3890SOL    HW123306   2.444   3.112   0.864  0.4431 -1.6755  0.4196
 3890SOL    HW223307   2.472   3.062   0.989  0.6108  0.3500  0.4676
 3891SOL     OW23308   2.080   1.034   3.310 -0.1985 -0.0538 -0.0164
 3891SOL    HW123309   2.031   0.990   3.240  0.8912 -0.9672 -0.1933
 3891SOL    HW223310   2.015   1.079   3.364  1.5631  0.0678  1.9979
 3892SOL     OW23311   1.806   2.363   1.657 -0.1698  0.1983 -0.1348
 3892SOL    HW123312   1.745   2.436   1.658 -1.5370 -0.9150 -3.1816
 3892SOL    HW223313   1.788   2.334   1.568 -0.1813  0.0019 -0.0689
 3893SOL     OW23314   4.008   2.287   3.336  0.0909  0.3624  0.6429
 3893SOL    HW123315   4.013   2.292   3.432  1.1562  1.5554  0.5283
 3893SOL    HW223316   4.051   2.371   3.319  0.0315  0.1453 -0.5337
 3894SOL     OW23317   2.495   1.611   9.754 -0.3674 -0.0497 -0.2213
 3894SOL    HW123318   2.539   1.534   9.791 -1.0330 -1.0335 -1.4648
 3894SOL    HW223319   2.539   1.602   9.669 -2.8736  0.1014 -1.5568
 3895SOL     OW23320   4.322   1.644   0.570  0.0036 -0.2390 -0.3587
 3895SOL    HW123321   4.347   1.603   0.653 -0.4021  0.8431  0.3087
 3895SOL    HW223322   4.405   1.651   0.524  0.6212  2.5016  1.1502
 3896SOL     OW23323   0.665   1.538   1.138  0.1889 -0.3432  0.1350
 3896SOL    HW123324   0.593   1.485   1.172 -0.6718  0.3649 -0.5822
 3896SOL    HW223325   0.677   1.496   1.053 -0.0262 -0.2308  0.0484
 3897SOL     OW23326   0.726   1.828   8.556 -0.0928 -0.2258  0.2538
 3897SOL    HW123327   0.789   1.844   8.485 -1.2395  0.7040 -0.5646
 3897SOL    HW223328   0.642   1.853   8.517  1.0657  0.0641 -2.0922
 3898SOL     OW23329   1.920   0.403   7.639  0.0030  0.0077 -0.1295
 3898SOL    HW123330   1.873   0.385   7.721  0.5905 -0.7919  0.0293
 3898SOL    HW223331   1.990   0.338   7.632  0.7374  0.6252  1.3590
 3899SOL     OW23332   1.766   1.808   7.047 -0.1077 -0.0575 -0.0765
 3899SOL    HW123333   1.678   1.817   7.084  0.6500 -0.2110  1.7136
 3899SOL    HW223334   1.759   1.832   6.954  2.5862 -0.8268 -0.4679
 3900SOL     OW23335   4.056   4.337   9.435 -0.3214  0.3358  0.5878
 3900SOL    HW123336   4.027   4.426   9.414 -0.1605  0.3096  0.2702
 3900SOL    HW223337   4.145   4.363   9.459 -0.5466  2.9728 -1.5171
 3901SOL     OW23338   2.775   0.196   3.404 -0.0743  0.5845  0.0624
 3901SOL    HW123339   2.757   0.195   3.498  0.5093 -0.7143  0.1529
 3901SOL    HW223340   2.798   0.107   3.379  1.7017  0.6674  1.4027
 3902SOL     OW23341   1.743   3.602   5.520  1.0422  0.9678  0.6838
 3902SOL    HW123342   1.659   3.556   5.520  0.4974  1.9586 -0.2951
 3902SOL    HW223343   1.799   3.532   5.555  1.1609  1.0404  0.6385
 3903SOL     OW23344   4.561   2.620   2.909 -0.3439 -0.4015  0.2259
 3903SOL    HW123345   4.646   2.660   2.927  0.8870 -3.2845  0.7412
 3903SOL    HW223346   4.511   2.689   2.864  0.3227 -2.1826 -3.2037
 3904SOL     OW23347   1.749   1.619   1.802  0.1657 -0.5969 -0.0776
 3904SOL    HW123348   1.770   1.711   1.814 -1.0288 -0.6251  2.0969
 3904SOL    HW223349   1.715   1.602   1.714  2.5316 -1.6068 -0.8077
 3905SOL     OW23350   0.169   0.200   6.658  0.5998 -0.1246 -0.0666
 3905SOL    HW123351   0.097   0.262   6.672 -0.4985 -0.9440 -2.0570
 3905SOL    HW223352   0.208   0.197   6.746 -2.6016 -0.3450  1.3649
 3906SOL     OW23353   2.388   3.329  17.296  0.1362 -0.0228 -0.0394
 3906SOL    HW123354   2.449   3.289  17.234  0.8545  2.9607 -1.2627
 3906SOL    HW223355   2.412   3.421  17.286 -0.6605  0.2313  0.4088
 3907SOL     OW23356   4.720   4.015   9.343  0.2914  0.5541 -0.0866
 3907SOL    HW123357   4.683   3.939   9.388 -0.4403  0.7786 -0.2951
 3907SOL    HW223358   0.078   3.999   9.342  0.6945  2.9093 -0.3862
 3908SOL     OW23359   3.644   0.308   3.512 -0.3696  0.1664 -0.8385
 3908SOL    HW123360   3.735   0.302   3.484 -0.4002 -2.1716 -0.5137
 3908SOL    HW223361   3.637   0.245   3.584 -1.6867  2.7661  1.2791
 3909SOL     OW23362   3.601   3.604   1.526  0.1896 -0.0087  0.2290
 3909SOL    HW123363   3.546   3.649   1.461  0.7262  2.4080  1.4451
 3909SOL    HW223364   3.654   3.677   1.558 -0.6215  1.1189 -1.0126
 3910SOL     OW23365   4.211   2.784   0.906 -0.2141  0.2693  0.3412
 3910SOL    HW123366   4.272   2.836   0.959 -0.9506  0.9682  0.4955
 3910SOL    HW223367   4.259   2.728   0.845 -0.4898 -0.7485  1.0665
 3911SOL     OW23368   3.514   2.025   3.169 -0.3526  0.1871 -0.0720
 3911SOL    HW123369   3.579   2.024   3.099 -0.7844  1.2094 -0.4938
 3911SOL    HW223370   3.434   2.038   3.119  0.2877 -0.9119 -1.3582
 3912SOL     OW23371   2.567   3.646  10.744  0.3202  0.1015 -0.2152
 3912SOL    HW123372   2.588   3.739  10.740  0.3044  0.0720 -0.9477
 3912SOL    HW223373   2.518   3.650  10.826  1.3294 -0.1123  0.3996
 3913SOL     OW23374   2.716   4.032  12.411 -0.5432  1.1822  0.1423
 3913SOL    HW123375   2.624   4.050  12.391 -0.6609 -0.1633 -0.5525
 3913SOL    HW223376   2.692   3.966  12.477  0.0329  1.5099  0.6836
 3914SOL     OW23377   1.212   3.363   3.388  0.0105  0.0230 -0.7084
 3914SOL    HW123378   1.270   3.370   3.312  0.8199  0.0537 -0.0827
 3914SOL    HW223379   1.166   3.282   3.364  1.5733 -1.1210  0.1906
 3915SOL     OW23380   1.646   1.575   6.995  0.9205  0.3034 -0.3275
 3915SOL    HW123381   1.696   1.495   6.983  1.5702  0.7266 -0.4438
 3915SOL    HW223382   1.711   1.632   7.036  1.5080 -0.3993 -0.2856
 3916SOL     OW23383   3.818   0.674   3.705  0.1484 -0.6840  0.0304
 3916SOL    HW123384   3.733   0.652   3.665 -0.0846  0.9142 -0.3638
 3916SOL    HW223385   3.866   0.592   3.692  0.6794  0.0582 -2.7060
 3917SOL     OW23386   4.558   3.167   8.993  0.2085 -0.7074  0.0825
 3917SOL    HW123387   4.474   3.192   8.955 -0.7409 -2.8451  0.7600
 3917SOL    HW223388   4.539   3.079   9.024 -0.2390 -0.1607  1.3640
 3918SOL     OW23389   3.570   2.710   2.197 -0.6044  0.1004  0.7730
 3918SOL    HW123390   3.587   2.660   2.277 -3.3428  0.2471  1.4514
 3918SOL    HW223391   3.646   2.768   2.193 -1.9558  1.6933 -1.4396
 3919SOL     OW23392   0.527   1.748   4.596 -0.4707  0.3724 -0.1161
 3919SOL    HW123393   0.620   1.767   4.586 -0.7044  0.9108 -1.3132
 3919SOL    HW223394   0.502   1.794   4.516 -2.1386 -0.1768  0.0902
 3920SOL     OW23395   3.617   4.392   5.581 -0.6973  0.0163  0.0310
 3920SOL    HW123396   3.679   4.390   5.655  0.0023 -1.3724 -0.5995
 3920SOL    HW223397   3.566   4.467   5.611 -0.3084  0.9441 -1.6595
 3921SOL     OW23398   1.732   3.038   3.876 -0.2651  0.0762  0.4907
 3921SOL    HW123399   1.665   3.093   3.835 -2.5311 -1.6649  1.8163
 3921SOL    HW223400   1.695   2.950   3.871 -0.2190 -0.1240  3.2588
 3922SOL     OW23401   1.924   1.675   8.666 -0.0008 -0.6474 -0.0152
 3922SOL    HW123402   2.014   1.682   8.696  0.7301 -1.6454 -1.9544
 3922SOL    HW223403   1.880   1.672   8.751  0.9157 -2.2290  0.4129
 3923SOL     OW23404   2.819   2.065   6.806  0.3488 -0.6395  0.2831
 3923SOL    HW123405   2.849   2.152   6.781  0.5392 -0.6674  0.4160
 3923SOL    HW223406   2.870   2.049   6.886  0.1495  1.1624  0.7569
 3924SOL     OW23407   4.464   3.507   0.833  0.2656 -0.7418  0.3911
 3924SOL    HW123408   4.506   3.592   0.817 -0.0077 -0.9257 -1.2725
 3924SOL    HW223409   4.466   3.520   0.928 -1.1408 -1.7253  0.5455
 3925SOL     OW23410   3.166   1.512   5.993  0.3211 -0.2222  0.7383
 3925SOL    HW123411   3.214   1.478   5.917 -0.3530 -2.6505  1.3965
 3925SOL    HW223412   3.084   1.463   5.992  0.0752  0.2343 -0.9149
 3926SOL     OW23413   0.203   0.764   8.743  0.6285 -0.1498  0.1562
 3926SOL    HW123414   0.199   0.809   8.659  0.4743  3.5761  2.1710
 3926SOL    HW223415   0.157   0.682   8.727 -1.2359  0.5015  2.2616
 3927SOL     OW23416   0.118   3.135   0.004 -0.5538  0.2510  0.3799
 3927SOL    HW123417   0.152   3.066  17.690 -1.8527 -0.6701  0.6994
 3927SOL    HW223418   0.167   3.134   0.086  0.6810  0.3212 -0.3439
 3928SOL     OW23419   4.587   1.534   8.564 -0.3653  0.4195 -0.0065
 3928SOL    HW123420   4.524   1.531   8.637 -0.7900  1.2981 -0.3359
 3928SOL    HW223421   4.577   1.445   8.532 -2.5237 -0.3486  2.7963
 3929SOL     OW23422   3.214   4.197   1.073 -0.4541 -0.3485 -0.1815
 3929SOL    HW123423   3.195   4.146   0.994 -0.3280  1.3807 -1.3431
 3929SOL    HW223424   3.310   4.200   1.067 -0.3274 -2.7573  0.5400
 3930SOL     OW23425   0.756   3.136   7.062 -0.2899 -0.3031  0.1690
 3930SOL    HW123426   0.705   3.192   7.120  0.7639  1.9855 -1.1167
 3930SOL    HW223427   0.843   3.176   7.075 -0.7024  1.1298 -1.4871
 3931SOL     OW23428   4.144   1.240   8.428 -0.2394 -0.7776  0.1151
 3931SOL    HW123429   4.069   1.298   8.438 -0.3210 -1.0482  1.0433
 3931SOL    HW223430   4.204   1.291   8.374  2.3565 -2.3175  1.5331
 3932SOL     OW23431   0.191   0.166   9.145  0.2363  0.5464  0.3477
 3932SOL    HW123432   0.137   0.215   9.207  0.2858  0.2524  0.6223
 3932SOL    HW223433   0.146   0.081   9.151  1.6508 -0.3121 -1.0772
 3933SOL     OW23434   3.591   1.750  15.525 -0.0808 -0.0915  0.0307
 3933SOL    HW123435   3.550   1.694  15.458 -1.8732 -0.8637  1.7860
 3933SOL    HW223436   3.639   1.814  15.472 -2.1841 -0.0202 -1.7542
 3934SOL     OW23437   2.448   3.676  16.949  0.1249  0.0514  0.4346
 3934SOL    HW123438   2.367   3.635  16.978 -0.1135  0.5715  0.4937
 3934SOL    HW223439   2.423   3.730  16.874  0.7417 -0.5687 -0.2172
 3935SOL     OW23440   0.693   4.716  15.203  0.3399  0.1188  0.0642
 3935SOL    HW123441   0.599   4.695  15.210 -0.0230  1.6990 -0.1334
 3935SOL    HW223442   0.732   4.635  15.237  2.5851  0.4857 -1.6275
 3936SOL     OW23443   3.250   3.692   3.804  0.6608 -0.1890  0.0914
 3936SOL    HW123444   3.260   3.621   3.740 -1.6778 -0.2452 -0.2134
 3936SOL    HW223445   3.233   3.649   3.888  0.2704 -0.4423 -0.1163
 3937SOL     OW23446   3.823   2.415  16.118  0.1106  0.4106 -0.0811
 3937SOL    HW123447   3.791   2.366  16.194  0.4445  0.3607  0.0273
 3937SOL    HW223448   3.873   2.342  16.082  1.7643  0.0913  2.8968
 3938SOL     OW23449   1.767   0.939   2.752  0.0337 -0.3996  0.9302
 3938SOL    HW123450   1.771   0.912   2.844 -2.6902 -1.0145  0.8667
 3938SOL    HW223451   1.712   1.018   2.756  1.4457  0.6409 -0.4180
 3939SOL     OW23452   2.570   2.945   2.738 -0.0109 -0.4454  0.6340
 3939SOL    HW123453   2.538   3.003   2.807 -0.4458  1.0384 -0.8325
 3939SOL    HW223454   2.646   2.999   2.715 -1.6939  1.8433  0.4186
 3940SOL     OW23455   2.867   2.385   7.429  0.1221  0.3822  0.7003
 3940SOL    HW123456   2.872   2.336   7.511 -0.2885 -2.5438 -1.0348
 3940SOL    HW223457   2.915   2.465   7.450  0.8066  0.2670 -0.4223
 3941SOL     OW23458   3.636   1.843  12.598 -0.4952 -0.1963 -0.6884
 3941SOL    HW123459   3.567   1.777  12.595 -0.6162 -0.0348 -1.6432
 3941SOL    HW223460   3.706   1.778  12.612  1.3878  1.4971 -2.1826
 3942SOL     OW23461   0.275   4.223  16.866 -0.1322 -0.1655 -0.6787
 3942SOL    HW123462   0.200   4.254  16.916  0.2824  1.6427 -1.1673
 3942SOL    HW223463   0.239   4.154  16.811 -1.2685  0.8082 -1.1564
 3943SOL     OW23464   4.069   1.324   3.201  0.4253 -0.3880 -0.5265
 3943SOL    HW123465   4.015   1.370   3.136  1.2589 -1.3831 -1.9356
 3943SOL    HW223466   4.135   1.392   3.214  2.5088 -1.8400 -3.6133
 3944SOL     OW23467   4.103   1.605   6.369 -0.0138  0.0657  0.3435
 3944SOL    HW123468   4.062   1.528   6.408  2.0068 -0.9665  0.4047
 3944SOL    HW223469   4.034   1.671   6.361 -1.0390 -0.9611  0.7478
 3945SOL     OW23470   4.454   2.434   4.949 -0.2551  0.5175  0.0467
 3945SOL    HW123471   4.391   2.394   4.890  1.7797 -0.0611 -1.7367
 3945SOL    HW223472   4.411   2.516   4.970 -0.0545  1.1768 -2.1675
 3946SOL     OW23473   3.381   0.162   4.146 -0.5730  0.0711 -0.0075
 3946SOL    HW123474   3.403   0.224   4.076  0.9355  0.1414  0.5340
 3946SOL    HW223475   3.323   0.106   4.094  0.1398 -0.7440  0.0745
 3947SOL     OW23476   1.445   1.451   8.010  0.0285 -0.5732 -0.5000
 3947SOL    HW123477   1.402   1.530   8.043 -1.5005 -1.3506 -0.6404
 3947SOL    HW223478   1.531   1.488   8.029  0.0260 -0.2706 -1.0563
 3948SOL     OW23479   0.825   3.788   7.706  0.3678  0.1223  0.0004
 3948SOL    HW123480   0.811   3.826   7.793  1.7166 -0.6277  0.5525
 3948SOL    HW223481   0.782   3.855   7.654  0.1991  1.0285  1.3002
 3949SOL     OW23482   1.853   3.074   7.443 -0.0297  0.7747  0.1481
 3949SOL    HW123483   1.879   3.023   7.367 -2.2814 -1.2934  0.7596
 3949SOL    HW223484   1.758   3.077   7.432  0.0224  0.8298 -0.2561
 3950SOL     OW23485   3.896   4.614   4.185  0.8046  0.2396 -0.3576
 3950SOL    HW123486   3.831   4.682   4.204 -0.2690 -1.0045  0.4770
 3950SOL    HW223487   3.838   4.553   4.139  1.7904  0.7622 -2.2677
 3951SOL     OW23488   3.880   2.879   5.161  0.2855 -0.5107 -0.4251
 3951SOL    HW123489   3.887   2.785   5.150 -0.2518 -0.6180  0.1406
 3951SOL    HW223490   3.808   2.900   5.101  1.3724  0.8098 -1.2957
 3952SOL     OW23491   4.705   1.939   5.100  0.3976  0.1349  0.2154
 3952SOL    HW123492   4.651   1.911   5.173 -0.7335  2.5349  0.3074
 3952SOL    HW223493   4.664   2.024   5.083 -0.6885 -0.5642 -0.6050
 3953SOL     OW23494   4.603   4.338  12.877  0.4318 -0.6976 -0.0745
 3953SOL    HW123495   4.594   4.419  12.826  0.8857 -0.7676 -0.2671
 3953SOL    HW223496   4.548   4.360  12.952  0.0173 -2.4166  0.1148
 3954SOL     OW23497   1.335   3.144  12.228 -0.2572 -0.1646 -0.4403
 3954SOL    HW123498   1.408   3.204  12.210 -0.4090  0.7133  1.9689
 3954SOL    HW223499   1.334   3.079  12.158  1.2071 -0.0986 -0.5305
 3955SOL     OW23500   0.278   3.915   1.954 -0.3112 -0.3032  0.1335
 3955SOL    HW123501   0.306   3.976   2.022 -0.3655  0.9417 -0.9756
 3955SOL    HW223502   0.308   3.830   1.986 -0.9219 -0.5923 -0.0525
 3956SOL     OW23503   3.037   4.308   3.047 -0.4205  0.3364  0.3615
 3956SOL    HW123504   2.986   4.384   3.020  2.2979  1.1055 -2.4592
 3956SOL    HW223505   3.054   4.266   2.963  2.1493  1.4861  0.3292
 3957SOL     OW23506   4.156   4.031   1.215 -0.5706  0.4822 -0.1693
 3957SOL    HW123507   4.228   4.079   1.257 -1.6142  0.4319  1.6862
 3957SOL    HW223508   4.087   4.090   1.247  1.1923  1.9904  0.8735
 3958SOL     OW23509   1.730   2.639   6.807 -0.0732  0.4820  0.2162
 3958SOL    HW123510   1.669   2.568   6.791  1.5553 -0.5210 -1.5619
 3958SOL    HW223511   1.708   2.698   6.735  1.1936 -0.6834 -1.1216
 3959SOL     OW23512   4.029   1.046  15.490  0.8648 -0.1936  0.2527
 3959SOL    HW123513   4.020   1.084  15.403  0.0260 -0.7870  0.0853
 3959SOL    HW223514   3.948   1.068  15.535  1.8760 -1.5210  2.7355
 3960SOL     OW23515   4.665   3.878  10.835  0.1712  0.5488 -0.2116
 3960SOL    HW123516   4.734   3.943  10.818  0.9037 -0.0847  0.3283
 3960SOL    HW223517   4.692   3.834  10.916  2.3559  0.2119 -1.1290
 3961SOL     OW23518   3.642   3.322  15.308 -0.3665  0.5283  0.0411
 3961SOL    HW123519   3.625   3.338  15.215 -2.0957  0.7444  0.3891
 3961SOL    HW223520   3.705   3.250  15.306  0.6986  1.4435  0.5487
 3962SOL     OW23521   3.912   4.425   3.547 -0.3033  0.4260  0.0929
 3962SOL    HW123522   3.991   4.378   3.521  0.0729  0.5303  1.0137
 3962SOL    HW223523   3.933   4.456   3.636 -0.7558 -1.9032  1.0193
 3963SOL     OW23524   3.501   4.346  13.257  0.1799 -0.4821  0.0861
 3963SOL    HW123525   3.479   4.410  13.325  1.0428 -0.3763  0.2707
 3963SOL    HW223526   3.447   4.269  13.271 -0.5525  0.0003 -0.0989
 3964SOL     OW23527   1.011   0.904   5.539  0.0619 -0.0918 -0.5064
 3964SOL    HW123528   1.000   0.998   5.552 -1.2166 -0.0765 -1.6302
 3964SOL    HW223529   1.095   0.887   5.581 -0.7844 -0.8011  0.9188
 3965SOL     OW23530   2.065   0.144   5.112  0.2606  0.2816  0.2961
 3965SOL    HW123531   2.060   0.117   5.204  0.0432  2.2444  0.8561
 3965SOL    HW223532   2.059   0.063   5.062  0.8151 -1.3338  2.8397
 3966SOL     OW23533   4.713   2.474   4.107  0.4228 -0.3005 -0.0398
 3966SOL    HW123534   0.009   2.481   4.196 -0.7341  1.8945  0.2181
 3966SOL    HW223535   0.049   2.511   4.057 -0.8584  0.3161 -1.4460
 3967SOL     OW23536   0.633   1.340   8.904  0.2190  0.2510  0.0856
 3967SOL    HW123537   0.555   1.287   8.886  1.0570 -0.9632 -0.0175
 3967SOL    HW223538   0.592   1.410   8.954 -2.1564 -0.8878 -0.2894
 3968SOL     OW23539   3.158   3.369  14.104 -0.1667 -0.5110  0.2902
 3968SOL    HW123540   3.104   3.339  14.031 -1.5503 -0.8783  1.4582
 3968SOL    HW223541   3.127   3.458  14.119  0.5336  0.0010 -1.3057
 3969SOL     OW23542   0.040   2.060   5.535  0.3992 -0.1813 -0.0355
 3969SOL    HW123543   0.099   2.066   5.460 -0.0699  2.1019 -0.2161
 3969SOL    HW223544   0.099   1.994   5.571 -0.4704 -0.4928  0.7834
 3970SOL     OW23545   0.129   3.771  12.190  0.0093 -0.1691 -0.1589
 3970SOL    HW123546   0.177   3.715  12.251  0.3961  1.8324  1.3834
 3970SOL    HW223547   0.167   3.857  12.210  1.1030 -0.3078 -1.6461
 3971SOL     OW23548   4.617   3.784   9.448 -0.2958  0.4339  0.5247
 3971SOL    HW123549   4.580   3.714   9.394  0.0442  0.8770 -0.2809
 3971SOL    HW223550   4.708   3.757   9.462 -0.2858 -0.7560 -1.8271
 3972SOL     OW23551   4.280   4.151   4.759  0.2507 -0.4715 -0.1602
 3972SOL    HW123552   4.245   4.237   4.737 -0.1763 -0.6395 -0.1464
 3972SOL    HW223553   4.208   4.107   4.804  1.3435 -1.7088  0.4014
 3973SOL     OW23554   2.729   0.737   5.283  0.0297 -0.3377 -0.6215
 3973SOL    HW123555   2.765   0.759   5.197  1.5936 -2.2935 -0.4451
 3973SOL    HW223556   2.648   0.690   5.264 -0.0569  0.5235 -2.4105
 3974SOL     OW23557   2.882   2.334   6.749 -0.3619 -0.5516  0.3495
 3974SOL    HW123558   2.900   2.358   6.840 -0.2172  1.7366 -0.2907
 3974SOL    HW223559   2.953   2.372   6.697  0.7263 -0.1028  2.1466
 3975SOL     OW23560   3.688   2.187  10.555  0.0190  0.6528 -0.1246
 3975SOL    HW123561   3.626   2.207  10.485  1.3705  1.4682 -1.0846
 3975SOL    HW223562   3.746   2.123  10.513 -1.5855 -1.3857  0.7058
 3976SOL     OW23563   2.873   2.093   0.668 -0.7190 -0.0964  0.0659
 3976SOL    HW123564   2.927   2.145   0.609  0.1379  0.4279  1.3113
 3976SOL    HW223565   2.934   2.080   0.740 -1.7656  0.6900  1.1048
 3977SOL     OW23566   2.809   2.152   2.006  0.0111  0.0816 -0.0901
 3977SOL    HW123567   2.740   2.171   1.941  1.4635 -1.1723 -2.0037
 3977SOL    HW223568   2.791   2.062   2.034 -0.8165  1.1822  2.8088
 3978SOL     OW23569   3.399   2.255   2.067  0.2681 -0.2313 -0.1733
 3978SOL    HW123570   3.349   2.251   2.148 -2.9375  2.1752 -2.0428
 3978SOL    HW223571   3.421   2.163   2.051 -1.8860 -0.4494 -1.8977
 3979SOL     OW23572   1.663   1.950   8.815 -0.3589 -0.1384  0.2909
 3979SOL    HW123573   1.608   1.873   8.824 -0.1855 -0.4079 -0.8969
 3979SOL    HW223574   1.752   1.925   8.839 -0.6533 -0.9357  0.5258
 3980SOL     OW23575   0.428   1.701   1.622  0.5200 -0.5587 -0.0591
 3980SOL    HW123576   0.492   1.640   1.585  0.8721  0.7159 -1.5321
 3980SOL    HW223577   0.488   1.762   1.666  0.4477 -0.5615  0.0426
 3981SOL     OW23578   2.689   0.009   8.320  0.0572 -0.2284  0.1422
 3981SOL    HW123579   2.684   4.701   8.236  0.9848 -0.9933  0.4933
 3981SOL    HW223580   2.679   0.100   8.293 -1.3686 -0.0353  1.2936
 3982SOL     OW23581   2.234   2.849  16.559  0.0136  0.2502 -0.1374
 3982SOL    HW123582   2.279   2.844  16.474  0.3971  0.9483  0.0219
 3982SOL    HW223583   2.204   2.759  16.567  0.1621  0.1883 -0.2583
 3983SOL     OW23584   0.407   0.471   6.934  0.2881 -0.8338 -0.2208
 3983SOL    HW123585   0.463   0.511   6.868  1.9026  0.4046  1.9067
 3983SOL    HW223586   0.341   0.540   6.942 -0.6072 -1.9523  2.2275
 3984SOL     OW23587   2.223   2.381   7.932  1.5063 -0.4382 -0.1990
 3984SOL    HW123588   2.308   2.338   7.941  1.7176 -0.3441 -1.8159
 3984SOL    HW223589   2.196   2.400   8.022  1.3306  1.9887 -0.7771
 3985SOL     OW23590   2.845   2.212   7.184  0.2726  0.0659 -0.5797
 3985SOL    HW123591   2.855   2.302   7.215 -0.8875 -0.0694  0.1928
 3985SOL    HW223592   2.781   2.193   7.253 -0.2413  0.4439 -0.9582
 3986SOL     OW23593   4.579   1.933   1.903  0.5636 -0.0659  0.1988
 3986SOL    HW123594   4.543   2.003   1.850 -0.0959  0.1742  0.9537
 3986SOL    HW223595   4.607   1.875   1.833 -2.9287 -1.0293 -0.4036
 3987SOL     OW23596   4.571   2.307   8.009  0.2055 -0.3263  0.5767
 3987SOL    HW123597   4.595   2.394   8.042 -0.5823  0.2037 -0.2378
 3987SOL    HW223598   4.639   2.248   8.041  1.6103  2.3529  2.6204
 3988SOL     OW23599   0.733   2.608   8.704 -0.7083  0.2164  0.2600
 3988SOL    HW123600   0.794   2.603   8.777  1.6809 -0.5187 -1.7888
 3988SOL    HW223601   0.772   2.530   8.663 -0.6523  0.1750  0.3905
 3989SOL     OW23602   1.043   1.044   1.867 -0.2386  0.3154  0.0754
 3989SOL    HW123603   1.084   0.963   1.900 -1.2275 -0.5313 -0.7767
 3989SOL    HW223604   1.115   1.057   1.805 -0.4814  0.2562 -0.2128
 3990SOL     OW23605   4.185   4.589  13.086  0.1093  0.1352  0.2943
 3990SOL    HW123606   4.218   4.659  13.030 -2.2076  2.5595  1.9716
 3990SOL    HW223607   4.158   4.643  13.160 -0.9056  0.8066 -0.5600
 3991SOL     OW23608   0.934   2.102  13.733 -0.0212  0.3282 -0.7638
 3991SOL    HW123609   0.842   2.090  13.757  0.2849 -2.1270 -0.7657
 3991SOL    HW223610   0.978   2.019  13.753 -0.5854 -0.1836 -1.6502
 3992SOL     OW23611   0.225   3.627   7.118 -0.5783  0.1322  0.3788
 3992SOL    HW123612   0.314   3.608   7.090  0.0373  3.0946  0.2674
 3992SOL    HW223613   0.224   3.622   7.213  4.8278  0.1691  0.4198
 3993SOL     OW23614   1.333   4.197   4.320 -0.4269  0.4012  0.2505
 3993SOL    HW123615   1.310   4.253   4.394 -0.9456 -0.4993  0.7746
 3993SOL    HW223616   1.283   4.241   4.251 -0.1576 -0.3739 -0.4393
 3994SOL     OW23617   1.861   2.836  11.284  0.1763 -0.1536 -0.5878
 3994SOL    HW123618   1.931   2.866  11.343  2.0750 -2.2876 -1.7285
 3994SOL    HW223619   1.785   2.823  11.340  2.2794 -1.9380  1.8377
 3995SOL     OW23620   4.681   1.825   4.337 -0.5121 -0.1199  0.2274
 3995SOL    HW123621   0.018   1.869   4.380  0.9381 -1.9905 -0.3543
 3995SOL    HW223622   4.649   1.885   4.269 -2.1759 -1.9265 -0.5802
 3996SOL     OW23623   1.241   3.828  13.046 -0.2228 -0.0296  0.1612
 3996SOL    HW123624   1.255   3.923  13.043  1.9920 -0.3819 -0.9635
 3996SOL    HW223625   1.226   3.796  12.957  0.8431  0.3564 -0.1614
 3997SOL     OW23626   0.035   3.181   6.191  0.3578 -0.1563  0.6264
 3997SOL    HW123627   0.042   3.139   6.277  0.2867 -0.7820  0.3253
 3997SOL    HW223628   4.685   3.148   6.167 -0.5323  2.2426  0.5701
 3998SOL     OW23629   4.368   4.608  15.202  0.9612  0.3418 -0.2270
 3998SOL    HW123630   4.352   4.677  15.137 -1.7536  0.6445  0.8055
 3998SOL    HW223631   4.373   4.530  15.147  2.3638 -0.0710  0.4722
 3999SOL     OW23632   2.270   2.366  13.895  0.2093 -0.7766  0.1249
 3999SOL    HW123633   2.248   2.358  13.802  2.7812  1.3546 -0.6593
 3999SOL    HW223634   2.282   2.459  13.910 -1.4332 -0.2903 -1.5964
 4000SOL     OW23635   3.833   0.114  10.332 -0.2863 -0.6222 -0.0104
 4000SOL    HW123636   3.901   0.051  10.308 -0.7057 -1.6271  1.4856
 4000SOL    HW223637   3.890   0.181  10.370  0.7137 -1.6431  0.2808
 4001SOL     OW23638   2.133   4.486   7.068  0.6755  0.1324 -0.1602
 4001SOL    HW123639   2.168   4.496   6.979  1.4474 -0.8084  0.0395
 4001SOL    HW223640   2.047   4.524   7.050  0.3541 -0.8755 -0.7391
 4002SOL     OW23641   2.384   2.314   4.177  0.0823  0.6369  0.0935
 4002SOL    HW123642   2.292   2.322   4.152  0.6236 -0.3775 -2.2041
 4002SOL    HW223643   2.425   2.278   4.099 -0.0747 -2.3858  1.3785
 4003SOL     OW23644   1.155   0.272   3.349 -0.1187  0.3327 -0.3258
 4003SOL    HW123645   1.070   0.316   3.344 -0.2453  0.2230  0.9169
 4003SOL    HW223646   1.141   0.206   3.282  2.0992 -0.3812 -0.0736
 4004SOL     OW23647   3.065   1.040  15.382  0.3849  0.2036 -0.3269
 4004SOL    HW123648   3.144   1.070  15.338  0.9203  2.5483  2.2115
 4004SOL    HW223649   3.081   1.075  15.470 -0.0311  0.5160 -0.3758
 4005SOL     OW23650   2.594   3.982   7.500 -0.4772 -0.1803 -0.3742
 4005SOL    HW123651   2.655   3.993   7.427 -2.3741 -0.5640 -2.0223
 4005SOL    HW223652   2.637   4.029   7.571  1.6909 -0.3205 -1.6110
 4006SOL     OW23653   3.113   1.675   7.006 -0.0879 -0.0374  0.0906
 4006SOL    HW123654   3.180   1.697   7.071 -2.9533  1.4175  2.5342
 4006SOL    HW223655   3.037   1.713   7.049  0.2181  0.9962 -0.2947
 4007SOL     OW23656   3.609   0.052  10.479 -0.0945 -0.1880 -0.1648
 4007SOL    HW123657   3.695   0.069  10.442 -0.4759  0.1060 -0.9077
 4007SOL    HW223658   3.570   4.719  10.426 -1.0439 -0.6906  1.1744
 4008SOL     OW23659   0.520   4.198   7.650 -0.2398  0.0034  0.1976
 4008SOL    HW123660   0.440   4.242   7.621 -1.1450 -1.3009  0.6961
 4008SOL    HW223661   0.474   4.158   7.724 -1.1131  0.9844  0.1827
 4009SOL     OW23662   4.149   1.066   3.180  0.1555  0.5491  0.3975
 4009SOL    HW123663   4.061   1.036   3.203 -0.2824  0.7272 -1.0883
 4009SOL    HW223664   4.138   1.157   3.207 -0.4138  0.2524  1.1615
 4010SOL     OW23665   3.402   1.919   8.503 -0.1521 -0.9919 -0.1024
 4010SOL    HW123666   3.462   1.961   8.565  1.1315  1.3286 -2.8615
 4010SOL    HW223667   3.391   1.993   8.443 -0.6195 -0.8580  0.1541
 4011SOL     OW23668   1.402   1.866  16.569  0.2943  0.0689 -0.2299
 4011SOL    HW123669   1.399   1.960  16.588 -0.7570  0.2201 -1.1559
 4011SOL    HW223670   1.311   1.840  16.586  0.2497  1.0436  1.1005
 4012SOL     OW23671   0.189   0.764   7.630 -0.7317 -0.2129 -0.6424
 4012SOL    HW123672   0.256   0.829   7.649 -0.0200 -0.9860 -0.5438
 4012SOL    HW223673   0.160   0.740   7.718 -0.3621 -0.0270 -0.4715
 4013SOL     OW23674   2.611   0.566   1.126  1.1837  0.2225  0.2575
 4013SOL    HW123675   2.617   0.607   1.039 -0.4199 -0.0924 -0.0042
 4013SOL    HW223676   2.644   0.479   1.104 -0.9981  0.0848 -2.4327
 4014SOL     OW23677   3.799   2.156   6.943  0.5256  0.9924 -0.1543
 4014SOL    HW123678   3.847   2.161   7.026  0.7752  1.4043 -0.3222
 4014SOL    HW223679   3.715   2.193   6.968 -1.9848 -2.6086 -3.2601
 4015SOL     OW23680   1.600   1.122   2.257 -0.3400 -0.0373  0.3347
 4015SOL    HW123681   1.692   1.132   2.231 -0.9598  1.8786 -1.1507
 4015SOL    HW223682   1.555   1.179   2.194 -0.2290 -0.5047 -0.1673
 4016SOL     OW23683   2.835   1.587   2.565 -0.2318  0.4345 -0.8215
 4016SOL    HW123684   2.876   1.656   2.617  2.1554 -2.1896  0.7581
 4016SOL    HW223685   2.744   1.618   2.561 -0.0127  1.5160  2.0505
 4017SOL     OW23686   3.989   2.016   5.942 -0.1819  0.0998  0.6903
 4017SOL    HW123687   4.031   2.102   5.935  0.0191 -0.1838 -1.5399
 4017SOL    HW223688   3.895   2.035   5.943 -0.2354 -0.2857  3.4654
 4018SOL     OW23689   3.169   4.450   0.559 -0.2948  0.7404 -0.1217
 4018SOL    HW123690   3.251   4.401   0.557 -1.2245 -0.7659 -0.7432
 4018SOL    HW223691   3.093   4.396   0.580 -0.4902  1.1612  0.2633
 4019SOL     OW23692   2.180   0.694   2.276 -0.7540 -0.5221 -0.1107
 4019SOL    HW123693   2.190   0.661   2.365  1.0124 -1.6487 -0.7177
 4019SOL    HW223694   2.163   0.784   2.305  0.8359  0.0130 -0.7994
 4020SOL     OW23695   1.974   2.705  14.897 -0.6397  0.5441 -0.0072
 4020SOL    HW123696   1.905   2.713  14.831 -0.1460 -0.5978 -0.6679
 4020SOL    HW223697   1.912   2.699  14.970 -0.3553 -0.6956  0.1246
 4021SOL     OW23698   4.656   2.163   8.438  0.1685  0.1958 -0.3693
 4021SOL    HW123699   4.596   2.133   8.369  0.2862  1.3397 -0.9763
 4021SOL    HW223700   4.594   2.161   8.511  2.8845 -0.3785  1.9021
 4022SOL     OW23701   2.713   0.121   9.774 -0.3259 -0.4314  0.0442
 4022SOL    HW123702   2.723   0.188   9.842  0.1201 -0.6115  0.1575
 4022SOL    HW223703   2.632   0.078   9.800 -0.7691 -0.2705 -1.1040
 4023SOL     OW23704   2.259   1.012   8.554  0.2597 -0.3029 -0.1950
 4023SOL    HW123705   2.245   0.944   8.488  1.4816 -0.6211 -0.1258
 4023SOL    HW223706   2.192   1.073   8.523  1.0283 -0.0730 -1.3923
 4024SOL     OW23707   3.593   0.545   2.263  0.4544  0.1964 -0.1505
 4024SOL    HW123708   3.644   0.588   2.332  1.6306 -2.7014  0.8017
 4024SOL    HW223709   3.523   0.510   2.318  1.1770 -0.1466  0.5425
 4025SOL     OW23710   1.046   2.908   4.923 -0.6143  0.1846  0.2038
 4025SOL    HW123711   1.083   2.996   4.926  2.0306 -0.9924  1.8698
 4025SOL    HW223712   1.055   2.881   5.014 -0.2078  1.1452  0.4454
 4026SOL     OW23713   3.915   0.556   6.366  0.3518  0.8978 -0.2587
 4026SOL    HW123714   3.861   0.601   6.301  1.7767  0.5895 -1.6462
 4026SOL    HW223715   3.979   0.620   6.396  1.9047  0.8798 -3.5188
 4027SOL     OW23716   3.082   0.905  12.812 -0.0543  0.2312  0.1676
 4027SOL    HW123717   3.173   0.892  12.786 -0.3608  1.1989 -1.3716
 4027SOL    HW223718   3.068   0.810  12.813 -0.8544  0.3611  1.3200
 4028SOL     OW23719   3.168   2.271   9.175 -0.2616  0.6411 -0.5511
 4028SOL    HW123720   3.174   2.225   9.092 -2.3143 -0.3080 -0.1861
 4028SOL    HW223721   3.222   2.347   9.154  0.1216  0.3214 -0.7378
 4029SOL     OW23722   4.358   3.061   4.127  0.0023  0.8989 -0.1280
 4029SOL    HW123723   4.344   3.013   4.208 -1.8968 -0.0328 -1.0023
 4029SOL    HW223724   4.451   3.055   4.105  0.0733  1.5558 -0.0065
 4030SOL     OW23725   1.947   1.724   2.810 -0.4810 -0.7790 -0.2880
 4030SOL    HW123726   1.916   1.777   2.884 -0.1940  0.8428 -1.3129
 4030SOL    HW223727   1.925   1.783   2.738 -0.2344 -0.0577  0.2226
 4031SOL     OW23728   4.226   2.303   2.493 -0.3925  0.5002 -0.2741
 4031SOL    HW123729   4.262   2.300   2.582 -1.8342 -0.8258  0.2730
 4031SOL    HW223730   4.302   2.271   2.445 -0.5915 -0.7348  0.2313
 4032SOL     OW23731   4.594   1.317   4.354 -0.2793  0.2406  0.1228
 4032SOL    HW123732   4.587   1.411   4.338  3.1008  0.7506  1.5899
 4032SOL    HW223733   4.507   1.297   4.388  0.5365 -4.0776 -0.3376
 4033SOL     OW23734   1.985   2.231  17.527  0.0917 -0.1494  0.0306
 4033SOL    HW123735   1.956   2.171  17.595  2.4342  0.4730  1.5934
 4033SOL    HW223736   1.982   2.313  17.575 -2.1383 -0.2787  0.0983
 4034SOL     OW23737   0.726   3.066   5.038 -0.8704 -0.3469 -0.4513
 4034SOL    HW123738   0.652   3.020   5.078 -0.1308 -0.3231  0.9476
 4034SOL    HW223739   0.689   3.123   4.971 -1.0621 -0.0135 -0.0596
 4035SOL     OW23740   1.374   4.168   1.849  0.7567 -0.9629  0.3124
 4035SOL    HW123741   1.301   4.227   1.831  0.9713 -1.4942 -2.2560
 4035SOL    HW223742   1.440   4.212   1.796  0.3473  1.8647  2.1513
 4036SOL     OW23743   1.303   4.057   8.481 -0.1569 -0.9344  0.0704
 4036SOL    HW123744   1.220   4.096   8.507 -0.0922 -1.4741  1.0926
 4036SOL    HW223745   1.362   4.085   8.551  0.2186 -2.0364  0.2032
 4037SOL     OW23746   0.113   3.854  11.540 -0.1418  0.0316 -0.0118
 4037SOL    HW123747   0.065   3.926  11.581 -0.5250 -0.7262  0.8555
 4037SOL    HW223748   0.202   3.886  11.553  0.1477 -1.4743  1.6601
 4038SOL     OW23749   2.885   1.483   6.248 -0.3258  0.2300 -0.1556
 4038SOL    HW123750   2.972   1.461   6.281 -0.0053 -1.6015 -2.2678
 4038SOL    HW223751   2.861   1.561   6.299  2.0180  0.4158  0.6566
 4039SOL     OW23752   2.001   2.844   2.592 -0.0261  0.6969 -0.3092
 4039SOL    HW123753   2.055   2.870   2.666 -2.6751 -0.5695  2.0319
 4039SOL    HW223754   2.060   2.774   2.564  0.9789  1.9097 -1.2185
 4040SOL     OW23755   3.111   2.047   6.095  0.1159  0.5573 -0.4126
 4040SOL    HW123756   3.165   1.968   6.090 -1.9737 -0.9955  1.3431
 4040SOL    HW223757   3.155   2.100   6.028 -0.5819  0.2187 -1.1403
 4041SOL     OW23758   2.107   1.283   8.979  0.1654 -0.1865  0.2354
 4041SOL    HW123759   2.031   1.235   8.948  0.3377 -0.4728  0.2571
 4041SOL    HW223760   2.123   1.238   9.062 -2.3223  1.1954  1.4492
 4042SOL     OW23761   2.771   0.779   7.636 -0.2135  0.3609 -0.1681
 4042SOL    HW123762   2.720   0.699   7.650 -1.1176  0.6451 -1.8894
 4042SOL    HW223763   2.838   0.777   7.704  1.1932 -1.2696 -1.6091
 4043SOL     OW23764   2.821   0.991   8.114 -0.0416  0.3473  0.0131
 4043SOL    HW123765   2.915   1.001   8.105 -0.0476  0.3537 -0.0427
 4043SOL    HW223766   2.795   1.082   8.100  0.5870  0.3145 -1.3477
 4044SOL     OW23767   3.709   0.848  13.815 -0.0200 -0.3551  0.1386
 4044SOL    HW123768   3.674   0.936  13.813 -1.1007 -0.8432 -2.7368
 4044SOL    HW223769   3.769   0.852  13.890 -0.7585 -1.5320  0.7843
 4045SOL     OW23770   0.719   2.138   7.324 -0.4109 -0.5387  0.2199
 4045SOL    HW123771   0.692   2.217   7.370 -0.5485 -0.5388  0.1383
 4045SOL    HW223772   0.813   2.155   7.332 -0.8956  2.7312 -1.1098
 4046SOL     OW23773   3.992   1.869  14.216 -0.2648 -0.7445 -0.0009
 4046SOL    HW123774   3.983   1.855  14.310  2.0674  3.3676  0.8212
 4046SOL    HW223775   3.908   1.910  14.195 -1.1121 -1.6684  1.5423
 4047SOL     OW23776   3.825   4.109   2.148  0.1521 -0.0661 -0.6578
 4047SOL    HW123777   3.833   4.163   2.070 -1.6199 -2.1285 -2.2805
 4047SOL    HW223778   3.730   4.101   2.139 -0.0574  1.3425  0.3243
 4048SOL     OW23779   0.455   3.859  12.321  0.5435 -0.3586  0.1942
 4048SOL    HW123780   0.538   3.863  12.369  1.2423  1.4489 -1.1733
 4048SOL    HW223781   0.486   3.831  12.235 -1.2356 -2.9331  0.3959
 4049SOL     OW23782   0.752   1.127   6.613  0.0430 -0.4337 -0.2347
 4049SOL    HW123783   0.739   1.123   6.518  0.4553 -1.0540 -0.2623
 4049SOL    HW223784   0.681   1.173   6.659 -0.6843 -0.6471 -1.1510
 4050SOL     OW23785   1.138   0.024   1.907 -0.3195 -0.2435  0.4102
 4050SOL    HW123786   1.213   0.034   1.848  1.4691  0.1685  2.7981
 4050SOL    HW223787   1.171   4.688   1.959  0.4210 -0.8773 -0.9339
 4051SOL     OW23788   4.411   0.083   8.702 -0.6649  0.7383  0.1829
 4051SOL    HW123789   4.408   0.130   8.618  0.0890 -0.4655 -0.5098
 4051SOL    HW223790   4.477   0.132   8.750 -0.8641  0.7047  0.4903
 4052SOL     OW23791   3.305   3.439   5.578 -0.1464 -0.1460  0.1822
 4052SOL    HW123792   3.315   3.393   5.662  2.5613 -0.4323 -0.3243
 4052SOL    HW223793   3.383   3.417   5.528 -1.0070 -1.7100 -0.4815
 4053SOL     OW23794   3.564   2.900   6.136 -0.4175 -0.3367 -0.8482
 4053SOL    HW123795   3.625   2.893   6.063  1.3594 -0.5037  0.6349
 4053SOL    HW223796   3.489   2.930   6.086 -1.1408 -1.0433 -0.2051
 4054SOL     OW23797   1.539   4.463   9.740 -0.2473  0.1731 -0.2134
 4054SOL    HW123798   1.537   4.492   9.649 -0.6225 -2.5687 -1.0642
 4054SOL    HW223799   1.517   4.542   9.790 -1.8275 -0.7446  0.5455
 4055SOL     OW23800   2.304   1.613  12.576 -0.2199  0.5171 -0.3838
 4055SOL    HW123801   2.371   1.642  12.638 -2.5927  1.5112  1.7125
 4055SOL    HW223802   2.253   1.558  12.635  1.1732  0.4714  0.7751
 4056SOL     OW23803   2.171   2.879   3.006 -0.5952  0.1966  0.0998
 4056SOL    HW123804   2.087   2.834   3.006 -1.4252  1.7864 -2.0965
 4056SOL    HW223805   2.209   2.846   3.088  1.1661  0.1449 -0.7344
 4057SOL     OW23806   0.052   3.784   5.437 -0.3359  0.1084 -0.3817
 4057SOL    HW123807   0.028   3.876   5.445 -2.3472 -0.4404 -0.2595
 4057SOL    HW223808   0.142   3.809   5.416 -0.6075 -0.2346 -2.0220
 4058SOL     OW23809   1.583   2.007   9.207  0.1781 -0.2500 -0.2071
 4058SOL    HW123810   1.535   1.945   9.152  0.2738 -2.1482  1.8979
 4058SOL    HW223811   1.628   2.051   9.134 -0.9414  1.1662 -0.0416
 4059SOL     OW23812   2.929   3.100   0.585  0.3722  0.2677  0.9463
 4059SOL    HW123813   2.945   3.146   0.503 -0.9675  1.0760  1.1558
 4059SOL    HW223814   2.846   3.138   0.613 -0.6715 -1.6633  0.5129
 4060SOL     OW23815   0.671   2.246   4.678 -0.2810 -0.4050 -0.0139
 4060SOL    HW123816   0.687   2.323   4.623  1.3088 -0.4785  0.3512
 4060SOL    HW223817   0.586   2.276   4.709  0.7559 -0.1305  2.5549
 4061SOL     OW23818   3.888   2.615   5.161 -0.4914 -0.6738 -0.1217
 4061SOL    HW123819   3.906   2.551   5.092 -0.6652  0.2547 -1.0284
 4061SOL    HW223820   3.851   2.561   5.231 -1.5755 -0.8521 -0.8389
 4062SOL     OW23821   2.161   2.590  16.568  0.0775 -0.3263  0.5002
 4062SOL    HW123822   2.191   2.550  16.487 -0.3634  4.1577 -1.8428
 4062SOL    HW223823   2.085   2.535  16.589 -0.2251  0.7431  2.2233
 4063SOL     OW23824   0.190   0.749   5.552  0.1947 -0.4021  0.1543
 4063SOL    HW123825   0.118   0.803   5.585  0.6727  1.0403 -1.1501
 4063SOL    HW223826   0.152   0.706   5.476 -0.2761 -0.7753  0.6010
 4064SOL     OW23827   4.508   0.731  12.785  1.0154  0.0203 -0.0267
 4064SOL    HW123828   4.518   0.826  12.794 -1.8487  0.1798  1.4079
 4064SOL    HW223829   4.586   0.722  12.730  1.6767  1.7726  0.5943
 4065SOL     OW23830   2.396   2.280  12.225  0.3474  0.2430 -0.9033
 4065SOL    HW123831   2.409   2.211  12.160  1.8209  1.2285 -1.6562
 4065SOL    HW223832   2.301   2.280  12.233  0.5962 -0.9738  2.2544
 4066SOL     OW23833   0.938   3.119  11.049  0.0014 -0.0974  0.0596
 4066SOL    HW123834   0.998   3.193  11.053 -0.8229  0.5538  0.2396
 4066SOL    HW223835   0.953   3.084  11.137  1.4216  0.7945  0.1727
 4067SOL     OW23836   4.655   1.002   8.712  0.3709 -0.3227 -0.5513
 4067SOL    HW123837   4.611   0.918   8.727  0.4146 -0.8175 -3.0828
 4067SOL    HW223838   4.591   1.043   8.653  1.0472 -0.8281 -1.6400
 4068SOL     OW23839   1.581   0.207   4.385  0.2099  0.0223 -1.2767
 4068SOL    HW123840   1.589   0.298   4.358  0.0570  1.4169  3.3631
 4068SOL    HW223841   1.607   0.211   4.477 -1.8483 -0.9335 -0.6641
 4069SOL     OW23842   2.083   0.654   9.958 -0.1795 -0.1643 -0.4273
 4069SOL    HW123843   2.010   0.611   9.912 -0.7995  0.0377  0.3665
 4069SOL    HW223844   2.123   0.584  10.010  2.0869  0.2491 -1.6590
 4070SOL     OW23845   0.153   3.874   7.364  0.0646  0.2989  0.2749
 4070SOL    HW123846   0.227   3.823   7.332  1.1039  0.8022  1.8605
 4070SOL    HW223847   0.093   3.805   7.393  0.1263  0.0926 -0.0905
 4071SOL     OW23848   3.829   3.031   3.753  0.3173  0.0010 -0.1084
 4071SOL    HW123849   3.741   3.063   3.734  0.6191 -0.0344 -1.5925
 4071SOL    HW223850   3.876   3.114   3.756  1.4275 -0.6097 -0.7630
 4072SOL     OW23851   2.520   1.567   9.425 -0.4176  0.2500 -0.2250
 4072SOL    HW123852   2.484   1.479   9.414 -1.0240  0.1879  2.3646
 4072SOL    HW223853   2.445   1.611   9.464 -0.0436 -0.2598  1.0413
 4073SOL     OW23854   1.616   0.257  10.696 -0.2574 -0.2708 -0.2448
 4073SOL    HW123855   1.548   0.223  10.638  0.5350 -1.3689 -0.5378
 4073SOL    HW223856   1.672   0.181  10.712  1.7578  0.4375 -3.6696
 4074SOL     OW23857   4.215   1.494  15.349 -0.3120  0.2961  0.2075
 4074SOL    HW123858   4.291   1.491  15.407  1.6821 -0.1553 -2.4470
 4074SOL    HW223859   4.259   1.527  15.271  0.6490 -0.5151  0.4036
 4075SOL     OW23860   4.226   3.719   1.608  0.4424 -0.4068  0.3246
 4075SOL    HW123861   4.226   3.684   1.697 -1.1882 -3.2124 -0.7534
 4075SOL    HW223862   4.215   3.813   1.622  2.5666  0.2680 -2.7176
 4076SOL     OW23863   3.466   3.277   5.796  0.4833 -0.2861  0.1674
 4076SOL    HW123864   3.449   3.185   5.818  1.3140 -0.1589  1.3460
 4076SOL    HW223865   3.450   3.315   5.882 -2.5011 -0.2554 -0.4000
 4077SOL     OW23866   3.858   1.151  16.119  0.1330  0.0333  0.4087
 4077SOL    HW123867   3.784   1.210  16.109  1.6029  1.8248  0.1082
 4077SOL    HW223868   3.828   1.105  16.198  1.6973 -0.3224  0.8077
 4078SOL     OW23869   4.335   3.926   6.506  0.0272 -0.2355 -0.0747
 4078SOL    HW123870   4.383   3.946   6.587 -1.6881  1.4479  0.5141
 4078SOL    HW223871   4.383   3.973   6.438 -0.6801  2.0044  0.9643
 4079SOL     OW23872   4.600   0.152  13.018 -0.0042  0.3920 -0.6022
 4079SOL    HW123873   4.671   0.212  12.995  1.7066 -0.5486  2.3360
 4079SOL    HW223874   4.640   0.070  13.047  1.3866  1.4881  0.5856
 4080SOL     OW23875   0.039   4.109   3.365  0.4142  0.0840  0.1681
 4080SOL    HW123876   0.081   4.037   3.413  1.3414 -0.7352 -1.8855
 4080SOL    HW223877   0.030   4.164   3.443  1.5474  0.1728  0.2397
 4081SOL     OW23878   3.777   1.113   9.398  0.4204 -0.1641  0.0805
 4081SOL    HW123879   3.818   1.111   9.311 -1.4864  2.8523 -0.8934
 4081SOL    HW223880   3.723   1.035   9.391 -0.6274  0.6124 -0.4975
 4082SOL     OW23881   4.531   4.330   5.281 -0.1329  0.0307 -0.0236
 4082SOL    HW123882   4.500   4.419   5.266  0.0737  0.1875  0.4641
 4082SOL    HW223883   4.621   4.339   5.251 -0.4742  0.9638 -0.7478
 4083SOL     OW23884   3.214   2.243   8.624  0.4413  0.0373 -0.1056
 4083SOL    HW123885   3.270   2.232   8.701  0.8947 -0.6314 -0.5326
 4083SOL    HW223886   3.145   2.306   8.646 -1.2344 -0.9627 -2.5131
 4084SOL     OW23887   3.490   4.273   2.896 -0.0658  0.0693 -0.0530
 4084SOL    HW123888   3.524   4.185   2.911  1.0487  0.3061 -1.1686
 4084SOL    HW223889   3.436   4.271   2.975 -0.8837  1.7162 -0.5636
 4085SOL     OW23890   0.079   4.203  10.944 -0.1115 -0.5772  0.3080
 4085SOL    HW123891   0.142   4.212  11.015 -2.2078 -1.9566  2.3272
 4085SOL    HW223892   0.149   4.165  10.890  0.1477 -0.5742  0.6477
 4086SOL     OW23893   2.273   1.080   5.372  0.0890 -0.0145 -0.3744
 4086SOL    HW123894   2.185   1.045   5.353  0.5796 -1.0554 -0.7426
 4086SOL    HW223895   2.271   1.146   5.304 -3.1669  0.2669 -0.0138
 4087SOL     OW23896   2.762   4.210   5.620 -0.2281  0.4112 -0.5930
 4087SOL    HW123897   2.709   4.235   5.696  0.7257 -0.6881  0.4181
 4087SOL    HW223898   2.832   4.273   5.635  1.2821 -1.3649 -0.2345
 4088SOL     OW23899   2.616   2.191   6.094 -0.0697 -0.2748 -0.2418
 4088SOL    HW123900   2.566   2.181   6.175 -0.7912 -2.5235 -0.9640
 4088SOL    HW223901   2.630   2.285   6.106 -0.8065 -0.1297 -0.5059
 4089SOL     OW23902   1.547   4.519   3.469  0.5842 -0.3530  0.1153
 4089SOL    HW123903   1.595   4.440   3.443  1.4215 -0.8970  3.3521
 4089SOL    HW223904   1.560   4.579   3.396 -2.7020  1.2299  0.8395
 4090SOL     OW23905   0.788   0.396  11.275  0.5929 -0.1264  0.4371
 4090SOL    HW123906   0.825   0.326  11.221 -0.3969  1.3063 -2.1006
 4090SOL    HW223907   0.738   0.347  11.340 -0.5203 -1.9207 -1.7504
 4091SOL     OW23908   1.341   0.289   5.096 -0.3141 -0.8857 -0.8652
 4091SOL    HW123909   1.417   0.273   5.151 -0.0170  0.6017 -0.8412
 4091SOL    HW223910   1.329   0.202   5.058 -3.0126 -1.3046  0.9175
 4092SOL     OW23911   0.042   1.919   8.248  0.3721  0.2293  0.9754
 4092SOL    HW123912   4.690   1.924   8.283  1.0626  2.9713  2.3107
 4092SOL    HW223913   0.077   1.837   8.281 -0.2280 -1.0952 -1.6678
 4093SOL     OW23914   1.619   1.526   2.023 -0.0090  0.3794  0.0713
 4093SOL    HW123915   1.661   1.559   1.944 -1.3072 -0.6224 -1.0302
 4093SOL    HW223916   1.608   1.434   1.998  0.8513  0.4628 -0.6022
 4094SOL     OW23917   0.610   4.729   7.452 -0.6731  0.0286  0.6085
 4094SOL    HW123918   0.674   4.698   7.388 -0.3825  1.7604  0.0588
 4094SOL    HW223919   0.565   0.056   7.396 -1.1095 -0.1840  0.7154
 4095SOL     OW23920   2.384   3.790  11.642  0.8684 -0.1760  0.0729
 4095SOL    HW123921   2.355   3.723  11.704 -1.8504 -0.2683 -1.3135
 4095SOL    HW223922   2.448   3.742  11.589 -1.2767 -0.6402 -2.0894
 4096SOL     OW23923   4.197   0.747   7.791  0.0360 -0.0214 -0.0776
 4096SOL    HW123924   4.237   0.667   7.756 -0.0350 -0.3976  0.6875
 4096SOL    HW223925   4.129   0.711   7.848 -1.1040  1.3724 -0.5783
 4097SOL     OW23926   3.151   4.393   8.144  0.4264 -0.0182  0.3525
 4097SOL    HW123927   3.188   4.399   8.055 -0.8309 -1.4394 -0.2600
 4097SOL    HW223928   3.192   4.310   8.169  2.6127  0.7709 -0.6353
 4098SOL     OW23929   3.099   0.010  17.045 -0.3939 -0.4364  0.2551
 4098SOL    HW123930   3.066   0.091  17.005  2.4801  0.1829 -0.8360
 4098SOL    HW223931   3.055   0.018  17.130  1.4158 -0.7461  1.2153
 4099SOL     OW23932   4.164   2.707   0.199 -0.2211 -0.2635 -0.4339
 4099SOL    HW123933   4.131   2.679   0.114  1.7813  0.1475 -1.3463
 4099SOL    HW223934   4.143   2.799   0.216  0.4084 -0.1514 -0.2814
 4100SOL     OW23935   2.566   4.042  17.436  0.3354 -0.1477 -0.0920
 4100SOL    HW123936   2.489   3.999  17.400  1.1657 -1.2897 -0.5172
 4100SOL    HW223937   2.574   3.977  17.507  2.2893  1.5984  1.2849
 4101SOL     OW23938   0.628   1.477   0.454 -0.3804 -0.2763  0.4215
 4101SOL    HW123939   0.624   1.541   0.383  0.1056 -0.6481  0.0581
 4101SOL    HW223940   0.717   1.490   0.487 -1.4500 -0.3434  3.3239
 4102SOL     OW23941   4.402   4.300  15.870  0.0760 -0.1563 -0.1643
 4102SOL    HW123942   4.358   4.384  15.860 -0.2256 -0.3158 -0.1598
 4102SOL    HW223943   4.496   4.317  15.872  0.0785 -0.2536  0.7659
 4103SOL     OW23944   3.663   4.657  12.386 -0.0699  0.3815  0.2710
 4103SOL    HW123945   3.609   4.614  12.452 -1.3614  1.2657 -0.2209
 4103SOL    HW223946   3.645   0.013  12.404  1.2736  0.8735 -0.9292
 4104SOL     OW23947   2.182   0.994   0.237 -0.2828  0.1182 -0.1209
 4104SOL    HW123948   2.092   1.021   0.258 -0.1673  1.7321 -1.7045
 4104SOL    HW223949   2.162   0.902   0.216 -0.7523 -0.6025  3.3845
 4105SOL     OW23950   3.915   3.098   5.675 -0.0875 -0.1091 -0.5167
 4105SOL    HW123951   3.937   3.117   5.584 -3.3503  0.5126 -1.1431
 4105SOL    HW223952   3.827   3.134   5.680  0.5931  1.3069  1.6858
 4106SOL     OW23953   1.228   4.657   6.662 -0.5132 -0.8696  0.1834
 4106SOL    HW123954   1.134   4.641   6.655 -0.4502 -0.2134 -2.1161
 4106SOL    HW223955   1.249   4.572   6.701 -0.2659  0.2271  2.4461
 4107SOL     OW23956   2.119   3.487   1.916 -0.0009  0.0607  0.4179
 4107SOL    HW123957   2.060   3.551   1.957  0.7474 -0.1310  1.8026
 4107SOL    HW223958   2.075   3.406   1.942 -0.5030  0.6791  1.5217
 4108SOL     OW23959   3.140   1.486   2.868  0.8702  0.0044  0.5327
 4108SOL    HW123960   3.202   1.451   2.932  0.3161 -1.0950  0.4692
 4108SOL    HW223961   3.182   1.493   2.783 -0.5727 -1.5430 -0.3229
 4109SOL     OW23962   1.712   2.780   8.794 -0.1947  0.2526  0.0560
 4109SOL    HW123963   1.767   2.787   8.873 -0.0240 -1.7953  0.1211
 4109SOL    HW223964   1.724   2.869   8.760  0.0068  0.6722  1.2178
 4110SOL     OW23965   4.653   4.724   5.813 -0.8015  0.5019 -0.4029
 4110SOL    HW123966   4.698   0.004   5.896  0.8618 -4.1746 -0.3888
 4110SOL    HW223967   4.678   4.632   5.815 -2.5880  0.0871  3.3405
 4111SOL     OW23968   4.690   2.221   5.812  0.0849  0.2186  0.2522
 4111SOL    HW123969   4.677   2.203   5.719  1.8711 -1.4702  0.3268
 4111SOL    HW223970   4.631   2.157   5.852 -0.2266 -1.0002 -2.1622
 4112SOL     OW23971   2.767   0.799  11.622 -0.0362 -0.2142 -0.2120
 4112SOL    HW123972   2.691   0.853  11.646  0.1469 -1.0372  2.2148
 4112SOL    HW223973   2.746   0.711  11.654  1.3341 -0.3606  0.2626
 4113SOL     OW23974   3.171   4.145   7.493  0.5402  0.3286 -0.3888
 4113SOL    HW123975   3.262   4.177   7.491  0.5824  0.0488 -4.3079
 4113SOL    HW223976   3.147   4.144   7.400 -1.0549 -1.2463  0.0565
 4114SOL     OW23977   3.924   3.766   7.188  0.0305  0.4710 -0.4103
 4114SOL    HW123978   3.985   3.724   7.127 -1.5813 -3.3729  0.6312
 4114SOL    HW223979   3.839   3.726   7.169 -0.9491  1.9140  0.9369
 4115SOL     OW23980   0.396   1.369   8.227  0.0608 -0.3911 -0.7764
 4115SOL    HW123981   0.379   1.328   8.312  0.5418  1.6231  0.2992
 4115SOL    HW223982   0.314   1.362   8.180 -0.1614  0.3846 -0.5001
 4116SOL     OW23983   3.902   1.770   8.985  0.5652  0.6010  0.1399
 4116SOL    HW123984   3.952   1.701   9.030 -0.9358 -1.9151 -2.0840
 4116SOL    HW223985   3.922   1.835   9.053  0.7528  0.2344  0.4377
 4117SOL     OW23986   1.337   3.182   4.559  0.0258 -0.7500 -0.2055
 4117SOL    HW123987   1.403   3.220   4.500  0.8738  1.2182  1.9948
 4117SOL    HW223988   1.264   3.172   4.499  0.6502 -0.2792 -1.0524
 4118SOL     OW23989   0.602   3.492   1.753  0.8344  0.3938 -0.2520
 4118SOL    HW123990   0.587   3.478   1.660 -4.0671  0.2043  0.5524
 4118SOL    HW223991   0.559   3.414   1.788  0.7639  0.0219 -1.1642
 4119SOL     OW23992   2.920   1.620  10.328  0.0790  0.0322  0.2838
 4119SOL    HW123993   2.877   1.559  10.387  2.2619 -1.9993 -0.2311
 4119SOL    HW223994   2.960   1.678  10.392  0.4450 -0.3959  0.4453
 4120SOL     OW23995   0.438   1.882   4.392 -0.3339  0.3879 -0.0783
 4120SOL    HW123996   0.427   1.842   4.305 -0.4252 -1.1443  0.6501
 4120SOL    HW223997   0.521   1.927   4.372 -1.4803  1.6189 -2.1251
 4121SOL     OW23998   0.020   2.546  12.083  0.2758 -0.6005  0.3833
 4121SOL    HW123999   0.016   2.627  12.132 -2.4128 -0.8937  0.6581
 4121SOL    HW224000   0.104   2.549  12.037 -0.3774 -0.4666 -0.8029
 4122SOL     OW24001   3.986   0.762   4.623 -0.0972 -0.5581  0.3099
 4122SOL    HW124002   3.928   0.766   4.699 -0.4409  0.4907 -0.0098
 4122SOL    HW224003   4.072   0.738   4.658 -0.1818 -1.3823 -0.0553
 4123SOL     OW24004   1.433   3.307   9.997  0.0294  0.1617 -0.0374
 4123SOL    HW124005   1.442   3.393   9.958 -0.8976  0.7849  1.1280
 4123SOL    HW224006   1.411   3.246   9.926 -0.8208 -1.6603  1.7642
 4124SOL     OW24007   0.683   3.697   2.802  0.9341  0.6925 -0.4902
 4124SOL    HW124008   0.684   3.604   2.825 -2.8497  1.1500  1.6304
 4124SOL    HW224009   0.775   3.713   2.782  0.5681  1.4989 -1.5409
 4125SOL     OW24010   3.060   2.820   9.932 -0.3020  0.2199 -0.0924
 4125SOL    HW124011   3.094   2.835   9.844  0.0339 -0.8980 -0.1542
 4125SOL    HW224012   2.986   2.881   9.934  0.6286  1.3948 -1.5953
 4126SOL     OW24013   1.040   3.790   6.260  0.2336  0.1062  0.0331
 4126SOL    HW124014   1.062   3.830   6.175  1.1328  0.7252  0.5542
 4126SOL    HW224015   1.009   3.701   6.243  0.5587 -0.0413  0.2159
 4127SOL     OW24016   2.365   4.713   5.741 -0.1262  0.1026  0.1924
 4127SOL    HW124017   2.418   4.736   5.817 -0.8236 -0.5153  0.8705
 4127SOL    HW224018   2.373   4.618   5.745  0.0751 -0.0010 -3.1266
 4128SOL     OW24019   2.612   2.940  16.389  0.5292  0.2057  0.3954
 4128SOL    HW124020   2.533   2.931  16.336  0.9439  1.8015 -0.5034
 4128SOL    HW224021   2.586   2.904  16.474  0.6433  2.0973  1.2484
 4129SOL     OW24022   1.832   1.757   4.979 -0.3237 -0.3507  0.5559
 4129SOL    HW124023   1.760   1.706   5.018 -1.3965  1.4354  0.9147
 4129SOL    HW224024   1.810   1.740   4.887  1.6982 -0.5340  0.1139
 4130SOL     OW24025   3.792   4.114   1.592 -0.6829  0.4626  0.1939
 4130SOL    HW124026   3.698   4.129   1.594 -0.6000  0.8592  1.1292
 4130SOL    HW224027   3.822   4.200   1.562 -1.2083  0.5982  0.0592
 4131SOL     OW24028   3.538   2.642   7.951 -0.0490 -0.2296 -0.0218
 4131SOL    HW124029   3.593   2.565   7.939  1.6487  0.7562  1.4841
 4131SOL    HW224030   3.449   2.609   7.941 -0.5186  1.2199 -0.6478
 4132SOL     OW24031   1.791   1.647   8.016  0.4921  0.6959  0.1767
 4132SOL    HW124032   1.738   1.607   8.085  0.1831  1.4475  0.3670
 4132SOL    HW224033   1.772   1.739   8.034  1.3326  0.8917  0.0903
 4133SOL     OW24034   1.835   2.616  15.124  0.0709  0.2713  0.4381
 4133SOL    HW124035   1.838   2.636  15.217  1.5529  1.3054  0.1629
 4133SOL    HW224036   1.741   2.636  15.121 -0.5913 -3.2327 -2.0747
 4134SOL     OW24037   2.513   2.771   4.972  0.2187 -0.5987 -0.2663
 4134SOL    HW124038   2.540   2.707   4.906  0.8322 -1.2408  0.5937
 4134SOL    HW224039   2.536   2.854   4.929  0.6700 -0.7965 -0.4068
 4135SOL     OW24040   1.478   1.857   6.772 -0.6243  0.0145  0.8010
 4135SOL    HW124041   1.421   1.786   6.800 -1.3387 -0.1068 -0.9413
 4135SOL    HW224042   1.461   1.858   6.678 -1.2627  1.0195  0.9301
 4136SOL     OW24043   2.473   4.724   9.870 -0.2202 -0.0370 -0.2812
 4136SOL    HW124044   2.411   0.051   9.905 -0.0576 -0.0398  0.0145
 4136SOL    HW224045   2.477   4.655   9.937 -0.0794  0.9626  0.7327
 4137SOL     OW24046   1.097   0.348   4.420 -0.1062 -0.0482 -0.1611
 4137SOL    HW124047   1.182   0.315   4.449  0.2255  1.0733  0.1606
 4137SOL    HW224048   1.060   0.377   4.503  1.6987 -0.5424  0.8163
 4138SOL     OW24049   3.013   4.727   4.248 -0.3116 -0.9758  0.6927
 4138SOL    HW124050   3.018   4.679   4.166 -1.4069  1.2479 -0.6926
 4138SOL    HW224051   2.973   0.069   4.210 -2.2608 -1.4424  1.7501
 4139SOL     OW24052   0.956   2.382  10.526  0.3877 -0.5737 -0.2857
 4139SOL    HW124053   0.926   2.375  10.616  1.5743 -1.3731  0.0467
 4139SOL    HW224054   0.870   2.369  10.484 -0.7831  1.3270  1.5428
 4140SOL     OW24055   3.500   3.828   6.322 -0.0490 -0.6675 -0.4647
 4140SOL    HW124056   3.410   3.854   6.303  0.2262  0.6571  0.0250
 4140SOL    HW224057   3.540   3.852   6.239 -0.1358  2.5898  0.4092
 4141SOL     OW24058   4.495   4.003  10.307 -0.2659 -0.3852 -0.2766
 4141SOL    HW124059   4.555   4.048  10.367  1.7052 -0.6989 -2.0219
 4141SOL    HW224060   4.414   3.993  10.357  0.8230 -0.0405  1.5623
 4142SOL     OW24061   4.577   4.261  11.741  0.1387 -0.2155  0.3272
 4142SOL    HW124062   4.610   4.198  11.677  0.3192  0.5488 -0.3360
 4142SOL    HW224063   4.614   4.227  11.822  2.0472 -0.0010 -0.4504
 4143SOL     OW24064   2.145   4.401   3.293  0.9247  0.0918 -0.1313
 4143SOL    HW124065   2.116   4.362   3.210  1.7481 -1.1391  0.1558
 4143SOL    HW224066   2.226   4.355   3.315 -1.1778 -2.4977  2.3123
 4144SOL     OW24067   1.455   4.726   8.387  0.7815 -0.1322 -0.2510
 4144SOL    HW124068   1.547   4.700   8.392  0.7505  0.2771  2.2531
 4144SOL    HW224069   1.415   4.643   8.364 -0.7311  0.7725 -0.9115
 4145SOL     OW24070   2.039   0.860   7.898  0.1586 -0.0038  0.0871
 4145SOL    HW124071   1.992   0.854   7.981 -0.0729 -2.7552 -0.2485
 4145SOL    HW224072   2.051   0.766   7.885 -2.2147 -0.2936  0.0980
 4146SOL     OW24073   2.913   2.997  14.981  0.4061 -0.0067  0.1166
 4146SOL    HW124074   2.995   2.979  15.027 -0.9315  0.1126  2.5614
 4146SOL    HW224075   2.861   3.024  15.057  1.3870  0.5231  0.5992
 4147SOL     OW24076   0.355   3.512  13.817  0.1762 -0.4480  0.1715
 4147SOL    HW124077   0.283   3.491  13.758  0.2687 -1.6609  0.4921
 4147SOL    HW224078   0.348   3.452  13.891 -0.7092 -1.3654 -0.6563
 4148SOL     OW24079   3.279   2.091   8.952  0.2675 -0.2967  0.5217
 4148SOL    HW124080   3.248   2.050   8.871  0.5271  0.1189  0.2130
 4148SOL    HW224081   3.337   2.162   8.924 -0.9264  0.8105  0.8560
 4149SOL     OW24082   4.242   1.349   5.021 -0.2926  0.7986 -0.4485
 4149SOL    HW124083   4.227   1.321   4.930 -0.2622 -2.0637  0.4085
 4149SOL    HW224084   4.261   1.263   5.060  0.2570  1.7350  1.3471
 4150SOL     OW24085   1.882   1.705   2.128 -0.1278  0.5083 -0.4366
 4150SOL    HW124086   1.808   1.692   2.069  1.5534  0.8010 -2.6124
 4150SOL    HW224087   1.943   1.650   2.079 -0.3423  0.5261 -0.7269
 4151SOL     OW24088   0.974   1.428  10.954  0.2562 -0.4266 -0.2228
 4151SOL    HW124089   0.956   1.500  10.894  1.7920 -1.5514 -2.0338
 4151SOL    HW224090   1.062   1.410  10.922 -0.4862 -1.3972 -1.7719
 4152SOL     OW24091   3.640   0.489  14.604 -0.1514  0.3380 -0.5321
 4152SOL    HW124092   3.590   0.566  14.578  0.7061  0.5913 -1.4123
 4152SOL    HW224093   3.674   0.519  14.689  0.5077 -0.9512 -0.3253
 4153SOL     OW24094   0.966   2.571   1.668 -0.4883 -0.1289  0.7159
 4153SOL    HW124095   0.878   2.576   1.704 -0.3449  1.9151  0.7861
 4153SOL    HW224096   0.948   2.597   1.578  0.4918 -2.1964 -0.0650
 4154SOL     OW24097   4.719   0.123   8.426  0.4083 -0.0103  0.1103
 4154SOL    HW124098   4.634   0.140   8.467  0.9656 -2.6078  2.3308
 4154SOL    HW224099   0.015   0.095   8.512 -0.5867  1.5952  1.0043
 4155SOL     OW24100   2.099   2.577   4.096 -0.0192 -0.3694 -0.2338
 4155SOL    HW124101   2.025   2.543   4.146 -0.9544  0.3914 -1.1134
 4155SOL    HW224102   2.148   2.627   4.161 -2.5528  0.2197  1.2079
 4156SOL     OW24103   0.250   1.357   3.318 -0.1559 -0.5122 -0.4415
 4156SOL    HW124104   0.259   1.266   3.346  0.0343  0.3784  2.3289
 4156SOL    HW224105   0.222   1.402   3.398 -2.1428 -3.0759  0.2821
 4157SOL     OW24106   3.195   0.330   3.931 -0.6642  0.5334  0.2609
 4157SOL    HW124107   3.166   0.239   3.924 -2.1608  1.1963 -2.2419
 4157SOL    HW224108   3.155   0.374   3.856 -0.8159 -0.1456 -0.0634
 4158SOL     OW24109   2.785   2.622  16.028  0.3978 -0.1279 -0.0717
 4158SOL    HW124110   2.763   2.656  15.941  1.0432  1.2070  0.2827
 4158SOL    HW224111   2.785   2.528  16.006 -0.6400 -0.1442 -0.0024
 4159SOL     OW24112   1.051   2.569  17.352 -0.6727  0.6173  0.4496
 4159SOL    HW124113   1.131   2.559  17.403  0.0603  0.7141 -0.6826
 4159SOL    HW224114   0.984   2.531  17.409 -0.0178  3.6044  3.1620
 4160SOL     OW24115   2.548   2.089   2.396  0.3478 -0.0222  0.2850
 4160SOL    HW124116   2.600   2.021   2.352  0.9612 -0.1021  1.1349
 4160SOL    HW224117   2.503   2.131   2.322 -0.3510  4.1468  3.1349
 4161SOL     OW24118   4.733   0.669   2.910  0.5276  0.1989  0.3539
 4161SOL    HW124119   0.052   0.745   2.892  1.6193 -0.5809  0.4142
 4161SOL    HW224120   4.688   0.697   2.989 -0.5918 -1.8592  0.4624
 4162SOL     OW24121   1.714   0.282   5.472 -0.0493  0.1749 -0.0899
 4162SOL    HW124122   1.801   0.321   5.483 -0.0413  0.0734  0.2193
 4162SOL    HW224123   1.673   0.333   5.541 -0.6974 -0.5615  0.0626
 4163SOL     OW24124   1.468   3.675   7.148  0.3783 -0.3068  0.3677
 4163SOL    HW124125   1.550   3.636   7.177 -0.0052 -0.2212  1.5874
 4163SOL    HW224126   1.406   3.602   7.153 -0.7726  0.5491 -1.3513
 4164SOL     OW24127   2.931   2.316   7.706  0.0083 -0.1614 -0.8624
 4164SOL    HW124128   3.015   2.354   7.680  0.0989  0.1625 -0.1160
 4164SOL    HW224129   2.959   2.266   7.783  0.0402 -1.2771 -1.6027
 4165SOL     OW24130   0.290   1.555  14.890 -0.1463 -0.1399  0.1555
 4165SOL    HW124131   0.209   1.581  14.932 -0.3080 -0.7042  0.2002
 4165SOL    HW224132   0.257   1.542  14.801  1.1622  0.8597 -0.4882
 4166SOL     OW24133   2.898   3.335   2.834 -0.1447 -0.3207  0.5091
 4166SOL    HW124134   2.871   3.349   2.925  0.3329  0.2587  0.5605
 4166SOL    HW224135   2.991   3.317   2.845  0.1123  0.6964  0.0260
 4167SOL     OW24136   4.105   3.390   8.795 -0.0266  0.1650 -0.6629
 4167SOL    HW124137   4.093   3.480   8.824  0.5631 -0.6265  1.9888
 4167SOL    HW224138   4.015   3.363   8.775 -0.1417  1.2115 -1.5305
 4168SOL     OW24139   1.000   1.303  13.954  0.3746  0.7687 -0.1456
 4168SOL    HW124140   1.085   1.263  13.971  0.5452  0.7347 -1.0466
 4168SOL    HW224141   0.984   1.283  13.861 -0.1117 -1.6360  0.4485
 4169SOL     OW24142   1.445   3.578  14.356  0.0492 -0.1311  0.1274
 4169SOL    HW124143   1.453   3.483  14.350 -1.3765 -0.1816 -0.9462
 4169SOL    HW224144   1.351   3.598  14.358  0.1639  0.2821  1.3290
 4170SOL     OW24145   0.046   2.463   0.513  0.2757  0.1124 -0.7362
 4170SOL    HW124146   4.736   2.508   0.443 -0.2703  0.0333 -0.4198
 4170SOL    HW224147   4.706   2.451   0.569  1.0580 -0.1263  0.2779
 4171SOL     OW24148   4.589   2.642   1.984 -0.1891 -0.4573  0.5698
 4171SOL    HW124149   4.634   2.595   2.054  1.5401  0.0278 -0.2208
 4171SOL    HW224150   4.619   2.732   1.995 -0.9440  0.0614 -1.4219
 4172SOL     OW24151   4.304   3.774   5.470  0.6561 -0.0883 -0.2758
 4172SOL    HW124152   4.315   3.699   5.529 -0.6064  0.2928  0.4328
 4172SOL    HW224153   4.292   3.722   5.391  0.8619  0.1301 -0.4506
 4173SOL     OW24154   3.211   0.984  16.889  0.7317  0.3262  0.0797
 4173SOL    HW124155   3.183   0.913  16.946  0.0317 -1.1711 -2.1404
 4173SOL    HW224156   3.305   0.971  16.880  0.4539 -0.4934 -1.7585
 4174SOL     OW24157   2.468   1.029  14.654  0.8214  0.3027  0.0874
 4174SOL    HW124158   2.461   1.108  14.709 -1.0262  0.0056  0.2893
 4174SOL    HW224159   2.549   1.060  14.615  1.0442  0.1728  0.4504
 4175SOL     OW24160   4.301   0.421   7.335  0.4086 -0.2679  0.7165
 4175SOL    HW124161   4.260   0.391   7.254 -0.6660 -1.9455  1.8725
 4175SOL    HW224162   4.358   0.348   7.361 -0.2057 -0.0862  2.6021
 4176SOL     OW24163   3.385   3.041   5.898 -0.2140 -0.1304  0.3641
 4176SOL    HW124164   3.334   3.020   5.820  0.0712  0.5603 -0.0154
 4176SOL    HW224165   3.320   3.037   5.968 -0.5462  0.2291  0.0824
 4177SOL     OW24166   3.986   3.886   7.849  0.0601 -0.6169  0.2560
 4177SOL    HW124167   3.946   3.800   7.834  0.1387 -0.6283  0.1146
 4177SOL    HW224168   4.067   3.880   7.799  0.4005  2.6317  0.4473
 4178SOL     OW24169   2.068   0.177  15.635 -0.1980  0.0866 -0.1733
 4178SOL    HW124170   2.161   0.184  15.657 -0.6353  1.4005  1.3071
 4178SOL    HW224171   2.033   0.175  15.725 -0.5215  2.5194 -0.2459
 4179SOL     OW24172   3.188   2.107  14.522 -0.0762  0.0204 -0.5787
 4179SOL    HW124173   3.123   2.152  14.468 -1.1501  0.6132  1.2393
 4179SOL    HW224174   3.267   2.160  14.507  1.2912 -1.6836  0.6565
 4180SOL     OW24175   1.765   1.205   0.126 -0.0790  0.0674 -0.3953
 4180SOL    HW124176   1.825   1.163   0.188 -0.1636  0.5851  0.0319
 4180SOL    HW224177   1.817   1.198   0.046  0.2180  3.1309 -0.4510
 4181SOL     OW24178   2.093   4.686   9.369 -0.1637 -0.5694  0.1883
 4181SOL    HW124179   2.151   4.636   9.426  0.4272 -0.2181 -0.1066
 4181SOL    HW224180   2.152   4.736   9.313 -0.7401 -0.5192 -0.3673
 4182SOL     OW24181   3.395   0.813   2.483  0.0302  0.2685 -0.0250
 4182SOL    HW124182   3.487   0.836   2.470  0.6093 -1.9974 -0.0426
 4182SOL    HW224183   3.412   0.756   2.559 -0.8458  1.5974  1.1528
 4183SOL     OW24184   4.366   2.347   9.024 -0.5284  0.3922  0.3045
 4183SOL    HW124185   4.345   2.363   8.932  1.5884 -0.0932 -0.2809
 4183SOL    HW224186   4.286   2.314   9.065 -0.8030 -0.2636 -0.7606
 4184SOL     OW24187   3.768   4.536  17.188 -0.2360 -0.3764  0.7517
 4184SOL    HW124188   3.707   4.523  17.115 -0.3682  1.3063  0.5734
 4184SOL    HW224189   3.820   4.455  17.188 -2.2482 -1.6614  1.2530
 4185SOL     OW24190   2.614   3.898  11.350  0.2775 -0.1921 -0.0323
 4185SOL    HW124191   2.629   3.954  11.426 -0.6880  0.0959 -0.0594
 4185SOL    HW224192   2.695   3.848  11.350 -0.5804 -1.5528  2.1130
 4186SOL     OW24193   4.361   1.064   7.039 -0.2695 -0.7005 -0.7295
 4186SOL    HW124194   4.334   1.048   7.129 -2.3341  1.9055 -0.8654
 4186SOL    HW224195   4.303   1.140   7.029 -0.4116 -0.9014 -1.4043
 4187SOL     OW24196   4.029   0.251   2.476  0.2105 -0.1286 -0.0530
 4187SOL    HW124197   3.934   0.239   2.484  0.2210  1.2359  2.0818
 4187SOL    HW224198   4.035   0.306   2.398 -0.0602 -0.5508 -0.3728
 4188SOL     OW24199   2.749   1.981   4.907 -0.2767 -0.3989 -0.0841
 4188SOL    HW124200   2.702   1.901   4.928 -0.8452 -0.2831 -0.8982
 4188SOL    HW224201   2.836   1.944   4.893 -0.7507 -1.3084 -0.6115
 4189SOL     OW24202   4.380   3.014   3.597 -0.2132 -0.6977 -0.1427
 4189SOL    HW124203   4.419   3.018   3.684 -0.0675  0.1776 -0.2534
 4189SOL    HW224204   4.295   2.973   3.612  0.3001 -1.6515  0.1478
 4190SOL     OW24205   1.747   2.680   3.726  0.2981  0.0654  0.0401
 4190SOL    HW124206   1.824   2.636   3.761 -0.9114 -0.5117  1.9895
 4190SOL    HW224207   1.788   2.748   3.673  0.0263 -0.6038 -1.0390
 4191SOL     OW24208   3.997   2.752   6.901  0.2422  0.1370  0.2068
 4191SOL    HW124209   3.940   2.828   6.890  1.0372  0.3282 -2.6362
 4191SOL    HW224210   4.035   2.750   6.813 -1.4471  1.9847 -0.5745
 4192SOL     OW24211   3.465   2.082   5.923 -0.1534 -0.0932 -0.0499
 4192SOL    HW124212   3.402   2.087   5.852  0.3847 -0.1351 -0.5302
 4192SOL    HW224213   3.472   2.175   5.942 -0.7545  0.0299 -0.4479
 4193SOL     OW24214   0.851   2.386   8.550  0.1768  0.1025 -0.0597
 4193SOL    HW124215   0.933   2.381   8.599 -0.2503 -1.0459  0.5533
 4193SOL    HW224216   0.827   2.294   8.541 -2.7420  0.5699  2.7562
 4194SOL     OW24217   2.766   1.656   9.383 -0.2657 -0.8001 -0.0808
 4194SOL    HW124218   2.679   1.615   9.382 -0.1975 -0.9939  2.5371
 4194SOL    HW224219   2.740   1.748   9.384 -0.8502 -0.9411 -1.5690
 4195SOL     OW24220   4.095   4.019   5.303 -0.4998  0.1301  0.4065
 4195SOL    HW124221   4.099   3.924   5.306  1.0180  0.2358  1.5988
 4195SOL    HW224222   4.131   4.044   5.389  1.4010  0.5053 -0.5111
 4196SOL     OW24223   0.710   1.362   2.590 -0.1300  0.0937  0.0334
 4196SOL    HW124224   0.729   1.421   2.518  1.3503 -0.1070  0.2421
 4196SOL    HW224225   0.679   1.426   2.654 -0.5298  0.2814 -0.3553
 4197SOL     OW24226   2.092   2.316   5.611  0.9873  0.3848  0.5802
 4197SOL    HW124227   2.136   2.358   5.537 -0.3742  0.8270  0.0323
 4197SOL    HW224228   2.029   2.384   5.635  2.2024  1.7728 -0.1745
 4198SOL     OW24229   2.026   2.427   1.832 -0.1535  0.4856  0.0383
 4198SOL    HW124230   1.967   2.497   1.859  1.6115  1.3134  1.7672
 4198SOL    HW224231   1.970   2.400   1.759  1.4617 -0.4518 -0.8612
 4199SOL     OW24232   0.379   2.721   7.435 -0.0940  0.9469  0.1724
 4199SOL    HW124233   0.376   2.812   7.462  0.5739  1.0125  0.0257
 4199SOL    HW224234   0.289   2.706   7.405  0.1752 -0.6448  0.1613
 4200SOL     OW24235   2.211   0.857   5.764  0.1605  0.8505  0.6413
 4200SOL    HW124236   2.307   0.859   5.762  0.1582  1.1503  0.8862
 4200SOL    HW224237   2.191   0.763   5.770  0.5309  0.7015 -0.4763
 4201SOL     OW24238   1.637   4.465  17.704  1.1574  0.2838  0.2679
 4201SOL    HW124239   1.559   4.409  17.703  1.0094  0.5011 -0.1669
 4201SOL    HW224240   1.615   4.535   0.022  0.3083  2.0166 -1.9956
 4202SOL     OW24241   4.055   1.002   2.918 -0.5126  0.1099 -0.6322
 4202SOL    HW124242   4.095   1.082   2.884 -1.0609  0.9088  0.5994
 4202SOL    HW224243   4.097   1.002   3.004  1.6037 -0.3762 -1.6666
 4203SOL     OW24244   0.529   3.432   9.304  0.0632 -0.3219 -0.3765
 4203SOL    HW124245   0.447   3.454   9.260  0.0728  0.7452  0.1492
 4203SOL    HW224246   0.505   3.415   9.395 -0.6791  0.9788 -0.3348
 4204SOL     OW24247   2.841   0.955  15.525 -0.4071 -0.4739  0.0105
 4204SOL    HW124248   2.910   0.969  15.460  0.1542 -1.9344  0.2901
 4204SOL    HW224249   2.868   0.872  15.563 -1.1732 -1.8259 -2.3481
 4205SOL     OW24250   3.732   1.934  15.361 -0.3103 -0.0379  0.2926
 4205SOL    HW124251   3.661   1.921  15.298  0.6130  1.3832 -1.0720
 4205SOL    HW224252   3.737   2.029  15.345  0.0245  0.5195  3.7359
 4206SOL     OW24253   1.635   4.234  11.940 -0.1849  0.6114  0.1314
 4206SOL    HW124254   1.592   4.313  11.908  0.0335  0.6448 -0.0789
 4206SOL    HW224255   1.714   4.276  11.974 -1.3278  1.9772  1.0372
 4207SOL     OW24256   4.467   0.989   0.450 -0.1136  0.0542 -0.0072
 4207SOL    HW124257   4.427   1.068   0.414  1.3077  0.1983 -1.2863
 4207SOL    HW224258   4.486   1.016   0.540  1.3819 -1.5623  0.1903
 4208SOL     OW24259   2.269   1.610   0.918 -0.4505 -0.0338 -0.1039
 4208SOL    HW124260   2.348   1.623   0.970 -1.0751  0.3878  0.7467
 4208SOL    HW224261   2.284   1.538   0.857  1.0482  0.5167 -0.3726
 4209SOL     OW24262   4.593   1.480   6.157  0.6375  0.1005 -1.0048
 4209SOL    HW124263   4.645   1.412   6.199  0.4219  2.6665  3.5246
 4209SOL    HW224264   4.508   1.474   6.200  2.3294  1.0553  2.5266
 4210SOL     OW24265   2.398   1.279   2.392  0.0932 -0.0860 -0.1791
 4210SOL    HW124266   2.327   1.219   2.413 -1.3189  1.9851  0.9100
 4210SOL    HW224267   2.434   1.286   2.480  0.6630  1.4632 -0.5280
 4211SOL     OW24268   2.090   2.055  10.628 -0.0558  0.1445  0.1623
 4211SOL    HW124269   2.126   2.011  10.550  1.8252 -0.4269  1.3519
 4211SOL    HW224270   2.156   2.118  10.658 -0.7048  0.4256  0.9752
 4212SOL     OW24271   1.570   0.858  10.582 -0.0305 -0.1918 -0.1468
 4212SOL    HW124272   1.607   0.771  10.571 -1.4768 -0.9369  0.9622
 4212SOL    HW224273   1.515   0.859  10.504  1.1594  0.4037 -0.9867
 4213SOL     OW24274   3.894   0.389   1.760  0.5045 -0.3205  0.1161
 4213SOL    HW124275   3.828   0.455   1.782  0.9359 -0.5297  2.0109
 4213SOL    HW224276   3.831   0.330   1.719 -0.3890  1.2201 -0.7597
 4214SOL     OW24277   1.810   3.497   1.600  0.4213  0.0291 -0.1996
 4214SOL    HW124278   1.808   3.403   1.614 -0.2131  0.0616 -0.0272
 4214SOL    HW224279   1.811   3.541   1.686 -0.5848 -0.4984  0.0815
 4215SOL     OW24280   0.619   3.212   8.575 -0.1310  0.3628 -0.2360
 4215SOL    HW124281   0.537   3.262   8.584 -1.3254 -1.8168  0.9056
 4215SOL    HW224282   0.609   3.152   8.648 -0.7067  0.2708 -0.3933
 4216SOL     OW24283   1.698   3.428   5.795 -0.4080 -0.3126 -0.2840
 4216SOL    HW124284   1.680   3.356   5.734  1.5245 -0.0370 -1.2036
 4216SOL    HW224285   1.622   3.485   5.779  0.8559  1.1137 -1.2438
 4217SOL     OW24286   3.905   3.607   1.448 -0.1669 -0.3299 -0.2133
 4217SOL    HW124287   3.871   3.519   1.466 -0.6387 -0.3793 -1.3970
 4217SOL    HW224288   3.870   3.658   1.521 -1.8026 -0.8510 -0.6434
 4218SOL     OW24289   1.060   3.879   2.500 -0.6622 -0.0256  0.5190
 4218SOL    HW124290   1.138   3.933   2.509  0.2196 -0.9317 -1.7785
 4218SOL    HW224291   0.999   3.942   2.462  1.4717 -0.0241 -2.9198
 4219SOL     OW24292   3.418   4.193   3.968  0.2375  0.0383 -0.0644
 4219SOL    HW124293   3.403   4.284   3.994 -0.2360 -0.8967  3.0228
 4219SOL    HW224294   3.385   4.198   3.878  2.9473  1.0610 -0.9774
 4220SOL     OW24295   1.168   2.737   3.049 -0.0299  0.0791 -0.8401
 4220SOL    HW124296   1.243   2.750   2.991 -2.0430 -3.7058 -4.2346
 4220SOL    HW224297   1.138   2.648   3.034  1.8073 -0.4704 -1.2590
 4221SOL     OW24298   4.147   0.731   5.480 -0.5078  0.0290  0.2493
 4221SOL    HW124299   4.194   0.755   5.400  0.8433  0.9830  1.3202
 4221SOL    HW224300   4.096   0.663   5.436  0.3919 -1.0698  0.8762
 4222SOL     OW24301   1.553   3.404   1.839  0.4618 -0.3101 -0.3916
 4222SOL    HW124302   1.544   3.386   1.933 -0.0407 -1.5292 -0.6768
 4222SOL    HW224303   1.634   3.454   1.840 -0.1123  0.6832 -3.2301
 4223SOL     OW24304   2.396   3.951   7.988  0.1061 -0.2701 -0.0997
 4223SOL    HW124305   2.348   3.968   7.907  0.8066  0.0661 -0.4481
 4223SOL    HW224306   2.460   4.022   7.984  0.2671 -0.3766  0.5216
 4224SOL     OW24307   3.571   3.958   6.590  0.4700 -0.0860 -0.1614
 4224SOL    HW124308   3.573   4.050   6.564 -0.6448  0.2218  0.8153
 4224SOL    HW224309   3.483   3.940   6.557  0.2976  0.0680  0.2075
 4225SOL     OW24310   1.968   2.563   3.872 -0.1732  0.6848  0.3810
 4225SOL    HW124311   1.999   2.602   3.954  0.5677  1.2169 -0.1495
 4225SOL    HW224312   2.031   2.607   3.815 -0.3992  1.0512  0.4194
 4226SOL     OW24313   2.340   1.855   3.732 -0.7256  0.0094 -0.0573
 4226SOL    HW124314   2.247   1.856   3.751 -0.9395 -1.5806 -1.0675
 4226SOL    HW224315   2.337   1.874   3.638  0.4703 -0.1483 -0.1277
 4227SOL     OW24316   1.655   3.661   3.353 -0.1002  0.0530 -0.5047
 4227SOL    HW124317   1.598   3.706   3.291 -1.7545 -2.9231 -1.1374
 4227SOL    HW224318   1.623   3.690   3.438  0.9091 -2.6466  0.7991
 4228SOL     OW24319   0.244   4.692  15.718 -0.4770  0.6138 -0.2733
 4228SOL    HW124320   0.159   4.682  15.674 -1.5555  0.7450  1.7769
 4228SOL    HW224321   0.276   0.011  15.646  1.7752  0.5314  0.6821
 4229SOL     OW24322   0.711   3.239  12.504  0.0386  0.6216  0.1655
 4229SOL    HW124323   0.686   3.306  12.440 -2.3053  0.0998  0.5334
 4229SOL    HW224324   0.694   3.282  12.587 -3.1677 -1.4087  0.5885
 4230SOL     OW24325   4.005   2.990  10.444 -0.2075  0.4886 -0.0064
 4230SOL    HW124326   4.024   3.083  10.457  1.4927 -0.0067  1.0414
 4230SOL    HW224327   4.020   2.990  10.349 -1.2683 -1.0578 -0.1687
 4231SOL     OW24328   0.485   4.024  16.221 -0.2144  0.1348  0.7560
 4231SOL    HW124329   0.448   4.041  16.135  0.6761 -5.2338 -0.7266
 4231SOL    HW224330   0.568   3.984  16.195 -0.8465 -2.0486  2.0049
 4232SOL     OW24331   0.811   1.544  12.401 -0.7876 -0.0399  0.2225
 4232SOL    HW124332   0.906   1.530  12.396 -0.6628  0.7922  0.2171
 4232SOL    HW224333   0.813   1.616  12.464 -1.7270 -0.4035  0.6556
 4233SOL     OW24334   0.805   4.550   3.388 -0.1145 -0.2140 -0.0309
 4233SOL    HW124335   0.780   4.487   3.321 -3.3276  4.0796 -2.8800
 4233SOL    HW224336   0.734   4.615   3.385  0.8161  0.8793  1.4370
 4234SOL     OW24337   3.942   1.675   2.451  0.3491 -0.4219  0.0586
 4234SOL    HW124338   3.991   1.756   2.459  0.0839 -0.2389 -0.1586
 4234SOL    HW224339   3.860   1.706   2.412  1.3897  2.6814  0.3529
 4235SOL     OW24340   3.331   4.659  17.117  0.6790  0.1311  0.2705
 4235SOL    HW124341   3.371   4.689  17.036 -0.7919  0.7770 -0.2144
 4235SOL    HW224342   3.239   4.667  17.091  0.2475 -3.5689  0.6383
 4236SOL     OW24343   1.793   1.462   0.715 -0.5828 -0.6003  0.1473
 4236SOL    HW124344   1.786   1.370   0.689  0.7234 -0.5432 -0.4188
 4236SOL    HW224345   1.770   1.494   0.628 -0.2258 -0.8957 -0.0546
 4237SOL     OW24346   0.587   0.839   8.334  0.2184 -0.4888  0.1978
 4237SOL    HW124347   0.610   0.874   8.248  0.1692 -2.1381 -0.4769
 4237SOL    HW224348   0.620   0.750   8.320 -0.4301 -0.7495  0.3333
 4238SOL     OW24349   3.843   0.999   8.559  0.0023 -0.0507  0.0524
 4238SOL    HW124350   3.833   1.052   8.480  1.3861  1.7932  1.1101
 4238SOL    HW224351   3.770   1.021   8.617 -0.1644  2.2049 -1.0396
 4239SOL     OW24352   4.669   0.120  17.042 -0.6002  0.5846  0.1011
 4239SOL    HW124353   4.682   0.056  16.972 -0.1540  0.7330  0.0520
 4239SOL    HW224354   4.684   0.066  17.120 -0.2433  1.6572  0.7694
 4240SOL     OW24355   2.738   3.863  13.238  0.1400 -0.9431 -0.4347
 4240SOL    HW124356   2.706   3.926  13.174  0.6181 -1.5829 -1.3080
 4240SOL    HW224357   2.679   3.888  13.310  0.1987 -1.3738 -0.2326
 4241SOL     OW24358   3.927   4.022   3.647 -0.5231  0.0384 -0.3160
 4241SOL    HW124359   4.002   4.049   3.699 -1.5335 -0.0859  1.2142
 4241SOL    HW224360   3.866   4.083   3.690  1.8573  2.0410  0.2137
 4242SOL     OW24361   4.366   2.964  11.783 -0.3445 -0.2694  0.4290
 4242SOL    HW124362   4.414   2.994  11.861  1.6610 -1.5160 -0.3226
 4242SOL    HW224363   4.418   2.890  11.752  0.6049 -0.2939  2.0279
 4243SOL     OW24364   1.893   0.385   8.358  0.1609 -0.3370  0.3334
 4243SOL    HW124365   1.974   0.408   8.405  0.3642 -2.3372  0.9711
 4243SOL    HW224366   1.847   0.466   8.380  2.0331  0.8425 -0.0659
 4244SOL     OW24367   1.151   2.984  12.871 -0.7155  0.3712 -0.0782
 4244SOL    HW124368   1.221   3.013  12.930  1.9638 -1.5048 -2.3449
 4244SOL    HW224369   1.200   2.973  12.790 -0.7051 -1.7015  0.2342
 4245SOL     OW24370   3.680   3.715   0.794  0.2904 -0.3086 -0.3140
 4245SOL    HW124371   3.766   3.729   0.834  0.1995 -0.1248 -0.1813
 4245SOL    HW224372   3.667   3.623   0.814  1.7443 -0.9484 -2.3009
 4246SOL     OW24373   0.000   0.988   6.320  0.0439 -0.2842  0.2298
 4246SOL    HW124374   4.699   1.070   6.351  0.5732 -0.5620  1.6103
 4246SOL    HW224375   4.676   0.931   6.367  0.0506 -3.2267 -3.3377
 4247SOL     OW24376   1.982   1.208   2.511  0.0926 -1.4467 -0.3464
 4247SOL    HW124377   2.015   1.146   2.445 -0.7020  0.4147 -2.5071
 4247SOL    HW224378   2.040   1.196   2.586 -1.3901  0.7854  1.1527
 4248SOL     OW24379   0.872   4.049   2.392  0.5021 -0.0026 -0.0288
 4248SOL    HW124380   0.890   4.075   2.302 -2.2452 -1.7948 -1.0922
 4248SOL    HW224381   0.793   4.101   2.404  2.2608  2.9163 -0.8979
 4249SOL     OW24382   0.170   2.132   9.149  0.1671 -0.2452 -0.0336
 4249SOL    HW124383   0.187   2.188   9.225 -0.0368 -2.0404  1.3597
 4249SOL    HW224384   0.082   2.163   9.129 -0.2162 -0.0452  1.9701
 4250SOL     OW24385   3.824   0.135   0.679  0.6405 -0.5960  0.4561
 4250SOL    HW124386   3.764   0.186   0.626  0.4055  2.4602  3.7160
 4250SOL    HW224387   3.896   0.109   0.620 -0.6693 -1.3172 -0.8236
 4251SOL     OW24388   2.308   2.316   2.515  1.2279 -0.2832  0.1360
 4251SOL    HW124389   2.298   2.352   2.427  1.9967 -0.1734  0.0927
 4251SOL    HW224390   2.353   2.391   2.554  0.4786  1.6896 -2.7556
 4252SOL     OW24391   2.789   1.672  13.214 -0.4099 -0.0514 -0.0922
 4252SOL    HW124392   2.866   1.630  13.253 -0.8327  1.6133  2.5146
 4252SOL    HW224393   2.777   1.749  13.270  1.1068 -0.9236  1.4515
 4253SOL     OW24394   4.066   2.471  11.450 -0.3408  0.0905 -0.1912
 4253SOL    HW124395   4.029   2.520  11.377 -0.5735 -1.4078 -1.0875
 4253SOL    HW224396   4.096   2.549  11.496  1.7812  0.4216 -2.1833
 4254SOL     OW24397   3.946   2.035   4.343 -0.7018  0.3469 -0.3440
 4254SOL    HW124398   3.960   1.965   4.407 -1.6615 -0.2392 -0.7862
 4254SOL    HW224399   4.008   2.021   4.272 -0.3401 -0.0080  0.0449
 4255SOL     OW24400   3.362   1.984  12.778 -0.5650  0.1287 -0.7347
 4255SOL    HW124401   3.339   2.057  12.836  2.3569  0.2055  0.2871
 4255SOL    HW224402   3.454   2.008  12.768 -0.7825  1.9858  1.6868
 4256SOL     OW24403   2.045   3.664  11.514 -0.2120 -0.3601  0.5507
 4256SOL    HW124404   2.063   3.604  11.441 -2.2737  2.4237 -2.2728
 4256SOL    HW224405   2.109   3.728  11.484 -2.3956  0.7261 -1.7762
 4257SOL     OW24406   1.698   3.556   7.229  0.1271 -0.6665  0.2549
 4257SOL    HW124407   1.669   3.468   7.250 -0.9740 -0.0552  1.3477
 4257SOL    HW224408   1.742   3.547   7.145  3.4963  0.8318  1.8358
 4258SOL     OW24409   0.366   1.137   3.805 -0.1697 -0.0941 -0.0943
 4258SOL    HW124410   0.373   1.062   3.747  1.9270 -1.2174  1.6183
 4258SOL    HW224411   0.457   1.140   3.832 -0.4194 -1.1850  0.8680
 4259SOL     OW24412   4.132   4.170   2.268 -0.2215 -0.4460 -0.4865
 4259SOL    HW124413   4.115   4.208   2.354 -0.9892  1.7640 -1.5902
 4259SOL    HW224414   4.219   4.131   2.281 -0.5947 -0.5613  1.5903
 4260SOL     OW24415   2.203   1.492   8.451 -0.0742  0.0837 -0.0672
 4260SOL    HW124416   2.174   1.512   8.540  1.6995  0.4824  0.4194
 4260SOL    HW224417   2.169   1.403   8.438 -0.9267  0.2912  0.7569
 4261SOL     OW24418   3.287   1.630  11.663  0.1180 -0.2868  0.0501
 4261SOL    HW124419   3.358   1.690  11.689 -0.2535 -0.7204  2.1170
 4261SOL    HW224420   3.303   1.620  11.570 -0.5300 -0.0946 -0.0792
 4262SOL     OW24421   2.266   1.803   3.454 -0.1042  0.1470 -0.2508
 4262SOL    HW124422   2.342   1.823   3.400  2.3715 -1.2173  2.7723
 4262SOL    HW224423   2.194   1.791   3.392 -0.0830 -1.2555 -0.0017
 4263SOL     OW24424   1.454   2.425  14.895  0.3484 -0.1559 -0.3758
 4263SOL    HW124425   1.417   2.359  14.836  1.2844 -0.7060 -0.3377
 4263SOL    HW224426   1.435   2.505  14.845  0.7078  0.0023 -0.2617
 4264SOL     OW24427   4.307   3.631   2.707  0.1412  0.1366 -0.0028
 4264SOL    HW124428   4.298   3.539   2.681  1.1554  0.1573 -0.4280
 4264SOL    HW224429   4.298   3.686   2.629  1.8114 -1.9924 -1.6987
 4265SOL     OW24430   2.263   3.272   8.019  0.4121 -0.1166 -0.0778
 4265SOL    HW124431   2.256   3.176   8.019 -0.8282 -0.0270  1.4010
 4265SOL    HW224432   2.341   3.288   7.965  0.9893 -1.7273  0.2822
 4266SOL     OW24433   4.484   3.537   2.912  0.0389 -0.0318  0.1579
 4266SOL    HW124434   4.514   3.593   2.984  1.0875  0.8756 -0.9931
 4266SOL    HW224435   4.424   3.595   2.865 -0.1874 -0.9599 -0.6985
 4267SOL     OW24436   1.346   1.147   7.594  0.7382 -0.2939  0.3110
 4267SOL    HW124437   1.286   1.206   7.639 -2.6723 -1.9046 -2.0238
 4267SOL    HW224438   1.356   1.090   7.670 -0.7822  1.2559  1.6696
 4268SOL     OW24439   2.907   2.789   6.409 -0.0016 -0.3346  0.3296
 4268SOL    HW124440   2.874   2.749   6.490 -0.7200  2.1701  1.2644
 4268SOL    HW224441   3.000   2.792   6.433  1.1977  1.8977 -4.5527
 4269SOL     OW24442   1.908   2.790   4.956  0.5817  0.2431 -0.2494
 4269SOL    HW124443   1.987   2.778   5.009  0.1114 -0.7764  0.2255
 4269SOL    HW224444   1.876   2.708   4.993 -2.3053 -0.1245 -3.5087
 4270SOL     OW24445   1.853   0.987   8.713 -0.3698  0.0105  0.5346
 4270SOL    HW124446   1.842   1.072   8.756  0.4609 -0.6976  2.1725
 4270SOL    HW224447   1.904   0.929   8.770  0.1822 -0.7671 -0.7519
 4271SOL     OW24448   0.611   0.056  13.028  0.3193 -0.2609  0.0038
 4271SOL    HW124449   0.651   0.106  12.957 -0.5530 -0.1002 -0.3663
 4271SOL    HW224450   0.563   4.736  12.968 -0.8280 -1.1629  1.7624
 4272SOL     OW24451   3.510   1.174  12.749 -0.1799 -0.6244 -0.5379
 4272SOL    HW124452   3.540   1.170  12.840  0.7677  0.1994 -0.8179
 4272SOL    HW224453   3.443   1.107  12.760 -1.6529  1.0398  0.5925
 4273SOL     OW24454   3.538   1.414   7.037  0.3141 -0.0366  0.0038
 4273SOL    HW124455   3.627   1.385   7.058  0.7126  0.4707 -0.9842
 4273SOL    HW224456   3.486   1.335   7.024  1.8185 -1.2912  1.6047
 4274SOL     OW24457   1.850   1.772   4.009 -0.8358 -0.0432  0.0362
 4274SOL    HW124458   1.771   1.781   4.063  0.2233  1.9610  1.2229
 4274SOL    HW224459   1.810   1.729   3.934  1.1388  2.1900 -2.2583
 4275SOL     OW24460   0.917   1.377   4.650  0.0053  0.3089 -0.0106
 4275SOL    HW124461   0.955   1.344   4.731  0.6417  0.1844 -0.3617
 4275SOL    HW224462   0.994   1.417   4.611  0.8089 -2.5632 -1.3653
 4276SOL     OW24463   1.594   0.414   6.534  0.5010  0.3307 -0.2779
 4276SOL    HW124464   1.574   0.502   6.502  0.6261  1.4298  2.6621
 4276SOL    HW224465   1.689   0.412   6.522  0.6635 -1.0026  1.2964
 4277SOL     OW24466   4.524   2.633  17.618 -0.0751  0.5745 -0.2491
 4277SOL    HW124467   4.440   2.676  17.604  0.2214  1.5914  1.0659
 4277SOL    HW224468   4.492   2.551  17.656 -2.3546  1.6118  0.0287
 4278SOL     OW24469   1.198   1.160   5.159  0.3412  0.0021 -0.2971
 4278SOL    HW124470   1.148   1.156   5.240 -0.8438 -0.0483 -1.0386
 4278SOL    HW224471   1.283   1.179   5.199  0.4288  0.1814 -0.5654
 4279SOL     OW24472   3.726   1.058   4.445  0.2475 -0.1746  0.4839
 4279SOL    HW124473   3.650   1.100   4.404  2.2078  0.2976 -2.7238
 4279SOL    HW224474   3.740   0.975   4.401  1.5788  1.0487 -1.3884
 4280SOL     OW24475   2.589   1.275   4.655  0.4177 -0.4125  0.1962
 4280SOL    HW124476   2.561   1.366   4.647 -1.4808 -1.0156 -0.0439
 4280SOL    HW224477   2.543   1.225   4.587 -4.2891  1.8438  1.6839
 4281SOL     OW24478   1.369   2.477  11.577  0.2567 -0.0666  0.1664
 4281SOL    HW124479   1.288   2.447  11.618 -1.4036 -0.4719 -3.4432
 4281SOL    HW224480   1.399   2.402  11.525 -0.8925  0.6916 -1.5711
 4282SOL     OW24481   0.670   4.602   5.572 -0.5302 -0.4831  0.6591
 4282SOL    HW124482   0.734   4.596   5.501  0.9290  1.2013  1.8201
 4282SOL    HW224483   0.597   4.586   5.513  0.4581 -1.4583 -0.3118
 4283SOL     OW24484   1.184   4.256   7.413  0.6781 -0.2984 -0.4194
 4283SOL    HW124485   1.279   4.260   7.403  0.3356  2.7601 -2.2363
 4283SOL    HW224486   1.169   4.165   7.441  0.3058 -0.0220  0.2878
 4284SOL     OW24487   2.856   0.063   9.081 -0.3183 -0.2945 -0.1736
 4284SOL    HW124488   2.943   0.089   9.051  0.0829 -1.1436  0.2364
 4284SOL    HW224489   2.847   4.731   9.014  1.9069  0.3232 -1.0842
 4285SOL     OW24490   1.956   1.443  10.907  0.0078  0.1360  0.3304
 4285SOL    HW124491   2.034   1.485  10.871  0.2926  0.6132  1.5086
 4285SOL    HW224492   1.963   1.355  10.871  2.8899  0.8088 -0.7213
 4286SOL     OW24493   2.281   3.875   5.918  0.1357 -0.1580  0.3900
 4286SOL    HW124494   2.212   3.811   5.938 -0.0198  0.2428  1.1200
 4286SOL    HW224495   2.230   3.956   5.924 -0.3724 -0.3479 -1.2918
 4287SOL     OW24496   1.681   3.987   3.177 -0.4837 -0.4650  0.5720
 4287SOL    HW124497   1.593   3.953   3.189 -0.0899 -1.3019  1.0892
 4287SOL    HW224498   1.708   3.954   3.092 -0.3021  2.1878 -0.4127
 4288SOL     OW24499   1.814   1.983   7.730  0.0476 -0.3746 -0.1349
 4288SOL    HW124500   1.816   1.905   7.675 -2.5067 -0.6699  0.2320
 4288SOL    HW224501   1.896   1.974   7.779  0.5390  2.7276 -0.3775
 4289SOL     OW24502   3.865   1.298   9.180 -0.5035  0.2193 -0.1125
 4289SOL    HW124503   3.951   1.299   9.222 -0.0568  1.9406 -1.0615
 4289SOL    HW224504   3.818   1.370   9.222  0.1742  0.8298 -0.3947
 4290SOL     OW24505   4.676   1.527   4.717 -0.3860  0.5333  0.1687
 4290SOL    HW124506   4.711   1.604   4.763  2.6721 -1.2296  0.7277
 4290SOL    HW224507   0.012   1.465   4.715 -0.8728 -0.0472  0.3327
 4291SOL     OW24508   2.388   4.258  11.770  0.0359 -0.3197  0.1951
 4291SOL    HW124509   2.392   4.348  11.737  1.6849 -0.4040  0.1589
 4291SOL    HW224510   2.476   4.225  11.752  2.2844  4.4318  2.7216
 4292SOL     OW24511   3.831   2.277   3.023 -0.2507  0.5856 -0.4847
 4292SOL    HW124512   3.911   2.225   3.025  0.3799  1.5740 -0.1889
 4292SOL    HW224513   3.851   2.328   2.945  1.7071  1.6086  0.7130
 4293SOL     OW24514   1.385   0.985   7.847  0.6416 -0.2737 -0.5758
 4293SOL    HW124515   1.346   0.935   7.919  0.2943  0.2754 -0.3828
 4293SOL    HW224516   1.456   1.015   7.903  0.2832 -1.0733  0.3107
 4294SOL     OW24517   0.665   4.034   7.173  0.1675 -0.2296 -0.1195
 4294SOL    HW124518   0.624   3.949   7.157  1.0227 -0.0768 -3.0925
 4294SOL    HW224519   0.730   4.047   7.104  0.2298 -0.8294 -0.1750
 4295SOL     OW24520   1.496   0.759   3.546 -0.4069 -0.1491  0.2482
 4295SOL    HW124521   1.461   0.795   3.464 -1.3966 -2.3138 -0.2848
 4295SOL    HW224522   1.507   0.841   3.593 -1.0547  0.0535  0.0442
 4296SOL     OW24523   0.956   2.130   7.654  0.1920 -0.0411  0.6123
 4296SOL    HW124524   0.865   2.102   7.664 -0.1720  1.2224  0.8227
 4296SOL    HW224525   0.958   2.152   7.561 -2.1401 -0.5741  0.4454
 4297SOL     OW24526   3.148   3.556   9.080 -0.0893 -0.1231  0.5408
 4297SOL    HW124527   3.189   3.507   9.009 -1.8931 -0.9564  0.0764
 4297SOL    HW224528   3.069   3.582   9.034  0.6285 -0.4579 -0.8596
 4298SOL     OW24529   2.662   0.222   2.157 -0.3995 -0.2404 -0.0576
 4298SOL    HW124530   2.575   0.258   2.141 -0.1711  0.3871  0.0780
 4298SOL    HW224531   2.653   0.164   2.233 -1.4524  0.1704  0.1304
 4299SOL     OW24532   4.034   0.387   9.097 -0.2353  0.1271 -0.1178
 4299SOL    HW124533   4.124   0.382   9.065 -1.2056 -0.2067 -2.8188
 4299SOL    HW224534   4.026   0.309   9.151 -0.6928 -0.2106 -0.6687
 4300SOL     OW24535   0.027   1.646  11.514 -0.0337 -0.0359  0.1385
 4300SOL    HW124536   0.017   1.699  11.593  0.2109  0.3890 -0.1103
 4300SOL    HW224537   0.011   1.716  11.450 -0.5978 -1.4798 -1.2890
 4301SOL     OW24538   3.226   3.578   4.044  0.4277  0.4511  0.7200
 4301SOL    HW124539   3.140   3.539   4.061 -0.4727  2.4879  0.8631
 4301SOL    HW224540   3.272   3.543   4.121  1.1283 -0.6223 -0.1955
 4302SOL     OW24541   0.596   4.260   8.828 -0.0720  0.4852  0.2519
 4302SOL    HW124542   0.532   4.190   8.819 -0.0133  0.5109 -0.3596
 4302SOL    HW224543   0.560   4.322   8.764  4.9681  1.1956 -1.9413
 4303SOL     OW24544   0.462   0.883   3.621  0.8111 -0.2854  0.0767
 4303SOL    HW124545   0.446   0.819   3.552 -0.8763 -0.6822  0.8325
 4303SOL    HW224546   0.545   0.867   3.666  1.0170  1.4387  0.3156
 4304SOL     OW24547   0.846   4.358  14.383 -0.1919 -0.4249 -1.0834
 4304SOL    HW124548   0.921   4.398  14.341  1.2393 -0.0046  1.9114
 4304SOL    HW224549   0.780   4.398  14.325 -0.1311  0.8728 -0.2434
 4305SOL     OW24550   3.639   0.899   5.787  0.4050 -0.4780  0.3194
 4305SOL    HW124551   3.583   0.857   5.853  1.3534 -1.7598  0.2958
 4305SOL    HW224552   3.646   0.992   5.811  0.6085 -0.2895 -0.4699
 4306SOL     OW24553   1.405   0.352   7.993 -0.4817 -0.2547 -0.2742
 4306SOL    HW124554   1.323   0.396   7.969 -0.0108  0.6599 -0.1871
 4306SOL    HW224555   1.394   0.326   8.085  1.2276 -0.1050 -0.0350
 4307SOL     OW24556   2.886   2.524  16.505 -0.0312 -0.0819  0.0327
 4307SOL    HW124557   2.888   2.475  16.423  1.3820 -0.9014  0.5715
 4307SOL    HW224558   2.893   2.447  16.561  1.5296  0.1030  0.0816
 4308SOL     OW24559   3.156   0.495  17.685 -0.0094  0.4173  0.2140
 4308SOL    HW124560   3.247   0.517  17.706  0.4285 -0.0303 -1.2550
 4308SOL    HW224561   3.160   0.404  17.657  0.5678  0.2940  0.6975
 4309SOL     OW24562   1.168   4.473   9.224 -0.2548 -0.2610  0.8250
 4309SOL    HW124563   1.079   4.504   9.240 -0.6143  0.0333 -1.8313
 4309SOL    HW224564   1.177   4.504   9.134 -1.1258  0.1819  0.8852
 4310SOL     OW24565   4.062   0.360   3.178  0.2975  0.3944 -0.3143
 4310SOL    HW124566   4.110   0.298   3.123 -0.7852  0.7861 -1.7208
 4310SOL    HW224567   4.007   0.411   3.118 -1.5721 -0.5356  0.6311
 4311SOL     OW24568   2.081   1.023  16.187 -0.5717 -0.7094  0.2260
 4311SOL    HW124569   2.115   0.935  16.207  1.7665  0.3701  0.9608
 4311SOL    HW224570   2.026   1.034  16.265  0.5867  1.6006  0.7011
 4312SOL     OW24571   4.194   3.190   0.400 -0.7447 -0.3920  0.8392
 4312SOL    HW124572   4.285   3.173   0.426 -0.3817 -0.0516 -0.2037
 4312SOL    HW224573   4.155   3.246   0.467  1.9467  2.8129 -0.2766
 4313SOL     OW24574   2.611   2.921  15.919  0.0561 -0.6306  0.0081
 4313SOL    HW124575   2.660   2.879  15.848 -0.8622 -0.0322 -0.9894
 4313SOL    HW224576   2.548   2.849  15.930 -3.0656  1.9757 -0.6591
 4314SOL     OW24577   2.139   2.603   4.729 -0.2005  0.5397  0.0557
 4314SOL    HW124578   2.054   2.560   4.740  0.4381 -0.1467  2.2576
 4314SOL    HW224579   2.160   2.646   4.812 -0.7676  0.8385  0.0468
 4315SOL     OW24580   0.259   3.049   0.754  0.4261  0.6948 -0.1751
 4315SOL    HW124581   0.176   3.037   0.801  0.3126  0.3666 -0.4569
 4315SOL    HW224582   0.288   2.957   0.755 -0.5922  0.3731 -0.1514
 4316SOL     OW24583   1.420   1.014  16.132  0.0507 -0.8610 -0.2494
 4316SOL    HW124584   1.417   0.920  16.114  0.7433 -0.6840 -1.2685
 4316SOL    HW224585   1.438   1.056  16.048 -0.3351  1.3485  0.7700
 4317SOL     OW24586   3.758   2.491   5.369 -0.6433 -0.3919 -0.2507
 4317SOL    HW124587   3.799   2.405   5.358 -1.5756 -0.9255  0.5098
 4317SOL    HW224588   3.719   2.489   5.456 -0.6487 -1.5586 -0.2805
 4318SOL     OW24589   2.080   1.764   1.002  0.2986 -0.2371  0.0415
 4318SOL    HW124590   2.030   1.764   0.920 -0.5346 -0.4745  0.5512
 4318SOL    HW224591   2.164   1.734   0.967  1.3052  1.1435  1.2909
 4319SOL     OW24592   2.900   3.789   9.103  0.3495 -0.0024  0.3542
 4319SOL    HW124593   2.931   3.750   9.185  0.8922 -0.7230 -0.1976
 4319SOL    HW224594   2.879   3.869   9.152  1.8434  0.8673 -0.4370
 4320SOL     OW24595   1.710   4.494   1.769  0.0162 -0.3657  0.4641
 4320SOL    HW124596   1.715   4.565   1.705 -0.1352 -1.1784 -0.4424
 4320SOL    HW224597   1.686   4.538   1.851  0.3315  1.6225 -0.5181
 4321SOL     OW24598   2.742   4.123   7.960  0.1712  0.3714  0.0965
 4321SOL    HW124599   2.730   4.180   8.036  0.2034  0.1437  0.2733
 4321SOL    HW224600   2.735   4.185   7.888  1.1696  0.4758  0.0804
 4322SOL     OW24601   1.982   4.146   1.989  0.8304  0.1759 -0.3099
 4322SOL    HW124602   2.020   4.058   1.980 -0.0535 -0.2044 -0.3139
 4322SOL    HW224603   1.905   4.135   2.045 -0.6316 -0.0918 -2.3597
 4323SOL     OW24604   0.347   0.860   1.542  0.0877  0.0053  0.1208
 4323SOL    HW124605   0.267   0.911   1.545  0.4826  0.6779 -1.2573
 4323SOL    HW224606   0.373   0.872   1.634  1.3888  0.5043 -0.3135
 4324SOL     OW24607   4.600   4.082  11.114 -0.0385 -0.2854  0.8070
 4324SOL    HW124608   4.643   3.999  11.136  1.1780  0.5771  1.7236
 4324SOL    HW224609   4.655   4.114  11.042  0.5229 -1.1473  0.8576
 4325SOL     OW24610   4.177   3.536   2.934  0.0596 -0.3993  0.2208
 4325SOL    HW124611   4.216   3.449   2.929  0.6001  0.0239 -2.9156
 4325SOL    HW224612   4.232   3.577   2.867  0.2369  1.5263  1.5431
 4326SOL     OW24613   4.391   2.721  10.781  0.0993  0.0089 -0.0924
 4326SOL    HW124614   4.346   2.805  10.784  0.0519  0.0350 -1.5692
 4326SOL    HW224615   4.401   2.711  10.876  1.8441  0.6717 -0.1923
 4327SOL     OW24616   0.284   4.562   6.916 -0.0870 -0.4288 -0.2400
 4327SOL    HW124617   0.360   4.508   6.894  0.7375 -0.5385  2.7927
 4327SOL    HW224618   0.237   4.580   6.835 -0.6087 -0.9224 -0.0491
 4328SOL     OW24619   1.878   3.630   5.905  0.8534  0.0969 -0.1480
 4328SOL    HW124620   1.862   3.605   5.814  3.1470 -2.8079  0.2530
 4328SOL    HW224621   1.788   3.610   5.931  0.4585  1.7885 -0.2045
 4329SOL     OW24622   4.225   3.180   1.159  0.2135  0.4966 -0.3829
 4329SOL    HW124623   4.233   3.275   1.150  0.1944  0.7409  2.2777
 4329SOL    HW224624   4.170   3.166   1.082 -1.1739 -0.5805  0.8042
 4330SOL     OW24625   1.573   4.627   6.983  0.2423 -0.2983  0.1834
 4330SOL    HW124626   1.642   4.689   7.004  0.6129 -0.5456 -0.3063
 4330SOL    HW224627   1.502   4.685   6.955  0.3605  0.3846  1.3024
 4331SOL     OW24628   0.743   2.844   1.621  0.8227  0.3647  0.4965
 4331SOL    HW124629   0.756   2.826   1.715  0.6355  0.9754  0.6415
 4331SOL    HW224630   0.663   2.794   1.608  1.2397  0.2275 -1.5460
 4332SOL     OW24631   2.422   3.922   1.355  0.1236  0.4609 -0.0966
 4332SOL    HW124632   2.381   3.844   1.391 -0.7963  1.5357  1.2007
 4332SOL    HW224633   2.361   3.995   1.364 -0.3411 -0.3153  3.0025
 4333SOL     OW24634   0.988   2.576  14.300 -0.4642  0.6463  0.2197
 4333SOL    HW124635   1.053   2.510  14.325 -0.9208  0.4606  0.9190
 4333SOL    HW224636   0.950   2.542  14.219  2.0420  0.2848 -0.7991
 4334SOL     OW24637   1.742   2.476  17.128  0.2248 -0.5591 -0.0540
 4334SOL    HW124638   1.700   2.519  17.202  0.7741 -1.4492  0.7746
 4334SOL    HW224639   1.813   2.432  17.174  2.3310  0.4182 -2.4069
 4335SOL     OW24640   2.748   1.095   6.860  0.4046  0.0538 -0.5303
 4335SOL    HW124641   2.803   1.129   6.789 -2.6293  0.0173 -2.8773
 4335SOL    HW224642   2.713   1.180   6.884 -0.8461 -0.4510 -0.5899
 4336SOL     OW24643   0.119   0.365  12.905  0.3029 -0.2856  0.3836
 4336SOL    HW124644   0.128   0.435  12.970  1.4194 -0.2119  0.1413
 4336SOL    HW224645   0.029   0.369  12.872 -0.2555 -0.6020  1.8689
 4337SOL     OW24646   2.511   3.676   7.300 -0.2595 -0.0428 -0.4992
 4337SOL    HW124647   2.471   3.756   7.266 -0.1903  0.6579  1.0771
 4337SOL    HW224648   2.481   3.688   7.390  2.4523  2.1052  0.1080
 4338SOL     OW24649   0.602   2.878  17.322  0.4731  0.4507 -0.0865
 4338SOL    HW124650   0.678   2.904  17.270  2.3804 -1.2789  1.7911
 4338SOL    HW224651   0.580   2.801  17.269  0.0472 -1.5070  2.9138
 4339SOL     OW24652   3.932   2.117   9.477  0.4688  0.3202 -0.1721
 4339SOL    HW124653   3.934   2.060   9.555 -0.7869 -0.7614 -0.9397
 4339SOL    HW224654   3.840   2.144   9.474  0.1096 -1.1012 -1.7559
 4340SOL     OW24655   0.811   3.468   3.468 -0.3989 -0.1554  0.7001
 4340SOL    HW124656   0.819   3.421   3.385  1.1002  1.7665 -0.2603
 4340SOL    HW224657   0.789   3.390   3.519  0.6129 -1.7048 -1.2458
 4341SOL     OW24658   1.708   4.281   6.538  0.5587  0.6919  0.1423
 4341SOL    HW124659   1.695   4.187   6.528  0.5701  0.6103  0.9198
 4341SOL    HW224660   1.623   4.303   6.576  1.2596  4.2474 -0.3922
 4342SOL     OW24661   3.953   2.192   5.128  0.9161 -0.2171 -0.1420
 4342SOL    HW124662   4.038   2.215   5.092  1.1492 -2.7995 -1.2623
 4342SOL    HW224663   3.953   2.099   5.103 -2.6447 -0.1014 -0.6423
 4343SOL     OW24664   4.231   3.781   1.164  0.9679 -0.1064 -0.3486
 4343SOL    HW124665   4.207   3.873   1.168  1.1563  0.0901 -3.6621
 4343SOL    HW224666   4.199   3.749   1.248 -0.8068 -1.3079 -1.4754
 4344SOL     OW24667   0.319   2.831   4.381 -0.1389  0.5929  0.1222
 4344SOL    HW124668   0.254   2.901   4.389 -1.2701 -0.3746 -0.5704
 4344SOL    HW224669   0.319   2.802   4.473 -0.5240 -0.4300 -0.1957
 4345SOL     OW24670   3.135   3.734   3.401 -0.6135 -0.4402 -0.1050
 4345SOL    HW124671   3.224   3.769   3.404 -0.7549 -0.2191  1.7855
 4345SOL    HW224672   3.091   3.800   3.455  0.6157 -0.8179  1.3835
 4346SOL     OW24673   3.403   3.500   4.249  0.6085  0.3062 -0.4980
 4346SOL    HW124674   3.406   3.574   4.310  0.5808 -2.9413  3.4646
 4346SOL    HW224675   3.492   3.502   4.213  0.9712  0.2504  0.3899
 4347SOL     OW24676   4.069   1.806   1.020 -0.0039  0.1045 -0.0510
 4347SOL    HW124677   4.101   1.827   1.108 -0.0714  1.2499 -0.2963
 4347SOL    HW224678   4.030   1.723   1.047 -2.5016  1.7741  1.4765
 4348SOL     OW24679   2.059   3.974   8.273  0.0610  0.2179  0.1945
 4348SOL    HW124680   2.084   3.919   8.347  2.3577  0.3168 -0.5191
 4348SOL    HW224681   1.966   3.951   8.273 -0.0074  0.4983  0.2196
 4349SOL     OW24682   1.592   2.764   4.664 -0.2064 -0.2074  0.6201
 4349SOL    HW124683   1.612   2.687   4.611 -0.1307  0.2877 -0.0632
 4349SOL    HW224684   1.684   2.789   4.670 -0.3557  0.4855  0.0951
 4350SOL     OW24685   4.551   3.990   6.289 -0.4279  0.3258  0.1983
 4350SOL    HW124686   4.566   4.023   6.377  0.5253  0.6726 -0.1010
 4350SOL    HW224687   4.584   4.065   6.240  0.1270  0.1987  0.3799
 4351SOL     OW24688   1.396   3.654   7.517 -0.0343  0.0567  0.0909
 4351SOL    HW124689   1.467   3.707   7.481  1.0386 -0.8630  0.8949
 4351SOL    HW224690   1.409   3.585   7.452 -0.5513  0.2644 -0.2369
 4352SOL     OW24691   1.608   3.889   2.910 -0.4205  0.0381  0.5639
 4352SOL    HW124692   1.531   3.879   2.854  0.2002  0.3411 -0.3276
 4352SOL    HW224693   1.609   3.802   2.950  1.0420 -0.3182 -0.2495
 4353SOL     OW24694   0.851   1.597   2.942  0.2151 -0.1829  0.2061
 4353SOL    HW124695   0.829   1.540   3.016  0.9034  0.4709  0.9097
 4353SOL    HW224696   0.861   1.680   2.989 -2.1591 -0.5672  1.3976
 4354SOL     OW24697   3.325   0.944   6.414 -0.6935 -1.1621 -0.2605
 4354SOL    HW124698   3.237   0.979   6.428 -1.0180 -1.8393 -0.5957
 4354SOL    HW224699   3.332   0.955   6.319  0.1255  1.0993  0.0883
 4355SOL     OW24700   0.909   1.664   3.490 -0.0815 -0.1728 -0.2943
 4355SOL    HW124701   0.857   1.600   3.539  0.4862 -0.8838 -0.6140
 4355SOL    HW224702   0.981   1.606   3.464  0.4056  1.1624 -1.9513
 4356SOL     OW24703   4.377   3.870   2.094  0.1485 -0.2602  0.5154
 4356SOL    HW124704   4.426   3.835   2.020 -1.5904 -0.6185 -0.4789
 4356SOL    HW224705   4.292   3.826   2.094  0.1203 -0.1537 -3.3865
 4357SOL     OW24706   4.112   2.734  10.822  0.1326  0.3113  0.2267
 4357SOL    HW124707   4.175   2.685  10.769 -1.6153 -0.4408 -1.1822
 4357SOL    HW224708   4.142   2.738  10.913 -1.5095  0.6860  0.7424
 4358SOL     OW24709   4.286   0.159  10.374  0.0392  0.0493  0.1636
 4358SOL    HW124710   4.210   0.103  10.357 -0.6851  0.7618  1.0161
 4358SOL    HW224711   4.233   0.239  10.380  1.3005  0.7982  1.3201
 4359SOL     OW24712   3.422   0.752   2.034 -0.0255 -0.2528  0.1800
 4359SOL    HW124713   3.456   0.775   1.948  1.8038 -0.1619  0.9196
 4359SOL    HW224714   3.496   0.738   2.093 -0.1020  1.4533  0.7019
 4360SOL     OW24715   3.726   2.522   2.034  0.5047  0.3166  0.3613
 4360SOL    HW124716   3.714   2.523   2.129 -1.9941 -1.6614  0.0724
 4360SOL    HW224717   3.637   2.501   2.005  0.1637  1.3879  0.6254
 4361SOL     OW24718   4.197   2.567   4.963 -0.0996 -0.5789 -0.1106
 4361SOL    HW124719   4.126   2.599   4.907  0.2860 -1.3523 -1.0408
 4361SOL    HW224720   4.236   2.643   5.006  0.0046 -1.4627  1.3526
 4362SOL     OW24721   2.342   4.724  15.749  0.4071  0.3379 -0.4740
 4362SOL    HW124722   2.329   0.074  15.710  1.5098  0.6974 -0.0332
 4362SOL    HW224723   2.370   4.674  15.672  1.4816 -2.8534  1.9910
 4363SOL     OW24724   1.220   2.501   9.280  0.6334  0.4838  0.3706
 4363SOL    HW124725   1.230   2.576   9.221 -0.4914 -0.1603 -0.6332
 4363SOL    HW224726   1.268   2.434   9.230 -0.8817 -0.2966 -0.0474
 4364SOL     OW24727   3.862   0.900   5.272  0.1062 -0.3079  0.7782
 4364SOL    HW124728   3.850   0.989   5.238  1.4098 -1.1866 -2.0272
 4364SOL    HW224729   3.842   0.914   5.365 -0.3691 -2.2071  0.9594
 4365SOL     OW24730   1.458   0.314  10.208 -0.2107  0.0407 -0.1433
 4365SOL    HW124731   1.412   0.388  10.248  1.7422  1.0282  0.2943
 4365SOL    HW224732   1.424   0.246  10.266  0.0035 -0.6006 -0.7828
 4366SOL     OW24733   3.726   2.619   4.663 -0.2163 -0.5016  0.1136
 4366SOL    HW124734   3.663   2.549   4.645 -1.0388 -0.3575  2.4376
 4366SOL    HW224735   3.710   2.674   4.586 -0.2384 -0.0287  0.4553
 4367SOL     OW24736   2.003   4.471  11.497  0.4267  0.0146  0.3488
 4367SOL    HW124737   1.939   4.450  11.429  1.0338 -0.9849  0.0935
 4367SOL    HW224738   1.980   4.564  11.500 -0.4560 -0.1860 -0.1916
 4368SOL     OW24739   0.162   2.592   3.426 -0.0848  0.5020  0.1353
 4368SOL    HW124740   0.166   2.496   3.435  1.4719  0.5154 -0.3506
 4368SOL    HW224741   0.196   2.606   3.338 -0.0805 -2.1969 -0.3020
 4369SOL     OW24742   1.108   1.047   7.767  0.2042 -0.2095 -0.4216
 4369SOL    HW124743   1.118   0.977   7.830  1.2698 -1.3850 -1.9043
 4369SOL    HW224744   1.152   1.120   7.810  1.8773 -1.2443 -0.3823
 4370SOL     OW24745   4.500   0.370   9.120  1.1276 -0.4207  0.5270
 4370SOL    HW124746   4.520   0.403   9.208 -1.1242  1.2384  0.4137
 4370SOL    HW224747   4.576   0.407   9.074  2.0981 -0.7364  1.8716
 4371SOL     OW24748   3.531   0.022   1.911  0.3048  0.3046  0.5331
 4371SOL    HW124749   3.511   4.714   1.829 -0.2611  1.0731  0.2625
 4371SOL    HW224750   3.594   4.697   1.950  0.1361 -0.5703 -0.5818
 4372SOL     OW24751   2.488   3.081  13.059  0.4111  0.0526 -0.1793
 4372SOL    HW124752   2.522   3.170  13.046  2.8517 -0.6152  1.7107
 4372SOL    HW224753   2.567   3.026  13.058  0.8083  0.6086  2.6377
 4373SOL     OW24754   4.458   0.157   7.972 -0.1740 -0.2038  0.2107
 4373SOL    HW124755   4.548   0.190   7.974 -1.3084  2.8301  2.1570
 4373SOL    HW224756   4.450   0.146   7.878 -1.9340  1.7414  0.1515
 4374SOL     OW24757   4.661   4.652   8.100  0.0038  0.0748 -0.0073
 4374SOL    HW124758   4.710   4.600   8.037 -1.9410  0.8478 -2.1616
 4374SOL    HW224759   4.733   4.707   8.132  0.5722 -1.0517  0.6246
 4375SOL     OW24760   4.550   1.580   5.348  0.4934  0.3823  0.0453
 4375SOL    HW124761   4.499   1.500   5.335  1.9244 -0.4502 -0.5485
 4375SOL    HW224762   4.622   1.546   5.402  0.3637  0.8830  0.5258
 4376SOL     OW24763   0.770   1.767  11.279 -0.0091 -0.5535  0.6489
 4376SOL    HW124764   0.793   1.809  11.196  0.5231  1.1617  1.6713
 4376SOL    HW224765   0.723   1.846  11.308  0.4804  0.4465 -1.2710
 4377SOL     OW24766   3.723   2.679   2.784  0.1147  0.0655 -0.0055
 4377SOL    HW124767   3.735   2.606   2.722 -0.2223 -0.2279  0.2728
 4377SOL    HW224768   3.797   2.673   2.844  0.4288 -0.2422 -0.4192
 4378SOL     OW24769   2.800   2.437   6.178  0.2162  0.3373  0.0945
 4378SOL    HW124770   2.753   2.459   6.259  2.2646 -0.2764  1.4446
 4378SOL    HW224771   2.877   2.396   6.216  0.6742  0.2225 -0.9772
 4379SOL     OW24772   3.844   2.336   4.717 -0.2444  0.3111 -0.2239
 4379SOL    HW124773   3.753   2.362   4.702 -0.7703 -2.0795 -1.1743
 4379SOL    HW224774   3.875   2.361   4.630 -1.1022 -0.8291 -0.8578
 4380SOL     OW24775   2.806   1.568   3.262  0.0327  0.6329  0.6459
 4380SOL    HW124776   2.734   1.528   3.213  0.2629 -0.8967  1.5589
 4380SOL    HW224777   2.873   1.584   3.196 -0.0993 -1.7920 -0.0863
 4381SOL     OW24778   0.852   3.126   6.536  0.2037  0.1091  0.2946
 4381SOL    HW124779   0.937   3.144   6.577 -0.5415  0.7445  1.5528
 4381SOL    HW224780   0.838   3.033   6.552 -0.3262  0.1194 -0.0937
 4382SOL     OW24781   2.373   1.987   7.184  0.2776  0.1591 -0.2407
 4382SOL    HW124782   2.309   1.974   7.253 -1.8350  1.0311 -2.0415
 4382SOL    HW224783   2.359   2.075   7.148 -1.1001 -0.5060 -1.2888
 4383SOL     OW24784   0.570   3.718   4.948 -0.0514  0.4593  0.3885
 4383SOL    HW124785   0.621   3.799   4.952  1.6957 -0.6785  1.2328
 4383SOL    HW224786   0.631   3.649   4.977 -0.3730  0.0708  0.1400
 4384SOL     OW24787   1.146   3.976   0.274  0.6274 -0.5617  0.4132
 4384SOL    HW124788   1.168   3.937   0.189  0.4470 -0.7095  0.4324
 4384SOL    HW224789   1.128   3.897   0.326  0.0934 -1.0827 -0.5727
 4385SOL     OW24790   1.414   0.378   8.527 -0.1888  0.2854  0.1289
 4385SOL    HW124791   1.444   0.467   8.508  0.0939  0.3920  1.1029
 4385SOL    HW224792   1.482   0.347   8.587 -1.5237  0.9361  1.9865
 4386SOL     OW24793   1.399   4.249   2.194 -0.0019  0.2036 -0.1171
 4386SOL    HW124794   1.361   4.336   2.186 -0.5838  0.1115  1.6518
 4386SOL    HW224795   1.473   4.258   2.134  1.9157  0.7580  2.3005
 4387SOL     OW24796   1.903   2.808   9.522 -0.0041 -0.0321  0.4134
 4387SOL    HW124797   1.810   2.815   9.543  0.1715  0.9902  0.8384
 4387SOL    HW224798   1.947   2.883   9.561 -0.7439 -0.0317  1.2268
 4388SOL     OW24799   1.115   2.346   1.690  0.4991 -0.2470  0.6781
 4388SOL    HW124800   1.087   2.340   1.598  1.4462  2.0057  0.2441
 4388SOL    HW224801   1.082   2.432   1.714 -0.0216 -0.5931  1.2094
 4389SOL     OW24802   4.125   3.809   0.299  0.7074 -0.0238  0.0931
 4389SOL    HW124803   4.214   3.783   0.275 -0.0310 -2.3541 -0.1152
 4389SOL    HW224804   4.076   3.727   0.289  1.0366  0.1269 -2.8840
 4390SOL     OW24805   2.990   3.755   4.700  0.1242 -0.2720  0.1805
 4390SOL    HW124806   2.965   3.710   4.620 -2.7306  1.3686  0.1364
 4390SOL    HW224807   2.920   3.724   4.758 -0.3977  0.0819 -0.2563
 4391SOL     OW24808   1.325   2.916  14.109 -0.4043 -0.9373  0.5351
 4391SOL    HW124809   1.299   2.889  14.021  0.9355  1.2583 -0.5305
 4391SOL    HW224810   1.388   2.848  14.134 -0.2030 -1.4381 -1.3029
 4392SOL     OW24811   1.858   0.133   3.636  0.1118 -0.1842 -0.4883
 4392SOL    HW124812   1.781   0.096   3.680  0.9046  0.4894  1.4554
 4392SOL    HW224813   1.921   0.073   3.676  1.1840 -0.0922 -2.0641
 4393SOL     OW24814   1.304   4.424   9.452  0.0715 -0.9059 -0.4486
 4393SOL    HW124815   1.260   4.416   9.367 -1.2563  0.1248  0.1279
 4393SOL    HW224816   1.396   4.400   9.441  0.6314  1.3790 -0.6834
 4394SOL     OW24817   0.225   2.126   5.816  0.2030 -0.2761 -0.1704
 4394SOL    HW124818   0.245   2.102   5.907  1.7238 -1.4805 -0.8165
 4394SOL    HW224819   0.132   2.145   5.817 -0.1446 -1.9372 -1.6374
 4395SOL     OW24820   0.697   2.520   6.913  0.2273 -0.4223  0.6807
 4395SOL    HW124821   0.745   2.537   6.994 -0.3637 -0.4331  1.0308
 4395SOL    HW224822   0.603   2.523   6.931  0.4514  0.7287  1.6278
 4396SOL     OW24823   2.087   3.276   4.267 -0.0293  0.3867 -0.3371
 4396SOL    HW124824   2.040   3.208   4.317  0.0008  1.7877  1.6098
 4396SOL    HW224825   2.074   3.346   4.331  0.4219 -1.0473  1.3264
 4397SOL     OW24826   4.728   2.716  14.578  0.3301 -0.0398  0.0472
 4397SOL    HW124827   0.033   2.795  14.612  0.4315 -0.2475  0.4184
 4397SOL    HW224828   4.654   2.711  14.640 -0.0777  1.4016 -0.3154
 4398SOL     OW24829   0.874   1.520  12.830 -0.2282  0.6621 -0.2032
 4398SOL    HW124830   0.926   1.451  12.788  0.8700  0.2821  1.7705
 4398SOL    HW224831   0.873   1.482  12.918 -0.5585  0.9290 -0.0887
 4399SOL     OW24832   0.846   3.022  15.611 -0.3237 -0.1048 -0.8200
 4399SOL    HW124833   0.888   3.102  15.579  0.3877 -0.1578 -0.0193
 4399SOL    HW224834   0.911   2.997  15.676 -1.1290 -0.7659 -0.2740
 4400SOL     OW24835   0.292   4.256   5.090 -0.2688  0.0600  0.7157
 4400SOL    HW124836   0.360   4.189   5.087 -0.1996  0.2055 -1.3322
 4400SOL    HW224837   0.308   4.295   5.176 -0.9295 -0.8549  1.2539
 4401SOL     OW24838   4.344   0.487   4.676  0.4486 -0.3795 -0.2517
 4401SOL    HW124839   4.252   0.464   4.667  0.1607  0.6984 -0.0305
 4401SOL    HW224840   4.350   0.539   4.595 -1.0704 -2.3620 -1.6300
 4402SOL     OW24841   0.501   2.747   1.537 -0.0068  0.0763 -0.1337
 4402SOL    HW124842   0.531   2.682   1.474  0.4192 -0.7466  0.9167
 4402SOL    HW224843   0.473   2.813   1.474  0.6153 -0.3256 -0.8369
 4403SOL     OW24844   4.161   2.013  14.876 -0.1298 -0.6267 -0.1129
 4403SOL    HW124845   4.214   2.029  14.954  0.6494 -1.9146 -0.3707
 4403SOL    HW224846   4.169   2.094  14.825 -1.3948 -1.7089 -2.0332
 4404SOL     OW24847   1.167   3.177  15.472  0.0016 -0.1479  0.0480
 4404SOL    HW124848   1.255   3.199  15.443 -0.4955  0.7080 -0.8213
 4404SOL    HW224849   1.193   3.100  15.522 -0.6969 -0.3410  0.1222
 4405SOL     OW24850   1.118   3.805  15.368 -0.3197 -0.3094  0.3095
 4405SOL    HW124851   1.029   3.773  15.354  0.1390 -0.7322 -1.6329
 4405SOL    HW224852   1.101   3.879  15.426 -2.3636 -1.4195  1.0870
 4406SOL     OW24853   2.699   0.533   4.445  0.3870  0.2632  0.1165
 4406SOL    HW124854   2.707   0.472   4.519  1.0272  0.6580  0.3701
 4406SOL    HW224855   2.604   0.526   4.432  0.0956 -0.9690  2.7978
 4407SOL     OW24856   4.626   0.984  10.045  0.2339  0.0190  0.1812
 4407SOL    HW124857   4.698   0.924  10.061 -1.1992 -1.7832 -0.1084
 4407SOL    HW224858   4.560   0.915  10.050  0.0740  0.1452 -0.1358
 4408SOL     OW24859   1.484   4.088   2.417 -0.2243  0.8683 -0.3003
 4408SOL    HW124860   1.576   4.118   2.417  0.6533 -1.8591  1.4681
 4408SOL    HW224861   1.451   4.137   2.341  0.8788  0.3752 -1.1047
 4409SOL     OW24862   1.560   4.555  10.274 -0.4777 -0.1190 -1.0300
 4409SOL    HW124863   1.578   4.593  10.188  1.4242 -2.4377 -1.6420
 4409SOL    HW224864   1.646   4.531  10.307 -1.4713  1.1565  2.4466
 4410SOL     OW24865   3.716   4.661   3.533 -0.6104 -0.2260 -0.0989
 4410SOL    HW124866   3.790   4.623   3.486  2.6448  1.5134  3.6034
 4410SOL    HW224867   3.763   4.727   3.584 -2.6333  1.7048 -0.7389
 4411SOL     OW24868   2.192   2.911   6.740  0.1474  0.2272 -0.5088
 4411SOL    HW124869   2.273   2.874   6.705  1.7628  1.4076  1.9596
 4411SOL    HW224870   2.136   2.856   6.685  1.4113 -1.9855  0.4407
 4412SOL     OW24871   4.547   1.505   9.022  0.2485  0.1674  0.0522
 4412SOL    HW124872   4.596   1.573   9.067 -1.3384  1.4020 -0.0927
 4412SOL    HW224873   4.541   1.452   9.101  1.1860 -0.2380 -0.1474
 4413SOL     OW24874   1.293   3.106  15.803  0.3362 -0.4012  0.6516
 4413SOL    HW124875   1.371   3.102  15.858  0.9999  0.3395 -0.2354
 4413SOL    HW224876   1.226   3.166  15.833  0.8422  1.0118 -1.0306
 4414SOL     OW24877   2.318   3.360   8.269  0.1395  0.5903  0.3669
 4414SOL    HW124878   2.290   3.360   8.178 -1.4220 -0.0470  0.8527
 4414SOL    HW224879   2.301   3.271   8.301 -1.0565  1.0674  1.0415
 4415SOL     OW24880   3.901   4.305  17.222 -0.4811  0.5582  0.8637
 4415SOL    HW124881   3.995   4.322  17.214 -0.1299 -2.2633 -0.9269
 4415SOL    HW224882   3.891   4.210  17.209 -1.5614  0.8216 -0.2285
 4416SOL     OW24883   4.699   2.739   6.232 -0.0116  0.7340  0.8006
 4416SOL    HW124884   4.669   2.763   6.145  1.3716  1.8942  0.6345
 4416SOL    HW224885   4.653   2.788   6.301  0.7278  0.9174  1.1712
 4417SOL     OW24886   3.567   4.727   5.321 -0.5925 -0.5208  0.3705
 4417SOL    HW124887   3.580   0.082   5.347 -1.9191  0.3832 -2.2285
 4417SOL    HW224888   3.648   4.699   5.364 -0.1320  0.7197  0.3247
 4418SOL     OW24889   0.528   2.401   4.868 -0.4005  0.0170  0.3380
 4418SOL    HW124890   0.524   2.474   4.929 -0.0534  1.6997 -1.6408
 4418SOL    HW224891   0.474   2.446   4.803 -0.0583 -1.1882 -0.7781
 4419SOL     OW24892   0.488   3.977  12.725  0.5847 -0.0362  0.0436
 4419SOL    HW124893   0.469   4.067  12.699  0.8675 -0.4295 -1.4913
 4419SOL    HW224894   0.530   3.987  12.811  0.9736 -2.1050  0.1007
 4420SOL     OW24895   4.398   3.317   7.710  0.0041  0.1625 -0.7724
 4420SOL    HW124896   4.359   3.262   7.777 -0.2720  1.7175  0.3597
 4420SOL    HW224897   4.350   3.399   7.725 -2.0276 -1.1166 -0.3635
 4421SOL     OW24898   3.814   4.170  11.647  0.4510 -0.1538 -0.1619
 4421SOL    HW124899   3.763   4.151  11.726 -0.0224  3.1569  0.3251
 4421SOL    HW224900   3.842   4.259  11.669  1.0443 -0.0781 -1.2149
 4422SOL     OW24901   2.565   0.284   4.011  0.8307 -0.0723  0.1984
 4422SOL    HW124902   2.485   0.330   4.036  1.8789  0.9909  1.5739
 4422SOL    HW224903   2.584   0.242   4.095 -1.2653 -0.0766  0.6628
 4423SOL     OW24904   2.515   1.093   2.912 -0.1101  0.4987  0.0122
 4423SOL    HW124905   2.430   1.090   2.956 -0.6028 -0.2419 -0.9998
 4423SOL    HW224906   2.562   1.136   2.983  1.1805  2.4147 -2.0002
 4424SOL     OW24907   2.235   1.121  15.227 -0.7897 -0.4007 -0.5265
 4424SOL    HW124908   2.292   1.185  15.185 -2.1357  2.5083  2.0552
 4424SOL    HW224909   2.180   1.111  15.149 -0.3407 -1.1879 -0.7468
 4425SOL     OW24910   0.077   4.660   2.409  0.2830  0.6629  0.3055
 4425SOL    HW124911   0.074   4.576   2.455  0.6568  0.3152 -0.2957
 4425SOL    HW224912   0.107   4.711   2.484 -0.1508  0.0719  0.8780
 4426SOL     OW24913   1.540   2.345   8.732 -0.5042  0.1661  0.8306
 4426SOL    HW124914   1.587   2.423   8.705 -0.7476 -0.1477 -0.5077
 4426SOL    HW224915   1.454   2.371   8.699 -0.3251  1.4438  1.3883
 4427SOL     OW24916   4.293   1.050   6.190  0.1253 -0.7005 -0.3280
 4427SOL    HW124917   4.344   0.993   6.247 -1.3367  0.0631  1.7492
 4427SOL    HW224918   4.362   1.089   6.136 -0.0796  1.4228  0.9756
 4428SOL     OW24919   2.543   3.541   2.820 -0.4160  0.1751 -0.2461
 4428SOL    HW124920   2.622   3.532   2.766 -0.1687 -2.8852  0.5874
 4428SOL    HW224921   2.568   3.592   2.897  1.4789 -0.6549 -0.2968
 4429SOL     OW24922   1.504   2.565   0.213 -0.6947  0.1299 -0.1880
 4429SOL    HW124923   1.486   2.586   0.304  1.0294  0.4075  0.0827
 4429SOL    HW224924   1.418   2.593   0.180  0.2257  1.9340 -1.1044
 4430SOL     OW24925   1.264   2.132   1.742 -0.0069 -0.0421 -0.4581
 4430SOL    HW124926   1.339   2.191   1.755  0.5020 -0.2802 -2.3732
 4430SOL    HW224927   1.200   2.203   1.742 -1.7588 -1.6129  0.1850
 4431SOL     OW24928   4.028   4.221   2.502  0.4304 -0.0420  0.5626
 4431SOL    HW124929   3.947   4.266   2.529  0.3974  1.0007 -1.3255
 4431SOL    HW224930   4.088   4.294   2.496  0.4513 -0.0365  0.8472
 4432SOL     OW24931   3.892   1.774   6.307 -0.0773 -0.7297  0.3170
 4432SOL    HW124932   3.868   1.864   6.286  1.1994 -0.9221 -1.9421
 4432SOL    HW224933   3.876   1.723   6.227 -2.4873  0.2035  0.1969
 4433SOL     OW24934   0.706   0.122   1.941 -0.0122 -0.1699 -0.5955
 4433SOL    HW124935   0.689   0.048   1.883  2.1016 -0.4555 -0.8141
 4433SOL    HW224936   0.645   0.113   2.014 -1.8076  0.3034 -2.0184
 4434SOL     OW24937   1.906   3.531  17.642  0.4996 -0.2221  0.2741
 4434SOL    HW124938   1.924   3.494  17.729 -2.3537  0.0262  0.9781
 4434SOL    HW224939   1.835   3.590  17.667 -0.8466 -0.8060 -2.2389
 4435SOL     OW24940   3.180   2.987   6.323  0.4316 -0.2645  0.0071
 4435SOL    HW124941   3.248   3.027   6.377 -1.0401  1.0600  0.8754
 4435SOL    HW224942   3.099   2.990   6.374  2.1877 -0.2446  2.8044
 4436SOL     OW24943   0.416   0.001  17.084 -0.5406 -0.0486  0.1394
 4436SOL    HW124944   0.337   0.024  17.036  0.6858 -0.8546 -2.2901
 4436SOL    HW224945   0.411   4.643  17.091  1.3875 -0.1221  0.6651
 4437SOL     OW24946   1.462   4.366   1.407  0.1285 -0.6183  0.1275
 4437SOL    HW124947   1.379   4.394   1.368  0.8699 -1.1372 -1.8418
 4437SOL    HW224948   1.516   4.377   1.328 -3.8754  0.2742 -2.4788
 4438SOL     OW24949   1.364   3.441   7.323 -0.3169  0.2480  0.7020
 4438SOL    HW124950   1.432   3.386   7.362  0.6832 -0.3740 -1.9326
 4438SOL    HW224951   1.298   3.384   7.283 -0.7014  0.3001  1.2565
 4439SOL     OW24952   1.566   2.803   7.153 -0.0610  0.2198  0.1125
 4439SOL    HW124953   1.658   2.777   7.160  0.2910  1.2258 -0.8652
 4439SOL    HW224954   1.525   2.779   7.236  2.1264  0.1009  1.1699
 4440SOL     OW24955   2.700   2.317   2.670 -0.7096  0.2079  0.0494
 4440SOL    HW124956   2.627   2.256   2.682 -0.1987 -0.2880  0.6922
 4440SOL    HW224957   2.774   2.257   2.684  0.5970  1.7187 -0.3673
 4441SOL     OW24958   4.445   0.135   5.540 -0.5209  0.1544 -0.2201
 4441SOL    HW124959   4.407   0.149   5.453  0.0291 -3.5836 -1.0909
 4441SOL    HW224960   4.422   0.045   5.564 -2.4899  0.2442 -1.7965
 4442SOL     OW24961   0.484   3.750   8.331 -0.2604  0.6741 -0.0489
 4442SOL    HW124962   0.545   3.781   8.397 -1.4387  1.2769  0.7619
 4442SOL    HW224963   0.408   3.741   8.389 -1.5589 -0.8331 -1.9532
 4443SOL     OW24964   3.114   2.433   7.223 -0.1654 -0.0349  0.1856
 4443SOL    HW124965   3.068   2.387   7.293 -0.8130 -1.1034 -0.9452
 4443SOL    HW224966   3.198   2.388   7.216 -0.9614 -1.2627 -1.4837
 4444SOL     OW24967   2.241   4.705   1.231 -0.5679  0.2004  0.1020
 4444SOL    HW124968   2.158   4.668   1.260 -2.4458  1.7394 -3.4180
 4444SOL    HW224969   2.296   4.637   1.270 -0.5584  0.4098  0.4582
 4445SOL     OW24970   3.207   1.855   4.541  0.4294 -0.8474 -0.1034
 4445SOL    HW124971   3.193   1.838   4.635 -0.4730  0.2024 -0.0397
 4445SOL    HW224972   3.165   1.937   4.518 -1.1570 -1.9584 -1.1773
 4446SOL     OW24973   1.763   1.110   4.002 -0.1014 -0.1726 -0.2414
 4446SOL    HW124974   1.741   1.190   3.954  0.5260 -1.2794 -2.3466
 4446SOL    HW224975   1.846   1.090   3.961  0.6491 -0.7113  1.5500
 4447SOL     OW24976   2.927   4.326   7.263 -0.1703 -0.3514 -0.3451
 4447SOL    HW124977   2.870   4.352   7.336 -0.6636 -0.7113 -0.6058
 4447SOL    HW224978   2.965   4.407   7.230 -1.6525  0.7667  0.6875
 4448SOL     OW24979   1.753   4.489   7.473 -0.1508 -0.5247  0.1934
 4448SOL    HW124980   1.681   4.550   7.488  1.2253  0.8553  1.0514
 4448SOL    HW224981   1.779   4.456   7.559  0.1100 -1.1297 -0.1135
 4449SOL     OW24982   0.977   3.056  12.147  0.0214  0.1940  0.3736
 4449SOL    HW124983   0.986   3.077  12.240 -0.7281  0.8893  0.2894
 4449SOL    HW224984   0.971   2.961  12.156 -1.2018  0.2855  0.6290
 4450SOL     OW24985   2.131   2.397   6.500 -0.9335  0.6537  0.6088
 4450SOL    HW124986   2.177   2.315   6.484  0.3431  1.0354  2.2269
 4450SOL    HW224987   2.040   2.367   6.498 -0.8189  0.2857  1.0082
 4451SOL     OW24988   2.223   0.616   3.110  0.0451  0.1726 -0.0956
 4451SOL    HW124989   2.241   0.525   3.134  0.8712  0.6308  1.0248
 4451SOL    HW224990   2.307   0.659   3.128 -0.8336  1.2635  1.4194
 4452SOL     OW24991   0.364   0.066  16.022 -0.5612  0.1780 -0.8476
 4452SOL    HW124992   0.450   0.081  16.061 -1.2361  0.9174  0.3556
 4452SOL    HW224993   0.370   4.708  16.003  3.9954  0.5798 -1.2459
 4453SOL     OW24994   0.290   4.340   3.380 -0.4721  0.4146 -0.2088
 4453SOL    HW124995   0.356   4.358   3.313  1.2664 -1.1349  1.0987
 4453SOL    HW224996   0.297   4.246   3.398  0.2856  0.5310  0.0961
 4454SOL     OW24997   1.081   1.722   2.609  0.0596  0.9058  0.4705
 4454SOL    HW124998   1.043   1.665   2.542  2.3551  0.2457 -0.3030
 4454SOL    HW224999   1.080   1.666   2.687 -0.4731 -1.3115 -1.1040
 4455SOL     OW25000   2.824   2.870  11.946 -0.2483  0.1144  0.3157
 4455SOL    HW125001   2.758   2.932  11.978 -0.2829 -0.3623  1.1572
 4455SOL    HW225002   2.773   2.827  11.877  0.5469  1.6877 -1.2671
 4456SOL     OW25003   4.542   2.564   5.717 -0.1103 -0.4415 -0.7035
 4456SOL    HW125004   4.517   2.532   5.804  1.2848  1.2219  0.2991
 4456SOL    HW225005   4.475   2.510   5.675 -2.1529  0.4490  1.3898
 4457SOL     OW25006   3.598   4.050   3.551  0.0758 -0.4521 -0.2276
 4457SOL    HW125007   3.665   3.996   3.509 -0.3429  0.2665 -1.8391
 4457SOL    HW225008   3.560   3.979   3.603  0.8898  0.7486  2.0208
 4458SOL     OW25009   1.301   4.180   6.503  0.0584 -0.6944  0.2425
 4458SOL    HW125010   1.278   4.087   6.500 -1.4652 -0.2870 -0.9679
 4458SOL    HW225011   1.283   4.210   6.414  1.5210 -3.4420 -0.9941
 4459SOL     OW25012   2.262   3.890   4.554  0.1114 -0.0809  0.0550
 4459SOL    HW125013   2.334   3.908   4.493  2.0761 -4.0437  1.1968
 4459SOL    HW225014   2.188   3.884   4.494 -0.1977  2.9341  0.1219
 4460SOL     OW25015   0.777   2.773   4.906  0.0447  0.1112 -0.1982
 4460SOL    HW125016   0.757   2.786   4.813 -3.5663 -0.0745  0.5172
 4460SOL    HW225017   0.857   2.824   4.916  0.3665 -0.2207 -1.1063
 4461SOL     OW25018   3.635   0.888  11.700  0.0689  0.5632  0.7066
 4461SOL    HW125019   3.655   0.976  11.731  0.5814  0.7478 -0.1486
 4461SOL    HW225020   3.686   0.886  11.620  1.1986  0.7297  1.4266
 4462SOL     OW25021   3.524   2.852   8.352 -0.2087  0.1738 -0.3874
 4462SOL    HW125022   3.446   2.830   8.300 -0.9983 -1.1347  1.3369
 4462SOL    HW225023   3.547   2.930   8.301  0.0314  0.8260  0.7385
 4463SOL     OW25024   0.112   2.730   2.135 -0.0147  0.3511  0.2665
 4463SOL    HW125025   0.140   2.816   2.103 -1.1242 -0.3650 -2.6317
 4463SOL    HW225026   0.111   2.764   2.225  2.9517  1.3070 -0.0645
 4464SOL     OW25027   3.223   2.311   5.997 -0.1873  0.2192  0.5927
 4464SOL    HW125028   3.242   2.404   5.984  2.4797 -0.8214 -2.9771
 4464SOL    HW225029   3.256   2.273   5.916 -1.8764  0.4708 -0.2318
 4465SOL     OW25030   1.578   0.128   1.395 -0.2033  0.4969 -0.0661
 4465SOL    HW125031   1.662   0.118   1.350  0.6737  0.9075  1.4898
 4465SOL    HW225032   1.515   0.076   1.345 -1.1085 -0.2040  1.7910
 4466SOL     OW25033   2.648   4.339   7.804 -0.4270 -0.2058 -0.0821
 4466SOL    HW125034   2.631   4.431   7.784  0.9509  0.1382  0.3017
 4466SOL    HW225035   2.568   4.308   7.844 -0.7589  1.2570  0.3804
 4467SOL     OW25036   0.937   4.381  13.777 -0.1773  0.4912  0.1085
 4467SOL    HW125037   0.953   4.364  13.684 -1.6379 -1.4305  0.2354
 4467SOL    HW225038   1.003   4.446  13.803 -2.5844  1.7189  3.0934
 4468SOL     OW25039   2.888   0.273   2.847 -0.3171 -0.5549  0.4215
 4468SOL    HW125040   2.982   0.256   2.850 -0.0589  0.6065 -1.1470
 4468SOL    HW225041   2.859   0.191   2.807 -0.6163  0.7659 -2.0783
 4469SOL     OW25042   2.257   0.980  15.947  0.0690 -0.0996  0.1434
 4469SOL    HW125043   2.191   1.022  15.892 -1.8559 -2.5778  0.5886
 4469SOL    HW225044   2.211   0.974  16.031 -0.0440  3.5207  0.3209
 4470SOL     OW25045   4.695   1.572   5.700 -0.8120  0.1797 -0.4699
 4470SOL    HW125046   4.716   1.481   5.720 -1.7444 -0.0657 -0.6105
 4470SOL    HW225047   4.717   1.567   5.607  0.4921  1.1196 -0.2252
 4471SOL     OW25048   3.729   0.192   2.531  0.1900 -0.3535  0.3710
 4471SOL    HW125049   3.639   0.217   2.507  0.5214  1.2344  0.7551
 4471SOL    HW225050   3.703   0.103   2.554  0.1257 -0.3797  0.1969
 4472SOL     OW25051   4.534   3.952   6.998 -0.4231 -0.2926 -0.1420
 4472SOL    HW125052   4.512   4.043   7.020  0.2874 -0.2004  0.2066
 4472SOL    HW225053   4.476   3.907   7.058 -0.5313 -0.7872 -0.6163
 4473SOL     OW25054   1.702   4.084  11.677  0.0897 -0.0041  0.3564
 4473SOL    HW125055   1.780   4.030  11.689 -2.0735 -2.8782  1.6016
 4473SOL    HW225056   1.724   4.144  11.748 -1.0771  0.6285  0.1789
 4474SOL     OW25057   3.251   3.567  14.452 -0.3607  0.1681 -0.0557
 4474SOL    HW125058   3.307   3.565  14.530 -1.6448 -0.9949  0.8331
 4474SOL    HW225059   3.194   3.641  14.473 -0.0994  0.6146 -0.9430
 4475SOL     OW25060   1.147   0.075   8.298 -0.2477  0.1955  0.4815
 4475SOL    HW125061   1.193   4.727   8.307  0.6675  0.5311 -1.1625
 4475SOL    HW225062   1.182   0.119   8.375  0.4163  0.6563 -0.0856
 4476SOL     OW25063   2.724   0.459   7.354  0.6267 -1.1243  0.3185
 4476SOL    HW125064   2.684   0.472   7.267  2.9767  1.5976 -0.3478
 4476SOL    HW225065   2.803   0.417   7.320  0.9714  2.1611 -2.9999
 4477SOL     OW25066   3.169   0.520   3.499 -0.1208 -0.1615 -0.0789
 4477SOL    HW125067   3.217   0.584   3.552 -0.8360 -0.2527  0.6795
 4477SOL    HW225068   3.114   0.477   3.563  0.9374 -0.1624  0.8222
 4478SOL     OW25069   1.121   1.197  17.500  0.3171  0.0830  0.3837
 4478SOL    HW125070   1.203   1.148  17.501  0.2161 -0.0961 -0.5444
 4478SOL    HW225071   1.152   1.283  17.529 -1.9873  1.7042 -1.9266
 4479SOL     OW25072   4.507   2.476  12.003 -0.1906 -0.1972 -0.3338
 4479SOL    HW125073   4.599   2.492  12.021  0.6005 -0.3330 -4.3773
 4479SOL    HW225074   4.486   2.413  12.072  0.3357  0.3465  0.3268
 4480SOL     OW25075   0.141   1.082   8.340  0.6126 -0.2315  0.2135
 4480SOL    HW125076   0.165   1.157   8.286  1.7038  0.6715  1.9611
 4480SOL    HW225077   0.103   1.021   8.277  0.9036  0.7283 -0.8785
 4481SOL     OW25078   0.077   2.443   5.790 -0.6120  0.1768  0.0722
 4481SOL    HW125079   0.104   2.458   5.881 -2.0907 -1.4278  0.7771
 4481SOL    HW225080   0.035   2.358   5.801  0.6788 -0.4281  0.2900
 4482SOL     OW25081   1.407   4.329  14.722 -0.3612 -0.1345 -0.0068
 4482SOL    HW125082   1.378   4.254  14.671  0.1175 -0.1795 -0.2010
 4482SOL    HW225083   1.332   4.388  14.712  0.1607  0.6257  0.5344
 4483SOL     OW25084   3.413   2.285   6.206 -0.2436  0.3629 -0.0174
 4483SOL    HW125085   3.474   2.358   6.193  0.5415 -0.4211 -0.7663
 4483SOL    HW225086   3.367   2.277   6.122  0.6968 -1.9638 -0.3006
 4484SOL     OW25087   3.622   0.522   6.074  0.4128 -0.1924  0.3560
 4484SOL    HW125088   3.607   0.445   6.129  1.4672 -2.2023 -2.2092
 4484SOL    HW225089   3.676   0.489   6.002 -2.4750 -3.3635 -0.3165
 4485SOL     OW25090   1.128   1.774   4.374 -0.1944 -0.1436 -0.0475
 4485SOL    HW125091   1.180   1.853   4.385 -2.4836  1.3722 -0.1194
 4485SOL    HW225092   1.145   1.766   4.280 -0.3637  0.9365 -0.1702
 4486SOL     OW25093   3.362   1.942   2.373 -0.1542 -0.0871  0.0570
 4486SOL    HW125094   3.423   1.947   2.447 -1.4017 -3.2208  1.3303
 4486SOL    HW225095   3.302   1.870   2.395 -0.7290  0.8074  1.4117
 4487SOL     OW25096   3.791   3.728   1.220  0.1693  0.1754  0.1097
 4487SOL    HW125097   3.755   3.806   1.263 -0.3116  0.7359 -1.2901
 4487SOL    HW225098   3.840   3.685   1.290  1.3741  0.0877 -0.7784
 4488SOL     OW25099   0.222   1.331  17.142  0.1707 -0.2917 -0.1384
 4488SOL    HW125100   0.274   1.264  17.186  1.0443  0.3693 -0.1635
 4488SOL    HW225101   0.217   1.294  17.053 -2.5795  1.0126 -0.5233
 4489SOL     OW25102   0.088   0.617   2.076  0.1348 -0.4578 -0.2455
 4489SOL    HW125103   0.100   0.549   2.142 -0.4825 -0.1725  0.1693
 4489SOL    HW225104   0.011   0.580   2.033 -0.2768 -0.8396  0.8114
 4490SOL     OW25105   0.414   1.770  15.931  0.0587  0.2394  0.1427
 4490SOL    HW125106   0.421   1.710  16.005 -0.2674  0.4338  0.3315
 4490SOL    HW225107   0.488   1.739  15.878 -0.4338 -1.5174  0.4983
 4491SOL     OW25108   3.170   0.724   6.940  0.1494 -0.0273  0.4975
 4491SOL    HW125109   3.117   0.801   6.920 -0.0652 -0.1813  0.4717
 4491SOL    HW225110   3.129   0.711   7.026 -0.4365  0.0823  0.2341
 4492SOL     OW25111   0.007   1.022   7.674  0.5301 -0.0921  0.1687
 4492SOL    HW125112   4.656   0.987   7.662  0.5146  0.1167 -0.3057
 4492SOL    HW225113   0.052   0.941   7.651 -1.3323 -0.4037 -2.3408
 4493SOL     OW25114   2.606   1.855   9.083  0.0770 -0.0180  0.0551
 4493SOL    HW125115   2.698   1.850   9.057  0.3770  1.1093  0.8877
 4493SOL    HW225116   2.598   1.765   9.112  1.1183  0.5224  2.0033
 4494SOL     OW25117   2.813   3.708   1.344  0.5561  0.2552  0.0745
 4494SOL    HW125118   2.850   3.677   1.261 -2.2860 -0.0298 -1.0646
 4494SOL    HW225119   2.833   3.800   1.327  2.2081  0.0366  0.8010
 4495SOL     OW25120   2.750   3.163   4.225 -0.5465  0.0108  0.5241
 4495SOL    HW125121   2.746   3.245   4.175 -2.0614  1.1051  2.4173
 4495SOL    HW225122   2.716   3.111   4.152 -0.0641  0.2928  0.1037
 4496SOL     OW25123   0.755   1.954   5.014  0.6660 -0.3265 -0.2477
 4496SOL    HW125124   0.815   1.940   4.941 -0.4675 -0.9046 -1.0606
 4496SOL    HW225125   0.685   2.005   4.975 -0.2389 -1.3710  0.0250
 4497SOL     OW25126   0.430   2.956   7.600 -0.3185  0.1657 -0.0924
 4497SOL    HW125127   0.416   2.937   7.693 -1.6625  1.3103 -0.0501
 4497SOL    HW225128   0.510   2.906   7.586 -0.4985 -0.1972  0.1858
 4498SOL     OW25129   0.656   4.406  11.993  0.2357 -0.4474  0.1120
 4498SOL    HW125130   0.743   4.440  12.013  0.5216 -2.0739  1.6965
 4498SOL    HW225131   0.594   4.440  12.057  0.9669  0.5717  0.2639
 4499SOL     OW25132   0.800   1.315   5.242 -0.6116  0.6688  0.3845
 4499SOL    HW125133   0.751   1.290   5.164  0.0547  1.6343 -0.3334
 4499SOL    HW225134   0.778   1.407   5.231  1.3464  1.1443  0.4501
 4500SOL     OW25135   2.514   3.784   4.111 -0.2111 -0.3041  0.1922
 4500SOL    HW125136   2.598   3.799   4.069  0.5750 -0.0519  1.8551
 4500SOL    HW225137   2.476   3.708   4.067  1.8415 -1.2237  0.0423
 4501SOL     OW25138   4.494   1.364   0.708  0.6772 -0.0416  0.4339
 4501SOL    HW125139   4.463   1.419   0.781  0.7756 -1.0098  1.2063
 4501SOL    HW225140   4.583   1.398   0.700  0.2978  1.0366  0.6959
 4502SOL     OW25141   3.370   4.700   7.944 -0.0314  0.0665  0.1329
 4502SOL    HW125142   3.429   4.645   7.893 -1.6708 -0.4095 -1.2774
 4502SOL    HW225143   3.368   0.033   7.878  0.1284 -1.0694 -1.0756
 4503SOL     OW25144   2.537   4.447   8.676  0.0879  0.2397 -0.3079
 4503SOL    HW125145   2.566   4.486   8.758 -0.1009 -0.7623  0.2386
 4503SOL    HW225146   2.506   4.366   8.718  1.3169 -0.0245  0.0931
 4504SOL     OW25147   3.215   0.676  17.349  0.1992  0.0961  0.2243
 4504SOL    HW125148   3.292   0.619  17.358 -1.0819 -1.9685 -1.9729
 4504SOL    HW225149   3.245   0.739  17.284 -2.0700  1.8010  0.8304
 4505SOL     OW25150   1.039   2.152   7.941 -0.3960  0.2121 -0.1644
 4505SOL    HW125151   1.038   2.138   7.847  1.6344 -0.0983 -0.1467
 4505SOL    HW225152   1.132   2.155   7.966 -1.4724 -0.1960  3.9354
 4506SOL     OW25153   2.201   0.854   7.380  0.1832  0.5974  0.1981
 4506SOL    HW125154   2.246   0.920   7.327  0.5401 -0.7189 -1.1163
 4506SOL    HW225155   2.173   0.912   7.451  1.7502  2.0879 -0.3948
 4507SOL     OW25156   0.337   3.207   7.820  0.1800 -0.2875 -0.3275
 4507SOL    HW125157   0.377   3.170   7.898  0.8560 -0.9358 -0.9820
 4507SOL    HW225158   0.382   3.291   7.809 -1.0934  0.6923  1.9065
 4508SOL     OW25159   2.065   0.519  13.776 -0.1420  0.3437 -0.3193
 4508SOL    HW125160   2.152   0.483  13.762 -0.0310  0.4484  0.1174
 4508SOL    HW225161   2.058   0.578  13.701  1.0166  1.0155  0.1116
 4509SOL     OW25162   3.092   0.186   1.630 -0.2547  0.4010 -0.8901
 4509SOL    HW125163   2.999   0.186   1.654  0.5930 -1.7668  2.4068
 4509SOL    HW225164   3.117   0.267   1.674  0.0381 -0.6936  0.9538
 4510SOL     OW25165   1.590   3.926  12.600  0.3088 -0.1110 -0.2612
 4510SOL    HW125166   1.679   3.935  12.636  0.4277  0.7974 -0.7929
 4510SOL    HW225167   1.603   3.850  12.544 -1.0084  0.1350 -0.8918
 4511SOL     OW25168   2.299   0.102   6.031  0.3168 -0.1106 -0.0718
 4511SOL    HW125169   2.374   0.050   6.000 -0.0827  0.3362 -1.8091
 4511SOL    HW225170   2.300   0.098   6.126 -1.2392  0.9784 -0.0130
 4512SOL     OW25171   2.854   3.212   5.307  0.7091  0.2606 -0.4772
 4512SOL    HW125172   2.938   3.230   5.350  0.9614 -1.5017 -0.2118
 4512SOL    HW225173   2.800   3.289   5.323  0.9335  0.4858 -0.8038
 4513SOL     OW25174   2.060   3.792   7.789  0.6279 -0.0480 -0.1153
 4513SOL    HW125175   2.018   3.781   7.874 -0.1101  1.3482 -0.3050
 4513SOL    HW225176   2.095   3.881   7.795 -0.3197  0.3345 -0.3087
 4514SOL     OW25177   1.013   3.961  12.267  0.4584  0.3803  0.1310
 4514SOL    HW125178   1.006   3.904  12.191 -0.3075 -2.0016  1.9951
 4514SOL    HW225179   1.106   3.952  12.287  1.0136  0.7809 -2.2832
 4515SOL     OW25180   4.449   3.779  10.687  0.1469 -0.3159 -0.9366
 4515SOL    HW125181   4.395   3.769  10.765  1.7236  1.9945  0.4454
 4515SOL    HW225182   4.528   3.812  10.730 -1.7291  0.6498  1.7589
 4516SOL     OW25183   3.926   4.579  10.145 -0.0838  0.6345 -0.0602
 4516SOL    HW125184   4.011   4.535  10.155 -0.9708 -0.8104  0.9329
 4516SOL    HW225185   3.868   4.516  10.104  2.6319 -0.7132 -1.8775
 4517SOL     OW25186   3.259   1.468   3.642 -0.3890 -0.1666  0.4435
 4517SOL    HW125187   3.183   1.419   3.609  0.8424 -2.1440  0.5252
 4517SOL    HW225188   3.229   1.558   3.653  1.1952  0.3870  0.3178
 4518SOL     OW25189   1.348   3.580   8.838  0.6079  0.0628 -0.3110
 4518SOL    HW125190   1.292   3.529   8.897  3.3819 -2.7783 -0.0967
 4518SOL    HW225191   1.297   3.561   8.759  0.2430 -0.6427  0.0888
 4519SOL     OW25192   2.154   0.258  12.862  0.4742 -0.0523 -0.1321
 4519SOL    HW125193   2.232   0.203  12.872  0.0552 -0.8445 -1.2884
 4519SOL    HW225194   2.114   0.248  12.948  0.4391 -0.7742 -0.2347
 4520SOL     OW25195   2.344   1.112  16.778  0.3635  0.1417  0.4395
 4520SOL    HW125196   2.376   1.185  16.724  0.7753 -0.0855  0.3760
 4520SOL    HW225197   2.332   1.057  16.701  1.8873 -1.0985  1.0937
 4521SOL     OW25198   2.194   4.724  14.514 -0.7396  0.1919 -0.3065
 4521SOL    HW125199   2.185   4.646  14.461  0.7227  0.0247 -0.3088
 4521SOL    HW225200   2.271   0.034  14.481 -0.7678  2.6308  3.0464
 4522SOL     OW25201   3.166   4.448   5.840 -0.1682 -0.1554  0.5328
 4522SOL    HW125202   3.217   4.369   5.823 -1.5657 -1.3915  1.9593
 4522SOL    HW225203   3.167   4.429   5.934 -0.5848  0.0469  0.5787
 4523SOL     OW25204   2.683   2.190  16.127  0.4963 -0.3308 -0.1188
 4523SOL    HW125205   2.779   2.187  16.122  0.6126  0.1905  1.9406
 4523SOL    HW225206   2.672   2.123  16.195  0.8520 -1.8003 -1.4816
 4524SOL     OW25207   2.212   2.733   5.967  0.3219  0.2085 -0.0965
 4524SOL    HW125208   2.121   2.760   5.959 -0.0671 -1.6495 -1.8624
 4524SOL    HW225209   2.265   2.812   5.951  1.8737 -1.3885 -2.9028
 4525SOL     OW25210   3.902   3.600   4.014  0.0315  0.0176  0.6320
 4525SOL    HW125211   3.988   3.559   4.008 -0.4958 -1.0206  0.1099
 4525SOL    HW225212   3.850   3.566   3.941 -1.4683 -0.1694  1.7969
 4526SOL     OW25213   1.914   4.721   7.516 -0.1039  0.2030  0.0031
 4526SOL    HW125214   1.865   0.034   7.581 -0.4729  1.1217 -0.9837
 4526SOL    HW225215   1.845   4.660   7.490  0.0374 -0.1919  0.5631
 4527SOL     OW25216   4.510   4.488   2.335 -0.0785 -0.4495 -0.3124
 4527SOL    HW125217   4.602   4.460   2.335 -0.5220 -1.8874  1.2421
 4527SOL    HW225218   4.478   4.453   2.418 -0.8042  0.9757 -0.0040
 4528SOL     OW25219   3.318   1.188  11.016 -0.1714  0.1793 -0.6387
 4528SOL    HW125220   3.251   1.214  10.952 -2.1724 -1.9880  0.5643
 4528SOL    HW225221   3.377   1.264  11.018  0.2398 -0.1319 -0.9906
 4529SOL     OW25222   0.905   0.222   7.778 -0.4441 -0.2638 -0.0934
 4529SOL    HW125223   0.994   0.186   7.778 -0.7580 -1.0423  1.4019
 4529SOL    HW225224   0.873   0.186   7.695 -1.0492  0.5872 -0.2262
 4530SOL     OW25225   2.715   2.479   6.436  0.2689  0.6427 -0.2807
 4530SOL    HW125226   2.762   2.502   6.517 -3.7213  1.6004  1.7491
 4530SOL    HW225227   2.645   2.544   6.428  0.4961  0.5551 -2.6979
 4531SOL     OW25228   1.298   2.549   3.476 -0.4779  0.1391 -0.7976
 4531SOL    HW125229   1.324   2.532   3.386 -4.5170 -1.9127 -1.5548
 4531SOL    HW225230   1.376   2.596   3.505 -0.4164 -0.8712  0.7035
 4532SOL     OW25231   2.031   2.088   1.823  0.3106 -0.0065 -0.2264
 4532SOL    HW125232   1.937   2.102   1.817  0.5153  1.5420  0.1174
 4532SOL    HW225233   2.033   1.993   1.833 -0.3187  0.0082  0.0311
 4533SOL     OW25234   0.755   0.711   7.681 -0.1452  0.2040  0.4509
 4533SOL    HW125235   0.779   0.621   7.701  0.5959  0.3524  0.2283
 4533SOL    HW225236   0.801   0.721   7.598 -0.6219 -1.3717  0.0123
 4534SOL     OW25237   1.921   1.054   8.256  0.3615  0.3163 -0.1769
 4534SOL    HW125238   1.902   0.963   8.235  0.2454  0.0755  1.0222
 4534SOL    HW225239   1.903   1.096   8.171 -0.2934  0.6868  0.1464
 4535SOL     OW25240   2.308   2.038   8.075  0.1813 -0.3112  0.2669
 4535SOL    HW125241   2.315   2.071   7.986 -1.6223 -0.2117  0.1613
 4535SOL    HW225242   2.351   2.106   8.127  0.4723 -0.5053  0.2819
 4536SOL     OW25243   2.969   3.803  10.981 -0.1022 -1.3260 -0.5950
 4536SOL    HW125244   2.888   3.787  11.029 -0.0596  1.4176  0.4118
 4536SOL    HW225245   2.931   3.838  10.901  0.6267 -0.3617 -0.5313
 4537SOL     OW25246   1.802   1.920   9.404  0.1326 -0.1078  0.1388
 4537SOL    HW125247   1.789   2.008   9.369  0.5384 -0.3538 -0.6360
 4537SOL    HW225248   1.728   1.881   9.358  0.1773 -1.2450  1.0232
 4538SOL     OW25249   0.451   3.984   0.978 -0.0977 -0.0378 -0.0903
 4538SOL    HW125250   0.455   3.909   1.038 -1.0652  0.4046  0.5286
 4538SOL    HW225251   0.444   3.938   0.894  0.8449 -0.6665  0.1760
 4539SOL     OW25252   2.631   2.406   8.053  0.4822 -0.1380  0.3920
 4539SOL    HW125253   2.565   2.473   8.038  1.5663  1.1488  1.2921
 4539SOL    HW225254   2.668   2.422   7.966 -1.5525 -0.5305 -0.5401
 4540SOL     OW25255   3.221   3.959   2.075  0.2753  0.4526 -0.3591
 4540SOL    HW125256   3.206   4.041   2.122 -0.8545  0.1989 -0.2784
 4540SOL    HW225257   3.158   3.894   2.105 -0.5834  1.3387 -0.2649
 4541SOL     OW25258   3.936   4.176   7.717 -0.1972 -0.7779 -0.1069
 4541SOL    HW125259   4.013   4.229   7.738 -0.2301 -0.8128  0.1009
 4541SOL    HW225260   3.978   4.094   7.741  0.5360  0.2111  1.9916
 4542SOL     OW25261   3.073   3.116   7.335 -0.2436 -0.4345  0.0196
 4542SOL    HW125262   3.082   3.184   7.402  0.1327 -1.8524  1.4032
 4542SOL    HW225263   3.008   3.156   7.277 -0.4983 -0.5210  0.2466
 4543SOL     OW25264   1.333   3.305  14.261 -0.0729  0.1142 -0.0623
 4543SOL    HW125265   1.323   3.291  14.167 -0.1255  0.8166 -0.1608
 4543SOL    HW225266   1.287   3.228  14.293  1.2682 -0.5737  0.2173
 4544SOL     OW25267   2.994   3.946   3.583  0.0636 -0.5653  0.2851
 4544SOL    HW125268   3.037   3.956   3.668  1.2990  3.1467 -0.7957
 4544SOL    HW225269   2.911   3.907   3.609 -1.0824  2.0785  0.5714
 4545SOL     OW25270   2.365   2.540   7.713 -0.0308  0.4966 -0.4901
 4545SOL    HW125271   2.338   2.476   7.778 -2.1287  0.8613 -0.9884
 4545SOL    HW225272   2.415   2.592   7.776  0.7583  0.8467 -1.4097
 4546SOL     OW25273   3.842   1.527  14.560 -0.0609  0.0647  0.1623
 4546SOL    HW125274   3.782   1.558  14.492  0.4051  1.3143  0.3168
 4546SOL    HW225275   3.809   1.440  14.583  1.9040 -0.5146  0.7825
 4547SOL     OW25276   2.664   1.042   5.119 -0.1452  0.2261 -0.1772
 4547SOL    HW125277   2.608   1.046   5.042  0.4011 -1.4782 -0.6556
 4547SOL    HW225278   2.593   1.014   5.177  0.6235 -0.4050  0.4642
 4548SOL     OW25279   3.676   0.454  10.468  0.1104 -0.1817 -0.1421
 4548SOL    HW125280   3.728   0.467  10.547 -0.2437 -0.6525  0.1685
 4548SOL    HW225281   3.596   0.411  10.496  0.5082 -0.7930  0.0625
 4549SOL     OW25282   4.017   4.387  12.968 -0.0769  0.2189  0.0143
 4549SOL    HW125283   4.091   4.347  12.922  0.6145  0.3055  1.0706
 4549SOL    HW225284   4.042   4.474  13.000 -0.7292  0.1054  0.8231
 4550SOL     OW25285   3.068   0.222   4.541 -0.4530  0.7560 -0.2708
 4550SOL    HW125286   3.047   0.314   4.526 -1.0284  0.2836 -2.3447
 4550SOL    HW225287   3.157   0.215   4.506 -0.5950 -1.9803 -0.1322
 4551SOL     OW25288   2.996   2.714  12.071  0.1634  0.4803 -0.2275
 4551SOL    HW125289   2.962   2.724  12.160  1.6888  0.7271  0.3258
 4551SOL    HW225290   2.943   2.778  12.024  0.6008  2.2850  1.7467
 4552SOL     OW25291   1.671   4.700   4.593  0.2805  0.3859 -0.3107
 4552SOL    HW125292   1.677   0.060   4.597 -1.6025  0.4637  0.5304
 4552SOL    HW225293   1.750   4.676   4.544 -0.4336 -0.9134 -0.8177
 4553SOL     OW25294   1.211   1.769   3.653  0.7033  0.2382  0.7341
 4553SOL    HW125295   1.122   1.789   3.680  0.9134  0.8871  0.9463
 4553SOL    HW225296   1.204   1.760   3.558 -0.1575 -1.2358  0.9432
 4554SOL     OW25297   1.937   2.503  16.654  0.4032 -0.7079  0.2265
 4554SOL    HW125298   1.879   2.493  16.579 -2.0093 -0.6353  2.1023
 4554SOL    HW225299   1.879   2.475  16.724 -0.0630 -1.5780 -0.5220
 4555SOL     OW25300   1.092   1.919   6.629 -0.5264 -0.0899  0.2153
 4555SOL    HW125301   0.997   1.922   6.615 -0.5325 -2.1745 -0.2376
 4555SOL    HW225302   1.096   1.898   6.722  1.1866 -0.9433 -0.0629
 4556SOL     OW25303   0.158   3.328   3.513  0.2028 -0.4268 -0.2374
 4556SOL    HW125304   0.239   3.279   3.528  0.9529  0.2849 -1.9490
 4556SOL    HW225305   0.123   3.292   3.431 -1.4702 -3.4087  1.7903
 4557SOL     OW25306   0.896   0.688   6.478  0.6152 -0.4146  0.8004
 4557SOL    HW125307   0.988   0.703   6.500  0.9897 -0.2788 -0.8996
 4557SOL    HW225308   0.909   0.651   6.391 -0.9049  0.9725 -0.0052
 4558SOL     OW25309   1.896   1.428   0.946 -0.0993 -0.1959  0.2938
 4558SOL    HW125310   1.870   1.441   0.855 -0.9115  0.3017  0.5950
 4558SOL    HW225311   1.840   1.493   0.987  0.6394  0.0364  0.9392
 4559SOL     OW25312   3.614   3.988   4.535  0.1338  0.0038  0.6173
 4559SOL    HW125313   3.579   4.025   4.453  0.7034 -1.7453 -0.4167
 4559SOL    HW225314   3.637   3.902   4.499  0.1686 -0.0201  0.6971
 4560SOL     OW25315   3.842   0.021   9.165 -0.2936  0.2056 -0.4853
 4560SOL    HW125316   3.826   0.090   9.230  0.7228 -0.3534  0.3546
 4560SOL    HW225317   3.894   0.062   9.096 -0.9723  1.5937 -0.1755
 4561SOL     OW25318   1.751   4.314   2.654  0.3804  0.4533 -0.2121
 4561SOL    HW125319   1.669   4.343   2.696  0.4630  0.1486  0.1616
 4561SOL    HW225320   1.812   4.308   2.727  0.2419  0.3474 -0.1049
 4562SOL     OW25321   1.891   3.860   2.951 -0.1480  0.9573 -0.2650
 4562SOL    HW125322   1.927   3.851   2.863 -1.0052  0.9155 -0.6164
 4562SOL    HW225323   1.797   3.856   2.934 -0.0991  0.7368 -0.4860
 4563SOL     OW25324   0.823   0.897  14.285  0.3699  0.0357 -0.0024
 4563SOL    HW125325   0.861   0.819  14.245 -2.5900 -0.2362 -2.2747
 4563SOL    HW225326   0.793   0.948  14.210  0.7640 -0.2464 -0.3530
 4564SOL     OW25327   3.211   1.560  13.180  0.5153 -0.1723  0.0061
 4564SOL    HW125328   3.247   1.530  13.096 -2.1501 -2.6461 -0.2448
 4564SOL    HW225329   3.292   1.565  13.230  1.0415  0.3145 -0.8949
 4565SOL     OW25330   1.771   0.389  13.583  0.0899 -0.9394 -0.2221
 4565SOL    HW125331   1.740   0.462  13.530 -0.6673 -0.9316  0.2188
 4565SOL    HW225332   1.855   0.420  13.618 -0.8726  1.2150  0.1833
 4566SOL     OW25333   1.711   2.961   6.651  0.2244 -0.0277  0.1082
 4566SOL    HW125334   1.735   2.951   6.558 -2.6677 -1.4831 -0.4825
 4566SOL    HW225335   1.617   2.948   6.638  0.2765 -0.6940  0.4408
 4567SOL     OW25336   0.968   3.149   5.133 -0.0945  0.0260 -0.0420
 4567SOL    HW125337   0.950   3.243   5.122  0.3408 -0.0888 -1.8133
 4567SOL    HW225338   0.894   3.120   5.078  0.9179 -2.3466 -0.1439
 4568SOL     OW25339   4.453   1.083  16.587  0.3567 -0.0549 -0.4152
 4568SOL    HW125340   4.548   1.093  16.574  0.6204 -1.2203  0.6379
 4568SOL    HW225341   4.437   1.132  16.667 -2.8386 -0.1596 -1.0030
 4569SOL     OW25342   2.635   2.824  11.756  0.1560  0.3008  0.1860
 4569SOL    HW125343   2.599   2.873  11.683  2.5047  0.4252 -0.8477
 4569SOL    HW225344   2.563   2.765  11.781 -0.1038  0.2746 -0.6357
 4570SOL     OW25345   1.455   2.084   4.754 -0.4554 -0.3625  0.0670
 4570SOL    HW125346   1.528   2.121   4.704 -1.8464  0.4938 -1.3344
 4570SOL    HW225347   1.442   2.135   4.834  1.2643  2.1173 -1.1972
 4571SOL     OW25348   3.436   2.274   8.817  0.2684  0.0530 -0.6812
 4571SOL    HW125349   3.513   2.316   8.856 -3.6570  3.7734  3.1706
 4571SOL    HW225350   3.401   2.349   8.769  1.6322 -0.0923 -1.8996
 4572SOL     OW25351   3.541   0.043   8.882  0.8050  0.0392 -0.2223
 4572SOL    HW125352   3.548   0.018   8.790 -0.0516  0.8910 -0.5264
 4572SOL    HW225353   3.583   4.704   8.922  1.6481  0.1010 -1.0000
 4573SOL     OW25354   1.336   0.640  13.726 -0.3237  0.2338  0.0832
 4573SOL    HW125355   1.335   0.591  13.808  2.6145 -0.1150 -0.0949
 4573SOL    HW225356   1.241   0.639  13.711 -0.4190  1.9284  0.5255
 4574SOL     OW25357   4.562   2.218   5.553  0.1146 -0.5529  0.7821
 4574SOL    HW125358   4.614   2.145   5.520  3.3517  2.5324 -1.0004
 4574SOL    HW225359   4.609   2.291   5.512  0.2958 -0.2787  1.4817
 4575SOL     OW25360   1.470   0.118   6.246 -0.2223  0.5147 -0.0672
 4575SOL    HW125361   1.442   0.033   6.211  3.3017 -0.5314 -0.3151
 4575SOL    HW225362   1.501   0.165   6.169 -0.1948  2.9973  1.4762
 4576SOL     OW25363   0.045   2.247   6.206  0.3290  0.2816 -0.0253
 4576SOL    HW125364   0.045   2.342   6.199 -2.3486  0.4093  1.5350
 4576SOL    HW225365   0.046   2.241   6.302  0.3602 -2.3966 -0.1779
 4577SOL     OW25366   2.520   0.611   3.814 -0.3968 -0.1972  0.7229
 4577SOL    HW125367   2.470   0.530   3.824 -1.7978  0.7967  1.8259
 4577SOL    HW225368   2.531   0.609   3.719  0.2612 -1.6281  0.8323
 4578SOL     OW25369   0.599   3.349   4.616  0.5837  0.1277 -0.5482
 4578SOL    HW125370   0.580   3.439   4.642 -0.5141 -0.1818 -0.2495
 4578SOL    HW225371   0.510   3.320   4.595  0.4102 -0.3637  0.8329
 4579SOL     OW25372   0.465   4.370   3.159  0.6793  0.1041  0.5397
 4579SOL    HW125373   0.499   4.291   3.117 -0.7306 -0.3351  0.2281
 4579SOL    HW225374   0.394   4.381   3.097  0.0654 -0.7548  1.0844
 4580SOL     OW25375   1.038   0.525  11.352 -0.7381 -0.0909 -0.3905
 4580SOL    HW125376   1.016   0.562  11.437  0.8820  0.7011 -0.3236
 4580SOL    HW225377   0.954   0.491  11.320 -0.6421 -0.4078 -0.3057
 4581SOL     OW25378   2.705   1.828   5.660  0.3560 -0.2216 -0.1415
 4581SOL    HW125379   2.635   1.885   5.628 -1.0815 -1.9984 -0.1358
 4581SOL    HW225380   2.659   1.795   5.737 -1.1479  0.6383 -0.6793
 4582SOL     OW25381   4.106   3.125   9.726  0.1508 -0.1077  0.5757
 4582SOL    HW125382   4.089   3.039   9.763 -0.5281  0.0810  0.7053
 4582SOL    HW225383   4.056   3.179   9.787 -0.7283 -0.8970  0.5366
 4583SOL     OW25384   2.839   4.393   2.680 -0.1287  0.5267  0.1651
 4583SOL    HW125385   2.763   4.344   2.649 -0.9424  0.9369  1.5228
 4583SOL    HW225386   2.844   4.464   2.617 -1.5875  0.0299 -0.5183
 4584SOL     OW25387   3.278   3.684   5.695  0.4902 -0.2043  0.6524
 4584SOL    HW125388   3.270   3.604   5.643  0.1287 -1.0292  1.9775
 4584SOL    HW225389   3.286   3.748   5.624  0.9986  0.8063  1.6130
 4585SOL     OW25390   1.819   1.834   8.466 -0.3423 -0.5668 -0.3120
 4585SOL    HW125391   1.898   1.888   8.474 -1.4463  1.5921 -4.5354
 4585SOL    HW225392   1.842   1.757   8.519  0.1229  1.1700  2.0232
 4586SOL     OW25393   2.932   3.993   1.963  0.0278  0.3115  0.0551
 4586SOL    HW125394   2.866   3.931   1.932  1.5715 -0.5400 -1.5392
 4586SOL    HW225395   2.971   4.030   1.884 -0.3097 -1.0880 -0.7720
 4587SOL     OW25396   2.791   3.075  13.978  0.5679  0.2271 -0.1109
 4587SOL    HW125397   2.855   3.005  13.967  0.9814  0.7655 -1.1667
 4587SOL    HW225398   2.845   3.150  13.952  1.3894 -0.6158 -0.8430
 4588SOL     OW25399   3.885   1.081   7.027  0.4968  0.5360  0.2701
 4588SOL    HW125400   3.790   1.095   7.018  0.3310 -0.4979  0.4549
 4588SOL    HW225401   3.924   1.125   6.952  0.2428 -0.8110 -0.6524
 4589SOL     OW25402   2.358   3.528   9.726  0.7860  0.8676 -0.1554
 4589SOL    HW125403   2.451   3.509   9.711  1.2687  1.6760  1.8588
 4589SOL    HW225404   2.358   3.546   9.820  0.7865 -1.7803  0.3327
 4590SOL     OW25405   3.455   3.591  16.559  0.3668 -0.6004  0.0558
 4590SOL    HW125406   3.539   3.546  16.567  0.7888  0.0587 -0.7564
 4590SOL    HW225407   3.415   3.562  16.641 -2.8412  1.8553 -0.6783
 4591SOL     OW25408   2.793   0.591   8.656 -0.0324 -0.1713  0.2117
 4591SOL    HW125409   2.754   0.522   8.709 -2.3117  0.9730  0.0136
 4591SOL    HW225410   2.866   0.545   8.614 -0.7467 -0.9739 -0.1583
 4592SOL     OW25411   4.395   1.363   1.332 -0.1917  0.1665  0.2883
 4592SOL    HW125412   4.343   1.426   1.382 -1.1720 -1.1701  0.9714
 4592SOL    HW225413   4.427   1.310   1.405  0.5885  1.0891  0.6203
 4593SOL     OW25414   1.675   2.181   4.650  0.3800 -0.3220 -0.1263
 4593SOL    HW125415   1.726   2.193   4.731  1.1348  1.7910 -0.9168
 4593SOL    HW225416   1.744   2.197   4.586 -0.0626  0.6070 -0.3698
 4594SOL     OW25417   0.203   1.498  14.621 -0.0119  0.4295 -0.0135
 4594SOL    HW125418   0.229   1.482  14.530 -1.1328  1.9739 -0.6000
 4594SOL    HW225419   0.108   1.491  14.612 -0.0106  0.2273  0.1310
 4595SOL     OW25420   1.360   2.268  15.160 -0.5889  0.2001 -0.3002
 4595SOL    HW125421   1.355   2.353  15.116 -0.6322  1.0146  1.2887
 4595SOL    HW225422   1.277   2.231  15.130  0.7772 -2.8012 -0.3009
 4596SOL     OW25423   3.464   4.258   7.484 -0.1500 -0.1157  0.3915
 4596SOL    HW125424   3.503   4.187   7.433 -1.1646  3.0004 -4.7163
 4596SOL    HW225425   3.450   4.315   7.408 -3.0610  1.0112  1.7669
 4597SOL     OW25426   0.122   1.098   3.299  0.3616  0.1405  0.1559
 4597SOL    HW125427   0.040   1.147   3.295  0.2945  0.0210  0.0321
 4597SOL    HW225428   0.096   1.019   3.347  0.9863 -1.6347 -2.3923
 4598SOL     OW25429   3.343   2.011  16.941  0.1810 -0.0302 -0.3281
 4598SOL    HW125430   3.363   1.922  16.912 -0.1761  0.2213 -1.3566
 4598SOL    HW225431   3.294   1.991  17.021  0.1189  0.4092 -0.2575
 4599SOL     OW25432   1.710   2.780   9.170  0.2387 -0.4107  0.2366
 4599SOL    HW125433   1.688   2.839   9.242  2.3906 -0.4148  0.9018
 4599SOL    HW225434   1.743   2.846   9.109 -1.3290 -1.9430 -2.2679
 4600SOL     OW25435   0.938   4.060   2.069 -0.0033 -0.5655 -0.0150
 4600SOL    HW125436   0.919   3.967   2.085 -0.3932 -0.9836 -2.9714
 4600SOL    HW225437   1.034   4.061   2.067 -0.0167  1.2377  0.5403
 4601SOL     OW25438   2.274   0.401   4.237 -0.1869 -0.1850  0.2536
 4601SOL    HW125439   2.180   0.383   4.233 -0.3273  0.4774  0.4800
 4601SOL    HW225440   2.271   0.493   4.211 -2.5921 -1.3855 -3.6481
 4602SOL     OW25441   0.558   2.150   4.945 -0.3979 -0.3443 -0.8351
 4602SOL    HW125442   0.562   2.239   4.912 -2.6168  0.5620  1.3751
 4602SOL    HW225443   0.471   2.145   4.985  0.2638 -1.2901  0.5054
 4603SOL     OW25444   0.123   2.294  15.730 -0.3743  0.1790 -0.2452
 4603SOL    HW125445   0.100   2.353  15.802  1.2622  1.9899 -1.2256
 4603SOL    HW225446   0.097   2.344  15.653 -2.1124  0.4393  0.4971
 4604SOL     OW25447   2.532   0.512   0.855  0.2855 -0.2372 -0.7242
 4604SOL    HW125448   2.449   0.551   0.826 -0.3248 -1.7702 -1.0232
 4604SOL    HW225449   2.589   0.588   0.845  2.1441 -1.6741 -1.0602
 4605SOL     OW25450   2.046   4.038  11.776 -0.3398  0.0677 -0.6815
 4605SOL    HW125451   1.991   4.116  11.769 -1.0063 -0.4518 -1.2375
 4605SOL    HW225452   2.097   4.047  11.696  0.4688 -0.5754 -0.2434
 4606SOL     OW25453   1.743   3.269   5.505  0.2312  0.3666  0.0935
 4606SOL    HW125454   1.717   3.275   5.413 -1.5377 -3.1299  0.3693
 4606SOL    HW225455   1.658   3.287   5.545  0.5599 -0.1314  1.0089
 4607SOL     OW25456   1.614   3.653   8.854  0.1065  1.0589  0.1962
 4607SOL    HW125457   1.519   3.639   8.854  0.2966 -0.2753  0.5880
 4607SOL    HW225458   1.620   3.747   8.870 -1.3757  1.3509 -0.9885
 4608SOL     OW25459   3.868   4.016   2.419  0.3771 -0.3581 -0.0202
 4608SOL    HW125460   3.918   4.092   2.447  0.6048 -0.1435 -1.0205
 4608SOL    HW225461   3.863   4.042   2.327 -0.1626 -0.4051 -0.0067
 4609SOL     OW25462   2.143   1.209  13.189 -0.4711  0.5749  0.1006
 4609SOL    HW125463   2.232   1.182  13.163 -1.4325 -2.2544 -0.2962
 4609SOL    HW225464   2.090   1.147  13.139 -0.1444 -1.2945  2.0540
 4610SOL     OW25465   3.130   2.154   4.546 -0.2066 -0.2399 -0.2047
 4610SOL    HW125466   3.045   2.140   4.505  0.0145 -1.2837 -0.2994
 4610SOL    HW225467   3.094   2.185   4.629 -0.8529 -0.1935 -0.5043
 4611SOL     OW25468   0.416   3.497   6.569  0.2665  0.1151 -0.0471
 4611SOL    HW125469   0.331   3.509   6.528  0.4099  0.3153 -0.2855
 4611SOL    HW225470   0.395   3.419   6.621 -1.1932  0.0613 -0.7381
 4612SOL     OW25471   3.947   2.916   2.589 -0.0893  0.6650  0.3533
 4612SOL    HW125472   3.886   2.842   2.594 -1.7624  1.9775 -0.5466
 4612SOL    HW225473   3.958   2.940   2.680  0.7317 -0.2155  0.4814
 4613SOL     OW25474   2.733   2.253  13.273  0.0115  0.9152 -0.0340
 4613SOL    HW125475   2.790   2.294  13.338 -0.4731  0.2488  0.8104
 4613SOL    HW225476   2.726   2.171  13.322 -2.4160  0.9005 -0.4078
 4614SOL     OW25477   4.635   2.408   2.680  0.3323 -0.2667 -0.6883
 4614SOL    HW125478   4.599   2.476   2.623  2.6333  1.1864 -0.4070
 4614SOL    HW225479   4.647   2.465   2.757 -0.9310 -0.4879 -0.3214
 4615SOL     OW25480   3.012   0.359   3.717  0.0207 -0.6099  0.3625
 4615SOL    HW125481   2.994   0.278   3.669 -1.3217 -1.5385  2.4261
 4615SOL    HW225482   2.929   0.378   3.759  0.0297 -1.7203  0.8941
 4616SOL     OW25483   2.641   4.703   4.058 -0.5325  0.0126  0.2356
 4616SOL    HW125484   2.665   4.661   4.141  0.3882  0.6143  0.2710
 4616SOL    HW225485   2.711   4.678   3.997  2.0824  2.7992  2.1349
 4617SOL     OW25486   1.031   1.636   9.932 -0.4585 -0.1920  0.1957
 4617SOL    HW125487   1.012   1.716   9.982 -0.3264  0.3501 -0.6228
 4617SOL    HW225488   1.117   1.613   9.965 -0.0867  0.3679 -0.3814
 4618SOL     OW25489   1.923   1.564   9.819  0.0201  0.6332 -0.5989
 4618SOL    HW125490   1.894   1.650   9.789 -0.2123  1.1120  0.9855
 4618SOL    HW225491   2.005   1.553   9.771  1.2408  0.1517  1.5843
 4619SOL     OW25492   3.722   4.443   4.036 -0.2944 -0.0100 -0.1544
 4619SOL    HW125493   3.704   4.358   4.076  1.3421 -1.0660 -1.6648
 4619SOL    HW225494   3.637   4.470   4.000  0.2039  1.3624 -0.3045
 4620SOL     OW25495   4.128   2.918   5.321  0.0595  0.5528  0.2385
 4620SOL    HW125496   4.042   2.929   5.279  0.8584  1.0567 -1.2815
 4620SOL    HW225497   4.122   2.823   5.333 -1.4469  0.6867  0.5787
 4621SOL     OW25498   3.895   3.292   8.021 -0.0619 -0.3168  0.2771
 4621SOL    HW125499   3.941   3.376   8.018 -1.3593  0.3300 -1.8547
 4621SOL    HW225500   3.912   3.283   8.114 -0.6681  3.6725  0.7832
 4622SOL     OW25501   0.814   4.618   2.892 -0.8057  0.6846  0.4332
 4622SOL    HW125502   0.812   4.583   2.803  2.6078  0.1832  0.5508
 4622SOL    HW225503   0.836   4.535   2.935 -1.3749  0.7485  0.8595
 4623SOL     OW25504   3.668   1.679  14.133  0.1939 -0.0239 -0.6167
 4623SOL    HW125505   3.750   1.629  14.134  1.3869  1.8749 -2.3539
 4623SOL    HW225506   3.699   1.769  14.128  0.9639 -0.2767 -0.5067
 4624SOL     OW25507   1.837   0.336  15.697  0.1879  0.1216  0.5142
 4624SOL    HW125508   1.898   0.296  15.636 -0.1182  1.0921 -0.4196
 4624SOL    HW225509   1.805   0.419  15.662 -0.1329 -0.4117 -0.4465
 4625SOL     OW25510   0.358   1.362  11.034  0.1053  0.3900 -0.6202
 4625SOL    HW125511   0.434   1.312  11.006  0.9390  0.2187  1.9488
 4625SOL    HW225512   0.397   1.418  11.102 -0.6049  0.1290 -0.0043
 4626SOL     OW25513   3.044   3.144   1.572 -0.4154 -0.2846 -0.1254
 4626SOL    HW125514   3.024   3.052   1.551  0.5859 -1.2735  3.2194
 4626SOL    HW225515   3.112   3.125   1.637 -1.8696 -0.6244  1.2762
 4627SOL     OW25516   1.574   1.350   7.677  1.0297  0.6391 -0.2240
 4627SOL    HW125517   1.600   1.285   7.743  1.0491 -0.2525 -1.1068
 4627SOL    HW225518   1.619   1.430   7.703  0.4478  0.8194  0.2357
 4628SOL     OW25519   0.864   1.783  12.849  0.2923 -0.0007 -0.1340
 4628SOL    HW125520   0.873   1.796  12.755  0.5249 -0.4366 -0.1757
 4628SOL    HW225521   0.873   1.687  12.849 -2.5209 -0.2521  1.5377
 4629SOL     OW25522   0.128   2.016  11.460  0.3383 -1.2173  0.2781
 4629SOL    HW125523   0.056   1.961  11.429 -1.0580 -0.9264  3.0456
 4629SOL    HW225524   0.088   2.015  11.547 -1.2602  2.3903 -0.4194
 4630SOL     OW25525   3.093   4.734   8.090 -0.0146  0.1290 -0.1991
 4630SOL    HW125526   3.143   4.706   8.014 -1.6308  2.9696 -2.2941
 4630SOL    HW225527   3.080   4.648   8.130  0.8162 -0.0275 -0.2583
 4631SOL     OW25528   1.957   2.945   1.784  1.1558 -0.7061  0.0078
 4631SOL    HW125529   1.879   2.975   1.737  0.6988 -0.2819  1.0436
 4631SOL    HW225530   1.923   2.930   1.872  2.5868 -1.5233  0.4221
 4632SOL     OW25531   3.793   0.033   0.287  0.1189 -0.4911  0.3791
 4632SOL    HW125532   3.844   4.689   0.278  1.6952  0.7531 -1.8041
 4632SOL    HW225533   3.815   0.064   0.375  2.0398  2.0695 -1.0074
 4633SOL     OW25534   3.538   3.588   6.223 -0.1523 -0.0270  0.2417
 4633SOL    HW125535   3.510   3.671   6.262 -0.6613  0.4177 -1.0395
 4633SOL    HW225536   3.544   3.539   6.305  2.2839  0.7079  0.4980
 4634SOL     OW25537   3.187   4.483   1.858  0.2957 -0.0402 -0.2815
 4634SOL    HW125538   3.187   4.572   1.894 -0.9409 -0.3180  0.3667
 4634SOL    HW225539   3.095   4.471   1.836  0.6288 -2.3767 -0.4016
 4635SOL     OW25540   3.140   2.436  15.721 -0.3678 -0.4528  1.0132
 4635SOL    HW125541   3.178   2.367  15.667  0.9294 -0.2593  1.6767
 4635SOL    HW225542   3.184   2.431  15.806 -1.4912  0.0440  1.6248
 4636SOL     OW25543   2.005   3.722  13.231 -0.4370 -0.4077 -0.0576
 4636SOL    HW125544   1.989   3.701  13.139 -1.2578 -0.0778  0.0028
 4636SOL    HW225545   1.928   3.678  13.269 -0.4927 -0.6097 -0.4023
 4637SOL     OW25546   4.665   0.892   3.390 -0.6053  0.1451 -0.3733
 4637SOL    HW125547   4.700   0.890   3.479  2.3549  0.0041 -1.5653
 4637SOL    HW225548   4.571   0.907   3.398 -0.5345  1.4724 -2.0330
 4638SOL     OW25549   4.025   3.320   2.564 -0.4557  0.0722  0.5862
 4638SOL    HW125550   3.977   3.392   2.604 -1.1873  0.0594 -0.2751
 4638SOL    HW225551   4.038   3.352   2.475 -0.6813 -0.3803  0.3922
 4639SOL     OW25552   3.328   3.625  16.328 -0.1177  0.0086  0.1047
 4639SOL    HW125553   3.347   3.717  16.342 -0.0877  0.0863 -0.4436
 4639SOL    HW225554   3.352   3.589  16.414 -0.3066  0.2282  0.2495
 4640SOL     OW25555   3.724   2.880   6.555 -0.3315  0.5256 -0.1945
 4640SOL    HW125556   3.700   2.788   6.565 -1.9666  1.1022  1.1497
 4640SOL    HW225557   3.693   2.894   6.465 -1.5578  1.8256  0.4201
 4641SOL     OW25558   0.111   2.298   5.231  0.0344 -0.2176  0.4074
 4641SOL    HW125559   0.063   2.345   5.298  0.1015  0.4415 -0.0001
 4641SOL    HW225560   0.044   2.275   5.166  1.1618 -0.5653 -0.6307
 4642SOL     OW25561   3.344   4.110  15.828 -0.2257  0.7792 -0.2248
 4642SOL    HW125562   3.342   4.082  15.736  2.0163 -0.3215  0.0805
 4642SOL    HW225563   3.253   4.094  15.853 -0.1705  1.2657  0.2806
 4643SOL     OW25564   4.503   3.280   3.882  0.1183 -0.4292 -0.1781
 4643SOL    HW125565   4.510   3.186   3.901  0.0212 -0.5901 -0.8996
 4643SOL    HW225566   4.553   3.276   3.800  1.5558 -1.1498  0.7474
 4644SOL     OW25567   3.001   4.301   9.537 -0.2220  0.5363 -1.0658
 4644SOL    HW125568   2.924   4.350   9.566 -0.3699 -0.6530  0.5552
 4644SOL    HW225569   2.991   4.222   9.590 -1.0860  1.0575 -0.4470
 4645SOL     OW25570   1.023   0.101   3.215 -0.1773 -0.2098  0.4784
 4645SOL    HW125571   0.986   0.061   3.294  0.1795  2.8731  2.2134
 4645SOL    HW225572   0.943   0.110   3.162  1.7044 -0.4736 -2.4449
 4646SOL     OW25573   0.526   2.164  14.954  0.3439 -0.2204  0.1695
 4646SOL    HW125574   0.488   2.077  14.948  2.2906 -1.0351 -0.3263
 4646SOL    HW225575   0.609   2.160  14.906 -0.7459  0.7644 -1.8053
 4647SOL     OW25576   1.131   3.297  15.913 -0.0986  0.3820 -0.4490
 4647SOL    HW125577   1.185   3.374  15.900 -2.0427  1.3706 -2.6624
 4647SOL    HW225578   1.060   3.312  15.975 -0.6596 -0.7279 -0.8084
 4648SOL     OW25579   3.091   2.428   6.620 -0.0257  0.2418  0.2007
 4648SOL    HW125580   3.162   2.367   6.602  0.6327  1.2641 -0.6967
 4648SOL    HW225581   3.087   2.489   6.546 -0.8722 -0.8032 -0.6127
 4649SOL     OW25582   4.442   3.747   0.617 -0.6821  0.3434 -0.5772
 4649SOL    HW125583   4.518   3.729   0.562  0.4894  0.4488  0.9980
 4649SOL    HW225584   4.389   3.695   0.556 -1.5175 -0.0045  0.4442
 4650SOL     OW25585   1.378   1.049   7.068  0.6675 -0.1793  0.2621
 4650SOL    HW125586   1.332   0.965   7.071 -0.3517  0.4488  2.5367
 4650SOL    HW225587   1.350   1.084   7.152 -1.3728 -0.2606 -0.3633
 4651SOL     OW25588   2.284   0.401   7.208  0.0554  0.7056  0.3077
 4651SOL    HW125589   2.214   0.464   7.189  1.5016  1.6428 -1.9666
 4651SOL    HW225590   2.346   0.473   7.219  1.0161 -0.0739  0.0319
 4652SOL     OW25591   3.496   4.332  13.837 -0.2352  0.0320 -0.1965
 4652SOL    HW125592   3.471   4.341  13.745 -1.8834 -0.3287  0.2124
 4652SOL    HW225593   3.422   4.372  13.881 -0.0732  1.2494 -1.0298
 4653SOL     OW25594   0.418   2.526   2.221  0.2363 -0.1251 -0.1014
 4653SOL    HW125595   0.373   2.476   2.153  0.4301  0.6931 -0.8201
 4653SOL    HW225596   0.466   2.463   2.274  0.6871 -1.6598 -2.3190
 4654SOL     OW25597   4.446   2.154   8.628  0.0334 -0.0330 -1.3701
 4654SOL    HW125598   4.419   2.245   8.642  1.5868  0.3845 -1.0727
 4654SOL    HW225599   4.438   2.125   8.719  2.5715  0.6273 -0.9365
 4655SOL     OW25600   1.778   3.564  13.322 -0.6754 -0.1421 -0.5545
 4655SOL    HW125601   1.733   3.489  13.362 -0.8393 -0.1578 -0.7699
 4655SOL    HW225602   1.710   3.628  13.342  0.7286  1.7043 -1.6882
 4656SOL     OW25603   1.958   0.051   9.684  0.2070 -0.1186  0.2105
 4656SOL    HW125604   1.954   4.698   9.650 -1.6999 -0.6885  1.9299
 4656SOL    HW225605   2.025   0.088   9.626 -0.5786 -0.4236 -0.8955
 4657SOL     OW25606   1.603   2.930   7.475  0.7242  0.0107  0.1238
 4657SOL    HW125607   1.669   2.865   7.500 -0.5713 -1.7711 -1.0447
 4657SOL    HW225608   1.536   2.864   7.459  1.0886  0.0600 -1.5938
 4658SOL     OW25609   2.824   1.839   9.796 -0.3313  0.0678 -0.0773
 4658SOL    HW125610   2.828   1.745   9.779  1.5629  0.0748  0.3167
 4658SOL    HW225611   2.888   1.866   9.730 -0.0838  2.7394  1.2522
 4659SOL     OW25612   2.702   1.583   5.805 -0.0907 -0.3618  0.0290
 4659SOL    HW125613   2.743   1.656   5.757  0.3986 -1.2438 -0.8893
 4659SOL    HW225614   2.746   1.592   5.889  0.9510 -1.6772 -0.3788
 4660SOL     OW25615   2.370   0.049   9.181 -0.1160 -0.0919 -0.2232
 4660SOL    HW125616   2.306   0.042   9.110 -0.8909 -1.2097  0.5968
 4660SOL    HW225617   2.440   0.100   9.139  0.1947  1.0728  1.7074
 4661SOL     OW25618   4.352   1.315   9.537  0.9501  0.1592  0.1192
 4661SOL    HW125619   4.302   1.236   9.552 -0.0178  0.8172  0.3359
 4661SOL    HW225620   4.434   1.293   9.581  0.4347  0.4845  1.2225
 4662SOL     OW25621   1.557   1.236  17.614 -0.9685  0.4740  0.4502
 4662SOL    HW125622   1.591   1.260  17.701 -2.3714 -2.5505  1.8507
 4662SOL    HW225623   1.635   1.265  17.566  0.3640 -1.5694  1.3307
 4663SOL     OW25624   3.042   2.176   3.587 -0.8559 -0.1403 -0.6938
 4663SOL    HW125625   3.039   2.125   3.667  1.2351 -1.4478 -1.4448
 4663SOL    HW225626   3.114   2.126   3.549 -0.6458  0.2840 -0.8523
 4664SOL     OW25627   1.305   3.257   2.628 -0.0878 -0.2640 -0.5233
 4664SOL    HW125628   1.234   3.320   2.643 -0.0870 -0.6358  1.0093
 4664SOL    HW225629   1.287   3.232   2.537  0.2923 -5.0966  0.7448
 4665SOL     OW25630   4.458   1.076   0.704  0.1047  0.0247  0.5428
 4665SOL    HW125631   4.364   1.077   0.722 -0.2214 -1.8497 -1.0582
 4665SOL    HW225632   4.476   1.168   0.721  0.0717  0.2024 -0.3744
 4666SOL     OW25633   2.433   0.701   9.276 -0.3674  0.1064 -0.2032
 4666SOL    HW125634   2.365   0.634   9.271 -2.9034  2.5643  1.7911
 4666SOL    HW225635   2.381   0.781   9.271 -0.5739 -0.0706 -0.9338
 4667SOL     OW25636   2.320   1.790   1.519 -0.3366 -0.4601 -0.2415
 4667SOL    HW125637   2.388   1.814   1.582  0.9763 -0.4684 -1.6393
 4667SOL    HW225638   2.340   1.848   1.445 -2.6982  0.1273 -0.3932
 4668SOL     OW25639   1.513   4.541  12.077 -0.1177 -0.0141  0.2222
 4668SOL    HW125640   1.528   4.569  11.987 -1.0646 -0.3192 -0.0359
 4668SOL    HW225641   1.418   4.536  12.084 -0.1988  1.1351 -0.1063
 4669SOL     OW25642   4.400   3.115  15.503  0.1014 -0.1687 -0.1427
 4669SOL    HW125643   4.376   3.207  15.517  2.3114  0.5520 -1.0996
 4669SOL    HW225644   4.423   3.120  15.410  0.3834  0.6604 -0.0303
 4670SOL     OW25645   4.550   1.854   5.301  0.0072  0.6999 -0.0473
 4670SOL    HW125646   4.575   1.773   5.346 -1.7945  0.6910  0.9553
 4670SOL    HW225647   4.480   1.884   5.360  0.1268 -0.5302  0.7169
 4671SOL     OW25648   1.275   1.870   5.257 -0.5958  0.3503 -0.1438
 4671SOL    HW125649   1.344   1.889   5.322 -0.2936  1.0991 -0.6856
 4671SOL    HW225650   1.201   1.870   5.318 -0.0940 -0.7665  0.4740
 4672SOL     OW25651   0.813   2.918   3.857 -0.4573 -0.0654 -0.1146
 4672SOL    HW125652   0.829   2.963   3.939  0.7847  1.8534 -1.4096
 4672SOL    HW225653   0.890   2.861   3.852  1.5282  2.6523 -0.5683
 4673SOL     OW25654   3.174   1.520   7.785  0.2823  0.9592 -0.1808
 4673SOL    HW125655   3.145   1.522   7.876 -1.0198 -0.5066 -0.5675
 4673SOL    HW225656   3.099   1.490   7.733  0.7462  0.7473 -0.7320
 4674SOL     OW25657   3.847   4.580   7.896 -0.0578 -0.0563  0.0897
 4674SOL    HW125658   3.907   4.595   7.969  0.6077 -0.7463 -0.3088
 4674SOL    HW225659   3.900   4.581   7.817 -0.1010  2.2932  0.0985
 4675SOL     OW25660   1.224   3.553  13.967 -0.7396  0.2612  0.6179
 4675SOL    HW125661   1.200   3.614  14.036 -2.2215  2.3817 -1.8092
 4675SOL    HW225662   1.150   3.492  13.974 -0.1038 -0.5211  0.5399
 4676SOL     OW25663   1.157   2.407   7.751  0.0750  0.5976  0.6294
 4676SOL    HW125664   1.181   2.399   7.843  1.2504  1.9966  0.4520
 4676SOL    HW225665   1.136   2.314   7.743  0.8650  0.3506  1.4346
 4677SOL     OW25666   1.571   0.867   8.215 -0.1891 -0.6679  0.1227
 4677SOL    HW125667   1.574   0.815   8.134 -1.6557 -0.8375  0.1848
 4677SOL    HW225668   1.500   0.929   8.196  0.1050 -0.0544  1.0202
 4678SOL     OW25669   0.722   3.195   7.864  0.0337 -0.2508 -1.1126
 4678SOL    HW125670   0.679   3.281   7.858  2.1614  1.0070  1.4904
 4678SOL    HW225671   0.787   3.203   7.795  0.3031  2.1914 -0.5886
 4679SOL     OW25672   4.340   1.123   5.110 -0.1018  0.3394  0.4165
 4679SOL    HW125673   4.276   1.058   5.137  1.7844 -1.5210  0.4431
 4679SOL    HW225674   4.412   1.061   5.098 -1.7173 -1.5951  0.6288
 4680SOL     OW25675   4.499   1.260   8.575  0.0182 -0.2886  0.3720
 4680SOL    HW125676   4.454   1.176   8.564  0.1793 -0.5018  1.3290
 4680SOL    HW225677   4.478   1.272   8.668  0.5620 -4.2157  0.9949
 4681SOL     OW25678   1.760   0.402  14.162 -0.0501  0.1281  0.1318
 4681SOL    HW125679   1.794   0.472  14.107 -0.9580 -0.3865 -1.0999
 4681SOL    HW225680   1.785   0.432  14.250 -1.4302  0.3332  0.4482
 4682SOL     OW25681   3.431   4.349   0.672 -0.0775  0.4454  0.5509
 4682SOL    HW125682   3.467   4.415   0.731 -0.0429  1.2229 -0.3458
 4682SOL    HW225683   3.478   4.364   0.590 -0.2158 -0.4254  0.3071
 4683SOL     OW25684   3.441   1.137   6.576 -0.1117  0.0092  0.0442
 4683SOL    HW125685   3.374   1.189   6.621 -0.9930 -0.7485 -0.4016
 4683SOL    HW225686   3.395   1.076   6.519  0.7349 -2.5332  2.0587
 4684SOL     OW25687   3.932   4.363   1.506  0.1759 -0.6060  0.0721
 4684SOL    HW125688   3.955   4.455   1.495  1.6849 -0.9303  0.5552
 4684SOL    HW225689   4.006   4.315   1.470 -0.1973 -0.0611 -1.4276
 4685SOL     OW25690   0.038   3.316   7.866 -0.1035 -0.7042  0.5959
 4685SOL    HW125691   4.680   3.332   7.867 -0.4163 -2.1753 -3.6291
 4685SOL    HW225692   0.053   3.263   7.787 -0.0793  0.3635 -0.1136
 4686SOL     OW25693   3.128   1.301   4.691  0.1348  0.1903  0.2253
 4686SOL    HW125694   3.088   1.354   4.623  1.8446 -0.5540 -1.3777
 4686SOL    HW225695   3.204   1.264   4.646  0.3962  0.5188  0.3940
 4687SOL     OW25696   4.016   0.230   5.509  0.1419  0.4409 -0.3871
 4687SOL    HW125697   4.078   0.222   5.581 -2.0136  1.8881  1.6052
 4687SOL    HW225698   4.029   0.317   5.472 -1.7228  1.7933  2.1802
 4688SOL     OW25699   0.330   1.688   0.443  0.4802  0.7163  0.1192
 4688SOL    HW125700   0.333   1.779   0.412 -0.6511  0.6293 -0.2762
 4688SOL    HW225701   0.412   1.655   0.408 -0.1355 -2.3237  1.5722
 4689SOL     OW25702   1.896   0.823   8.153  0.3873  0.1091 -0.1442
 4689SOL    HW125703   1.807   0.789   8.142  0.9569 -1.0872 -1.0041
 4689SOL    HW225704   1.951   0.746   8.163 -0.0092 -0.0531  0.8411
 4690SOL     OW25705   4.583   0.675  11.050  0.0412 -0.4014  0.2613
 4690SOL    HW125706   4.671   0.649  11.078  0.0906 -0.9552 -0.3886
 4690SOL    HW225707   4.540   0.645  11.130  0.3122  0.3926  0.7031
 4691SOL     OW25708   4.531   4.677   9.034 -0.0959 -0.2178  0.0929
 4691SOL    HW125709   4.598   4.724   9.082  0.1974 -0.9779  0.4308
 4691SOL    HW225710   4.463   0.008   9.033 -2.1292 -2.2082  1.2719
 4692SOL     OW25711   0.804   2.146  14.858 -0.3291  0.4659 -1.0493
 4692SOL    HW125712   0.882   2.097  14.886 -0.5074 -0.0835 -1.5259
 4692SOL    HW225713   0.857   2.216  14.817  0.7417 -1.2022 -2.5200
 4693SOL     OW25714   1.398   0.889   3.325  0.3189  0.0786  0.3306
 4693SOL    HW125715   1.312   0.928   3.342 -1.1244 -1.6926 -2.7111
 4693SOL    HW225716   1.376   0.821   3.261 -1.2168  0.8464  0.0426
 4694SOL     OW25717   1.524   2.159   1.135  0.0002  0.2288 -0.3117
 4694SOL    HW125718   1.570   2.185   1.055 -0.4484 -0.3740 -0.7653
 4694SOL    HW225719   1.440   2.206   1.128 -0.1658 -0.5126 -3.6102
 4695SOL     OW25720   0.789   3.271   3.682  0.1257 -0.0190  0.0279
 4695SOL    HW125721   0.826   3.184   3.663 -3.4312 -1.1635 -1.6846
 4695SOL    HW225722   0.713   3.241   3.731  0.8006 -1.3106  0.3013
 4696SOL     OW25723   4.060   0.194  12.632 -0.0180  0.0597 -0.7416
 4696SOL    HW125724   4.028   0.182  12.542  0.4905  0.2000 -0.9405
 4696SOL    HW225725   4.154   0.196  12.614  0.3565  1.3549  1.4294
 4697SOL     OW25726   0.726   1.532   2.369  0.4806 -0.1635  0.8766
 4697SOL    HW125727   0.650   1.538   2.311  0.2527 -0.5329  1.1438
 4697SOL    HW225728   0.716   1.620   2.406 -0.3213  0.2205 -0.2452
 4698SOL     OW25729   0.801   4.059   4.840 -0.2214 -0.4807  0.2221
 4698SOL    HW125730   0.707   4.059   4.821 -0.4792  1.8051  1.5013
 4698SOL    HW225731   0.822   4.139   4.792 -1.5322  0.5745  1.4064
 4699SOL     OW25732   3.074   0.984   5.092 -0.2890  0.1265 -0.2656
 4699SOL    HW125733   3.169   0.991   5.087 -0.1131 -1.4706  1.0055
 4699SOL    HW225734   3.055   1.025   5.008  0.9682 -3.8939 -2.4746
 4700SOL     OW25735   2.258   1.889   1.855  0.2045 -0.2064  0.0917
 4700SOL    HW125736   2.217   1.936   1.782 -1.1810 -2.0241 -0.2944
 4700SOL    HW225737   2.183   1.838   1.884  0.7934 -0.0414  1.8725
 4701SOL     OW25738   0.185   1.865  17.329  0.6378 -0.1272  0.2765
 4701SOL    HW125739   0.145   1.840  17.246  0.1993  0.3595  0.3409
 4701SOL    HW225740   0.260   1.805  17.329  0.5341 -0.2549  0.1173
 4702SOL     OW25741   3.975   4.236   3.147  0.3103 -0.3285  0.3073
 4702SOL    HW125742   4.051   4.189   3.184  0.7094  0.0740 -0.0040
 4702SOL    HW225743   3.899   4.204   3.195 -1.1964 -1.1646 -2.6272
 4703SOL     OW25744   3.689   4.226   1.357 -0.7856  0.5093  0.0392
 4703SOL    HW125745   3.752   4.295   1.377 -0.7022  0.1040  1.1851
 4703SOL    HW225746   3.630   4.277   1.303 -0.5186 -0.3041 -1.0233
 4704SOL     OW25747   1.745   1.622   3.031  0.2591 -0.2514  0.7336
 4704SOL    HW125748   1.791   1.705   3.019 -1.2411  0.3971 -0.5221
 4704SOL    HW225749   1.765   1.604   3.123  0.9029 -1.3472  0.3802
 4705SOL     OW25750   1.311   1.508  14.847  0.3622 -0.2867  1.2662
 4705SOL    HW125751   1.310   1.581  14.908  3.2819  2.2409 -1.7059
 4705SOL    HW225752   1.226   1.469  14.869  0.0885  0.0862  0.8598
 4706SOL     OW25753   1.878   1.247  17.574  1.1013  0.3014  0.1216
 4706SOL    HW125754   1.901   1.276  17.486 -2.3545  1.7947 -0.2583
 4706SOL    HW225755   1.916   1.315  17.631 -2.4010  1.2190  1.3475
 4707SOL     OW25756   4.241   1.325  11.919  0.4989 -0.0016  0.2699
 4707SOL    HW125757   4.182   1.249  11.916  1.6406 -0.9155  1.0733
 4707SOL    HW225758   4.195   1.388  11.864 -0.5268  0.1922  1.3593
 4708SOL     OW25759   2.232   1.156   4.038  0.1011 -0.0000  0.0464
 4708SOL    HW125760   2.280   1.076   4.057 -0.3591  0.3291  2.5778
 4708SOL    HW225761   2.176   1.123   3.968 -0.2013 -2.0512  1.2377
 4709SOL     OW25762   3.483   3.454   9.082  0.2688 -0.6269  0.3377
 4709SOL    HW125763   3.434   3.441   9.163 -0.1881  0.7365  0.2854
 4709SOL    HW225764   3.538   3.529   9.104 -2.3267  2.3800 -3.4362
 4710SOL     OW25765   4.361   0.431   3.719  0.4798  0.3000  0.2070
 4710SOL    HW125766   4.386   0.445   3.810 -2.1897  1.2134  0.7908
 4710SOL    HW225767   4.443   0.435   3.670 -1.5027 -0.4368 -3.1808
 4711SOL     OW25768   2.769   0.738   2.122 -0.0409 -0.6223 -0.3815
 4711SOL    HW125769   2.819   0.726   2.041 -2.2740 -5.0677 -1.0863
 4711SOL    HW225770   2.831   0.768   2.188 -0.5029 -1.3004  0.3572
 4712SOL     OW25771   1.946   3.940   6.090  0.6177  0.3842  0.0899
 4712SOL    HW125772   1.873   3.949   6.030 -2.2032 -1.4521  3.2514
 4712SOL    HW225773   1.943   4.017   6.146  0.0580  0.6041 -0.2496
 4713SOL     OW25774   4.508   1.209   1.529  0.8093 -0.6248  0.0012
 4713SOL    HW125775   4.593   1.225   1.570  1.4221 -1.9100 -0.7690
 4713SOL    HW225776   4.470   1.145   1.590 -1.7964  0.0538 -0.9308
 4714SOL     OW25777   0.737   3.652   8.499 -0.4458 -0.3188  0.0080
 4714SOL    HW125778   0.695   3.689   8.577 -0.4538 -0.2371 -0.0353
 4714SOL    HW225779   0.827   3.687   8.498 -1.2279  1.7552  1.1139
 4715SOL     OW25780   1.859   3.974  12.672  0.1746 -0.4824 -0.6149
 4715SOL    HW125781   1.864   4.069  12.682 -0.9546 -0.1522 -3.3944
 4715SOL    HW225782   1.888   3.966  12.581 -0.3399 -0.4113 -0.7835
 4716SOL     OW25783   0.630   1.191   1.055 -0.6996  0.9694 -0.0400
 4716SOL    HW125784   0.538   1.206   1.075 -0.2749  1.3475  1.6457
 4716SOL    HW225785   0.622   1.111   1.004  1.0121  1.6313 -1.3273
 4717SOL     OW25786   3.145   3.440  16.398  0.5618 -0.0653  0.1101
 4717SOL    HW125787   3.174   3.509  16.339  1.1347 -0.9587 -0.6502
 4717SOL    HW225788   3.151   3.494  16.477 -1.2139 -0.3528  0.4501
 4718SOL     OW25789   4.516   1.312  11.836 -0.1268 -0.3541 -0.0750
 4718SOL    HW125790   4.551   1.267  11.913 -1.3022 -0.1181  0.6133
 4718SOL    HW225791   4.426   1.279  11.843  0.4960 -1.8986  0.7963
 4719SOL     OW25792   4.516   1.926  16.972  0.6234  0.0556  0.2374
 4719SOL    HW125793   4.590   1.937  16.913 -0.4105 -1.1370 -1.2766
 4719SOL    HW225794   4.462   1.989  16.925  2.3589  1.1961 -0.2252
 4720SOL     OW25795   3.589   3.890   5.000  0.0486  0.0244  0.3004
 4720SOL    HW125796   3.545   3.915   5.082 -0.8542 -1.9760  0.4252
 4720SOL    HW225797   3.597   3.981   4.971 -1.2491 -0.4275 -1.4313
 4721SOL     OW25798   3.732   0.958  16.950 -0.1469 -0.2091 -0.0195
 4721SOL    HW125799   3.789   1.024  16.910  0.7303 -2.7016 -2.9179
 4721SOL    HW225800   3.745   0.967  17.044  3.0906 -0.0790 -0.4783
 4722SOL     OW25801   0.962   2.155   1.351 -0.4241  0.0977  0.3384
 4722SOL    HW125802   1.048   2.137   1.388 -1.1240 -4.2900 -0.2371
 4722SOL    HW225803   0.954   2.086   1.285  2.1139  0.5281 -0.4236
 4723SOL     OW25804   3.191   3.335   3.175 -0.0342  0.6105 -0.0859
 4723SOL    HW125805   3.234   3.298   3.097 -0.7134  0.3535 -0.3450
 4723SOL    HW225806   3.187   3.428   3.155 -1.1049  0.2440 -1.6369
 4724SOL     OW25807   4.264   2.624  11.977  0.2208 -0.1247 -0.0632
 4724SOL    HW125808   4.240   2.533  11.993 -1.4495  0.4267  0.5880
 4724SOL    HW225809   4.357   2.625  12.000  0.3090 -0.0993 -0.4242
 4725SOL     OW25810   0.947   0.350   6.922 -0.0527  0.1549 -0.7356
 4725SOL    HW125811   1.020   0.345   6.861  0.4575 -0.8085 -0.0445
 4725SOL    HW225812   0.989   0.407   6.987  0.9495  1.9295 -2.9421
 4726SOL     OW25813   3.845   4.610  16.104 -0.0722 -0.0237  0.2636
 4726SOL    HW125814   3.936   4.585  16.124  0.2666 -0.1973 -1.4685
 4726SOL    HW225815   3.805   4.528  16.134  2.3783 -1.1746  0.4331
 4727SOL     OW25816   2.796   3.126   7.045  0.3676 -0.0043  0.7724
 4727SOL    HW125817   2.711   3.099   7.081  0.4855  0.3198  1.2928
 4727SOL    HW225818   2.811   3.065   6.972  0.6029 -0.4090  1.1570
 4728SOL     OW25819   1.513   0.820   4.480  0.1229  0.6020 -0.3771
 4728SOL    HW125820   1.535   0.900   4.432  0.4477  0.8419  0.1669
 4728SOL    HW225821   1.595   0.774   4.460  1.2720  1.6753  1.7345
 4729SOL     OW25822   1.971   4.489   2.154 -0.0502 -0.3825  0.1702
 4729SOL    HW125823   1.927   4.553   2.097  1.7030 -0.1636 -0.9108
 4729SOL    HW225824   1.982   4.540   2.234  2.6571  0.2287 -0.5848
 4730SOL     OW25825   3.157   2.679   6.497 -0.3697 -0.1729 -0.1560
 4730SOL    HW125826   3.104   2.695   6.575 -0.1078  0.5440 -0.1254
 4730SOL    HW225827   3.246   2.703   6.522 -0.3763  0.0888 -0.3836
 4731SOL     OW25828   2.949   4.083   2.239 -0.0419  0.7518  0.1775
 4731SOL    HW125829   2.858   4.071   2.266  0.2723 -0.3952  0.7234
 4731SOL    HW225830   2.944   4.061   2.146 -0.2143  1.2087  0.0802
 4732SOL     OW25831   0.025   4.719   3.222 -0.6228  0.2989 -0.4378
 4732SOL    HW125832   4.734   0.057   3.277  1.5425  0.5112  0.3575
 4732SOL    HW225833   4.730   4.644   3.273  0.0408 -0.8273 -1.6878
 4733SOL     OW25834   0.049   2.998  12.095 -0.6190 -0.2688 -0.3647
 4733SOL    HW125835   4.691   3.003  12.082 -0.7006  0.5341  0.5162
 4733SOL    HW225836   0.069   3.089  12.115 -2.6168  0.1501 -0.2483
 4734SOL     OW25837   4.643   0.949   7.178  0.2368  0.4117 -0.0338
 4734SOL    HW125838   4.615   1.040   7.180 -0.2338  0.2293  1.3687
 4734SOL    HW225839   4.668   0.937   7.269 -0.4281 -0.6469  0.0151
 4735SOL     OW25840   3.151   1.362   1.835  0.1806 -0.0035  0.0121
 4735SOL    HW125841   3.088   1.383   1.766  1.8112 -0.4508 -1.5955
 4735SOL    HW225842   3.101   1.405   1.905 -1.4288 -1.7742 -0.0295
 4736SOL     OW25843   3.682   0.271   1.648  0.3201 -0.7138  0.5348
 4736SOL    HW125844   3.611   0.259   1.711  0.6785 -0.7823  0.9266
 4736SOL    HW225845   3.627   0.309   1.579  1.9309  1.9116  0.6821
 4737SOL     OW25846   4.694   2.465   5.385 -0.4432  0.0193  0.3318
 4737SOL    HW125847   4.719   2.538   5.442  0.8709 -0.7191  0.6983
 4737SOL    HW225848   4.643   2.523   5.328 -0.8211 -0.6879 -0.0454
 4738SOL     OW25849   1.838   4.236  12.592 -0.6089 -0.4501  0.6948
 4738SOL    HW125850   1.771   4.290  12.551 -1.7115 -0.4892  2.4190
 4738SOL    HW225851   1.912   4.277  12.547 -1.0611 -0.0185  0.3438
 4739SOL     OW25852   4.181   0.624   9.473 -0.0546 -0.3930 -0.1983
 4739SOL    HW125853   4.221   0.566   9.538 -1.5004 -2.7663 -1.4642
 4739SOL    HW225854   4.093   0.635   9.510 -1.1299  2.8585 -3.7276
 4740SOL     OW25855   0.891   3.828  11.021  0.3346  0.4511  0.1085
 4740SOL    HW125856   0.856   3.900  11.073 -0.8684 -0.2910  0.3230
 4740SOL    HW225857   0.841   3.833  10.940 -0.1257  0.4188  0.3920
 4741SOL     OW25858   4.360   1.265   8.885  0.4822  0.0770 -0.3358
 4741SOL    HW125859   4.269   1.236   8.889  0.1581  1.0190 -0.9362
 4741SOL    HW225860   4.354   1.359   8.872 -1.6538 -0.0007  0.0897
 4742SOL     OW25861   4.069   1.573   6.899 -0.3021  0.2721  0.3419
 4742SOL    HW125862   4.000   1.535   6.845 -0.7008  1.8621 -0.2751
 4742SOL    HW225863   4.024   1.651   6.931 -3.0712 -0.7580 -1.0624
 4743SOL     OW25864   0.337   3.793   4.558  0.6441 -0.0687  0.1155
 4743SOL    HW125865   0.251   3.757   4.580  1.1794 -0.7661  1.0718
 4743SOL    HW225866   0.322   3.805   4.464 -0.4326 -1.5788  0.0993
 4744SOL     OW25867   2.810   1.417  13.477  0.0017  0.0066  0.2995
 4744SOL    HW125868   2.876   1.460  13.422  0.3891  0.9111  1.4796
 4744SOL    HW225869   2.742   1.484  13.479  0.8409  0.9036 -1.6888
 4745SOL     OW25870   0.916   0.091   8.049 -0.2451  0.7682 -0.1407
 4745SOL    HW125871   0.909   0.169   7.993 -1.4487  1.2098  0.6453
 4745SOL    HW225872   0.942   0.126   8.134  0.0655 -0.1914  0.1651
 4746SOL     OW25873   2.500   2.801   7.087  0.6097  0.3212 -0.5550
 4746SOL    HW125874   2.481   2.709   7.107 -0.5226  0.4135 -1.1934
 4746SOL    HW225875   2.438   2.814   7.015  0.1705 -2.8797 -0.7718
 4747SOL     OW25876   4.494   2.335   4.307 -0.1335 -0.5388 -0.1278
 4747SOL    HW125877   4.402   2.352   4.324  0.3787  1.1849  1.0692
 4747SOL    HW225878   4.499   2.339   4.212 -1.4178  0.5284 -0.1523
 4748SOL     OW25879   4.190   3.344   5.353  0.1213 -0.2891 -0.1735
 4748SOL    HW125880   4.232   3.290   5.419 -1.2598  0.7416  1.5662
 4748SOL    HW225881   4.102   3.307   5.348 -0.2055  0.3262  0.9439
 4749SOL     OW25882   1.369   2.558   6.176 -0.3208  0.2527  0.3728
 4749SOL    HW125883   1.286   2.583   6.136 -0.6452 -0.4616  0.6088
 4749SOL    HW225884   1.350   2.476   6.220  1.4114 -0.3158  0.0438
 4750SOL     OW25885   1.975   4.471  12.123 -0.0924  0.2040  0.1266
 4750SOL    HW125886   1.915   4.399  12.142 -2.1397  2.2051  1.1952
 4750SOL    HW225887   2.053   4.439  12.168 -0.9215  1.4146  2.4084
 4751SOL     OW25888   2.591   3.763   7.897  0.7505 -0.0350  0.1843
 4751SOL    HW125889   2.521   3.823   7.925  0.6659 -0.5773  1.1190
 4751SOL    HW225890   2.660   3.795   7.955  0.0121  0.9610  0.5247
 4752SOL     OW25891   1.026   3.398  15.437 -0.0505  1.0704 -0.0001
 4752SOL    HW125892   1.056   3.427  15.523 -2.4704  0.1900  1.1343
 4752SOL    HW225893   1.051   3.306  15.443 -0.0310  0.9126 -2.2613
 4753SOL     OW25894   3.450   0.602   3.798 -0.0418 -0.1478  0.3812
 4753SOL    HW125895   3.373   0.642   3.757 -0.8877 -1.8562  0.2961
 4753SOL    HW225896   3.505   0.573   3.725 -2.5819 -2.5035 -0.5755
 4754SOL     OW25897   4.723   1.438  11.368  0.0132 -0.4309 -0.1309
 4754SOL    HW125898   0.005   1.506  11.432 -0.1152 -1.2447  0.7579
 4754SOL    HW225899   4.709   1.369  11.432 -0.8922 -2.3212 -2.3759
 4755SOL     OW25900   0.142   1.309  10.632  0.3641 -0.2431  0.2401
 4755SOL    HW125901   0.168   1.373  10.698  0.2054  1.3118 -1.1877
 4755SOL    HW225902   0.194   1.232  10.658  0.3665 -0.0112  0.9273
 4756SOL     OW25903   3.828   0.629   5.285  0.1157  0.3255  0.8033
 4756SOL    HW125904   3.781   0.601   5.206  1.0570 -0.2864  0.4598
 4756SOL    HW225905   3.860   0.715   5.258 -1.1711  1.1355  1.8181
 4757SOL     OW25906   4.059   3.866  15.276 -0.1217  0.5993 -0.3732
 4757SOL    HW125907   4.122   3.928  15.312  0.4559  0.2126 -0.7094
 4757SOL    HW225908   4.063   3.801  15.346  0.0015  1.9847  0.8938
 4758SOL     OW25909   0.708   0.809   5.301  0.2364  0.2169 -0.6713
 4758SOL    HW125910   0.754   0.893   5.308  0.8052 -0.1516  0.0558
 4758SOL    HW225911   0.772   0.738   5.314  0.1157 -0.2796 -2.8997
 4759SOL     OW25912   2.509   2.884   6.245  0.0601  0.0540  0.0245
 4759SOL    HW125913   2.579   2.922   6.298  1.2269 -0.6658 -0.9981
 4759SOL    HW225914   2.553   2.905   6.162 -0.5904 -2.8215 -1.0255
 4760SOL     OW25915   3.915   3.876   4.374  0.3990 -0.0069 -0.0311
 4760SOL    HW125916   3.853   3.818   4.419 -0.0562  1.1727  0.8663
 4760SOL    HW225917   3.900   3.864   4.280 -1.5386  2.6384 -0.0745
 4761SOL     OW25918   2.273   2.272   1.873  0.5039 -0.1782 -0.3227
 4761SOL    HW125919   2.206   2.206   1.893  0.9571 -0.7660 -0.7454
 4761SOL    HW225920   2.215   2.347   1.873  0.4144 -0.2457  0.0555
 4762SOL     OW25921   3.888   0.814   7.036  0.3252 -0.2003  0.2760
 4762SOL    HW125922   3.977   0.810   7.071  0.9202 -0.4805 -1.2340
 4762SOL    HW225923   3.880   0.907   7.017  0.9162  0.0702  1.3548
 4763SOL     OW25924   1.043   1.831   8.456 -0.5677  0.2906 -0.4321
 4763SOL    HW125925   1.044   1.863   8.366 -0.8539  1.8075  0.1138
 4763SOL    HW225926   1.115   1.883   8.492  0.1333 -2.0985  1.6118
 4764SOL     OW25927   4.543   0.577   5.081 -0.3153 -0.4106 -0.4121
 4764SOL    HW125928   4.612   0.635   5.049  0.7367  0.5552  3.6390
 4764SOL    HW225929   4.558   0.496   5.033 -3.0821 -1.5048  0.5540
 4765SOL     OW25930   0.336   2.169   0.625  0.4075  0.4294  0.6737
 4765SOL    HW125931   0.350   2.133   0.537  1.4040  0.0402  0.9978
 4765SOL    HW225932   0.304   2.094   0.676 -0.7497  0.4974  0.0450
 4766SOL     OW25933   3.617   1.720   4.040 -0.2982 -0.4983 -0.0286
 4766SOL    HW125934   3.702   1.711   4.083 -0.1526  0.8201 -0.0284
 4766SOL    HW225935   3.602   1.633   4.004 -1.5066  0.3617 -1.5723
 4767SOL     OW25936   3.723   0.637   8.130  0.3617 -0.1844 -0.3828
 4767SOL    HW125937   3.776   0.577   8.182 -0.0938 -0.8583 -0.6893
 4767SOL    HW225938   3.639   0.627   8.174  0.0525  2.3499 -0.3660
 4768SOL     OW25939   4.500   2.345  11.009  0.1232  0.5253 -0.0400
 4768SOL    HW125940   4.532   2.291  10.937 -0.1893 -1.9257  1.6563
 4768SOL    HW225941   4.468   2.282  11.073  3.1302  0.0173  0.9159
 4769SOL     OW25942   1.547   2.240   2.935 -0.2108  0.6333  0.3608
 4769SOL    HW125943   1.557   2.257   3.028  0.9569  1.8934  0.0016
 4769SOL    HW225944   1.562   2.327   2.898  0.9381  0.0969 -0.4562
 4770SOL     OW25945   3.507   0.889   1.778 -0.0691 -0.1618  0.0450
 4770SOL    HW125946   3.489   0.981   1.758 -1.3284 -0.4041  0.0379
 4770SOL    HW225947   3.559   0.870   1.700  1.0860 -1.6754  1.1932
 4771SOL     OW25948   0.707   4.363   9.957  0.0541 -0.2222 -0.0977
 4771SOL    HW125949   0.725   4.420  10.032  0.7704 -0.0793 -0.3800
 4771SOL    HW225950   0.713   4.278  10.000  1.3132  0.2275  0.5930
 4772SOL     OW25951   2.222   2.387  13.624  0.9793 -0.3687 -0.7094
 4772SOL    HW125952   2.246   2.465  13.574 -0.1985  0.8918  0.6929
 4772SOL    HW225953   2.132   2.380  13.591  0.9288  0.6020 -0.7841
 4773SOL     OW25954   4.381   3.228   7.288 -0.0058 -0.2991 -0.4489
 4773SOL    HW125955   4.298   3.228   7.336 -2.0714  1.4097 -4.0660
 4773SOL    HW225956   4.363   3.274   7.206 -2.7740  1.9687  1.3999
 4774SOL     OW25957   1.064   0.628  16.009 -0.5194  0.0741  0.3578
 4774SOL    HW125958   1.119   0.555  16.037 -1.2246  0.0349  1.6493
 4774SOL    HW225959   1.016   0.587  15.937  3.5360 -1.2078 -1.6289
 4775SOL     OW25960   2.710   0.600   5.875 -0.3515  0.0725 -0.2798
 4775SOL    HW125961   2.677   0.558   5.795 -1.4411 -0.9825  0.7208
 4775SOL    HW225962   2.785   0.636   5.828  0.6238 -1.9524 -0.2904
 4776SOL     OW25963   2.960   0.774   6.748 -0.0875 -0.3428 -0.0113
 4776SOL    HW125964   3.043   0.819   6.735 -0.4577  0.0866 -0.9417
 4776SOL    HW225965   2.918   0.803   6.666  0.3231  0.6939  0.1478
 4777SOL     OW25966   4.171   0.312   7.100  0.2009 -0.3038 -0.0590
 4777SOL    HW125967   4.083   0.274   7.100  1.3936 -3.0312  1.9339
 4777SOL    HW225968   4.151   0.398   7.063  1.3009 -0.0503 -0.0556
 4778SOL     OW25969   3.469   4.365   5.974  0.2853  0.0386 -0.4169
 4778SOL    HW125970   3.564   4.358   5.974  0.2198 -0.9234 -2.7514
 4778SOL    HW225971   3.440   4.453   5.949  1.8345  0.5509 -0.3573
 4779SOL     OW25972   2.730   4.520   4.232  0.3919  0.2527 -0.5902
 4779SOL    HW125973   2.793   4.507   4.303  0.6479 -2.8112 -1.4056
 4779SOL    HW225974   2.766   4.450   4.178  0.3836  0.0209 -0.2960
 4780SOL     OW25975   2.077   1.016   4.895 -0.6228  0.6954  0.0807
 4780SOL    HW125976   2.025   0.964   4.834  0.8784 -0.6225 -0.0827
 4780SOL    HW225977   2.011   1.067   4.943  0.1434 -1.4224  3.3303
 4781SOL     OW25978   4.083   3.317   1.509 -0.0015 -0.1955  0.4715
 4781SOL    HW125979   4.119   3.387   1.455 -2.0194 -0.9099 -1.8580
 4781SOL    HW225980   3.990   3.322   1.484  0.5772  0.8594 -1.4953
 4782SOL     OW25981   3.911   2.640  11.989 -0.6900  0.0873  0.8012
 4782SOL    HW125982   4.001   2.669  12.005 -0.9849  0.8912  0.9995
 4782SOL    HW225983   3.924   2.572  11.923 -0.1246 -0.2779  1.2933
 4783SOL     OW25984   3.745   1.293   9.760 -0.2555 -0.1598  0.5709
 4783SOL    HW125985   3.726   1.257   9.847 -0.1576  3.0520  1.9001
 4783SOL    HW225986   3.695   1.374   9.757  1.6608  1.0948  2.6945
 4784SOL     OW25987   1.498   1.993   4.164  0.2135  0.1764 -0.6669
 4784SOL    HW125988   1.406   2.011   4.181  0.0143  0.0767 -1.6293
 4784SOL    HW225989   1.505   1.940   4.084 -0.7363 -0.9734  0.0124
 4785SOL     OW25990   2.590   4.268   6.382 -0.4202 -0.0318 -0.0095
 4785SOL    HW125991   2.609   4.180   6.350  1.5066  1.2475 -2.3828
 4785SOL    HW225992   2.542   4.303   6.307 -0.3655 -1.3780 -0.6765
 4786SOL     OW25993   4.028   1.598  12.397 -0.7762 -0.6079  0.0600
 4786SOL    HW125994   4.089   1.619  12.326 -0.3626  1.3438  0.9831
 4786SOL    HW225995   4.065   1.645  12.471  0.4762  1.8698 -2.1229
 4787SOL     OW25996   1.894   0.491   4.515 -0.1500 -0.3797  0.4325
 4787SOL    HW125997   1.887   0.507   4.609  0.0805 -1.5399  0.6492
 4787SOL    HW225998   1.958   0.557   4.486 -1.5265  1.2367  1.0672
 4788SOL     OW25999   3.574   2.098   0.803  0.0262 -0.0250  0.0880
 4788SOL    HW126000   3.654   2.048   0.819 -0.6885 -0.9558  0.7111
 4788SOL    HW226001   3.513   2.036   0.763  0.8155  0.6139 -2.0990
 4789SOL     OW26002   2.629   2.611   7.551 -0.3588  0.6896 -0.0718
 4789SOL    HW126003   2.649   2.665   7.474  1.2771 -0.6087 -0.5560
 4789SOL    HW226004   2.556   2.653   7.595 -0.3722 -1.0168  1.5262
 4790SOL     OW26005   1.553   2.114   3.525 -0.1100 -0.4901 -0.0445
 4790SOL    HW126006   1.486   2.080   3.584 -1.8395 -0.3792 -1.9307
 4790SOL    HW226007   1.545   2.209   3.518 -1.1017 -0.7204 -2.1322
 4791SOL     OW26008   2.465   3.429   7.268 -0.2238  0.5799 -0.5819
 4791SOL    HW126009   2.398   3.425   7.336  0.1672 -0.7737 -0.2807
 4791SOL    HW226010   2.481   3.524   7.263 -0.1925  0.5225 -1.6313
 4792SOL     OW26011   1.017   1.708  11.549 -0.4143 -0.4591  0.3660
 4792SOL    HW126012   1.008   1.798  11.520 -0.1117 -0.6667 -0.3709
 4792SOL    HW226013   1.080   1.680  11.482 -2.0668  1.8293 -2.1014
 4793SOL     OW26014   3.395   1.176   7.074  0.4433 -0.4904  0.2634
 4793SOL    HW126015   3.355   1.099   7.033  1.1934 -0.5075 -0.4413
 4793SOL    HW226016   3.325   1.241   7.073  0.2307 -0.7096  0.8940
 4794SOL     OW26017   2.921   0.246   6.069  0.3317  0.2327  0.5403
 4794SOL    HW126018   2.859   0.257   6.140 -1.2302  1.5068 -1.0089
 4794SOL    HW226019   2.997   0.209   6.114  1.1112  0.0679 -0.8979
 4795SOL     OW26020   3.254   0.048   7.662  0.6128  0.5181 -0.0026
 4795SOL    HW126021   3.249   0.062   7.568  1.4986  0.3094 -0.0829
 4795SOL    HW226022   3.338   0.094   7.663  0.9121 -0.0021 -1.5775
 4796SOL     OW26023   4.221   3.740   5.809  0.6711  0.3880  0.2099
 4796SOL    HW126024   4.231   3.726   5.903 -1.6749 -2.5052  0.0390
 4796SOL    HW226025   4.239   3.652   5.775 -0.9089  1.1742 -2.6367
 4797SOL     OW26026   2.837   1.557   8.004 -0.5000  0.0696  0.2077
 4797SOL    HW126027   2.928   1.565   8.031 -0.2328 -1.6290 -0.2494
 4797SOL    HW226028   2.840   1.495   7.932  0.0270  1.9239 -1.3568
 4798SOL     OW26029   2.496   1.939  16.683  0.4814  0.3591 -0.2788
 4798SOL    HW126030   2.550   1.989  16.622  0.4273  0.2976 -0.3768
 4798SOL    HW226031   2.408   1.950  16.646  0.5525 -1.6805 -1.0903
 4799SOL     OW26032   0.016   3.656   7.415 -0.2995 -0.0280  0.1073
 4799SOL    HW126033   4.725   3.630   7.503 -3.9654  5.0789  0.4767
 4799SOL    HW226034   4.672   3.642   7.367  0.0305 -1.6766  0.0504
 4800SOL     OW26035   0.210   4.024  12.269 -0.3220 -0.5622 -0.5185
 4800SOL    HW126036   0.202   3.983  12.355  0.1373 -2.0304 -1.1709
 4800SOL    HW226037   0.120   4.050  12.248 -0.4466 -0.9375 -0.4554
 4801SOL     OW26038   2.483   0.225   4.782  0.3828  0.3359 -0.0261
 4801SOL    HW126039   2.447   0.168   4.715 -0.2706  1.1119 -0.3396
 4801SOL    HW226040   2.400   0.249   4.825 -0.9053 -2.3318 -1.0266
 4802SOL     OW26041   3.663   3.755  16.998 -0.3450 -0.7852 -0.0721
 4802SOL    HW126042   3.757   3.770  17.005 -0.2445 -1.0991 -0.7061
 4802SOL    HW226043   3.637   3.796  16.916  0.7233 -1.0462 -0.5421
 4803SOL     OW26044   3.197   2.539   4.576  0.0947  0.4957 -0.7280
 4803SOL    HW126045   3.244   2.602   4.631 -0.7635 -2.9513  4.0166
 4803SOL    HW226046   3.106   2.569   4.567  0.8948  2.7371 -1.2966
 4804SOL     OW26047   2.706   1.431   8.282  0.0248 -0.4283 -0.4842
 4804SOL    HW126048   2.708   1.370   8.356  0.0903  0.8841  0.5802
 4804SOL    HW226049   2.658   1.508   8.311 -1.5954 -1.1042 -1.3757
 4805SOL     OW26050   4.512   4.097  12.820  0.3129  0.2635 -0.0026
 4805SOL    HW126051   4.553   4.175  12.856 -0.5360  0.6876  0.0401
 4805SOL    HW226052   4.549   4.089  12.732 -0.1196  0.2906 -0.1838
 4806SOL     OW26053   3.888   3.429   6.324  0.5018  0.3067 -0.8952
 4806SOL    HW126054   3.951   3.357   6.320 -1.0335 -1.0679 -0.3770
 4806SOL    HW226055   3.812   3.388   6.283  0.3142  1.1557 -1.3974
 4807SOL     OW26056   2.113   3.461   3.152  0.2585 -0.1534 -0.2666
 4807SOL    HW126057   2.180   3.436   3.089  0.9126 -0.9205  0.7465
 4807SOL    HW226058   2.070   3.376   3.157 -1.6293  0.8643  0.5786
 4808SOL     OW26059   2.954   0.666   5.036 -0.0720 -0.0237 -0.0066
 4808SOL    HW126060   3.006   0.657   4.955 -1.0718  1.4787 -0.8112
 4808SOL    HW226061   2.889   0.729   5.003  0.3697  1.0717  1.2101
 4809SOL     OW26062   2.574   3.729  16.308 -0.2610 -0.2706  0.5829
 4809SOL    HW126063   2.495   3.703  16.356 -1.0607  1.4605  0.2087
 4809SOL    HW226064   2.643   3.676  16.348 -0.6039 -2.1298 -1.3038
 4810SOL     OW26065   2.700   4.303   8.462 -0.1662  0.4245  0.5122
 4810SOL    HW126066   2.639   4.356   8.513  1.7524  0.2877  2.9369
 4810SOL    HW226067   2.744   4.258   8.534 -2.2359 -2.7828 -0.1826
 4811SOL     OW26068   1.178   0.246   8.531  0.3611 -0.2424 -0.7549
 4811SOL    HW126069   1.114   0.309   8.563  2.3101  0.3255  2.0234
 4811SOL    HW226070   1.249   0.298   8.494  0.1092  1.4036  1.1059
 4812SOL     OW26071   4.362   3.706  17.280  0.3273  0.4354  0.6638
 4812SOL    HW126072   4.290   3.647  17.256  1.7644 -0.9852 -0.1439
 4812SOL    HW226073   4.421   3.664  17.343 -0.9436 -0.8763  0.9655
 4813SOL     OW26074   2.083   3.057   8.040 -0.3736  0.1980 -0.6585
 4813SOL    HW126075   2.014   3.111   8.003  0.7554  1.1826 -1.3132
 4813SOL    HW226076   2.101   3.103   8.122  0.7367 -0.1003 -0.7364
 4814SOL     OW26077   1.008   2.954  14.738 -0.3201 -0.1664 -0.2036
 4814SOL    HW126078   1.045   3.037  14.768  3.2933 -1.7870 -0.0662
 4814SOL    HW226079   0.924   2.981  14.703 -0.7270  0.7339  1.4717
 4815SOL     OW26080   2.848   3.994  10.785 -0.0962 -0.2505  0.2607
 4815SOL    HW126081   2.850   4.057  10.857 -0.2063 -0.7917  0.7335
 4815SOL    HW226082   2.930   4.028  10.750 -0.3143  1.6312  1.5948
 4816SOL     OW26083   0.644   1.649   6.441 -0.4844  0.0648  0.0163
 4816SOL    HW126084   0.613   1.644   6.350 -1.8238 -0.5604  0.5078
 4816SOL    HW226085   0.704   1.724   6.435 -1.3326  0.7005 -0.6979
 4817SOL     OW26086   0.631   0.442   4.377 -0.1571 -0.7252  0.3886
 4817SOL    HW126087   0.719   0.471   4.356 -0.7823 -0.8069 -2.4042
 4817SOL    HW226088   0.619   0.510   4.443 -1.4378  0.1825 -0.7805
 4818SOL     OW26089   3.422   0.977  10.716 -0.0655  0.5394  0.0419
 4818SOL    HW126090   3.392   0.938  10.799  1.9161  4.7692  2.7134
 4818SOL    HW226091   3.492   0.916  10.691  0.0138  0.6296  0.0458
 4819SOL     OW26092   4.434   0.809  10.037  0.3935  0.2535  0.5161
 4819SOL    HW126093   4.401   0.787   9.950  0.2214 -1.6425  1.0706
 4819SOL    HW226094   4.416   0.726  10.081 -2.0595  0.3025 -0.3925
 4820SOL     OW26095   2.607   0.165   9.063  0.0687 -0.6565  0.0817
 4820SOL    HW126096   2.615   0.256   9.092 -0.6321 -1.0486  1.5015
 4820SOL    HW226097   2.696   0.138   9.086 -0.2758 -0.9660  1.0740
 4821SOL     OW26098   0.928   2.387  15.104  0.0113  0.0396  0.1810
 4821SOL    HW126099   0.844   2.369  15.145 -0.3625 -0.7858 -0.9463
 4821SOL    HW226100   0.946   2.462  15.160 -0.3099  1.2322 -1.3030
 4822SOL     OW26101   3.110   3.959   3.152 -0.9193 -0.1451 -0.7488
 4822SOL    HW126102   3.187   3.905   3.137 -1.9389 -1.2877 -1.7946
 4822SOL    HW226103   3.120   3.984   3.244 -0.2733  1.6702 -1.3124
 4823SOL     OW26104   1.921   0.284   9.113 -0.0921  0.3349 -0.1919
 4823SOL    HW126105   1.933   0.375   9.142 -1.2266  0.6087 -0.6021
 4823SOL    HW226106   1.831   0.276   9.144 -0.2931  0.0524 -0.8528
 4824SOL     OW26107   1.043   3.362  10.379 -0.3418  0.0166  0.4097
 4824SOL    HW126108   1.064   3.373  10.472  0.3283 -2.2121  0.5258
 4824SOL    HW226109   1.044   3.451  10.344  1.4020 -0.1395  0.0646
 4825SOL     OW26110   3.904   0.980   1.071 -0.0561 -0.0772  0.5120
 4825SOL    HW126111   3.841   0.955   1.004  0.4466  0.3033 -0.1043
 4825SOL    HW226112   3.857   1.045   1.122 -1.5658 -0.7745  0.0018
 4826SOL     OW26113   4.093   3.156   0.914 -0.4338  0.0612 -0.0700
 4826SOL    HW126114   4.110   3.114   0.830  2.9536  2.1780 -0.4771
 4826SOL    HW226115   4.129   3.245   0.908  0.9693 -0.5662 -0.8522
 4827SOL     OW26116   4.566   0.638   1.972 -0.1163  0.0333 -0.1217
 4827SOL    HW126117   4.544   0.706   2.036 -2.2305  0.5531 -1.4280
 4827SOL    HW226118   4.488   0.586   1.987  0.9560 -1.5186  0.1062
 4828SOL     OW26119   0.344   1.704   8.006  0.1629  0.4554  0.0302
 4828SOL    HW126120   0.404   1.640   7.968 -1.1002 -0.4483 -0.4458
 4828SOL    HW226121   0.365   1.684   8.097 -1.7603 -0.4976  0.2673
 4829SOL     OW26122   2.974   3.792  11.801 -0.1896 -0.4657  0.0674
 4829SOL    HW126123   2.955   3.828  11.888  1.0345 -0.0428  0.1574
 4829SOL    HW226124   2.888   3.768  11.766 -0.6882  0.7173  0.4642
 4830SOL     OW26125   2.062   0.648  13.199 -0.7653  0.0544 -0.3761
 4830SOL    HW126126   2.104   0.733  13.188 -2.6784  0.9122 -1.0452
 4830SOL    HW226127   1.967   0.659  13.206 -0.8655  1.2602 -3.4892
 4831SOL     OW26128   1.803   0.738   3.916  0.1233  0.1397 -0.0760
 4831SOL    HW126129   1.802   0.736   3.820  2.0006 -1.5761 -0.0539
 4831SOL    HW226130   1.710   0.719   3.929  0.2665 -0.6295 -0.1399
 4832SOL     OW26131   4.457   1.662   7.687  0.3118 -0.3916  0.2884
 4832SOL    HW126132   4.386   1.703   7.639 -0.1967  1.7824  2.8712
 4832SOL    HW226133   4.410   1.584   7.718  1.4042 -0.4936  1.7001
 4833SOL     OW26134   0.965   2.274   5.452 -0.3151  0.5124  0.0602
 4833SOL    HW126135   0.942   2.206   5.514 -0.9984  1.5032  0.8950
 4833SOL    HW226136   1.045   2.247   5.406  0.4912  2.5995  0.2234
 4834SOL     OW26137   3.080   3.021   7.842  0.9470  0.1961  0.6834
 4834SOL    HW126138   3.030   2.981   7.913 -1.5693  1.0690 -0.6107
 4834SOL    HW226139   3.167   3.027   7.883  1.4835 -1.6779 -0.1908
 4835SOL     OW26140   0.074   3.406   2.939  0.2919 -0.2318  0.6546
 4835SOL    HW126141   0.027   3.469   2.993 -0.7706 -0.2818 -0.2009
 4835SOL    HW226142   0.101   3.456   2.861  0.3914 -2.0327 -0.4784
 4836SOL     OW26143   2.441   2.674   3.601  0.0190 -0.0554 -1.0162
 4836SOL    HW126144   2.417   2.621   3.677 -3.0478 -0.2286 -2.0708
 4836SOL    HW226145   2.530   2.681   3.635  0.3700 -0.8910 -1.7462
 4837SOL     OW26146   4.281   0.352   8.977  0.2256 -0.3169 -0.8059
 4837SOL    HW126147   4.359   0.370   9.030 -2.3513  1.5071  2.4062
 4837SOL    HW226148   4.277   0.257   8.973 -2.1012 -0.2011 -1.6108
 4838SOL     OW26149   2.269   3.421   7.455 -0.0786 -0.2224  0.4428
 4838SOL    HW126150   2.280   3.446   7.546 -0.3182 -0.2548  0.4810
 4838SOL    HW226151   2.192   3.366   7.466 -0.3004 -0.1222 -0.6217
 4839SOL     OW26152   0.647   2.973  10.074 -0.1876 -0.2182  0.2131
 4839SOL    HW126153   0.738   2.944  10.087 -0.8428 -2.2567  0.2415
 4839SOL    HW226154   0.635   2.910  10.003  0.0591  0.5238 -0.4900
 4840SOL     OW26155   0.720   0.332   3.914 -0.0441 -0.3161 -0.2916
 4840SOL    HW126156   0.752   0.286   3.836 -0.1800  0.8268 -1.0212
 4840SOL    HW226157   0.797   0.340   3.970 -1.6279 -0.9820  1.9590
 4841SOL     OW26158   3.881   2.511   6.915  0.0932 -0.1446  0.8489
 4841SOL    HW126159   3.924   2.591   6.945  1.2419 -0.0626 -1.0300
 4841SOL    HW226160   3.838   2.474   6.993  0.9686  0.6420  1.7094
 4842SOL     OW26161   4.087   2.593   7.699 -0.8723  0.6198 -0.1304
 4842SOL    HW126162   3.993   2.611   7.697 -0.4300  2.7688 -0.7192
 4842SOL    HW226163   4.107   2.654   7.629  1.7275  0.3754  0.3658
 4843SOL     OW26164   3.871   0.704   3.018  0.3321 -0.1312  0.0005
 4843SOL    HW126165   3.783   0.681   3.050 -0.6574  1.9903 -1.2263
 4843SOL    HW226166   3.849   0.765   2.948 -1.8733  1.8171  2.4188
 4844SOL     OW26167   2.417   0.344   9.878  0.5217 -0.0548 -0.1616
 4844SOL    HW126168   2.323   0.360   9.869  0.2483 -2.7290 -1.8915
 4844SOL    HW226169   2.434   0.312   9.790 -0.4283  1.0978 -0.7606
 4845SOL     OW26170   3.112   0.441   9.064 -0.6862  0.4719  0.2060
 4845SOL    HW126171   3.151   0.477   9.144 -0.5744 -0.2759  0.4895
 4845SOL    HW226172   3.035   0.497   9.065  0.0003  1.3908  2.3333
 4846SOL     OW26173   0.282   0.042   2.049 -0.4054  0.0564 -0.0928
 4846SOL    HW126174   0.210   0.029   1.987  0.6345  1.2791 -1.5503
 4846SOL    HW226175   0.296   0.137   2.051  0.5474 -0.1061  1.1424
 4847SOL     OW26176   4.588   2.466  15.270  0.3339  0.2647  0.3353
 4847SOL    HW126177   4.528   2.394  15.291 -0.8499  0.4894 -2.2633
 4847SOL    HW226178   4.541   2.540  15.309 -0.1121 -0.8391  1.8845
 4848SOL     OW26179   1.593   3.730   5.894 -0.0338  0.0906  0.9486
 4848SOL    HW126180   1.581   3.774   5.809 -2.4724  1.6342  2.0898
 4848SOL    HW226181   1.626   3.799   5.952 -2.7637  2.1660  0.0402
 4849SOL     OW26182   3.555   0.215   5.491  0.0703  0.3406 -0.1522
 4849SOL    HW126183   3.587   0.245   5.576 -1.3031 -0.3121  0.5992
 4849SOL    HW226184   3.464   0.203   5.518 -0.3534  1.2303 -1.1896
 4850SOL     OW26185   0.654   4.496   7.666 -0.7751 -0.5621  0.1354
 4850SOL    HW126186   0.593   4.422   7.672  0.3659 -1.3609  1.9922
 4850SOL    HW226187   0.652   4.517   7.572  0.4371 -3.1911 -0.4933
 4851SOL     OW26188   2.049   3.531   4.684  0.0511  0.1593  0.2923
 4851SOL    HW126189   1.956   3.516   4.700 -0.7804  3.3616 -1.5056
 4851SOL    HW226190   2.072   3.579   4.764 -0.2910  2.2845 -0.8675
 4852SOL     OW26191   4.411   4.346   6.264  0.2241  0.4450  0.7591
 4852SOL    HW126192   4.362   4.341   6.346  1.2006 -0.6338  1.2776
 4852SOL    HW226193   4.374   4.266   6.226 -1.6518  1.2158  0.9335
 4853SOL     OW26194   1.416   2.904  11.743 -0.2484  0.5781  0.0847
 4853SOL    HW126195   1.412   2.845  11.668  1.0524  2.2993 -1.3211
 4853SOL    HW226196   1.425   2.982  11.689  0.1860  0.5654  0.1421
 4854SOL     OW26197   2.186   2.687  13.257 -0.2420 -0.2673 -0.0723
 4854SOL    HW126198   2.255   2.654  13.200  0.5324  0.1846  0.6139
 4854SOL    HW226199   2.150   2.755  13.200 -0.9668 -0.0009  0.7017
 4855SOL     OW26200   1.830   4.235   8.699  0.0825  0.0919 -0.2306
 4855SOL    HW126201   1.910   4.187   8.722 -0.6032 -2.6952 -3.8432
 4855SOL    HW226202   1.782   4.155   8.677 -0.0554  0.3636 -0.9104
 4856SOL     OW26203   1.246   3.668   3.179 -0.7269  0.0483 -0.2113
 4856SOL    HW126204   1.194   3.673   3.099 -1.6262 -3.1932  0.1724
 4856SOL    HW226205   1.207   3.594   3.225  1.2880  0.1395  1.6656
 4857SOL     OW26206   1.870   3.720  12.972  0.7474  0.4515 -0.3048
 4857SOL    HW126207   1.900   3.770  12.896  1.1510  1.5609  0.5769
 4857SOL    HW226208   1.782   3.757  12.986  0.4423 -0.5524  0.4073
 4858SOL     OW26209   1.398   3.804   2.569 -0.0849 -0.1902 -0.3871
 4858SOL    HW126210   1.474   3.838   2.523 -0.0008  1.4782  0.9938
 4858SOL    HW226211   1.356   3.886   2.593  0.5843  0.3398 -1.0285
 4859SOL     OW26212   0.335   2.939  17.009  0.2321 -0.4329  0.1493
 4859SOL    HW126213   0.250   2.973  16.980 -0.0696 -4.1745 -3.3990
 4859SOL    HW226214   0.299   2.862  17.053 -1.5077  0.0340 -0.4564
 4860SOL     OW26215   2.992   3.845  13.394  0.2453 -0.3455  0.2308
 4860SOL    HW126216   2.914   3.869  13.345  0.9836  0.5210 -0.5217
 4860SOL    HW226217   3.045   3.788  13.338  0.1688  1.4391 -1.6592
 4861SOL     OW26218   4.206   0.227  13.608 -0.2803  0.8524 -0.5041
 4861SOL    HW126219   4.154   0.246  13.686  4.3083  1.9365  2.2487
 4861SOL    HW226220   4.137   0.237  13.542 -1.8617 -2.4978  0.6604
 4862SOL     OW26221   1.761   0.391   7.401  0.3401 -0.8840  0.6149
 4862SOL    HW126222   1.817   0.385   7.324  0.4307 -1.0013  0.6883
 4862SOL    HW226223   1.826   0.406   7.470  0.4171  0.8987  0.1545
 4863SOL     OW26224   1.061   0.302  11.569 -0.5361  0.7188  0.2005
 4863SOL    HW126225   1.112   0.299  11.650  1.7598  0.9952 -1.2378
 4863SOL    HW226226   0.993   0.367  11.589 -0.3371  1.0970 -0.3720
 4864SOL     OW26227   3.524   4.383   1.240  0.0041 -0.1811  0.0288
 4864SOL    HW126228   3.540   4.471   1.205 -3.4451  0.1849 -0.6201
 4864SOL    HW226229   3.437   4.389   1.279 -0.2723 -0.6121 -0.5205
 4865SOL     OW26230   0.697   2.299  10.446 -0.1162 -0.2311  0.5310
 4865SOL    HW126231   0.659   2.282  10.532 -0.2987 -0.9013  0.3136
 4865SOL    HW226232   0.669   2.390  10.432  1.7299  0.4973  1.5479
 4866SOL     OW26233   4.721   0.341   6.946 -0.4526  0.2882  0.1902
 4866SOL    HW126234   0.025   0.368   7.028  4.0638  0.5637 -2.1633
 4866SOL    HW226235   0.064   0.301   6.910 -0.4274  0.2655  0.2704
 4867SOL     OW26236   2.801   2.430   3.823 -0.5109  0.7602 -0.0123
 4867SOL    HW126237   2.723   2.374   3.822 -0.5021  0.7640 -1.3471
 4867SOL    HW226238   2.866   2.369   3.859  0.6824  1.4302 -1.0459
 4868SOL     OW26239   2.152   0.099   3.321 -0.2452 -0.1760 -0.0379
 4868SOL    HW126240   2.105   0.019   3.347 -1.0985  0.6469  0.9424
 4868SOL    HW226241   2.078   0.154   3.297 -0.6284 -0.8944 -0.5061
 4869SOL     OW26242   2.788   4.346   2.318 -0.4019 -0.5360  0.1806
 4869SOL    HW126243   2.751   4.261   2.293 -2.4766 -0.3658  2.7516
 4869SOL    HW226244   2.788   4.383   2.229 -1.3139 -1.3822 -0.1721
 4870SOL     OW26245   3.287   2.188   0.753  0.1161 -0.1583 -0.0383
 4870SOL    HW126246   3.365   2.241   0.765 -0.4137  0.3420  1.2472
 4870SOL    HW226247   3.228   2.261   0.770  1.3314  0.5690  1.0289
 4871SOL     OW26248   2.812   1.622  14.170 -0.3581  0.0526  0.4085
 4871SOL    HW126249   2.719   1.598  14.180 -0.3076  0.4680  1.7412
 4871SOL    HW226250   2.835   1.533  14.141  1.1773  0.6940 -0.3238
 4872SOL     OW26251   3.408   2.892   3.972  0.0908  0.8300 -0.1913
 4872SOL    HW126252   3.493   2.850   3.983 -0.7932 -0.8810 -0.0190
 4872SOL    HW226253   3.388   2.918   4.062  1.0555 -1.5692  0.7086
 4873SOL     OW26254   1.526   1.989  15.517  0.0195 -0.1310  0.2810
 4873SOL    HW126255   1.549   1.921  15.453 -1.9081 -1.4891  1.0142
 4873SOL    HW226256   1.434   1.963  15.516  0.9384 -3.3594 -1.7698
 4874SOL     OW26257   0.919   2.980  16.931  0.7502 -0.3755 -0.8823
 4874SOL    HW126258   0.934   3.010  17.021 -1.0129 -1.1619 -0.3344
 4874SOL    HW226259   0.851   2.913  16.933  2.3546 -2.0051 -1.2499
 4875SOL     OW26260   2.617   2.265   3.408 -0.6991 -0.4103 -0.3744
 4875SOL    HW126261   2.553   2.255   3.337 -0.6048  1.0378 -0.6668
 4875SOL    HW226262   2.688   2.205   3.383 -2.3577 -1.3675 -2.8413
 4876SOL     OW26263   1.964   4.422   5.913  0.5633 -0.5860  0.1443
 4876SOL    HW126264   1.922   4.484   5.973 -0.9254  1.4963 -3.1005
 4876SOL    HW226265   1.925   4.440   5.828  1.9588 -1.6847 -0.7247
 4877SOL     OW26266   4.233   0.980   7.254  0.4318 -0.0955 -0.1611
 4877SOL    HW126267   4.265   0.986   7.344  1.2461 -0.8265 -0.4046
 4877SOL    HW226268   4.180   1.060   7.254  2.7844  1.4646  1.2184
 4878SOL     OW26269   2.301   2.491   8.375  0.0601  0.2087  0.1798
 4878SOL    HW126270   2.221   2.440   8.390  2.5398 -3.7481 -0.0484
 4878SOL    HW226271   2.324   2.447   8.294 -1.3651  0.1458 -0.1952
 4879SOL     OW26272   1.600   0.511   5.174 -0.3516 -0.0966 -0.7657
 4879SOL    HW126273   1.593   0.417   5.193 -0.1613 -0.0624 -0.5316
 4879SOL    HW226274   1.623   0.559   5.254  1.0599  1.1662 -1.9447
 4880SOL     OW26275   1.115   2.015   7.025  0.2682 -0.2887 -0.1211
 4880SOL    HW126276   1.108   2.061   6.941 -0.1946  0.9065  0.5754
 4880SOL    HW226277   1.181   2.068   7.069 -1.0494 -0.4521  2.0540
 4881SOL     OW26278   0.167   4.065   7.740 -0.1138 -0.4828 -0.0908
 4881SOL    HW126279   0.080   4.084   7.775 -0.2910 -1.4275 -0.0209
 4881SOL    HW226280   0.186   4.144   7.691 -0.5480 -0.2464  0.1206
 4882SOL     OW26281   4.337   1.256   2.037 -0.3200  0.1006 -0.2261
 4882SOL    HW126282   4.294   1.341   2.047 -1.1872 -0.5882  2.0318
 4882SOL    HW226283   4.270   1.218   1.981  1.3534 -0.3052 -1.9661
 4883SOL     OW26284   1.465   1.245   8.445  0.1617 -0.0161 -0.3805
 4883SOL    HW126285   1.393   1.182   8.448 -0.0306  0.3048  1.4545
 4883SOL    HW226286   1.537   1.183   8.447  1.7551  1.8236 -0.4642
 4884SOL     OW26287   1.584   1.992  10.610 -0.2608 -0.6713 -0.3315
 4884SOL    HW126288   1.510   2.051  10.622  0.0294 -0.1985 -0.8621
 4884SOL    HW226289   1.535   1.915  10.581  1.2087 -2.3945  1.7002
 4885SOL     OW26290   0.904   3.398   1.680  0.1179  0.0106 -0.3711
 4885SOL    HW126291   0.849   3.469   1.647  1.6227  1.4407  0.1618
 4885SOL    HW226292   0.969   3.442   1.735 -1.1078 -0.3852  1.3596
 4886SOL     OW26293   1.472   0.321   6.778  0.3023  0.3115 -0.6087
 4886SOL    HW126294   1.473   0.238   6.730 -0.0899 -1.1628  1.9662
 4886SOL    HW226295   1.506   0.371   6.704 -0.9301  0.1689 -1.2595
 4887SOL     OW26296   1.548   0.246   7.193 -0.2374 -0.1198 -0.4096
 4887SOL    HW126297   1.621   0.203   7.148  1.9340  1.0821  1.9460
 4887SOL    HW226298   1.524   0.170   7.245 -0.0749  1.0210  1.3168
 4888SOL     OW26299   2.660   3.282   1.063 -0.0830 -0.1512  0.0821
 4888SOL    HW126300   2.719   3.302   0.991 -2.6696  1.2745 -1.6575
 4888SOL    HW226301   2.594   3.225   1.021 -1.0173  1.9501 -1.3100
 4889SOL     OW26302   0.410   4.649   2.622 -0.5988 -0.2514 -0.6211
 4889SOL    HW126303   0.391   4.594   2.546 -1.0192 -1.4089  0.3212
 4889SOL    HW226304   0.327   4.645   2.670  1.2868  0.9245  2.7246
 4890SOL     OW26305   3.431   1.525  16.362 -0.9830  0.1807  0.2633
 4890SOL    HW126306   3.501   1.576  16.320  0.2083 -0.5318  1.3880
 4890SOL    HW226307   3.476   1.485  16.437 -0.1528 -1.1924 -0.9611
 4891SOL     OW26308   1.871   4.260   4.913  0.0180 -0.1379  0.5550
 4891SOL    HW126309   1.780   4.268   4.943 -0.0298 -0.1605  0.4179
 4891SOL    HW226310   1.892   4.353   4.926 -1.8612 -0.1628  3.8967
 4892SOL     OW26311   2.991   0.520  10.703 -0.4170  0.2853 -0.2372
 4892SOL    HW126312   3.055   0.592  10.704  2.0350 -1.9061 -1.0707
 4892SOL    HW226313   3.043   0.448  10.666 -1.3232 -0.1762 -0.6008
 4893SOL     OW26314   0.063   3.827   3.470 -0.6076  0.1012 -0.1703
 4893SOL    HW126315   0.020   3.758   3.520  1.2131 -0.4639  0.6167
 4893SOL    HW226316   0.136   3.857   3.525 -0.2712 -0.5853 -0.2462
 4894SOL     OW26317   4.330   0.091  12.911 -0.1402  0.5381  0.2853
 4894SOL    HW126318   4.407   0.136  12.946  0.1348 -0.5813  1.1301
 4894SOL    HW226319   4.287   0.164  12.867 -0.1966 -1.1574 -2.4509
 4895SOL     OW26320   2.949   3.561   8.266  0.0682 -0.3498 -0.1211
 4895SOL    HW126321   3.014   3.520   8.323 -1.1638 -0.7230  1.0127
 4895SOL    HW226322   2.916   3.629   8.325  0.8012 -0.8221  0.8220
 4896SOL     OW26323   2.890   0.167  16.215  0.2125  0.2350  0.4859
 4896SOL    HW126324   2.958   0.167  16.283  0.3808  3.1259  0.3207
 4896SOL    HW226325   2.833   0.236  16.248 -0.0208  0.2304  0.1016
 4897SOL     OW26326   2.734   3.180   2.656 -0.0821  0.0202 -0.5294
 4897SOL    HW126327   2.797   3.217   2.717 -0.5996  0.4237 -0.2412
 4897SOL    HW226328   2.791   3.122   2.606  2.2300 -0.3378  2.5398
 4898SOL     OW26329   3.159   4.229   0.219  0.3904 -0.3664 -0.2418
 4898SOL    HW126330   3.195   4.242   0.306 -1.1627  1.4391  0.1287
 4898SOL    HW226331   3.144   4.316   0.183 -0.1101 -0.8094 -1.1424
 4899SOL     OW26332   1.887   2.013   3.669 -0.0166 -0.0773  0.1480
 4899SOL    HW126333   1.919   2.072   3.600 -0.7757 -2.1650 -1.9937
 4899SOL    HW226334   1.895   1.928   3.626  0.7533 -1.5144  3.1655
 4900SOL     OW26335   4.447   3.379   7.027  0.5911  0.0081 -0.0079
 4900SOL    HW126336   4.488   3.393   6.942  1.2220  0.5545  0.3808
 4900SOL    HW226337   4.524   3.387   7.084  1.0187  0.3864 -0.6369
 4901SOL     OW26338   4.027   4.007  11.837 -0.0036 -0.1928  0.0693
 4901SOL    HW126339   4.088   3.978  11.770  1.2350 -0.4215  1.3043
 4901SOL    HW226340   3.953   4.036  11.784 -0.3643  1.2696  1.3571
 4902SOL     OW26341   1.053   0.362   2.273  0.1276 -0.5926 -0.0219
 4902SOL    HW126342   1.061   0.295   2.205 -0.8863 -1.3694  0.6234
 4902SOL    HW226343   1.147   0.379   2.287 -0.1120  0.9009 -0.2228
 4903SOL     OW26344   0.882   0.531   1.683  0.3788 -0.0730  0.0112
 4903SOL    HW126345   0.905   0.588   1.756  0.0007  0.6161 -0.4105
 4903SOL    HW226346   0.848   0.456   1.732  1.0623  0.3293  1.0915
 4904SOL     OW26347   4.551   0.969  12.244  0.0949 -0.5131  0.3064
 4904SOL    HW126348   4.507   1.052  12.263  0.0140 -0.4394 -0.1935
 4904SOL    HW226349   4.585   0.956  12.332 -0.3991 -1.0079  0.4277
 4905SOL     OW26350   4.053   0.507   5.395 -0.2199  0.5280  0.4781
 4905SOL    HW126351   4.091   0.462   5.320 -0.1833  2.5887 -0.7304
 4905SOL    HW226352   3.959   0.510   5.379  0.1144 -1.1477 -1.7757
 4906SOL     OW26353   0.144   4.671   4.198  0.0382 -0.2856 -0.0802
 4906SOL    HW126354   0.166   0.020   4.161  0.2321  0.4396  1.7181
 4906SOL    HW226355   0.205   4.665   4.271  0.1048  1.6782  0.0403
 4907SOL     OW26356   3.206   4.187   2.298  0.3252  0.0684 -0.3358
 4907SOL    HW126357   3.124   4.139   2.290  1.1813 -1.7565  1.7387
 4907SOL    HW226358   3.163   4.272   2.306  0.7408  0.4412 -2.1426
 4908SOL     OW26359   0.016   2.447  15.505  0.3260  0.1566 -0.0087
 4908SOL    HW126360   0.040   2.460  15.413  1.4302  1.4893  0.4645
 4908SOL    HW226361   4.678   2.506  15.516  1.3270  1.2327  1.0642
 4909SOL     OW26362   2.541   3.639   1.699  0.9023 -0.4287 -0.1141
 4909SOL    HW126363   2.583   3.574   1.643 -1.2961  0.1774 -2.5031
 4909SOL    HW226364   2.519   3.582   1.772 -0.1906 -0.6026 -0.5751
 4910SOL     OW26365   1.472   1.176   6.401 -0.4605  0.0569 -0.7091
 4910SOL    HW126366   1.406   1.223   6.452  1.3096  0.3325  1.3164
 4910SOL    HW226367   1.543   1.239   6.406 -1.3737  0.9221  1.0730
 4911SOL     OW26368   3.329   1.795   5.788  0.4265  0.1013  0.5586
 4911SOL    HW126369   3.282   1.802   5.870  0.9349 -1.7073  1.0061
 4911SOL    HW226370   3.260   1.763   5.731  0.6842  1.2491 -0.4134
 4912SOL     OW26371   0.497   2.934   4.783  0.8703  0.6532  0.1513
 4912SOL    HW126372   0.508   2.938   4.878  0.3102 -1.2963  0.3044
 4912SOL    HW226373   0.426   2.998   4.782  1.5657  1.3806 -2.4483
 4913SOL     OW26374   1.673   4.479  11.797 -0.2566  0.0889  0.3464
 4913SOL    HW126375   1.731   4.549  11.826  1.1044 -1.5742  1.5896
 4913SOL    HW226376   1.742   4.429  11.753  0.1460  1.2251 -0.3198
 4914SOL     OW26377   0.312   3.888   5.973  0.1386 -0.2420 -0.1398
 4914SOL    HW126378   0.232   3.930   5.941  0.4678  1.9333  1.8927
 4914SOL    HW226379   0.298   3.917   6.063 -1.1359  3.0433 -1.3938
 4915SOL     OW26380   4.072   1.438   9.385 -0.4139 -0.3318  0.0921
 4915SOL    HW126381   4.048   1.527   9.412 -1.8211 -0.5543 -0.4124
 4915SOL    HW226382   4.031   1.387   9.455  2.4353  1.1425  2.8350
 4916SOL     OW26383   4.430   0.105  12.363  0.1833  0.5438  0.1142
 4916SOL    HW126384   4.486   0.063  12.298  3.7181  3.1583  1.4471
 4916SOL    HW226385   4.497   0.164  12.400  0.9040  0.6651 -1.3998
 4917SOL     OW26386   2.053   3.425   6.028 -0.0145 -0.2239 -0.3659
 4917SOL    HW126387   1.995   3.353   6.054 -0.2374  0.0717 -0.0473
 4917SOL    HW226388   1.989   3.497   6.031 -0.6790 -0.7753 -1.5675
 4918SOL     OW26389   1.314   0.148   9.096  0.0911  0.0533 -0.2102
 4918SOL    HW126390   1.363   0.068   9.111 -0.9413 -0.4562  0.4321
 4918SOL    HW226391   1.378   0.208   9.057 -0.0971  0.3598 -0.0454
 4919SOL     OW26392   2.193   3.076  16.161 -0.3962 -0.7399  0.1457
 4919SOL    HW126393   2.171   3.014  16.091 -3.1797 -0.3486  0.6752
 4919SOL    HW226394   2.150   3.152  16.122  0.7051 -0.1886  0.0012
 4920SOL     OW26395   3.801   2.009   6.180 -0.4702 -0.5295 -0.3107
 4920SOL    HW126396   3.736   2.046   6.239 -2.0313  0.1375 -2.4415
 4920SOL    HW226397   3.869   2.072   6.205 -0.9101 -0.2437  0.1510
 4921SOL     OW26398   2.126   3.317   8.597  0.2588  0.2939 -0.1307
 4921SOL    HW126399   2.172   3.365   8.667 -0.1108 -1.6469  1.4274
 4921SOL    HW226400   2.109   3.400   8.551  0.8830  0.4213 -0.1308
 4922SOL     OW26401   1.166   1.551  10.187 -0.1375  0.4045  0.0858
 4922SOL    HW126402   1.226   1.548  10.113  2.7196 -3.6077  2.5486
 4922SOL    HW226403   1.139   1.459  10.178 -1.1989  0.8257 -1.0092
 4923SOL     OW26404   0.845   3.618  14.940  0.1114  0.6990 -0.1625
 4923SOL    HW126405   0.799   3.655  14.865 -0.4029 -3.5921 -1.9782
 4923SOL    HW226406   0.839   3.688  15.004 -0.9211 -0.5991  1.1792
 4924SOL     OW26407   1.537   4.508   5.422 -0.5725  0.3859 -0.0522
 4924SOL    HW126408   1.488   4.526   5.342 -0.3019  2.9852  0.3406
 4924SOL    HW226409   1.612   4.471   5.375 -1.1863  1.4517 -1.8634
 4925SOL     OW26410   2.672   4.649   7.768  0.4583 -0.0441  0.1830
 4925SOL    HW126411   2.711   4.671   7.683 -1.0660  2.7792  0.2328
 4925SOL    HW226412   2.594   4.704   7.776  0.8013  0.3670  0.6591
 4926SOL     OW26413   2.513   0.160   7.254 -0.0310 -0.6398  0.1570
 4926SOL    HW126414   2.524   0.230   7.190  0.8977  1.5081  2.7031
 4926SOL    HW226415   2.502   0.207   7.337  2.4384 -2.7637  1.6842
 4927SOL     OW26416   0.151   0.212   4.057  0.1862  0.4519 -0.4569
 4927SOL    HW126417   0.113   0.217   3.969 -2.2715  1.9618  0.6902
 4927SOL    HW226418   0.149   0.307   4.072 -2.0482  0.4811 -0.8292
 4928SOL     OW26419   1.391   0.736   8.732  0.6475 -0.1936 -0.6131
 4928SOL    HW126420   1.449   0.690   8.794  2.7174  1.2079 -1.4974
 4928SOL    HW226421   1.324   0.672   8.710  0.6618 -0.8990  1.3173
 4929SOL     OW26422   1.344   2.598   2.698  0.1626  0.0571 -0.3125
 4929SOL    HW126423   1.342   2.505   2.674  1.7657 -0.5037  1.7498
 4929SOL    HW226424   1.269   2.629   2.647 -0.0585  0.4901  0.2900
 4930SOL     OW26425   4.416   4.455  13.039  0.2582 -0.1753  0.1170
 4930SOL    HW126426   4.342   4.511  13.065  0.5520  0.0036  0.5740
 4930SOL    HW226427   4.397   4.470  12.946 -0.4765  0.4630  0.3614
 4931SOL     OW26428   4.613   4.567   0.865 -0.0302 -0.0454 -0.1783
 4931SOL    HW126429   4.658   4.651   0.856  0.3287 -0.0276  1.8906
 4931SOL    HW226430   4.522   4.583   0.839 -0.4107 -0.9374  0.6286
 4932SOL     OW26431   3.634   0.417   4.244  0.3115  0.4354  0.0031
 4932SOL    HW126432   3.603   0.473   4.173  1.3897  0.2240 -0.6477
 4932SOL    HW226433   3.563   0.415   4.308  0.5343 -0.2591  0.2337
 4933SOL     OW26434   2.957   0.818   1.823  0.0738  0.2627 -0.0676
 4933SOL    HW126435   2.945   0.906   1.859  1.7222  0.9110 -1.1319
 4933SOL    HW226436   3.049   0.812   1.849 -0.3892  0.8179  1.7004
 4934SOL     OW26437   3.273   0.426   1.331 -0.2683 -0.2381 -0.1203
 4934SOL    HW126438   3.212   0.443   1.402 -0.0548 -1.3863  0.3511
 4934SOL    HW226439   3.240   0.342   1.298 -0.8831 -1.4253  3.5626
 4935SOL     OW26440   2.234   0.460   8.306  0.0803 -0.8366  0.0985
 4935SOL    HW126441   2.279   0.522   8.363  0.2007  0.7503 -1.7085
 4935SOL    HW226442   2.185   0.417   8.376 -2.2233  2.3388  0.4453
 4936SOL     OW26443   1.871   1.633  16.759 -0.4486 -0.2490 -0.1176
 4936SOL    HW126444   1.781   1.605  16.742 -0.3288 -0.1750 -0.8949
 4936SOL    HW226445   1.854   1.719  16.796 -0.7377  0.5909 -2.1923
 4937SOL     OW26446   3.682   2.490   1.703 -0.3342  0.3762 -0.0605
 4937SOL    HW126447   3.621   2.483   1.776 -1.8769  1.0129 -1.2941
 4937SOL    HW226448   3.657   2.407   1.664  0.6050 -0.2090  0.5756
 4938SOL     OW26449   1.620   4.639  14.106 -0.0936 -0.1169 -0.1962
 4938SOL    HW126450   1.609   4.616  14.014  0.6126 -1.8296  0.1630
 4938SOL    HW226451   1.668   4.722  14.103 -3.0395  1.6592  2.0494
 4939SOL     OW26452   2.650   2.946   7.808  0.2447  0.2662 -0.0209
 4939SOL    HW126453   2.603   2.905   7.736  0.6254  0.6598 -0.4902
 4939SOL    HW226454   2.661   3.032   7.767 -1.5760 -0.4597 -2.0161
 4940SOL     OW26455   2.119   4.540  10.354  0.0224 -0.1766 -0.0953
 4940SOL    HW126456   2.177   4.482  10.403  0.1567  0.8044  0.9095
 4940SOL    HW226457   2.097   4.602  10.423  0.0764  0.5951 -0.7606
 4941SOL     OW26458   3.009   1.605  13.383  0.0950 -0.0831 -0.1291
 4941SOL    HW126459   3.062   1.635  13.456  1.8923  2.8441 -2.6186
 4941SOL    HW226460   3.076   1.606  13.314  1.2599 -1.8225  1.0041
 4942SOL     OW26461   0.548   3.704   6.665 -0.4172  0.7048 -0.3765
 4942SOL    HW126462   0.618   3.728   6.604  0.7657  1.4399  1.2927
 4942SOL    HW226463   0.495   3.637   6.620 -0.1692 -0.5304  1.1957
 4943SOL     OW26464   2.254   3.409   3.850 -0.0399 -0.2323 -0.0066
 4943SOL    HW126465   2.200   3.344   3.895  1.3314 -1.0934  0.4224
 4943SOL    HW226466   2.261   3.378   3.759 -0.4906 -0.3001 -0.0165
 4944SOL     OW26467   4.176   4.344   3.971 -0.3972 -0.5631  0.4992
 4944SOL    HW126468   4.166   4.375   4.062 -1.6259 -0.2701  0.2684
 4944SOL    HW226469   4.212   4.423   3.931  1.0507 -1.7164 -0.4430
 4945SOL     OW26470   2.277   0.465   7.691  0.4664 -0.6865  0.0793
 4945SOL    HW126471   2.222   0.395   7.654  0.8048 -1.1418  0.4449
 4945SOL    HW226472   2.208   0.522   7.726 -1.4744 -3.0258  0.0659
 4946SOL     OW26473   0.260   3.848   5.241  0.5008 -0.1269 -0.1221
 4946SOL    HW126474   0.232   3.871   5.152  1.4131 -0.8339 -0.5929
 4946SOL    HW226475   0.315   3.770   5.230  2.8794  1.3637  1.1609
 4947SOL     OW26476   1.621   1.619  15.041 -0.5037  0.6288  0.5765
 4947SOL    HW126477   1.623   1.569  14.960  2.5455  1.8941 -0.1190
 4947SOL    HW226478   1.710   1.649  15.061 -0.0427 -0.7759  0.6727
 4948SOL     OW26479   3.380   0.502   4.938 -0.0618 -0.2924  0.2379
 4948SOL    HW126480   3.404   0.593   4.957 -0.5884 -0.1203  0.0735
 4948SOL    HW226481   3.288   0.521   4.923  0.4234  0.5601 -1.6948
 4949SOL     OW26482   4.446   1.207   4.667 -0.2964 -0.1452  0.6951
 4949SOL    HW126483   4.477   1.131   4.617  1.2299  1.6146 -1.0037
 4949SOL    HW226484   4.440   1.175   4.757  1.0123 -1.0352  0.4712
 4950SOL     OW26485   3.359   0.335   5.996  0.3646  0.3299 -0.2718
 4950SOL    HW126486   3.412   0.414   5.981 -0.2580  1.2120  2.1259
 4950SOL    HW226487   3.276   0.371   6.030  0.4367 -1.0050  1.3114
 4951SOL     OW26488   3.996   1.257  13.100 -1.0084  0.3823 -0.3936
 4951SOL    HW126489   3.995   1.162  13.088  0.0674  0.4870 -1.2721
 4951SOL    HW226490   4.084   1.281  13.071 -0.2004 -1.1405  0.7646
 4952SOL     OW26491   3.765   2.449  14.643 -0.1923 -0.1379  0.4607
 4952SOL    HW126492   3.718   2.523  14.604  0.5793 -0.2009 -0.6043
 4952SOL    HW226493   3.751   2.378  14.580 -2.8923  2.0460 -1.3998
 4953SOL     OW26494   4.541   4.101  13.130  0.2307 -0.4783  0.0655
 4953SOL    HW126495   4.451   4.128  13.144  0.5530  0.2434  0.7816
 4953SOL    HW226496   4.543   4.012  13.165 -0.8578 -0.7853 -0.6636
 4954SOL     OW26497   2.568   1.759  12.161 -0.7947  0.4734  0.1940
 4954SOL    HW126498   2.589   1.755  12.254  2.3003 -0.3341 -0.5327
 4954SOL    HW226499   2.637   1.816  12.128 -2.4463  1.4499 -1.5731
 4955SOL     OW26500   3.020   1.225   8.101  0.1323 -0.2704  0.3445
 4955SOL    HW126501   3.043   1.303   8.153 -2.2082  1.2495 -0.9321
 4955SOL    HW226502   2.926   1.240   8.092  0.1848  1.0584  2.0694
 4956SOL     OW26503   3.196   3.585   3.088  0.6924  0.2273 -0.2579
 4956SOL    HW126504   3.207   3.583   2.993  0.5829  1.8543 -0.3057
 4956SOL    HW226505   3.244   3.667   3.093  0.0390  0.4784  1.6651
 4957SOL     OW26506   3.407   0.938  10.038  0.4699  0.5796 -0.3158
 4957SOL    HW126507   3.463   0.862  10.055 -1.7165 -1.4178 -2.0196
 4957SOL    HW226508   3.340   0.925  10.105  0.0411  0.1253 -0.8346
 4958SOL     OW26509   0.336   2.773  14.831 -0.0666  0.1821  0.3221
 4958SOL    HW126510   0.402   2.737  14.772  0.0335  1.4113 -0.3194
 4958SOL    HW226511   0.300   2.699  14.880  1.9872 -1.2807 -0.3889
 4959SOL     OW26512   2.965   0.647   5.795  0.2771 -0.6581  0.3930
 4959SOL    HW126513   2.975   0.743   5.793  1.5484 -0.8085 -0.3761
 4959SOL    HW226514   3.050   0.615   5.764 -0.6884 -0.6724 -2.1499
 4960SOL     OW26515   2.359   0.809   8.110 -0.1943 -0.4107  0.8822
 4960SOL    HW126516   2.292   0.818   8.178 -0.7656  0.2289  0.2403
 4960SOL    HW226517   2.391   0.899   8.097  1.0339 -0.7016  1.8879
 4961SOL     OW26518   4.134   0.334   6.344 -0.0609 -0.6828 -0.3832
 4961SOL    HW126519   4.043   0.364   6.355 -0.0763 -0.2619 -1.6546
 4961SOL    HW226520   4.123   0.285   6.262  0.5982  1.3800 -1.7100
 4962SOL     OW26521   2.913   3.133  12.697 -0.2601  0.4603 -0.1436
 4962SOL    HW126522   2.956   3.216  12.676 -0.5793  0.4896 -0.6826
 4962SOL    HW226523   2.932   3.084  12.617 -0.3322 -0.9520  0.7137
 4963SOL     OW26524   0.952   2.243   2.686 -0.2957 -0.6746  0.2435
 4963SOL    HW126525   0.906   2.327   2.687  0.2570 -0.3374 -1.6539
 4963SOL    HW226526   0.946   2.220   2.593  2.1556  0.1470 -0.1162
 4964SOL     OW26527   0.600   4.341   5.961  0.2852 -0.1460 -0.2775
 4964SOL    HW126528   0.559   4.259   5.934 -1.4357 -0.5645  3.5684
 4964SOL    HW226529   0.646   4.364   5.880  1.9944 -0.9479  0.4626
 4965SOL     OW26530   0.225   0.051  17.278 -0.4095 -0.8618  0.2334
 4965SOL    HW126531   0.198   0.103  17.353 -2.6848 -1.6840 -0.0107
 4965SOL    HW226532   0.292   0.100  17.229 -1.2216 -0.5830 -0.5943
 4966SOL     OW26533   0.443   1.771   2.737 -0.1319 -0.0987  0.1155
 4966SOL    HW126534   0.365   1.732   2.777  0.0284  0.7956  1.3300
 4966SOL    HW226535   0.406   1.844   2.687  1.5465  0.0963 -0.8454
 4967SOL     OW26536   0.628   2.812   0.090 -0.3826 -0.1913  0.1490
 4967SOL    HW126537   0.593   2.888   0.137 -1.0627 -0.4444  0.0646
 4967SOL    HW226538   0.668   2.856   0.014 -1.1411  1.0507  0.4572
 4968SOL     OW26539   1.445   0.143   2.115 -0.4347 -0.2769 -0.2263
 4968SOL    HW126540   1.394   0.218   2.145 -2.5260 -1.1639 -1.5474
 4968SOL    HW226541   1.429   0.159   2.022  0.4404  0.8044 -0.1957
 4969SOL     OW26542   3.555   2.470   7.647  0.1662 -0.0548 -0.0761
 4969SOL    HW126543   3.537   2.452   7.554 -1.2810 -0.4908  0.2962
 4969SOL    HW226544   3.481   2.527   7.668  0.0751  0.9529 -3.1289
 4970SOL     OW26545   0.146   2.802  12.589 -0.6178  0.1596 -0.2342
 4970SOL    HW126546   0.142   2.891  12.623 -0.3959  0.1111 -0.0794
 4970SOL    HW226547   0.144   2.748  12.669  1.0514 -0.5291 -0.6567
 4971SOL     OW26548   0.783   2.923   2.250 -0.2241 -0.6619 -0.3178
 4971SOL    HW126549   0.688   2.928   2.259 -0.0489 -2.3203  2.3524
 4971SOL    HW226550   0.796   2.901   2.158 -1.3709 -0.9961 -0.3986
 4972SOL     OW26551   2.460   2.281   7.820 -0.1003 -0.3969  0.0696
 4972SOL    HW126552   2.431   2.297   7.730  1.6615  2.0111 -0.0721
 4972SOL    HW226553   2.554   2.298   7.814 -0.6047  2.0492 -0.8595
 4973SOL     OW26554   4.248   3.747  15.116  0.2461  0.0051 -0.8384
 4973SOL    HW126555   4.325   3.801  15.101 -1.4797  1.7165 -3.5703
 4973SOL    HW226556   4.180   3.810  15.141  1.5078  1.7642 -1.8478
 4974SOL     OW26557   1.717   2.183   6.740 -0.2480 -0.2144 -0.0554
 4974SOL    HW126558   1.622   2.188   6.754 -0.3713  0.3259 -1.0846
 4974SOL    HW226559   1.752   2.263   6.778  0.0706 -0.0678 -0.6542
 4975SOL     OW26560   3.141   0.861   2.090  0.0102  0.2682  0.0866
 4975SOL    HW126561   3.120   0.794   2.155 -0.3292  1.1892  0.9221
 4975SOL    HW226562   3.220   0.829   2.045  0.1636  0.4213  0.2486
 4976SOL     OW26563   3.703   3.618   4.945 -0.3318 -0.2646 -0.1295
 4976SOL    HW126564   3.685   3.709   4.970  2.1707  0.4356 -0.7937
 4976SOL    HW226565   3.798   3.611   4.955 -0.3599 -1.3384 -0.6553
 4977SOL     OW26566   2.706   3.465  14.230  0.3908 -0.1465  0.4193
 4977SOL    HW126567   2.772   3.396  14.217 -1.0796 -1.2605 -1.2680
 4977SOL    HW226568   2.762   3.540  14.244  0.1598  0.4257 -1.6607
 4978SOL     OW26569   1.221   2.537  11.216 -0.4538  0.1394 -0.3467
 4978SOL    HW126570   1.220   2.605  11.148  0.3059 -0.9274 -1.4501
 4978SOL    HW226571   1.301   2.559  11.263 -0.1727  1.0407 -1.2538
 4979SOL     OW26572   4.385   3.219   2.418 -0.1050 -0.6258 -0.3440
 4979SOL    HW126573   4.374   3.298   2.364  2.4124  0.0266  0.0699
 4979SOL    HW226574   4.396   3.155   2.348 -1.2535 -1.2399  0.0441
 4980SOL     OW26575   2.232   3.713   2.886  0.8017 -0.4436 -0.2027
 4980SOL    HW126576   2.278   3.640   2.928  0.7483 -0.5432 -0.3171
 4980SOL    HW226577   2.157   3.668   2.846  0.8396 -0.0994 -0.6569
 4981SOL     OW26578   1.399   0.448  13.537 -0.0925  0.1442 -0.6029
 4981SOL    HW126579   1.390   0.511  13.608 -0.7000 -1.4117  0.7098
 4981SOL    HW226580   1.445   0.377  13.582 -0.2898  0.9412  0.8714
 4982SOL     OW26581   3.069   2.513   1.323 -0.1552  0.6066 -0.4200
 4982SOL    HW126582   3.079   2.477   1.235  0.6686  0.4960 -0.2856
 4982SOL    HW226583   3.104   2.600   1.307  1.8695 -0.4836 -1.9354
 4983SOL     OW26584   0.986   1.554   2.439  0.7129  0.2737  0.1685
 4983SOL    HW126585   1.026   1.512   2.363 -0.3658 -1.0096  0.3148
 4983SOL    HW226586   0.897   1.570   2.408  0.3564 -0.6441  0.7175
 4984SOL     OW26587   2.993   2.466   8.047  0.2157 -0.2588  0.0480
 4984SOL    HW126588   2.923   2.517   8.006 -0.4916  0.1298  1.7310
 4984SOL    HW226589   2.978   2.381   8.005 -1.9637  0.8887 -1.4821
 4985SOL     OW26590   0.162   3.377  15.901  0.1405 -0.0808 -0.3636
 4985SOL    HW126591   0.202   3.325  15.832  1.7596 -0.7969  1.1121
 4985SOL    HW226592   0.214   3.340  15.972  1.2856  1.0379 -0.6128
 4986SOL     OW26593   1.986   4.149   6.479  0.2241  0.3730 -0.1370
 4986SOL    HW126594   1.903   4.193   6.497  1.3653  2.2191  0.6648
 4986SOL    HW226595   1.985   4.134   6.385 -1.3639  0.4224 -0.1183
 4987SOL     OW26596   4.062   4.395   4.216 -0.6918  0.1874 -0.6888
 4987SOL    HW126597   4.019   4.313   4.242 -1.6388  0.7474 -0.4799
 4987SOL    HW226598   4.001   4.469   4.221  0.6117  1.1580  0.7378
 4988SOL     OW26599   2.409   4.623   1.033  0.6503 -0.4725  0.1110
 4988SOL    HW126600   2.388   4.673   0.954  1.0666  0.3554  0.5221
 4988SOL    HW226601   2.325   4.632   1.079  0.1547  1.0365 -1.0881
 4989SOL     OW26602   4.404   3.605   8.730 -0.3536  0.2285  0.7916
 4989SOL    HW126603   4.412   3.563   8.816  0.7139  1.7882  1.4592
 4989SOL    HW226604   4.401   3.697   8.755 -0.6239  0.7586 -1.1892
 4990SOL     OW26605   1.336   2.562  15.286 -0.1699 -0.0550  0.0122
 4990SOL    HW126606   1.294   2.634  15.241  0.8963  0.5233 -0.0599
 4990SOL    HW226607   1.420   2.551  15.241 -0.8065  0.6441 -1.3398
 4991SOL     OW26608   3.755   2.699   8.345 -0.2291  0.5417 -0.0328
 4991SOL    HW126609   3.661   2.712   8.336 -0.1895  0.6301 -0.3203
 4991SOL    HW226610   3.781   2.779   8.300  1.1387 -0.5072 -1.1248
 4992SOL     OW26611   4.414   1.995   1.011  0.0750 -0.1294 -0.0261
 4992SOL    HW126612   4.490   2.041   1.046 -1.1586  2.7447 -1.1368
 4992SOL    HW226613   4.433   1.905   1.039 -1.7335 -0.0399  1.5578
 4993SOL     OW26614   3.969   3.556   4.352 -0.5008  0.4996  0.0906
 4993SOL    HW126615   3.993   3.525   4.440  0.7775 -1.5459 -0.9884
 4993SOL    HW226616   3.933   3.641   4.376 -2.1687 -0.5823  1.4652
 4994SOL     OW26617   1.301   2.698   9.111  0.1911  0.2470 -0.1851
 4994SOL    HW126618   1.373   2.722   9.054 -0.0612 -2.1403 -1.4923
 4994SOL    HW226619   1.310   2.751   9.191  1.0064  0.1999 -0.2515
 4995SOL     OW26620   4.315   1.282   1.083  0.1776 -0.1057  0.0460
 4995SOL    HW126621   4.264   1.203   1.101 -1.4526  0.7507 -0.7700
 4995SOL    HW226622   4.327   1.321   1.169  2.1125  1.1082 -0.7745
 4996SOL     OW26623   4.077   0.839   9.873  0.8947 -0.0929  0.4253
 4996SOL    HW126624   4.012   0.769   9.874  0.9702 -0.1796 -0.4956
 4996SOL    HW226625   4.067   0.871   9.784  0.8809 -4.7825 -1.2626
 4997SOL     OW26626   0.061   1.230   8.627 -0.6436 -0.1684  0.0904
 4997SOL    HW126627   0.021   1.276   8.701 -0.9831  0.3499 -0.4214
 4997SOL    HW226628   0.022   1.145   8.647 -1.3538  0.5742  1.9196
 4998SOL     OW26629   3.267   2.988   3.740 -0.2625 -0.6665  0.8712
 4998SOL    HW126630   3.291   2.942   3.821  1.3023 -0.9262  0.2590
 4998SOL    HW226631   3.182   2.945   3.734  0.0766 -1.1024 -0.6987
 4999SOL     OW26632   1.578   1.311  11.406 -0.0799 -0.1145 -0.0079
 4999SOL    HW126633   1.490   1.283  11.430 -0.4125  0.9124 -0.0396
 4999SOL    HW226634   1.571   1.317  11.311 -0.4155 -1.8307 -0.0955
 5000SOL     OW26635   1.839   4.005  17.087  0.1268 -0.4801 -0.1232
 5000SOL    HW126636   1.748   3.975  17.092 -0.4181  0.7826 -2.3030
 5000SOL    HW226637   1.863   3.952  17.012  0.1095 -2.1098  1.0230
 5001SOL     OW26638   1.413   4.586   1.681  0.0622  0.1630  0.1372
 5001SOL    HW126639   1.326   4.582   1.641  0.2615  0.4422 -0.3180
 5001SOL    HW226640   1.472   4.613   1.611 -1.8475  0.0680 -1.5162
 5002SOL     OW26641   1.225   0.483   8.309 -0.2301 -0.0153 -0.4341
 5002SOL    HW126642   1.261   0.549   8.368 -1.5981 -2.3945  3.0823
 5002SOL    HW226643   1.281   0.407   8.322  0.5482  0.6680  0.1883
 5003SOL     OW26644   1.388   2.663  14.743  0.2000  0.2081  0.2365
 5003SOL    HW126645   1.399   2.730  14.811 -0.3866 -0.5565  1.0894
 5003SOL    HW226646   1.304   2.692  14.707  1.7696  1.6357 -2.2523
 5004SOL     OW26647   2.325   4.121   1.903 -0.1886 -0.2159 -0.3195
 5004SOL    HW126648   2.291   4.195   1.953 -3.1695 -1.5715 -0.3378
 5004SOL    HW226649   2.293   4.148   1.817  0.6696  1.0209 -0.2500
 5005SOL     OW26650   1.207   2.615   7.567  0.3766  0.0477 -0.1858
 5005SOL    HW126651   1.192   2.546   7.632  2.4866 -0.1178  0.1172
 5005SOL    HW226652   1.233   2.694   7.616 -0.5917  0.2481  0.0024
 5006SOL     OW26653   2.956   0.938   4.450 -0.8067 -0.1472 -0.2226
 5006SOL    HW126654   2.920   1.020   4.485  1.2026 -0.2195  2.0003
 5006SOL    HW226655   3.051   0.941   4.437 -0.8929  0.6883 -0.6699
 5007SOL     OW26656   4.031   3.195   6.831  0.3451 -0.7319  0.3004
 5007SOL    HW126657   4.076   3.255   6.772 -2.0624  0.7096 -0.0667
 5007SOL    HW226658   4.011   3.126   6.768  1.7507  0.4117 -1.3957
 5008SOL     OW26659   3.936   0.871  15.103 -0.4353 -0.2095 -0.3050
 5008SOL    HW126660   3.966   0.822  15.180  0.3100  2.4392  1.1059
 5008SOL    HW226661   3.942   0.796  15.045 -1.8240 -3.1223  3.3607
 5009SOL     OW26662   2.639   0.196  14.683 -0.3133  0.9330  0.5193
 5009SOL    HW126663   2.651   0.278  14.729 -0.3140  0.8566  0.6558
 5009SOL    HW226664   2.550   0.164  14.698 -0.7888  2.6779  1.4174
 5010SOL     OW26665   0.734   3.922   5.587 -0.0470 -0.6672 -0.5140
 5010SOL    HW126666   0.742   4.016   5.570 -1.4452 -0.4517 -0.0390
 5010SOL    HW226667   0.647   3.912   5.626 -0.8380 -1.0855 -2.3749
 5011SOL     OW26668   1.388   3.322  16.245 -0.2284 -0.3131 -0.0425
 5011SOL    HW126669   1.439   3.331  16.164 -0.3657  0.3603 -0.0510
 5011SOL    HW226670   1.305   3.363  16.221 -0.9557 -1.0415  1.2201
 5012SOL     OW26671   0.092   3.607   8.205 -0.0383 -0.1971 -0.0832
 5012SOL    HW126672   0.007   3.570   8.231 -1.1593  0.7370 -2.4461
 5012SOL    HW226673   0.117   3.652   8.285 -1.6904  0.4276  0.0840
 5013SOL     OW26674   3.537   2.367  11.930  0.8826 -0.1982  0.3163
 5013SOL    HW126675   3.605   2.362  11.997 -0.1031 -2.2959  1.1817
 5013SOL    HW226676   3.456   2.340  11.974  0.4910 -0.1934 -0.3989
 5014SOL     OW26677   0.551   2.277   3.586  0.3648  0.6271 -0.1837
 5014SOL    HW126678   0.490   2.322   3.645 -1.0787 -1.2241 -0.2820
 5014SOL    HW226679   0.498   2.200   3.567  0.2550  0.8059 -0.5929
 5015SOL     OW26680   0.537   0.762   7.151  0.0891  0.4019 -0.1637
 5015SOL    HW126681   0.589   0.818   7.209  1.7312 -2.0276  0.6944
 5015SOL    HW226682   0.584   0.680   7.145 -1.0636 -0.1822 -1.2698
 5016SOL     OW26683   0.753   1.374  17.634  0.9406  0.5836  0.2183
 5016SOL    HW126684   0.684   1.357  17.699  2.1034  1.8057  1.7661
 5016SOL    HW226685   0.791   1.286  17.625  0.1273  0.3155 -0.5966
 5017SOL     OW26686   0.187   1.605   6.753  0.0328  0.1819  0.1052
 5017SOL    HW126687   0.265   1.598   6.697 -0.3905 -0.0380 -0.4534
 5017SOL    HW226688   0.223   1.651   6.828 -1.9194  3.0027 -0.7020
 5018SOL     OW26689   2.124   0.124   9.047 -0.1304 -0.3132 -0.1554
 5018SOL    HW126690   2.057   0.189   9.072 -0.6373 -0.6139 -0.7430
 5018SOL    HW226691   2.077   0.042   9.060 -1.9151  0.7937  0.4331
 5019SOL     OW26692   1.662   2.652   9.751  0.0362  0.1707  0.7592
 5019SOL    HW126693   1.642   2.597   9.826  0.1580  0.6617  1.1484
 5019SOL    HW226694   1.718   2.594   9.699  0.6286  0.4093  1.1332
 5020SOL     OW26695   2.815   4.616   1.591 -0.2544  0.1492  0.2049
 5020SOL    HW126696   2.722   4.635   1.604  0.2184  3.4159 -1.3057
 5020SOL    HW226697   2.832   4.585   1.680  2.1299  1.8158  0.3430
 5021SOL     OW26698   0.053   2.348  11.870  0.3264  0.2726 -0.3890
 5021SOL    HW126699   0.028   2.366  11.960  2.9735 -2.0131  0.8238
 5021SOL    HW226700   4.705   2.337  11.827  1.0333 -0.3606 -1.6076
 5022SOL     OW26701   4.215   3.042   0.006  0.2856  0.1781  0.2482
 5022SOL    HW126702   4.282   3.097   0.047 -0.0138  0.7813 -0.0754
 5022SOL    HW226703   4.217   3.069  17.658 -2.8355  1.0445  0.4414
 5023SOL     OW26704   0.270   2.471   9.023 -0.4047  0.2987 -0.0565
 5023SOL    HW126705   0.254   2.451   9.115 -0.5198  0.4464 -0.0460
 5023SOL    HW226706   0.365   2.475   9.015 -0.3960  1.8209  0.8733
 5024SOL     OW26707   0.057   1.957   4.763  0.3666 -0.0831 -0.0588
 5024SOL    HW126708   0.047   1.865   4.787 -2.9487 -0.1352 -1.6808
 5024SOL    HW226709   0.149   1.977   4.781 -0.4632  3.0292  0.8332
 5025SOL     OW26710   1.638   2.150   8.553 -0.2249  0.0179  0.2806
 5025SOL    HW126711   1.672   2.077   8.604 -1.4323  0.9221  2.3718
 5025SOL    HW226712   1.586   2.208   8.609 -0.9888  0.1997 -0.6155
 5026SOL     OW26713   3.565   4.563   7.808  0.5290  0.1949 -0.0999
 5026SOL    HW126714   3.602   4.615   7.737 -1.0564 -0.0527 -1.1048
 5026SOL    HW226715   3.648   4.544   7.852  2.1332  1.3875 -2.6631
 5027SOL     OW26716   1.154   3.580   4.030 -0.0485 -0.1662 -0.4056
 5027SOL    HW126717   1.104   3.566   3.949 -0.8848 -3.0508  0.5990
 5027SOL    HW226718   1.204   3.660   4.016  1.1576 -1.2838 -2.5436
 5028SOL     OW26719   1.362   1.693   6.179  0.4019  0.3628 -0.2426
 5028SOL    HW126720   1.267   1.690   6.172  0.4164 -0.3012 -0.0625
 5028SOL    HW226721   1.383   1.678   6.087 -2.2792 -0.5353 -0.7174
 5029SOL     OW26722   0.478   1.041   3.041 -0.0649 -0.2734  0.4379
 5029SOL    HW126723   0.555   1.087   3.075 -0.0940 -1.1289  1.6322
 5029SOL    HW226724   0.401   1.098   3.050 -0.6750 -0.9202 -0.7734
 5030SOL     OW26725   3.678   4.458   2.828  0.0543  0.1467  0.3720
 5030SOL    HW126726   3.723   4.474   2.911  2.1754 -0.4690 -0.6424
 5030SOL    HW226727   3.613   4.394   2.858  1.9510 -2.0886 -0.2535
 5031SOL     OW26728   3.587   4.531  10.958 -0.1476 -0.2400  0.1069
 5031SOL    HW126729   3.647   4.604  10.941  0.5204 -0.4324  1.6278
 5031SOL    HW226730   3.529   4.518  10.883 -0.0959 -0.8956  0.1851
 5032SOL     OW26731   4.672   1.268   6.289 -0.0626  0.4164 -0.1712
 5032SOL    HW126732   4.593   1.249   6.339 -1.1789  0.4863 -1.9186
 5032SOL    HW226733   4.729   1.303   6.358 -0.6815  0.8419  0.1159
 5033SOL     OW26734   1.116   2.986   0.336 -0.1912 -0.2126  0.4147
 5033SOL    HW126735   1.156   2.932   0.268  0.1437  1.0085 -0.3568
 5033SOL    HW226736   1.124   2.923   0.407  3.2674  0.5063  0.6264
 5034SOL     OW26737   3.434   1.645   5.229 -0.3872  0.0970 -0.6796
 5034SOL    HW126738   3.498   1.629   5.160  0.6658  2.0590 -0.1464
 5034SOL    HW226739   3.363   1.656   5.167 -0.3247  0.7859 -0.6310
 5035SOL     OW26740   2.854   1.365  14.112  0.2435  0.2761 -0.1460
 5035SOL    HW126741   2.899   1.285  14.137  1.8987  1.5664  1.0531
 5035SOL    HW226742   2.872   1.370  14.018 -2.1057 -0.8055 -0.6586
 5036SOL     OW26743   3.153   1.458  14.824  0.0822 -0.1843  0.3271
 5036SOL    HW126744   3.077   1.494  14.779  0.2558 -2.3559 -1.7166
 5036SOL    HW226745   3.115   1.399  14.890  0.6489  1.5433  2.2177
 5037SOL     OW26746   0.689   3.308   5.692  0.3334 -0.1513  0.0308
 5037SOL    HW126747   0.652   3.308   5.780 -0.7209  0.8194 -0.4211
 5037SOL    HW226748   0.779   3.277   5.708 -0.5692 -2.3580  0.7968
 5038SOL     OW26749   0.473   1.616   8.764  0.0736  0.1201  0.1713
 5038SOL    HW126750   0.535   1.572   8.706 -1.0085 -1.3222  0.1187
 5038SOL    HW226751   0.412   1.550   8.796  1.4033 -0.6694  1.1015
 5039SOL     OW26752   2.101   2.301   8.309 -0.2856  0.0632 -0.2554
 5039SOL    HW126753   2.025   2.249   8.335 -0.0658  0.4530  1.1622
 5039SOL    HW226754   2.143   2.231   8.260 -0.4334 -2.4060  3.1445
 5040SOL     OW26755   4.165   3.220   7.449 -0.1504 -0.4245  0.4283
 5040SOL    HW126756   4.178   3.139   7.499 -1.6918 -0.5448  0.6504
 5040SOL    HW226757   4.135   3.277   7.520 -1.2242  1.2748 -1.4039
 5041SOL     OW26758   4.615   1.698   4.021 -0.7704  0.2302  0.8435
 5041SOL    HW126759   4.551   1.720   4.089 -2.0650  2.0502 -0.9337
 5041SOL    HW226760   4.575   1.621   3.982 -0.9569  0.9498 -0.3875
 5042SOL     OW26761   4.101   0.172  14.861  0.6702 -0.0521  0.0231
 5042SOL    HW126762   4.084   0.134  14.947 -0.1381 -0.2224 -0.2134
 5042SOL    HW226763   4.160   0.103  14.829  0.3901  0.0452 -0.7066
 5043SOL     OW26764   1.048   3.249   8.029 -0.3999 -0.7821  0.1346
 5043SOL    HW126765   0.993   3.282   8.101 -2.2440  0.0111 -1.6353
 5043SOL    HW226766   0.988   3.254   7.955 -0.8353 -3.6781  0.3165
 5044SOL     OW26767   1.173   4.712   2.989 -0.1155  0.4423  0.1718
 5044SOL    HW126768   1.127   0.012   3.065 -2.6054  0.9063 -1.5699
 5044SOL    HW226769   1.210   0.061   2.967 -0.0029  0.9326  2.2183
 5045SOL     OW26770   1.749   2.716   3.315 -0.2353  0.3359 -0.0178
 5045SOL    HW126771   1.802   2.653   3.364 -0.2824 -0.8235 -1.4466
 5045SOL    HW226772   1.683   2.657   3.278  0.2969 -0.0942 -0.2830
 5046SOL     OW26773   2.758   1.304   5.187 -0.3876 -0.3812 -0.6041
 5046SOL    HW126774   2.732   1.346   5.105 -1.8316 -1.8627 -0.9221
 5046SOL    HW226775   2.728   1.213   5.182 -0.5179 -0.4345  1.2900
 5047SOL     OW26776   1.753   4.187   2.430 -0.0421 -0.0062 -0.5890
 5047SOL    HW126777   1.764   4.188   2.525  0.6338  0.5442 -0.6765
 5047SOL    HW226778   1.748   4.282   2.418  0.3782  0.1204  0.2546
 5048SOL     OW26779   2.589   4.120   4.392 -0.1835 -0.4297  0.2443
 5048SOL    HW126780   2.535   4.167   4.455  1.1211 -0.9097  1.7105
 5048SOL    HW226781   2.536   4.041   4.383 -1.9776  0.5296  2.4440
 5049SOL     OW26782   1.377   2.386   8.517  0.7119 -0.2967  0.2812
 5049SOL    HW126783   1.355   2.310   8.463 -2.1994 -0.2206  1.3759
 5049SOL    HW226784   1.442   2.424   8.458  1.3786 -2.4898 -0.4141
 5050SOL     OW26785   0.839   0.370   5.205  0.3078  0.0632 -0.3959
 5050SOL    HW126786   0.804   0.329   5.126  1.3068  0.0381 -0.8220
 5050SOL    HW226787   0.841   0.463   5.183  0.2292  0.0281 -0.5552
 5051SOL     OW26788   3.875   1.003   7.519  0.3333  0.3945 -0.0665
 5051SOL    HW126789   3.942   0.975   7.582  0.1671  2.7324  1.1438
 5051SOL    HW226790   3.871   0.927   7.461 -0.3624 -0.0721  0.6067
 5052SOL     OW26791   4.425   1.938   4.536  0.2078  0.4564  0.2990
 5052SOL    HW126792   4.507   1.954   4.491 -2.5768  0.0091 -4.9589
 5052SOL    HW226793   4.452   1.970   4.622  0.6631  3.3651 -0.9278
 5053SOL     OW26794   4.426   1.892   7.230 -0.0280  0.0681  0.4773
 5053SOL    HW126795   4.498   1.830   7.244  0.7517  1.6080  3.2477
 5053SOL    HW226796   4.452   1.932   7.148 -2.3730  1.4586  0.4203
 5054SOL     OW26797   4.598   2.185  11.994 -0.0647 -0.3344  0.5716
 5054SOL    HW126798   4.682   2.139  12.002  0.2038  0.4290  2.1960
 5054SOL    HW226799   4.577   2.235  12.073  0.3687  0.4347  0.1939
 5055SOL     OW26800   0.093   3.893   2.266  0.1625 -0.1197 -0.6530
 5055SOL    HW126801   0.189   3.891   2.260  0.1264  0.0191 -1.2485
 5055SOL    HW226802   0.082   3.983   2.236  1.5506  0.3692  0.2835
 5056SOL     OW26803   0.246   1.126  14.565 -0.6043 -0.1015 -0.1486
 5056SOL    HW126804   0.312   1.057  14.572 -0.1753  0.2015 -1.1578
 5056SOL    HW226805   0.269   1.188  14.634 -0.4331  1.0951 -1.2769
 5057SOL     OW26806   2.231   3.830  11.387 -0.0194 -0.6689  0.4725
 5057SOL    HW126807   2.243   3.755  11.328 -0.9075 -1.1535  0.9091
 5057SOL    HW226808   2.317   3.831  11.429  1.3824 -1.4842 -2.3290
 5058SOL     OW26809   0.842   4.543   4.598 -0.5357  0.0645  0.2987
 5058SOL    HW126810   0.854   4.523   4.691 -2.9903  1.3135  0.8667
 5058SOL    HW226811   0.932   4.537   4.565  0.2470 -0.2673  2.4658
 5059SOL     OW26812   2.241   0.276   1.038  0.4341  0.2246 -0.3954
 5059SOL    HW126813   2.273   0.322   0.960 -0.8154  1.2485 -0.3148
 5059SOL    HW226814   2.161   0.327   1.053 -0.1591 -0.2296 -1.9524
 5060SOL     OW26815   4.634   2.250   5.072 -0.8380  0.4667 -0.0149
 5060SOL    HW126816   4.588   2.330   5.047 -0.7385  0.2507 -0.8852
 5060SOL    HW226817   4.578   2.182   5.034 -0.0032  0.1444 -0.6604
 5061SOL     OW26818   3.892   3.206   4.117  0.0064  0.2686  0.7967
 5061SOL    HW126819   3.805   3.183   4.150 -0.3174  3.3125  2.0341
 5061SOL    HW226820   3.880   3.215   4.022  1.0163  1.2636  0.7717
 5062SOL     OW26821   3.256   3.922   9.100 -0.2547 -0.1090  0.0010
 5062SOL    HW126822   3.198   3.981   9.149 -0.7383 -0.9619  0.4597
 5062SOL    HW226823   3.307   3.893   9.175  0.3513  0.4716 -0.1949
 5063SOL     OW26824   0.992   3.195   6.289 -0.3858 -0.1252  0.0553
 5063SOL    HW126825   0.917   3.167   6.341  0.3181 -1.5884  0.2913
 5063SOL    HW226826   1.045   3.258   6.339  0.8662 -0.8798 -0.3088
 5064SOL     OW26827   3.623   3.654   5.947  0.1778  0.4122 -0.1006
 5064SOL    HW126828   3.580   3.733   5.978  1.3501  1.2008 -0.5200
 5064SOL    HW226829   3.620   3.606   6.030  0.6438  0.6272  0.0366
 5065SOL     OW26830   2.703   0.676   2.832  0.0048  0.4160 -0.1354
 5065SOL    HW126831   2.624   0.721   2.803  0.4299  1.6997  0.6808
 5065SOL    HW226832   2.664   0.588   2.832 -0.6631  0.7085 -0.7416
 5066SOL     OW26833   4.587   2.383   0.683  0.1954  0.0630  0.0765
 5066SOL    HW126834   4.618   2.318   0.746  0.6888  0.1459 -0.0767
 5066SOL    HW226835   4.539   2.439   0.744 -0.9067  0.3131 -1.0136
 5067SOL     OW26836   3.748   2.861   5.555 -0.4895 -0.8097 -0.1265
 5067SOL    HW126837   3.766   2.933   5.495  2.3229 -0.9466  0.5192
 5067SOL    HW226838   3.829   2.809   5.549 -0.4008 -0.6135 -0.5702
 5068SOL     OW26839   3.179   4.673   5.098 -0.1656  0.1157 -0.5443
 5068SOL    HW126840   3.180   0.004   5.030 -0.4132  1.2134  0.5344
 5068SOL    HW226841   3.217   4.707   5.179 -0.3617 -2.0325  0.4457
 5069SOL     OW26842   0.389   2.358   3.796  0.1591 -0.3368  0.2357
 5069SOL    HW126843   0.407   2.316   3.880 -0.0121 -0.8254  0.0248
 5069SOL    HW226844   0.433   2.441   3.815  1.5198 -1.1870  0.8075
 5070SOL     OW26845   2.607   0.095   5.606  0.5460  0.9339 -0.1922
 5070SOL    HW126846   2.554   0.042   5.665  2.6453 -1.1398 -0.1545
 5070SOL    HW226847   2.659   0.152   5.663  0.2765  0.4644  0.5231
 5071SOL     OW26848   2.105   2.917  15.953 -0.4099 -0.1771 -0.1767
 5071SOL    HW126849   2.031   2.862  15.929  1.0639 -1.5207 -1.6673
 5071SOL    HW226850   2.157   2.916  15.872  0.0323 -0.1114  0.1053
 5072SOL     OW26851   3.488   4.587   6.291 -0.0225 -0.0256  0.2043
 5072SOL    HW126852   3.458   4.497   6.303  0.0276  0.1316  1.4531
 5072SOL    HW226853   3.427   4.625   6.354 -0.2279  0.8842 -0.5262
 5073SOL     OW26854   1.674   4.015   6.568 -0.5519  0.2627  0.6254
 5073SOL    HW126855   1.714   4.005   6.655  1.0323  1.6055  0.0607
 5073SOL    HW226856   1.649   3.927   6.540 -0.1568 -0.0688  1.3138
 5074SOL     OW26857   0.769   1.263   2.870  0.3538 -0.8231  0.1913
 5074SOL    HW126858   0.745   1.231   2.783 -1.0196 -1.7714  0.9240
 5074SOL    HW226859   0.742   1.354   2.858  1.4871 -0.4037  0.7880
 5075SOL     OW26860   1.403   2.976   7.977  0.5371  0.2892  0.3432
 5075SOL    HW126861   1.424   3.050   7.919 -0.7708  2.1042  2.2019
 5075SOL    HW226862   1.380   3.024   8.056 -2.3442  0.5613 -0.6413
 5076SOL     OW26863   0.757   4.730   0.201 -0.2082 -0.0658  0.1975
 5076SOL    HW126864   0.677   0.041   0.181  0.1476  1.0924  1.5065
 5076SOL    HW226865   0.764   4.736   0.296  0.7256 -0.3246  0.1530
 5077SOL     OW26866   2.459   3.414   5.293  0.2290 -0.2548 -0.0560
 5077SOL    HW126867   2.489   3.504   5.277  0.7940 -0.1176  1.6996
 5077SOL    HW226868   2.371   3.442   5.318 -0.0167 -0.4471 -0.7238
 5078SOL     OW26869   2.522   0.289   2.966 -0.0716  0.5638 -0.0647
 5078SOL    HW126870   2.473   0.208   2.978  2.0491 -0.7766 -0.3306
 5078SOL    HW226871   2.609   0.273   3.003 -0.3291  2.0468  1.1864
 5079SOL     OW26872   0.329   2.710   5.419  0.2670  0.8720 -0.3562
 5079SOL    HW126873   0.311   2.794   5.461  0.0446  0.1427  1.0128
 5079SOL    HW226874   0.260   2.651   5.450  1.0481  0.2262  0.1914
 5080SOL     OW26875   4.339   3.779  14.587 -0.2654 -0.5526 -0.4494
 5080SOL    HW126876   4.277   3.769  14.514  0.3512  1.2081 -1.1993
 5080SOL    HW226877   4.325   3.872  14.603  0.9012 -0.4431 -0.1371
 5081SOL     OW26878   4.168   4.160  15.117  0.1218  0.2833 -0.4836
 5081SOL    HW126879   4.080   4.123  15.125 -0.0685  1.0530  1.1854
 5081SOL    HW226880   4.208   4.123  15.195  0.9671  0.2936 -0.9166
 5082SOL     OW26881   3.820   2.407   4.986  0.5779 -0.0399 -0.0462
 5082SOL    HW126882   3.848   2.387   4.897  1.7353 -2.6823  0.9144
 5082SOL    HW226883   3.795   2.321   5.018 -0.4384  1.1952  2.4946
 5083SOL     OW26884   1.206   3.846   3.932  0.3818 -0.2076 -0.2827
 5083SOL    HW126885   1.270   3.890   3.988 -0.1023  0.3889 -0.1948
 5083SOL    HW226886   1.125   3.871   3.976  0.6515  1.5747 -0.8110
 5084SOL     OW26887   4.709   1.261   2.737  0.0508 -0.0418  0.6531
 5084SOL    HW126888   4.623   1.298   2.755 -0.4717 -1.8047  1.7118
 5084SOL    HW226889   4.718   1.187   2.796  0.3981 -0.6857 -0.2143
 5085SOL     OW26890   1.345   3.822  10.440 -0.0034 -0.5540 -0.1064
 5085SOL    HW126891   1.361   3.738  10.482 -1.8846 -0.6659  0.3661
 5085SOL    HW226892   1.432   3.860  10.450  0.4733 -1.0631 -2.4276
 5086SOL     OW26893   0.076   2.084   7.175 -0.2517  0.0968  0.5019
 5086SOL    HW126894   0.065   2.028   7.098  0.7876  1.2436 -0.4959
 5086SOL    HW226895   0.024   2.160   7.148  3.6388  1.1789 -3.8104
 5087SOL     OW26896   2.594   2.034   8.183  0.4607 -0.5083  0.8895
 5087SOL    HW126897   2.574   2.040   8.090  2.3018 -2.7812  0.3422
 5087SOL    HW226898   2.674   2.088   8.185 -0.3195  0.7281 -1.1525
 5088SOL     OW26899   2.609   3.849   1.029 -0.5596 -0.6890  0.2631
 5088SOL    HW126900   2.585   3.799   1.107 -1.7561  0.9210  0.9002
 5088SOL    HW226901   2.529   3.898   1.014  0.6502  0.9747 -0.8069
 5089SOL     OW26902   0.103   0.022  12.881 -0.1583  0.0341  0.4054
 5089SOL    HW126903   0.127   0.101  12.831  0.0896  0.1871  0.7669
 5089SOL    HW226904   0.009   0.023  12.863 -0.0038  1.6223 -0.4050
 5090SOL     OW26905   2.920   4.509   0.019 -0.3725 -0.0451 -0.0140
 5090SOL    HW126906   2.909   4.451  17.688 -1.0508  0.0523  0.0021
 5090SOL    HW226907   2.924   4.453   0.096 -0.6472 -1.9168 -1.3590
 5091SOL     OW26908   0.938   0.410   4.655  0.1841 -0.3701  0.6611
 5091SOL    HW126909   0.917   0.490   4.702 -1.9364 -1.4986  1.6284
 5091SOL    HW226910   1.009   0.377   4.710  0.4708  1.1327  1.1713
 5092SOL     OW26911   2.176   1.291   8.059 -0.3543 -1.1919  0.2468
 5092SOL    HW126912   2.088   1.329   8.060 -0.4817 -1.3430 -3.5253
 5092SOL    HW226913   2.232   1.365   8.082  1.9371 -2.5391 -0.9988
 5093SOL     OW26914   2.822   2.816  12.264 -0.1356 -0.0139  0.2361
 5093SOL    HW126915   2.763   2.776  12.200  0.3802 -0.0891 -0.1970
 5093SOL    HW226916   2.803   2.908  12.246 -2.4656 -0.3925  0.8597
 5094SOL     OW26917   4.643   0.967   8.411  0.3445  0.5234  0.2475
 5094SOL    HW126918   4.618   0.968   8.319 -0.8207 -0.4628  0.5398
 5094SOL    HW226919   4.713   1.032   8.402 -0.8937  1.7633 -0.3516
 5095SOL     OW26920   0.776   3.631   7.255  0.4143 -0.1660 -0.1985
 5095SOL    HW126921   0.845   3.596   7.311  0.0196  0.6563  0.8170
 5095SOL    HW226922   0.714   3.660   7.322 -0.6885 -0.8836 -0.9099
 5096SOL     OW26923   0.131   2.914   2.361 -0.4448 -0.3503 -0.5658
 5096SOL    HW126924   0.166   2.963   2.436  0.9505  0.5964 -1.8397
 5096SOL    HW226925   0.129   2.823   2.391  0.6449 -0.1938 -0.0479
 5097SOL     OW26926   1.149   1.001   6.706 -0.3717 -0.3641  0.4711
 5097SOL    HW126927   1.113   1.089   6.710  0.0958 -0.2103  1.3360
 5097SOL    HW226928   1.242   1.012   6.726  0.4463 -1.7415 -2.5763
 5098SOL     OW26929   1.661   3.179   5.234  0.2975 -0.1650 -0.0390
 5098SOL    HW126930   1.672   3.084   5.227  0.9240 -0.2057  1.6078
 5098SOL    HW226931   1.585   3.178   5.175  0.8952 -0.9844 -0.7969
 5099SOL     OW26932   4.115   0.894   4.094  0.2609  0.0935  0.4089
 5099SOL    HW126933   4.029   0.864   4.126 -0.6434  1.3192 -0.8609
 5099SOL    HW226934   4.100   0.894   3.999  1.0395  0.4843  0.2912
 5100SOL     OW26935   3.726   3.761   8.434  0.0448  0.2940  0.2771
 5100SOL    HW126936   3.800   3.728   8.383 -1.2755 -0.9375 -0.8529
 5100SOL    HW226937   3.665   3.789   8.365 -2.5032  0.7277  2.7018
 5101SOL     OW26938   4.289   3.964   4.526 -0.4516  0.7775 -0.4300
 5101SOL    HW126939   4.314   4.020   4.599 -3.5949  2.1635 -0.4194
 5101SOL    HW226940   4.346   3.888   4.538  0.4756  1.4736 -0.4560
 5102SOL     OW26941   0.366   3.988  17.284  0.0989  0.1989  0.6838
 5102SOL    HW126942   0.309   3.942  17.222  1.5318 -1.4429  0.5767
 5102SOL    HW226943   0.451   3.950  17.260 -0.0809 -0.4124  1.0211
 5103SOL     OW26944   2.911   1.582   9.721 -0.1158 -0.0280 -0.1910
 5103SOL    HW126945   2.874   1.501   9.685  2.3322 -1.2220 -0.0326
 5103SOL    HW226946   2.992   1.595   9.672  0.1013  0.2069  0.2355
 5104SOL     OW26947   2.944   3.533   7.127 -0.4438  0.5218  0.2250
 5104SOL    HW126948   3.039   3.546   7.128 -0.1611 -1.6206  2.2495
 5104SOL    HW226949   2.924   3.584   7.205 -1.6538  0.8985 -0.3373
 5105SOL     OW26950   3.742   0.383   9.995 -0.2530 -0.0049  0.2014
 5105SOL    HW126951   3.664   0.375  10.051  0.2996 -0.1666  0.9422
 5105SOL    HW226952   3.704   0.339   9.919 -0.1888  0.8921 -0.3518
 5106SOL     OW26953   4.420   1.418   5.617 -0.3726 -0.3408  0.5951
 5106SOL    HW126954   4.439   1.387   5.706 -2.1770 -0.4123  0.9515
 5106SOL    HW226955   4.430   1.513   5.627 -1.1107 -0.4485  2.3707
 5107SOL     OW26956   4.716   2.980   2.000 -0.6478  0.5791 -0.4969
 5107SOL    HW126957   4.646   3.035   1.965 -3.2182 -1.4229  1.5553
 5107SOL    HW226958   0.021   2.934   1.926  0.4377  1.2932 -0.3335
 5108SOL     OW26959   4.437   0.125  14.475  0.3160  0.0410 -0.1823
 5108SOL    HW126960   4.375   0.124  14.549 -0.6562 -1.3156 -1.0172
 5108SOL    HW226961   4.519   0.159  14.509  0.4979  0.3304 -0.9095
 5109SOL     OW26962   2.833   4.348  12.193 -0.2443  0.6742  0.5498
 5109SOL    HW126963   2.819   4.319  12.283  0.0523  1.3410  0.8125
 5109SOL    HW226964   2.819   4.442  12.203 -1.9485  0.6015 -1.1666
 5110SOL     OW26965   2.912   0.843   5.561 -0.4740 -0.1177 -0.6508
 5110SOL    HW126966   2.976   0.774   5.578  1.6644  1.8616 -0.6816
 5110SOL    HW226967   2.966   0.906   5.515 -0.7762  1.4561  1.1354
 5111SOL     OW26968   2.384   1.758   7.527  0.1409  0.0566 -0.7996
 5111SOL    HW126969   2.416   1.669   7.515 -1.1768 -0.4128 -0.8069
 5111SOL    HW226970   2.301   1.740   7.572  0.1988  1.8697  0.0728
 5112SOL     OW26971   1.698   0.422   3.856  0.2781 -0.4627  0.0275
 5112SOL    HW126972   1.699   0.332   3.825  1.2032 -0.0290 -1.2470
 5112SOL    HW226973   1.625   0.457   3.804  0.4444 -1.7928 -1.1075
 5113SOL     OW26974   3.565   0.901   2.794  0.0321  0.5518 -0.0262
 5113SOL    HW126975   3.491   0.960   2.804 -1.9960 -2.2875  1.7427
 5113SOL    HW226976   3.623   0.946   2.733  0.8978  0.0444  0.4057
 5114SOL     OW26977   2.874   0.308   8.423  0.2068 -0.4648 -0.3463
 5114SOL    HW126978   2.929   0.366   8.476 -0.4965 -0.3791  0.2842
 5114SOL    HW226979   2.943   0.247   8.399 -0.6767 -0.5369 -2.6775
 5115SOL     OW26980   1.246   4.597   6.987  0.1333  0.0320  0.4091
 5115SOL    HW126981   1.187   4.523   6.974 -0.3202  0.6167 -0.7982
 5115SOL    HW226982   1.305   4.548   7.044  1.9696 -0.8878 -2.3016
 5116SOL     OW26983   1.646   0.371   3.322  0.3290 -0.4558 -0.0889
 5116SOL    HW126984   1.624   0.414   3.404  0.3827  3.3071 -2.0024
 5116SOL    HW226985   1.563   0.332   3.295  0.3783 -0.7470  0.1934
 5117SOL     OW26986   3.512   2.348   5.926 -0.4100  0.0430  0.4604
 5117SOL    HW126987   3.453   2.420   5.904 -0.7006 -0.6708 -1.0786
 5117SOL    HW226988   3.579   2.398   5.972 -0.3213  3.3345 -3.2911
 5118SOL     OW26989   1.698   0.690   8.039 -0.3688 -0.3893 -0.1768
 5118SOL    HW126990   1.690   0.597   8.061  0.9553 -0.7404 -1.1834
 5118SOL    HW226991   1.678   0.689   7.945  1.7983  1.0129 -0.6626
 5119SOL     OW26992   4.354   2.109   2.126  0.2836  0.0013 -0.1974
 5119SOL    HW126993   4.293   2.037   2.113 -1.4673  1.7391 -1.5448
 5119SOL    HW226994   4.361   2.145   2.037 -1.1998 -0.1016 -0.3486
 5120SOL     OW26995   3.647   4.711   8.644 -0.2977 -0.2525 -0.0393
 5120SOL    HW126996   3.695   0.054   8.624 -0.7115 -0.1275 -0.5300
 5120SOL    HW226997   3.592   4.709   8.566 -0.0081 -1.6679 -0.1984
 5121SOL     OW26998   0.721   1.131   4.953  0.2705 -0.1434 -0.2128
 5121SOL    HW126999   0.815   1.151   4.960 -0.0849  1.4592  0.0484
 5121SOL    HW227000   0.703   1.168   4.867 -1.4718  2.7947  1.4302
 5122SOL     OW27001   2.720   3.371   9.338  0.4248 -0.4044 -0.6636
 5122SOL    HW127002   2.810   3.347   9.313  0.1360 -0.6793 -1.4428
 5122SOL    HW227003   2.703   3.461   9.310  1.7617 -0.2901 -1.0902
 5123SOL     OW27004   1.097   1.310  10.135  0.2183 -0.2792  0.1107
 5123SOL    HW127005   1.018   1.294  10.083  1.4704 -1.9434 -1.2638
 5123SOL    HW227006   1.063   1.300  10.224  3.0930  0.4786  1.2966
 5124SOL     OW27007   4.401   0.423  11.955  0.0239  0.0654 -0.3841
 5124SOL    HW127008   4.463   0.351  11.950 -1.4863 -1.1239 -1.8687
 5124SOL    HW227009   4.460   0.493  11.927  1.2035 -0.5210  0.6310
 5125SOL     OW27010   4.281   0.634   4.220  0.0173 -0.3616 -0.0854
 5125SOL    HW127011   4.234   0.714   4.243  1.2036 -0.2457  1.8745
 5125SOL    HW227012   4.312   0.661   4.134  0.0062  0.7897  0.2806
 5126SOL     OW27013   0.114   2.325   3.483  0.4042  0.4638  0.3500
 5126SOL    HW127014   0.024   2.343   3.457  0.9392  1.0179 -1.1121
 5126SOL    HW227015   0.107   2.375   3.565 -2.4771  0.1805  0.2529
 5127SOL     OW27016   3.410   2.659   2.630  0.8463 -0.6125 -0.2193
 5127SOL    HW127017   3.458   2.637   2.551 -0.4431 -1.3355 -0.8068
 5127SOL    HW227018   3.319   2.652   2.602  0.1282 -0.7081  2.0743
 5128SOL     OW27019   1.510   2.205  11.555 -0.2580  0.2803  0.2164
 5128SOL    HW127020   1.452   2.129  11.557 -1.6309  1.3604  1.2476
 5128SOL    HW227021   1.516   2.237  11.645  2.7082 -1.3119  0.5933
 5129SOL     OW27022   0.092   3.636   9.529  0.2705 -0.1914 -0.4154
 5129SOL    HW127023   0.153   3.607   9.462  1.8441 -0.1812  1.0019
 5129SOL    HW227024   0.132   3.717   9.561  0.2712  1.0052 -3.4314
 5130SOL     OW27025   4.126   4.673   9.717  0.0997  0.0644  0.1197
 5130SOL    HW127026   4.197   4.609   9.707  0.4898  0.7539 -1.6729
 5130SOL    HW227027   4.054   4.611   9.703  0.4501 -0.1832 -0.6257
 5131SOL     OW27028   1.834   2.496   8.362  0.1930  0.5751 -0.0220
 5131SOL    HW127029   1.830   2.401   8.378  2.9950  0.6149  0.9799
 5131SOL    HW227030   1.877   2.534   8.439  0.9084  1.5815 -0.9285
 5132SOL     OW27031   0.418   3.951  11.512  0.0215 -0.6403 -0.2415
 5132SOL    HW127032   0.506   3.990  11.507 -1.1823  1.8074 -2.0923
 5132SOL    HW227033   0.424   3.896  11.434  0.1881 -1.0111  0.0343
 5133SOL     OW27034   4.248   2.335  11.313 -0.1440  0.0964 -0.1553
 5133SOL    HW127035   4.172   2.373  11.356 -1.5543 -1.9437 -0.8294
 5133SOL    HW227036   4.310   2.389  11.362 -0.5819 -0.5409  1.1179
 5134SOL     OW27037   2.159   3.351   0.022  0.4742  0.5123  0.7130
 5134SOL    HW127038   2.173   3.258   0.007  2.4807  0.9107  0.0647
 5134SOL    HW227039   2.169   3.392  17.680  4.0553  0.1412  0.9460
 5135SOL     OW27040   1.935   0.344  13.292 -0.2577 -0.2496 -0.2813
 5135SOL    HW127041   1.932   0.270  13.353 -1.5657 -0.0958 -0.1491
 5135SOL    HW227042   1.842   0.363  13.277 -0.0384  1.6513  0.7917
 5136SOL     OW27043   4.369   3.246   2.028 -0.2929  0.8842  0.3571
 5136SOL    HW127044   4.290   3.203   2.059  0.4952 -0.3693  0.6189
 5136SOL    HW227045   4.409   3.184   1.967 -0.1216  0.6862  0.6701
 5137SOL     OW27046   1.447   2.459  14.149 -0.6473  0.0215 -0.2434
 5137SOL    HW127047   1.481   2.388  14.094  3.0720  0.2765  1.7493
 5137SOL    HW227048   1.509   2.521  14.110  0.2253  0.4642  1.8774
 5138SOL     OW27049   4.061   2.331   0.903 -0.5117 -0.0845 -0.8620
 5138SOL    HW127050   4.027   2.256   0.853  0.8719 -0.1413 -1.7061
 5138SOL    HW227051   4.033   2.404   0.847 -1.9188 -0.7042 -0.9759
 5139SOL     OW27052   0.142   2.661   2.460  0.0107 -0.3465 -0.4274
 5139SOL    HW127053   0.172   2.577   2.494  0.1540  0.2907  1.0138
 5139SOL    HW227054   0.144   2.721   2.535 -1.1591  2.0556 -2.2968
 5140SOL     OW27055   2.446   1.240   6.667 -0.0648 -0.4589 -0.4924
 5140SOL    HW127056   2.483   1.318   6.626  0.5080 -0.9909 -0.9672
 5140SOL    HW227057   2.416   1.271   6.753  0.1665 -2.6667  0.3925
 5141SOL     OW27058   2.548   4.224  13.568  0.0690 -0.4623  0.1895
 5141SOL    HW127059   2.497   4.302  13.550  0.2097 -0.3499  0.2747
 5141SOL    HW227060   2.621   4.243  13.509  0.0670  2.5667  1.1577
 5142SOL     OW27061   0.187   3.595   4.266 -0.1341 -0.0995 -0.0958
 5142SOL    HW127062   0.131   3.632   4.198 -0.3884 -1.4040 -0.6125
 5142SOL    HW227063   0.140   3.614   4.347 -0.0897  0.2639 -0.1584
 5143SOL     OW27064   3.832   2.991   1.920  0.4067  0.4714 -0.0403
 5143SOL    HW127065   3.830   3.057   1.851 -0.2458  2.4908  1.9155
 5143SOL    HW227066   3.835   3.041   2.001  1.2762 -0.6135  0.6057
 5144SOL     OW27067   1.890   1.212  10.125  0.1219 -0.4567 -0.5572
 5144SOL    HW127068   1.902   1.294  10.174  1.3122 -1.0086  0.0642
 5144SOL    HW227069   1.848   1.252  10.049  1.7230  1.1154 -0.6238
 5145SOL     OW27070   3.622   2.791   1.879 -0.3985 -0.2363 -0.3438
 5145SOL    HW127071   3.664   2.708   1.856  0.7785  0.4965 -0.8283
 5145SOL    HW227072   3.703   2.838   1.897  1.3679 -2.6558 -1.9590
 5146SOL     OW27073   3.817   2.044   1.139  0.2257  0.0086  0.6557
 5146SOL    HW127074   3.735   2.002   1.165  0.8441 -2.8060 -1.9430
 5146SOL    HW227075   3.784   2.132   1.119  0.7817 -0.2120 -1.2464
 5147SOL     OW27076   3.083   3.560   5.858 -0.1349  0.1635 -0.8520
 5147SOL    HW127077   3.037   3.633   5.898 -1.7467 -0.9138 -0.7304
 5147SOL    HW227078   3.044   3.567   5.771 -1.9449  0.2088 -0.0480
 5148SOL     OW27079   2.797   3.115   5.743  0.0093 -0.1865  0.2925
 5148SOL    HW127080   2.886   3.116   5.778 -0.5027 -1.7001  1.6228
 5148SOL    HW227081   2.800   3.203   5.706  1.3280 -0.4818 -0.3049
 5149SOL     OW27082   2.076   2.125   8.846 -0.0495  0.4108 -0.2050
 5149SOL    HW127083   2.067   2.198   8.906  0.9688 -0.1611  0.6537
 5149SOL    HW227084   2.023   2.056   8.887  0.7712 -0.6413 -0.8940
 5150SOL     OW27085   0.323   0.649   4.473  0.3757  0.0622  0.1222
 5150SOL    HW127086   0.307   0.645   4.567  1.7645 -0.1188  0.3596
 5150SOL    HW227087   0.289   0.565   4.442 -0.7048  0.5109  0.1021
 5151SOL     OW27088   3.910   0.617   9.564 -0.1379 -0.4449 -0.0797
 5151SOL    HW127089   3.837   0.616   9.501 -2.9141 -2.8513  3.1412
 5151SOL    HW227090   3.946   0.532   9.537 -0.8315 -0.5483 -0.6982
 5152SOL     OW27091   1.444   2.445  16.978  0.1463 -0.2997  0.0138
 5152SOL    HW127092   1.395   2.527  16.979  1.2974  0.3922 -0.0996
 5152SOL    HW227093   1.524   2.481  17.017  0.5004 -0.8199 -0.2350
 5153SOL     OW27094   3.111   1.086   5.659  0.7560 -0.7155 -0.2295
 5153SOL    HW127095   3.077   1.015   5.712  2.2668 -1.7674 -0.6507
 5153SOL    HW227096   3.146   1.139   5.730 -0.5238  0.2501 -0.3245
 5154SOL     OW27097   0.667   3.444   8.374  0.2905  0.1724  0.3171
 5154SOL    HW127098   0.685   3.525   8.422 -0.8214 -0.5094  1.9069
 5154SOL    HW227099   0.652   3.379   8.443  0.2673 -0.4425 -0.2692
 5155SOL     OW27100   0.462   0.356   5.142  0.7159 -0.7227  0.4031
 5155SOL    HW127101   0.502   0.402   5.215  2.1698 -0.9963 -0.2192
 5155SOL    HW227102   0.508   0.411   5.078  0.8453 -0.6918  0.5222
 5156SOL     OW27103   1.491   4.310  15.485  0.1482  0.1343  0.0085
 5156SOL    HW127104   1.449   4.247  15.426  0.1692  0.4841 -0.3782
 5156SOL    HW227105   1.493   4.389  15.431 -0.8756 -0.2219 -0.5516
 5157SOL     OW27106   0.612   1.273   3.315  0.2428  0.0378 -0.3954
 5157SOL    HW127107   0.537   1.235   3.361  0.0902  0.4669 -0.2954
 5157SOL    HW227108   0.621   1.225   3.232 -2.8216 -1.3794  0.0779
 5158SOL     OW27109   1.850   4.623   2.650 -0.3621 -0.3985  0.3096
 5158SOL    HW127110   1.859   4.694   2.712 -2.5041  0.8361 -0.7641
 5158SOL    HW227111   1.754   4.618   2.656 -0.3330 -0.6110  0.6304
 5159SOL     OW27112   1.853   4.620  12.367 -0.8766 -0.0840  0.6047
 5159SOL    HW127113   1.775   4.565  12.370 -1.8029  1.2008  0.3268
 5159SOL    HW227114   1.898   4.578  12.294  0.0400  0.1043  1.0592
 5160SOL     OW27115   3.645   1.668   5.042 -0.2224 -0.3150  0.1572
 5160SOL    HW127116   3.731   1.645   5.079  0.1492  0.4268 -0.2389
 5160SOL    HW227117   3.621   1.588   4.996 -1.3880  0.4683 -0.5809
 5161SOL     OW27118   3.354   0.950   6.918 -0.0215 -0.3350  0.5627
 5161SOL    HW127119   3.439   0.921   6.884 -0.5645  0.1302 -1.2151
 5161SOL    HW227120   3.300   0.873   6.934  2.8381 -2.4993 -0.2196
 5162SOL     OW27121   2.826   0.382  15.687  0.5476 -0.1130 -0.2051
 5162SOL    HW127122   2.745   0.431  15.697  0.6174 -0.3283  1.5137
 5162SOL    HW227123   2.835   0.329  15.767  1.2356 -0.3124 -0.4143
 5163SOL     OW27124   2.507   4.376   9.074  0.1967  0.3126  0.0482
 5163SOL    HW127125   2.507   4.284   9.047 -1.5036  0.7203 -1.3160
 5163SOL    HW227126   2.532   4.360   9.165 -2.9512 -0.3457  0.7897
 5164SOL     OW27127   3.389   0.269   0.056  0.1971 -0.4374  0.3085
 5164SOL    HW127128   3.308   0.243   0.012  0.5828  0.8328 -1.1538
 5164SOL    HW227129   3.366   0.329   0.127  1.2122  0.8253 -0.4152
 5165SOL     OW27130   2.946   0.105   3.632 -0.1529 -0.8918 -0.4428
 5165SOL    HW127131   3.000   0.095   3.553 -1.9908  0.5263 -1.8818
 5165SOL    HW227132   2.931   0.010   3.638 -1.5270 -0.3222  4.7302
 5166SOL     OW27133   3.952   0.246   0.891  0.6376  0.1446  0.3857
 5166SOL    HW127134   3.896   0.316   0.925 -2.0087 -1.7586 -0.0571
 5166SOL    HW227135   3.919   0.209   0.809 -0.4568 -2.4728  1.9984
 5167SOL     OW27136   3.328   4.146  13.216  0.4081 -0.2042 -0.5124
 5167SOL    HW127137   3.270   4.181  13.149 -1.0418 -0.4264  0.6118
 5167SOL    HW227138   3.333   4.055  13.185  1.2640 -0.0341 -0.8530
 5168SOL     OW27139   4.725   2.854  17.587  0.0591  0.0650 -0.2398
 5168SOL    HW127140   0.029   2.880  17.504  0.9198 -0.5488 -0.0063
 5168SOL    HW227141   4.662   2.789  17.558 -0.8380  0.7452  0.1785
 5169SOL     OW27142   2.285   4.263   7.055  0.1052  0.2176  0.2048
 5169SOL    HW127143   2.230   4.341   7.057  0.8282  0.7672 -2.0280
 5169SOL    HW227144   2.226   4.217   6.996  1.3458  0.9481 -1.6018
 5170SOL     OW27145   3.002   0.635   0.862 -0.1259  0.0383  0.0851
 5170SOL    HW127146   2.943   0.629   0.938 -1.5963 -0.0390 -1.0630
 5170SOL    HW227147   3.070   0.693   0.895 -1.3068  1.7165 -0.4768
 5171SOL     OW27148   3.077   4.147  11.859 -0.0048  0.1178  0.1788
 5171SOL    HW127149   3.091   4.133  11.952 -0.3048  1.0779  0.3635
 5171SOL    HW227150   3.052   4.239  11.864  0.5306  0.4866 -3.7199
 5172SOL     OW27151   2.093   0.079   8.520 -0.5861 -0.5276 -0.8423
 5172SOL    HW127152   2.187   0.061   8.524 -0.3009  0.2699 -3.6406
 5172SOL    HW227153   2.078   0.086   8.614 -1.3385 -0.9441 -0.9317
 5173SOL     OW27154   3.308   2.788   8.087  0.5521 -1.2468 -0.3354
 5173SOL    HW127155   3.253   2.737   8.028 -0.8706  1.2112 -1.1225
 5173SOL    HW227156   3.394   2.774   8.048  1.5984 -1.3884  2.0067
 5174SOL     OW27157   4.656   1.018  16.842  0.4793  0.1908 -0.7115
 5174SOL    HW127158   4.686   0.982  16.926 -0.6931  3.7645  1.2321
 5174SOL    HW227159   4.620   1.102  16.871 -2.0142 -0.8833 -0.6941
 5175SOL     OW27160   3.444   3.116   1.270  0.4709 -0.1232  0.0605
 5175SOL    HW127161   3.524   3.135   1.223  2.0511 -0.9198  2.4250
 5175SOL    HW227162   3.461   3.124   1.364  3.3124  0.6000 -0.5372
 5176SOL     OW27163   1.186   0.354   5.994  0.6602 -0.9849 -0.3399
 5176SOL    HW127164   1.168   0.286   6.058  2.0902 -1.7544 -0.7517
 5176SOL    HW227165   1.200   0.427   6.055 -0.1684 -1.0285 -0.1035
 5177SOL     OW27166   0.306   2.952  17.619  0.1813  0.0120  0.2720
 5177SOL    HW127167   0.304   2.857  17.612  2.0376  0.0614 -0.9129
 5177SOL    HW227168   0.401   2.962  17.621  0.3394 -1.4825 -0.4541
 5178SOL     OW27169   3.910   2.369   5.871  0.9234 -1.1402 -0.0536
 5178SOL    HW127170   3.953   2.332   5.793 -0.6924 -1.2081 -0.9200
 5178SOL    HW227171   3.840   2.305   5.884 -2.8048  2.9890  0.1712
 5179SOL     OW27172   3.496   0.550  10.790 -0.2583  0.7623 -0.8593
 5179SOL    HW127173   3.499   0.596  10.873 -1.4322 -2.1608  0.8142
 5179SOL    HW227174   3.576   0.496  10.796 -1.9828 -1.6360  0.7093
 5180SOL     OW27175   1.629   0.763  13.694 -1.1048 -0.0786 -0.0199
 5180SOL    HW127176   1.671   0.746  13.610  0.4307  2.3459  0.2698
 5180SOL    HW227177   1.536   0.758  13.671 -0.3519  0.0660 -3.1053
 5181SOL     OW27178   3.189   4.514   2.490 -0.6080 -0.2235  0.0137
 5181SOL    HW127179   3.200   4.432   2.539  0.2874  0.2996  0.6760
 5181SOL    HW227180   3.129   4.486   2.421  0.0897  1.4957 -1.2997
 5182SOL     OW27181   4.127   0.831   3.822  0.3244  0.4698 -0.1000
 5182SOL    HW127182   4.114   0.736   3.816 -0.1891  0.3784  2.4823
 5182SOL    HW227183   4.172   0.845   3.739  0.0065 -0.5573 -0.4498
 5183SOL     OW27184   0.481   0.481   8.267  0.0258 -0.1510  0.0841
 5183SOL    HW127185   0.515   0.402   8.311  2.3682  1.1441  0.6010
 5183SOL    HW227186   0.542   0.547   8.299  0.6740 -1.1176  0.8347
 5184SOL     OW27187   3.632   3.581   4.131 -0.5251  0.5100  0.0655
 5184SOL    HW127188   3.726   3.560   4.135 -0.4681  1.2525  2.7515
 5184SOL    HW227189   3.627   3.579   4.036 -2.7654 -2.0118  0.2630
 5185SOL     OW27190   2.320   4.292   5.435 -0.1345  0.3105 -0.5993
 5185SOL    HW127191   2.336   4.381   5.405  1.0978  0.4731  0.5416
 5185SOL    HW227192   2.406   4.263   5.465 -0.3006 -1.8154 -2.1948
 5186SOL     OW27193   2.729   0.626   3.157  0.1526 -0.1196 -0.1727
 5186SOL    HW127194   2.782   0.679   3.097 -1.7696  1.7451 -0.2350
 5186SOL    HW227195   2.717   0.550   3.101  2.1126 -1.5649  1.3792
 5187SOL     OW27196   1.981   0.296   4.240 -0.3067 -0.0964 -0.1836
 5187SOL    HW127197   1.967   0.337   4.326  0.7900 -1.9821  0.9041
 5187SOL    HW227198   1.906   0.331   4.192 -0.8874 -2.1696 -0.7848
 5188SOL     OW27199   1.831   3.438   3.325 -0.2511  0.0285 -0.3087
 5188SOL    HW127200   1.786   3.521   3.338  0.5016  0.2810  0.6413
 5188SOL    HW227201   1.906   3.449   3.383  0.4616  2.3519 -1.6826
 5189SOL     OW27202   2.215   0.638   4.030  0.5578 -0.4180 -0.4953
 5189SOL    HW127203   2.196   0.590   3.950  1.9584  0.8488 -1.5809
 5189SOL    HW227204   2.311   0.638   4.027  0.4907  1.0800 -2.6554
 5190SOL     OW27205   1.062   2.450   4.591 -0.0715 -0.0254  0.1545
 5190SOL    HW127206   1.152   2.482   4.590 -0.6926  1.6331 -1.9438
 5190SOL    HW227207   1.047   2.415   4.503  1.2600 -1.0322  0.3273
 5191SOL     OW27208   3.982   2.570   8.247 -0.5097  0.7305  0.4225
 5191SOL    HW127209   3.905   2.606   8.292 -0.5508 -1.0681  1.7781
 5191SOL    HW227210   4.044   2.642   8.242 -0.6427  0.9083  1.3280
 5192SOL     OW27211   2.114   0.623  15.599  0.6144  0.5746  0.0741
 5192SOL    HW127212   2.154   0.680  15.665 -2.3637  2.7419 -0.0090
 5192SOL    HW227213   2.056   0.690  15.565 -1.8176 -1.3558  0.4196
 5193SOL     OW27214   0.779   4.610  16.350  0.1922 -0.8904  0.1464
 5193SOL    HW127215   0.726   4.688  16.337 -1.0315 -1.7266  0.1739
 5193SOL    HW227216   0.716   4.554  16.395  0.0399  2.9047  4.6352
 5194SOL     OW27217   0.087   2.810   0.113  0.3965  0.2834 -0.2135
 5194SOL    HW127218   0.067   2.822   0.020 -0.3273 -0.1168 -0.1100
 5194SOL    HW227219   0.031   2.882   0.143  4.4481  2.9209  1.0163
 5195SOL     OW27220   4.356   4.549   3.053 -0.6008  0.1594 -0.4272
 5195SOL    HW127221   4.366   4.577   2.962 -0.4830 -2.3830 -1.1958
 5195SOL    HW227222   4.445   4.523   3.077 -0.4338  0.3333 -0.8550
 5196SOL     OW27223   2.607   1.605   6.825 -0.3965  0.1106  0.0146
 5196SOL    HW127224   2.636   1.627   6.913 -0.6575  0.8460 -0.0878
 5196SOL    HW227225   2.543   1.537   6.845  0.1649 -0.2634  0.5640
 5197SOL     OW27226   4.284   2.176   3.921  0.4489  0.2526 -0.5191
 5197SOL    HW127227   4.330   2.140   3.845  1.9678 -2.5672  1.7405
 5197SOL    HW227228   4.352   2.223   3.969  1.0386 -0.4534 -0.6637
 5198SOL     OW27229   2.317   4.148  10.093  0.4448 -0.1386 -0.0026
 5198SOL    HW127230   2.379   4.195  10.148  1.5278 -0.5194 -0.8930
 5198SOL    HW227231   2.243   4.209  10.097  1.2365  0.8567 -0.4409
 5199SOL     OW27232   4.058   1.512   2.286  0.5910  0.0259 -0.5912
 5199SOL    HW127233   4.099   1.451   2.347 -0.7397 -0.4012 -0.1133
 5199SOL    HW227234   4.008   1.571   2.342 -1.2756 -1.1530 -1.0215
 5200SOL     OW27235   0.753   3.006   0.727 -0.4337  0.0063  0.0416
 5200SOL    HW127236   0.727   3.035   0.639 -0.9419  0.8951  0.4836
 5200SOL    HW227237   0.848   2.997   0.714 -0.3186  0.1715  0.7798
 5201SOL     OW27238   1.909   0.779   1.373  0.0476  0.1321  0.2201
 5201SOL    HW127239   1.907   0.707   1.436 -1.4226 -1.3516 -1.5288
 5201SOL    HW227240   1.832   0.763   1.319  0.1592  1.3173 -0.2954
 5202SOL     OW27241   2.864   3.328   3.106 -0.1825  1.3740  0.0699
 5202SOL    HW127242   2.814   3.310   3.186  0.1514  2.3616  0.4974
 5202SOL    HW227243   2.927   3.391   3.142 -1.0553  2.9685 -1.1827
 5203SOL     OW27244   1.143   4.486   2.810 -0.1008  0.0632  0.2378
 5203SOL    HW127245   1.150   4.535   2.729  1.4808  1.3912  1.1598
 5203SOL    HW227246   1.151   4.553   2.878 -0.7301  0.9447 -0.5635
 5204SOL     OW27247   2.007   3.637   2.506  0.2193  0.0461  0.0243
 5204SOL    HW127248   1.969   3.579   2.439 -0.1936  0.9952 -0.5609
 5204SOL    HW227249   2.068   3.578   2.551  1.7767  2.1598  0.6864
 5205SOL     OW27250   3.205   3.420   2.585 -0.2584  0.0874  0.2805
 5205SOL    HW127251   3.147   3.365   2.531 -0.7567 -1.2279  2.1595
 5205SOL    HW227252   3.203   3.497   2.529  2.0661  0.7894  1.1539
 5206SOL     OW27253   4.660   4.572   6.246  0.4645 -0.2278  0.4034
 5206SOL    HW127254   4.687   4.547   6.334  1.0395 -1.3729 -0.1069
 5206SOL    HW227255   4.566   4.590   6.248  0.5595  0.2818  0.3207
 5207SOL     OW27256   2.732   3.056   3.959  0.0860  0.6197 -0.0181
 5207SOL    HW127257   2.712   3.035   3.868  0.5023  2.2469 -0.4875
 5207SOL    HW227258   2.784   3.137   3.950 -1.3230  1.6114  0.8611
 5208SOL     OW27259   3.211   0.043   2.623 -0.3418 -0.2173 -0.0572
 5208SOL    HW127260   3.264   4.706   2.653  0.0287  0.9507  2.1249
 5208SOL    HW227261   3.194   0.007   2.536  0.1501 -0.3850 -0.0860
 5209SOL     OW27262   4.505   4.238   3.961 -0.2757  0.1613  0.3451
 5209SOL    HW127263   4.491   4.291   4.039  0.0567 -0.3165  0.7264
 5209SOL    HW227264   4.416   4.218   3.932 -0.5290  1.2533  0.3438
 5210SOL     OW27265   1.578   0.717   2.337 -0.5558 -0.7213 -0.3623
 5210SOL    HW127266   1.583   0.783   2.406 -4.0428  0.3423 -1.0935
 5210SOL    HW227267   1.636   0.751   2.269 -1.6524  1.0172 -0.4505
 5211SOL     OW27268   3.784   2.488   3.403 -0.0183 -0.3147 -0.2681
 5211SOL    HW127269   3.790   2.392   3.399 -0.6265 -0.4463  1.8758
 5211SOL    HW227270   3.724   2.502   3.330 -0.8533 -0.4796  0.3847
 5212SOL     OW27271   0.732   2.592   4.028 -0.2720  0.3790 -0.3915
 5212SOL    HW127272   0.826   2.575   4.030 -0.4910 -0.7881  0.3055
 5212SOL    HW227273   0.733   2.685   4.051 -2.8080  0.5913 -1.1678
 5213SOL     OW27274   1.040   3.119   4.469  0.4455 -0.1456  0.1989
 5213SOL    HW127275   0.997   3.052   4.522  0.1435 -0.1155 -0.0097
 5213SOL    HW227276   0.971   3.185   4.474 -0.7247 -1.2404 -1.6677
 5214SOL     OW27277   2.640   3.459   9.667 -0.4770  0.6655 -0.1517
 5214SOL    HW127278   2.647   3.407   9.586 -1.0889  1.3792 -0.6604
 5214SOL    HW227279   2.704   3.527   9.645 -0.0965  0.5673  0.6515
 5215SOL     OW27280   0.566   1.266   6.784 -0.6097  0.5497  0.1032
 5215SOL    HW127281   0.498   1.290   6.846 -0.6175  0.3811  0.1582
 5215SOL    HW227282   0.593   1.187   6.830 -2.2172 -0.4723 -0.7149
 5216SOL     OW27283   2.633   2.573   2.756  0.0081 -0.6456 -0.4526
 5216SOL    HW127284   2.695   2.644   2.742  2.0623 -2.3557 -0.0293
 5216SOL    HW227285   2.671   2.505   2.700  0.8418  0.2432 -0.9674
 5217SOL     OW27286   1.908   4.082   7.225  0.0353 -0.1249  0.8817
 5217SOL    HW127287   1.910   4.169   7.185 -0.0918 -0.6815 -0.3395
 5217SOL    HW227288   1.931   4.105   7.315  1.9674 -0.9480  0.5806
 5218SOL     OW27289   3.140   3.308  14.478 -0.4114 -0.0248 -0.4199
 5218SOL    HW127290   3.121   3.332  14.569 -2.5876 -0.7374 -0.6860
 5218SOL    HW227291   3.182   3.383  14.435 -1.3922  2.1782  2.4755
 5219SOL     OW27292   0.728   2.905  14.680 -0.3796 -0.7253  0.2985
 5219SOL    HW127293   0.723   2.819  14.638 -0.1173 -0.0635 -1.0677
 5219SOL    HW227294   0.734   2.965  14.606  3.0621 -0.3663  0.8243
 5220SOL     OW27295   2.342   0.274   9.335  0.0892  0.0559  0.7734
 5220SOL    HW127296   2.339   0.192   9.286 -0.5422  0.3076  0.4004
 5220SOL    HW227297   2.361   0.249   9.425  0.6281 -0.1231  0.6109
 5221SOL     OW27298   4.330   1.680   5.858 -0.5554  0.4906  0.2984
 5221SOL    HW127299   4.362   1.695   5.770 -0.2541  1.3954  0.5684
 5221SOL    HW227300   4.241   1.712   5.840 -0.7402 -1.3984 -2.2221
 5222SOL     OW27301   4.013   3.774   9.069 -0.6636 -0.2384 -0.1202
 5222SOL    HW127302   3.939   3.788   9.128 -2.0117  1.4480 -2.2315
 5222SOL    HW227303   4.088   3.788   9.127 -0.7587  1.7529 -0.4723
 5223SOL     OW27304   4.051   3.369  13.467  0.0728 -0.1892 -0.6284
 5223SOL    HW127305   4.100   3.288  13.480 -1.1035 -0.6929  0.7552
 5223SOL    HW227306   4.121   3.411  13.417 -0.4273  0.4628 -0.7748
 5224SOL     OW27307   4.410   2.131   6.176  0.0141 -0.6497 -0.2522
 5224SOL    HW127308   4.491   2.083   6.157 -0.9920 -2.8691  0.9945
 5224SOL    HW227309   4.355   2.075   6.232 -1.6628  1.2728  0.0308
 5225SOL     OW27310   0.756   0.234  15.147 -0.1059 -1.3354 -0.2768
 5225SOL    HW127311   0.760   0.145  15.181  0.3627 -2.4209 -3.1633
 5225SOL    HW227312   0.715   0.211  15.063 -0.8342  1.5811 -0.7271
 5226SOL     OW27313   4.262   0.306   2.605 -0.2888 -0.1993 -0.1507
 5226SOL    HW127314   4.254   0.370   2.676  0.1431 -1.8876  1.4226
 5226SOL    HW227315   4.172   0.295   2.574 -0.7203 -2.6088  1.9665
 5227SOL     OW27316   0.113   4.126  16.170  0.6312 -0.5580  0.0031
 5227SOL    HW127317   0.169   4.144  16.095  0.7993 -2.0034 -0.2164
 5227SOL    HW227318   0.129   4.207  16.219 -3.6014 -0.2934  0.9081
 5228SOL     OW27319   0.633   1.117   7.871 -0.1783 -0.1906 -0.0535
 5228SOL    HW127320   0.710   1.072   7.837  0.0444 -0.4654  0.8050
 5228SOL    HW227321   0.608   1.171   7.796  1.2862 -1.2155 -1.2865
 5229SOL     OW27322   3.968   3.213   4.735 -0.0916 -0.2946 -0.2741
 5229SOL    HW127323   3.940   3.132   4.690  1.7037 -1.9889  1.6873
 5229SOL    HW227324   3.901   3.208   4.803  1.0100 -1.8543  0.7051
 5230SOL     OW27325   1.249   2.300  12.883 -0.2360  0.1084  0.6349
 5230SOL    HW127326   1.195   2.333  12.811 -1.0049 -2.9434 -0.2121
 5230SOL    HW227327   1.184   2.283  12.951 -0.5465 -2.4672 -0.2994
 5231SOL     OW27328   0.142   4.038  17.554 -0.7069  0.0011 -0.3037
 5231SOL    HW127329   0.231   4.053  17.521  0.0031 -1.9121  0.6879
 5231SOL    HW227330   0.154   4.064  17.645 -0.9585  0.6838 -0.4670
 5232SOL     OW27331   3.338   1.586   1.928 -0.2754  0.0195 -0.3357
 5232SOL    HW127332   3.263   1.635   1.893  2.4029  3.7024 -0.9151
 5232SOL    HW227333   3.315   1.497   1.900 -0.8291  0.1260 -0.2291
 5233SOL     OW27334   2.615   4.069   1.552 -0.4283 -0.1918  0.5968
 5233SOL    HW127335   2.562   3.995   1.522  0.0192 -0.6360  0.8992
 5233SOL    HW227336   2.615   4.122   1.472  0.9330 -0.4282  0.4330
 5234SOL     OW27337   1.860   0.693   5.617  0.3538 -0.4292 -0.3941
 5234SOL    HW127338   1.931   0.634   5.642  0.1541 -0.5233 -0.0544
 5234SOL    HW227339   1.906   0.769   5.582 -3.5486  0.9163 -2.6123
 5235SOL     OW27340   4.434   1.847   9.368 -0.2519  0.3579 -0.4550
 5235SOL    HW127341   4.463   1.886   9.285  0.8078  0.5284 -0.0093
 5235SOL    HW227342   4.519   1.813   9.398 -0.6954  0.0458  0.4276
 5236SOL     OW27343   1.741   4.083  11.390 -0.8995  0.5705  0.0217
 5236SOL    HW127344   1.740   4.094  11.485 -1.3686  1.2384 -0.0641
 5236SOL    HW227345   1.786   3.998  11.385  0.6016  1.3094  1.0064
 5237SOL     OW27346   3.706   0.692  16.965 -0.1706 -0.3680  0.5351
 5237SOL    HW127347   3.717   0.785  16.948 -1.8881 -0.3118 -0.2036
 5237SOL    HW227348   3.659   0.705  17.048 -0.8671 -0.3511  0.1338
 5238SOL     OW27349   0.614   2.980  17.558 -0.3557 -0.1297 -0.2306
 5238SOL    HW127350   0.661   3.063  17.564  2.8573 -1.9696 -0.1086
 5238SOL    HW227351   0.632   2.941  17.472  1.5456  1.0730 -0.3866
 5239SOL     OW27352   0.781   0.836   8.935 -0.0402  0.4050  0.7363
 5239SOL    HW127353   0.852   0.885   8.894  0.0000  0.3345  0.7221
 5239SOL    HW227354   0.713   0.903   8.938  0.3642  0.8185  0.4193
 5240SOL     OW27355   0.426   0.846   6.913  0.1249  0.0518  0.0712
 5240SOL    HW127356   0.472   0.812   6.991 -0.5622  3.0144  1.7784
 5240SOL    HW227357   0.358   0.780   6.905  0.1845 -0.3338  2.7756
 5241SOL     OW27358   3.593   1.694   8.065 -0.3359  0.4931  0.6259
 5241SOL    HW127359   3.569   1.688   8.157  2.1223 -3.8749  1.0084
 5241SOL    HW227360   3.651   1.618   8.059 -0.6140  0.3342 -0.0195
 5242SOL     OW27361   4.126   0.170   1.242  0.1791 -0.2178 -0.2361
 5242SOL    HW127362   4.041   0.212   1.239  1.2026  1.8743  0.0015
 5242SOL    HW227363   4.097   0.079   1.233 -0.7206 -0.0305  0.7851
 5243SOL     OW27364   1.225   1.271   1.725  0.3354 -0.2083  0.3445
 5243SOL    HW127365   1.284   1.209   1.768  1.3750 -0.5397 -1.5466
 5243SOL    HW227366   1.204   1.220   1.647 -0.7220  0.8034 -0.0274
 5244SOL     OW27367   4.342   0.858   5.717  0.3869  0.3250 -0.4243
 5244SOL    HW127368   4.262   0.853   5.665  0.8686 -0.8318 -1.0712
 5244SOL    HW227369   4.388   0.778   5.690  0.2711  0.3762 -0.7695
 5245SOL     OW27370   4.242   2.011   5.450 -0.8365  0.1168  0.5705
 5245SOL    HW127371   4.288   2.041   5.372 -0.8711 -0.6528  0.2536
 5245SOL    HW227372   4.225   1.918   5.432  3.0975 -0.5795  0.4669
 5246SOL     OW27373   1.469   1.579  11.335 -0.4277  0.2297  0.3757
 5246SOL    HW127374   1.533   1.638  11.295 -1.2507  1.0136  0.2216
 5246SOL    HW227375   1.526   1.511  11.371  1.2187  0.2350 -2.1800
 5247SOL     OW27376   0.946   1.075   2.282  0.6250  0.0783  0.1971
 5247SOL    HW127377   1.005   1.133   2.233 -0.3709  1.0597  0.1488
 5247SOL    HW227378   1.005   1.004   2.308  2.6545  2.5996  2.6034
 5248SOL     OW27379   4.301   4.215  16.719 -0.3663 -0.1144 -0.2736
 5248SOL    HW127380   4.396   4.229  16.717 -0.4106  0.3532  0.9184
 5248SOL    HW227381   4.287   4.235  16.811  0.8954 -1.0565  0.1160
 5249SOL     OW27382   0.359   1.276   2.995  0.3340 -0.4027 -0.1632
 5249SOL    HW127383   0.379   1.357   3.041 -1.9353  1.3236 -2.2225
 5249SOL    HW227384   0.339   1.320   2.913 -1.9051 -0.2533  0.4375
 5250SOL     OW27385   2.674   4.218   8.208 -0.3901 -0.1933  0.1858
 5250SOL    HW127386   2.595   4.167   8.226  0.1837 -1.4941 -1.0536
 5250SOL    HW227387   2.688   4.256   8.294  0.4768 -0.8790  0.3322
 5251SOL     OW27388   1.718   3.497   3.698  0.5312 -0.5216  0.2579
 5251SOL    HW127389   1.729   3.588   3.669 -3.2259 -0.2268 -0.2348
 5251SOL    HW227390   1.807   3.463   3.701  0.8136  0.0456 -1.4777
 5252SOL     OW27391   3.097   4.056   1.279 -0.2084 -0.3786  0.1160
 5252SOL    HW127392   3.115   3.963   1.270  0.9174 -0.3477  1.9396
 5252SOL    HW227393   3.139   4.097   1.204 -0.6920 -0.8203 -0.3949
 5253SOL     OW27394   1.721   3.990   5.978 -0.6633  0.4990 -0.2455
 5253SOL    HW127395   1.700   4.033   5.895  1.7919  1.5102 -0.3683
 5253SOL    HW227396   1.664   4.038   6.038 -2.1091  0.4903 -1.6273
 5254SOL     OW27397   2.528   1.314   9.728 -0.5190 -0.2922  0.3183
 5254SOL    HW127398   2.434   1.315   9.745 -0.6060  1.8228 -0.2960
 5254SOL    HW227399   2.525   1.242   9.665 -0.3543  2.3327 -2.7075
 5255SOL     OW27400   0.548   2.478   8.980  0.2122  0.0302  0.2021
 5255SOL    HW127401   0.548   2.455   8.887 -0.8958  0.3494  0.1204
 5255SOL    HW227402   0.637   2.450   9.000  0.6042  0.6468 -0.7070
 5256SOL     OW27403   1.146   1.044   3.356  0.3037 -0.1335  0.2771
 5256SOL    HW127404   1.090   0.967   3.358 -1.5379  1.2356  1.1923
 5256SOL    HW227405   1.120   1.092   3.277  0.4819 -0.6498 -0.0959
 5257SOL     OW27406   1.137   2.959   6.305 -0.1572  0.3773  0.3306
 5257SOL    HW127407   1.085   3.035   6.280  0.1991  1.1538  1.9260
 5257SOL    HW227408   1.153   2.924   6.217  0.7368 -1.6172  1.2766
 5258SOL     OW27409   1.365   3.040   9.532 -0.2096 -0.0186  0.1164
 5258SOL    HW127410   1.316   3.053   9.613 -0.5839  0.7634 -0.2339
 5258SOL    HW227411   1.455   3.052   9.561 -0.4114 -0.2099  0.8256
 5259SOL     OW27412   2.901   1.822  10.139  0.1541  0.1787  0.0823
 5259SOL    HW127413   2.992   1.841  10.161  0.3849 -1.3808  0.5181
 5259SOL    HW227414   2.881   1.760  10.209  1.6559 -0.7285 -0.2800
 5260SOL     OW27415   4.095   3.572  14.504 -0.2578 -0.1608 -1.0983
 5260SOL    HW127416   4.167   3.509  14.495 -0.0220 -0.0835  0.2497
 5260SOL    HW227417   4.030   3.546  14.438 -0.3845  0.5725 -1.2610
 5261SOL     OW27418   1.883   0.401   5.012  0.2736  0.1622 -0.1162
 5261SOL    HW127419   1.934   0.465   5.061 -0.3460  1.0490 -0.6311
 5261SOL    HW227420   1.860   0.329   5.071 -3.1350  1.3145 -0.0271
 5262SOL     OW27421   0.598   3.336   6.330 -0.1272  0.0040 -0.5023
 5262SOL    HW127422   0.582   3.422   6.289 -1.1150 -0.2396 -0.6257
 5262SOL    HW227423   0.604   3.367   6.420 -1.4390  1.7965 -1.0258
 5263SOL     OW27424   3.706   0.594   1.754  0.7039 -0.1423  0.1227
 5263SOL    HW127425   3.768   0.645   1.701  0.7953 -0.7695 -0.3684
 5263SOL    HW227426   3.631   0.596   1.696  2.1194 -0.6921 -1.7335
 5264SOL     OW27427   2.353   2.866  16.286  0.2147 -0.1033  0.2950
 5264SOL    HW127428   2.290   2.797  16.267  0.0927  0.2785 -0.6687
 5264SOL    HW227429   2.314   2.937  16.235 -1.9281 -1.5073  0.0336
 5265SOL     OW27430   3.902   0.087   9.517  0.1585  0.0996 -0.3369
 5265SOL    HW127431   3.873   0.178   9.526 -0.6948 -0.1940 -0.0623
 5265SOL    HW227432   3.971   0.083   9.582  0.8375 -2.2877 -1.1879
 5266SOL     OW27433   3.731   0.423   0.703  0.1500  0.3903 -0.4417
 5266SOL    HW127434   3.674   0.363   0.655 -1.0640  0.2620  1.1505
 5266SOL    HW227435   3.814   0.431   0.655  1.6302 -2.8808  1.5763
 5267SOL     OW27436   1.324   4.286   2.870  0.3672 -0.1445 -0.6466
 5267SOL    HW127437   1.365   4.330   2.944  0.8015 -1.4778 -0.1053
 5267SOL    HW227438   1.238   4.326   2.879  0.3103 -0.5857  0.6991
 5268SOL     OW27439   3.359   1.292   7.740  0.2306 -0.7690 -0.2981
 5268SOL    HW127440   3.304   1.260   7.811 -1.4760  0.0777 -1.2582
 5268SOL    HW227441   3.305   1.368   7.725  0.1371 -0.8623 -0.4278
 5269SOL     OW27442   0.877   3.562   6.476 -0.3383  0.2929 -0.1810
 5269SOL    HW127443   0.913   3.526   6.557  0.8571 -1.0966 -1.3359
 5269SOL    HW227444   0.849   3.648   6.508 -0.0494  0.4537 -0.3592
 5270SOL     OW27445   3.268   3.126  10.587 -0.3488  0.6385  0.4185
 5270SOL    HW127446   3.352   3.090  10.560 -1.8196 -1.5903 -1.1982
 5270SOL    HW227447   3.247   3.049  10.639 -0.4013 -0.0024 -0.5519
 5271SOL     OW27448   3.199   3.483   4.772  0.1204 -0.5835  0.3775
 5271SOL    HW127449   3.194   3.500   4.678 -0.4782  3.4572  1.1636
 5271SOL    HW227450   3.263   3.545   4.808 -1.4691  1.2739  0.0043
 5272SOL     OW27451   4.724   2.896  12.822 -0.0392 -0.6052  0.4772
 5272SOL    HW127452   4.660   2.831  12.793 -1.5509  0.4940  1.3195
 5272SOL    HW227453   0.056   2.848  12.869  2.0289  2.2919  0.4593
 5273SOL     OW27454   3.905   0.146   5.780 -0.2174 -0.0336 -0.4285
 5273SOL    HW127455   3.937   0.098   5.857 -0.9241 -1.4458 -1.0240
 5273SOL    HW227456   3.985   0.174   5.736 -0.6878  0.1691 -1.1480
 5274SOL     OW27457   0.129   2.349  12.361 -0.5136  0.5488 -0.2235
 5274SOL    HW127458   0.110   2.442  12.355  1.5915  0.9430 -0.8973
 5274SOL    HW227459   0.062   2.319  12.422  2.1019 -2.3962  1.2436
 5275SOL     OW27460   1.345   2.239   2.061  0.0233  0.7788 -0.2702
 5275SOL    HW127461   1.370   2.227   1.969 -2.6212  0.4493 -0.9333
 5275SOL    HW227462   1.421   2.238   2.119  1.7679 -0.8984 -2.6193
 5276SOL     OW27463   2.627   3.665  14.851  0.2201 -0.2723 -0.2757
 5276SOL    HW127464   2.600   3.627  14.934 -1.9213  0.4549 -0.6486
 5276SOL    HW227465   2.555   3.653  14.789 -0.8497  1.4307  0.6614
 5277SOL     OW27466   3.419   1.117   3.153 -0.1479 -0.4423  0.4933
 5277SOL    HW127467   3.508   1.126   3.118  0.2604 -1.0990  1.3737
 5277SOL    HW227468   3.432   1.033   3.198  0.7101  0.1154  1.2797
 5278SOL     OW27469   1.991   4.042   8.795 -0.1025  0.9630 -0.0084
 5278SOL    HW127470   1.912   3.992   8.775 -0.2905  1.3295 -0.1808
 5278SOL    HW227471   2.060   3.992   8.752 -0.7027  0.4947 -0.4215
 5279SOL     OW27472   3.062   3.338  12.546  0.4872 -0.5466 -0.1391
 5279SOL    HW127473   3.140   3.389  12.526  0.6625 -0.6105  0.3920
 5279SOL    HW227474   2.997   3.397  12.506 -1.4122  0.7931  4.9051
 5280SOL     OW27475   1.349   3.181   1.950  0.2188 -0.2458 -0.2588
 5280SOL    HW127476   1.391   3.162   1.867 -1.0871  1.2436 -1.2568
 5280SOL    HW227477   1.281   3.113   1.957  1.2760 -1.0713  2.0979
 5281SOL     OW27478   1.503   2.220  12.846  0.0340  0.0320  0.1668
 5281SOL    HW127479   1.429   2.257  12.894  0.1490  1.9879 -1.1867
 5281SOL    HW227480   1.472   2.129  12.844 -0.2769  0.1508 -0.4966
 5282SOL     OW27481   1.589   3.451   4.898  0.4133 -0.3412 -0.4228
 5282SOL    HW127482   1.514   3.457   4.839 -0.8126 -1.4216  1.0200
 5282SOL    HW227483   1.580   3.540   4.931  1.0608  0.0333 -1.2398
 5283SOL     OW27484   2.452   4.486  10.044  0.2400 -0.6387  0.6504
 5283SOL    HW127485   2.404   4.450   9.968  1.3828 -2.1491  0.6422
 5283SOL    HW227486   2.476   4.406  10.091 -0.3676 -0.3833  1.3910
 5284SOL     OW27487   2.078   4.678   4.916 -0.5232  0.0661 -0.1705
 5284SOL    HW127488   2.021   4.632   4.854 -1.3388  1.7966 -0.7238
 5284SOL    HW227489   2.157   4.676   4.862  0.6564 -2.7664  1.6797
 5285SOL     OW27490   2.222   0.212  11.080 -0.2367  0.0897  0.8750
 5285SOL    HW127491   2.284   0.140  11.078  1.9571  2.0137  0.3199
 5285SOL    HW227492   2.266   0.278  11.026 -1.5577 -1.4770 -2.1167
 5286SOL     OW27493   4.417   2.604   6.920 -0.3061 -0.2269 -0.1127
 5286SOL    HW127494   4.326   2.621   6.945  0.3844  0.8691  1.7045
 5286SOL    HW227495   4.450   2.616   7.009  0.0679 -0.3009 -0.2445
 5287SOL     OW27496   4.556   4.093   8.070 -0.4896  0.3510  0.3874
 5287SOL    HW127497   4.609   4.051   8.137  2.3249 -1.0073 -2.6668
 5287SOL    HW227498   4.618   4.135   8.010  1.4167 -2.2130  0.5957
 5288SOL     OW27499   0.366   3.226   2.982  0.3604  0.3296  0.1646
 5288SOL    HW127500   0.391   3.315   3.007  0.8215  0.4739 -0.7938
 5288SOL    HW227501   0.279   3.209   3.016  0.7407 -0.4965  0.7182
 5289SOL     OW27502   3.798   3.306   1.432  0.3901  0.7044 -0.4113
 5289SOL    HW127503   3.706   3.317   1.456  0.4331  1.3780 -0.5606
 5289SOL    HW227504   3.793   3.231   1.372  1.0413 -0.2633  0.7505
 5290SOL     OW27505   0.995   3.075  11.311 -0.0321 -0.7352  0.1927
 5290SOL    HW127506   1.044   3.149  11.347 -1.0616  0.1210 -0.1761
 5290SOL    HW227507   1.003   3.008  11.379 -0.6547 -1.5002 -0.4876
 5291SOL     OW27508   0.874   4.521   3.861 -0.2689  0.0269 -0.3451
 5291SOL    HW127509   0.855   4.567   3.943  0.6296  0.4446 -0.3620
 5291SOL    HW227510   0.787   4.530   3.822 -1.3195  1.3975  2.2637
 5292SOL     OW27511   0.966   3.223  12.381 -0.4079  0.1910 -0.3532
 5292SOL    HW127512   0.882   3.244  12.421 -0.9554 -0.2978 -1.2568
 5292SOL    HW227513   1.021   3.236  12.458 -2.7431 -1.9703  1.6779
 5293SOL     OW27514   1.249   2.666   0.074 -0.3817  1.0374  0.5388
 5293SOL    HW127515   1.157   2.641   0.062 -0.4118  0.2762  2.4315
 5293SOL    HW227516   1.239   2.760   0.089  1.1813  1.4402 -0.9016
 5294SOL     OW27517   2.895   1.366   4.224 -0.2858  0.3585 -0.4454
 5294SOL    HW127518   2.947   1.297   4.182  1.9239  1.4562  0.5321
 5294SOL    HW227519   2.820   1.365   4.165  1.3298  1.5709 -2.4966
 5295SOL     OW27520   1.495   1.896   4.977 -0.5399 -0.1983  0.2271
 5295SOL    HW127521   1.483   1.961   4.907  1.5610  1.8649  1.7828
 5295SOL    HW227522   1.470   1.815   4.932  0.0650 -0.6711  0.7435
 5296SOL     OW27523   3.058   0.737   7.868  0.0709  0.0828  1.0608
 5296SOL    HW127524   2.971   0.764   7.897  0.1355 -0.3257  1.6260
 5296SOL    HW227525   3.055   0.645   7.895 -0.2291 -0.4192 -0.6751
 5297SOL     OW27526   3.467   4.497   0.021 -0.4640  0.1330 -0.4396
 5297SOL    HW127527   3.482   4.587   0.050 -0.5810 -0.2530  0.8119
 5297SOL    HW227528   3.553   4.456   0.032 -0.7757 -0.5733 -0.6476
 5298SOL     OW27529   0.620   2.240  17.558 -0.1192 -0.0409 -0.4048
 5298SOL    HW127530   0.543   2.226  17.613  0.7848  1.6072  1.2816
 5298SOL    HW227531   0.618   2.166  17.498  0.9884 -0.5194  0.1602
 5299SOL     OW27532   2.955   1.874   3.378 -0.4899 -0.3095 -0.3351
 5299SOL    HW127533   2.990   1.785   3.378  4.0244  1.4790 -0.4976
 5299SOL    HW227534   3.011   1.920   3.316  0.7136  0.4585  1.3179
 5300SOL     OW27535   1.641   2.875   9.582 -0.3259  0.1662 -0.1654
 5300SOL    HW127536   1.620   2.834   9.667 -0.7042  1.3104  0.2993
 5300SOL    HW227537   1.641   2.970   9.595 -2.6026 -0.0200  1.2837
 5301SOL     OW27538   3.061   1.939   7.859  0.2171 -0.0379 -0.0146
 5301SOL    HW127539   3.120   1.904   7.926  0.9723  2.1877  0.4940
 5301SOL    HW227540   2.995   1.870   7.859 -0.4526  0.6046  0.9667
 5302SOL     OW27541   2.699   1.751   3.684  0.2100 -0.1175  0.7228
 5302SOL    HW127542   2.666   1.727   3.597 -0.7536  4.9183 -0.2896
 5302SOL    HW227543   2.704   1.845   3.670  0.5526 -0.0546  1.2755
 5303SOL     OW27544   2.378   0.022   8.542  0.1365 -0.4075 -0.1318
 5303SOL    HW127545   2.428   0.088   8.590  1.3070 -0.6753 -0.9773
 5303SOL    HW227546   2.397   0.033   8.449  2.3607  0.7772  0.4715
 5304SOL     OW27547   3.190   3.665   2.461 -0.1732 -0.6860 -0.2242
 5304SOL    HW127548   3.131   3.722   2.510 -0.2342  0.1615 -1.2910
 5304SOL    HW227549   3.176   3.693   2.370  0.3966 -3.1010 -1.0552
 5305SOL     OW27550   4.280   2.107   3.590 -0.4403  0.2301  0.3705
 5305SOL    HW127551   4.217   2.177   3.569 -0.0908  0.0715 -1.2217
 5305SOL    HW227552   4.367   2.145   3.580 -0.2946 -0.8058 -2.1903
 5306SOL     OW27553   3.869   2.242   7.276  0.2877 -0.2447  0.5236
 5306SOL    HW127554   3.815   2.297   7.219  0.5225 -0.8595 -0.2813
 5306SOL    HW227555   3.887   2.292   7.356 -0.1443 -0.4048  0.7182
 5307SOL     OW27556   4.121   3.954   2.615  0.4698 -0.1237 -0.0264
 5307SOL    HW127557   4.089   4.043   2.599 -0.2958 -0.6170 -1.2641
 5307SOL    HW227558   4.039   3.909   2.635  0.5853  0.7785  2.4400
 5308SOL     OW27559   1.080   1.427   4.875 -0.0675  0.4224 -0.5110
 5308SOL    HW127560   1.174   1.419   4.892 -0.3967 -0.7171  0.8024
 5308SOL    HW227561   1.069   1.521   4.887  0.3170  0.6341 -1.8061
 5309SOL     OW27562   2.495   1.764   7.092 -0.1357  0.3587  0.6272
 5309SOL    HW127563   2.447   1.842   7.120  0.2166  0.6216  0.4951
 5309SOL    HW227564   2.441   1.742   7.017 -0.6017  2.0255  0.4781
 5310SOL     OW27565   2.848   3.608  16.074 -0.8775 -0.0802  0.9525
 5310SOL    HW127566   2.784   3.645  16.013  0.8405  1.1222 -0.1314
 5310SOL    HW227567   2.835   3.671  16.145 -1.1615 -1.3294  2.0063
 5311SOL     OW27568   1.068   1.324   1.401 -0.0845  0.1569  0.0529
 5311SOL    HW127569   1.110   1.246   1.437  0.4382  0.3820 -0.0611
 5311SOL    HW227570   0.984   1.284   1.378  0.2332 -0.8922  0.7354
 5312SOL     OW27571   0.664   0.012   0.714  0.1371 -0.2066  0.1430
 5312SOL    HW127572   0.573   0.041   0.719 -0.0142 -0.3410 -1.6368
 5312SOL    HW227573   0.691   0.047   0.798 -1.3032 -1.4962  1.1482
 5313SOL     OW27574   1.190   0.363   3.968  0.3068 -0.8093  0.3906
 5313SOL    HW127575   1.115   0.304   3.975 -1.4773  1.6626  1.7900
 5313SOL    HW227576   1.134   0.436   3.942 -2.6082 -3.5722 -1.1576
 5314SOL     OW27577   0.847   3.806   3.149 -0.0726  0.3591  0.3742
 5314SOL    HW127578   0.818   3.725   3.107  0.1583  0.8563 -0.7280
 5314SOL    HW227579   0.898   3.768   3.221  0.6361  1.1503  0.3016
 5315SOL     OW27580   3.758   3.841   6.388  0.2134  0.2441  0.0160
 5315SOL    HW127581   3.662   3.838   6.389  0.1483  1.7898 -1.7545
 5315SOL    HW227582   3.781   3.933   6.380  1.1120  0.0897  0.8792
 5316SOL     OW27583   4.314   3.092  12.360 -0.3311  0.4153 -0.3110
 5316SOL    HW127584   4.375   3.022  12.336 -0.2370 -0.3717  2.1376
 5316SOL    HW227585   4.282   3.060  12.445  1.2730  0.5299  0.3350
 5317SOL     OW27586   0.163   1.538   2.761  0.3084 -0.2424 -0.1247
 5317SOL    HW127587   0.239   1.484   2.741  1.1089  1.2253 -1.0513
 5317SOL    HW227588   0.089   1.495   2.718  0.1227  0.1018 -0.1450
 5318SOL     OW27589   0.551   1.684   3.144  0.5216  0.7559  0.5320
 5318SOL    HW127590   0.560   1.761   3.088 -0.2459  0.0811 -0.5293
 5318SOL    HW227591   0.570   1.714   3.233 -0.0918 -2.1150  1.6212
 5319SOL     OW27592   0.134   1.278   1.348 -0.3995  0.0755  0.0925
 5319SOL    HW127593   0.070   1.280   1.277 -0.0998 -5.1190 -0.3292
 5319SOL    HW227594   0.204   1.227   1.307  0.0217  0.6208  0.1343
 5320SOL     OW27595   2.876   3.904  12.041  0.2827 -0.3062 -0.0235
 5320SOL    HW127596   2.879   3.989  11.996  1.4468 -0.2558  0.1508
 5320SOL    HW227597   2.920   3.921  12.125 -1.5602  1.5098  0.5824
 5321SOL     OW27598   2.245   0.303   4.858  0.1676  0.3086 -0.1883
 5321SOL    HW127599   2.179   0.244   4.893 -0.1300  0.4904 -0.4427
 5321SOL    HW227600   2.206   0.389   4.874  0.2496 -0.4412  3.8708
 5322SOL     OW27601   4.170   3.612   1.389 -0.7007 -0.6826 -0.6810
 5322SOL    HW127602   4.192   3.664   1.466  1.1910 -1.9226 -0.3656
 5322SOL    HW227603   4.075   3.616   1.387 -0.7907 -2.6463  0.0100
 5323SOL     OW27604   1.743   0.708  11.375  0.4596 -0.0322  0.0184
 5323SOL    HW127605   1.758   0.628  11.325  1.9097 -0.4873  1.1620
 5323SOL    HW227606   1.686   0.668  11.441 -1.4275  1.2483 -0.8689
 5324SOL     OW27607   3.169   1.177  11.954 -0.2601  0.6117  0.0017
 5324SOL    HW127608   3.256   1.150  11.927 -0.7632 -0.0707 -0.9184
 5324SOL    HW227609   3.143   1.240  11.886  0.4822  3.4573  2.3388
 5325SOL     OW27610   0.952   2.414   5.049 -0.1332  0.3221 -0.0333
 5325SOL    HW127611   0.858   2.421   5.032 -0.1583 -1.2841 -0.6133
 5325SOL    HW227612   0.981   2.374   4.966  0.8683 -1.9114  1.3816
 5326SOL     OW27613   1.488   1.566   2.991  0.2051  0.4484 -0.1886
 5326SOL    HW127614   1.580   1.588   3.009  0.7636 -1.4544 -0.7183
 5326SOL    HW227615   1.497   1.511   2.914  0.1394  1.7846 -1.1429
 5327SOL     OW27616   3.566   0.724   4.556 -0.9433 -0.6708  0.4812
 5327SOL    HW127617   3.621   0.649   4.579 -0.4133 -0.0717  1.1879
 5327SOL    HW227618   3.622   0.758   4.486 -1.1274  1.5606  1.4184
 5328SOL     OW27619   2.851   2.215   4.581  0.1049  0.0357 -0.4622
 5328SOL    HW127620   2.824   2.129   4.547 -0.8599  0.0421  0.2837
 5328SOL    HW227621   2.766   2.248   4.610 -0.3610  0.4138 -2.2050
 5329SOL     OW27622   1.261   2.206   3.329  0.5368 -0.7449 -0.3465
 5329SOL    HW127623   1.185   2.260   3.309  3.2816  3.5530  0.6938
 5329SOL    HW227624   1.315   2.220   3.251  0.9471  0.1224  0.0855
 5330SOL     OW27625   1.386   3.031   7.642  0.0838 -0.4132  0.2483
 5330SOL    HW127626   1.436   3.109   7.667  0.0188 -0.2812 -0.0374
 5330SOL    HW227627   1.443   2.996   7.573  0.1732  2.3667 -1.1124
 5331SOL     OW27628   1.108   1.562   7.529  0.7458 -0.4487  0.3603
 5331SOL    HW127629   1.162   1.541   7.453  2.3327  1.2009  1.0412
 5331SOL    HW227630   1.081   1.475   7.559 -0.2831 -0.7252 -1.4082
 5332SOL     OW27631   0.314   1.689   3.539 -0.8490  0.5271  0.6978
 5332SOL    HW127632   0.404   1.689   3.505 -0.9238  0.4516  0.4992
 5332SOL    HW227633   0.323   1.686   3.634  0.5903 -2.1078  0.4997
 5333SOL     OW27634   2.612   2.670   2.371  0.1858  0.0588 -0.3022
 5333SOL    HW127635   2.572   2.708   2.293 -1.0145 -1.8387 -0.6144
 5333SOL    HW227636   2.675   2.607   2.335 -0.9823 -1.1307 -0.2750
 5334SOL     OW27637   3.030   1.539   6.522 -1.1335 -0.0244 -0.1133
 5334SOL    HW127638   3.043   1.539   6.617 -2.8260 -1.1965  0.1144
 5334SOL    HW227639   2.985   1.623   6.514 -0.1327  0.3958 -1.2756
 5335SOL     OW27640   3.033   1.381  15.433 -1.0106  0.0561  0.5578
 5335SOL    HW127641   3.000   1.305  15.481 -1.9005  0.3082  0.3400
 5335SOL    HW227642   3.048   1.435  15.510 -1.7934  0.2346  0.5869
 5336SOL     OW27643   3.182   1.122  10.590  0.7956  0.1710  0.3657
 5336SOL    HW127644   3.209   1.161  10.507 -1.5101 -0.2435 -0.5812
 5336SOL    HW227645   3.268   1.093  10.619  1.6417  1.7842 -0.5412
 5337SOL     OW27646   0.698   0.362   1.835  0.1343 -0.0120  0.0823
 5337SOL    HW127647   0.706   0.268   1.855  0.9641 -0.0623 -0.4877
 5337SOL    HW227648   0.654   0.391   1.914 -0.3694  1.7804 -0.8514
 5338SOL     OW27649   0.400   4.091   7.131  0.1833  0.2357  0.0857
 5338SOL    HW127650   0.490   4.074   7.158 -0.1139 -2.2615 -0.4596
 5338SOL    HW227651   0.414   4.092   7.036 -0.3114  1.5837  0.0335
 5339SOL     OW27652   4.052   3.890   4.641  0.3544  0.2966  0.3065
 5339SOL    HW127653   4.145   3.889   4.621 -0.0243  3.4959 -1.5230
 5339SOL    HW227654   4.023   3.913   4.553 -0.1881  1.5371  0.7982
 5340SOL     OW27655   4.404   2.489   6.479  0.6589  0.3406 -0.9587
 5340SOL    HW127656   4.423   2.465   6.570 -1.6260  1.2154 -0.2546
 5340SOL    HW227657   4.381   2.580   6.493 -0.7510 -0.3089  0.9161
 5341SOL     OW27658   4.290   1.569   9.634  0.0704 -0.8280 -0.3674
 5341SOL    HW127659   4.333   1.492   9.595  0.8387 -0.3840 -0.3848
 5341SOL    HW227660   4.223   1.525   9.685 -0.6512  0.3410 -0.3026
 5342SOL     OW27661   0.688   1.169   3.740 -0.1374 -0.2181 -0.2362
 5342SOL    HW127662   0.709   1.092   3.794  2.7534  0.6651 -0.1254
 5342SOL    HW227663   0.744   1.157   3.663  0.7101  0.7635  0.2394
 5343SOL     OW27664   3.137   1.660   5.608 -0.7259 -0.2224 -0.8042
 5343SOL    HW127665   3.094   1.718   5.671 -0.4618  0.2237 -1.0340
 5343SOL    HW227666   3.062   1.651   5.548 -2.0277  1.7480  0.5378
 5344SOL     OW27667   3.580   1.063   3.746 -0.8685 -0.0801 -0.2162
 5344SOL    HW127668   3.662   1.069   3.697 -0.7901 -2.6934 -0.3937
 5344SOL    HW227669   3.583   1.147   3.792 -0.9379 -1.2858  1.9927
 5345SOL     OW27670   3.440   4.257   9.431 -0.1358  0.1743  0.0800
 5345SOL    HW127671   3.381   4.326   9.461 -1.0575 -1.2789  1.6062
 5345SOL    HW227672   3.527   4.298   9.433  0.2657 -0.6058 -1.3805
 5346SOL     OW27673   0.524   4.591  15.509  0.3074  0.6064 -0.0191
 5346SOL    HW127674   0.496   4.650  15.439 -0.6560 -0.8531 -0.8644
 5346SOL    HW227675   0.617   4.581  15.487  0.2104  0.9864 -0.6153
 5347SOL     OW27676   0.236   1.909   5.090  0.0718  0.8532 -0.3699
 5347SOL    HW127677   0.144   1.934   5.078  0.6557  1.5164 -3.4438
 5347SOL    HW227678   0.276   1.996   5.091  1.1147  0.3753 -0.9336
 5348SOL     OW27679   3.842   4.341  14.871  0.2069 -0.3658  0.4750
 5348SOL    HW127680   3.886   4.424  14.886 -1.2713  0.6013 -0.6110
 5348SOL    HW227681   3.916   4.281  14.860 -0.9133 -1.8258  0.9310
 5349SOL     OW27682   0.950   4.014   6.029  0.1288 -0.2100  0.6807
 5349SOL    HW127683   0.932   4.089   5.973 -2.0368 -1.0716  0.2357
 5349SOL    HW227684   1.042   4.041   6.038 -0.7179  3.1877 -0.9777
 5350SOL     OW27685   0.366   2.599   4.268 -0.0604  0.2913  0.4763
 5350SOL    HW127686   0.290   2.546   4.294  0.0549  0.9127  2.1039
 5350SOL    HW227687   0.345   2.680   4.316 -0.9051  2.1655 -3.0608
 5351SOL     OW27688   2.923   3.791   2.630 -0.0350 -0.3012 -0.3206
 5351SOL    HW127689   2.980   3.844   2.686  0.6136  0.9659 -2.1407
 5351SOL    HW227690   2.849   3.850   2.616 -0.0076 -0.0092  0.7537
 5352SOL     OW27691   4.222   2.721  16.577 -0.2984  0.0395  0.4733
 5352SOL    HW127692   4.187   2.716  16.488  0.1490 -0.3231  0.3149
 5352SOL    HW227693   4.309   2.746  16.546  0.6252 -2.6576  0.8868
 5353SOL     OW27694   0.539   3.062   0.185  0.0675  0.3070 -0.7149
 5353SOL    HW127695   0.446   3.085   0.189 -0.5108 -2.1307  0.3067
 5353SOL    HW227696   0.575   3.141   0.225  0.8519 -0.7786  0.7599
 5354SOL     OW27697   0.535   1.044   2.299 -0.3120 -0.0946  0.6184
 5354SOL    HW127698   0.581   1.032   2.382  0.6769 -1.4689 -0.1287
 5354SOL    HW227699   0.564   1.134   2.286  1.0184 -0.3923  1.5921
 5355SOL     OW27700   4.575   2.088   4.719 -0.7188  0.1828 -0.3841
 5355SOL    HW127701   4.655   2.037   4.724 -0.2540  1.0532  0.9098
 5355SOL    HW227702   4.603   2.166   4.672  0.5681  0.6468  1.1565
 5356SOL     OW27703   2.139   1.036   2.349  0.6103  0.4153 -0.7755
 5356SOL    HW127704   2.222   0.993   2.371 -0.0536 -0.4736 -0.0606
 5356SOL    HW227705   2.163   1.089   2.272  0.8965  1.3771 -0.0257
 5357SOL     OW27706   1.409   0.162   5.495  0.1898  0.0299 -0.0897
 5357SOL    HW127707   1.398   0.097   5.426  0.9545  0.8420 -0.9818
 5357SOL    HW227708   1.316   0.185   5.497  0.8038  2.4362  0.7977
 5358SOL     OW27709   2.598   1.229   7.866 -0.0387  0.5845 -0.0722
 5358SOL    HW127710   2.561   1.277   7.791  1.0361  0.7558 -0.4962
 5358SOL    HW227711   2.677   1.202   7.819 -1.3616 -0.1088 -1.9119
 5359SOL     OW27712   3.503   2.596   7.088 -0.4229 -0.5575 -0.0436
 5359SOL    HW127713   3.558   2.658   7.041 -1.9053  0.3420 -0.6057
 5359SOL    HW227714   3.481   2.647   7.166 -1.0634 -1.0248  0.0841
 5360SOL     OW27715   2.497   1.017   3.610  0.3322  0.1179  0.3145
 5360SOL    HW127716   2.495   0.967   3.692  3.4099 -0.5244 -0.0132
 5360SOL    HW227717   2.508   1.104   3.647 -0.5635  1.6410 -3.0181
 5361SOL     OW27718   0.318   1.262   8.483  0.1503  0.0172 -0.0761
 5361SOL    HW127719   0.228   1.243   8.511  0.9579 -1.6500  1.4272
 5361SOL    HW227720   0.348   1.174   8.460 -1.6115 -0.2918 -1.2278
 5362SOL     OW27721   4.320   1.720   6.121 -0.5979  0.2106  0.0949
 5362SOL    HW127722   4.258   1.790   6.143 -1.3285  0.0711 -1.5890
 5362SOL    HW227723   4.305   1.710   6.028 -0.5092  0.7219  0.0289
 5363SOL     OW27724   2.547   2.841  16.635  0.1258 -0.0125  0.3160
 5363SOL    HW127725   2.480   2.776  16.655 -1.0409  0.8330 -0.9186
 5363SOL    HW227726   2.625   2.800  16.673 -0.5293 -0.4858  1.1507
 5364SOL     OW27727   4.387   1.545  12.053 -0.2042  0.2599  0.9932
 5364SOL    HW127728   4.363   1.472  11.995  0.0516 -0.4522  1.7775
 5364SOL    HW227729   4.300   1.575  12.077 -0.3285  1.6956 -1.2502
 5365SOL     OW27730   0.468   1.619   2.310 -0.3033  0.5432 -0.5890
 5365SOL    HW127731   0.419   1.686   2.359 -0.8812 -1.0493  1.0035
 5365SOL    HW227732   0.466   1.647   2.219 -1.6533  2.2650 -0.0507
 5366SOL     OW27733   4.676   3.160   8.411 -0.4975 -0.2181 -0.0652
 5366SOL    HW127734   4.651   3.223   8.343  0.5599  0.9907  0.6515
 5366SOL    HW227735   4.676   3.074   8.371  0.0695 -0.6257  0.8164
 5367SOL     OW27736   0.274   2.395  14.721 -0.2247  0.3263 -0.4890
 5367SOL    HW127737   0.219   2.441  14.784  1.5617 -0.3655  1.5434
 5367SOL    HW227738   0.258   2.301  14.716 -1.8391  0.6261 -1.0977
 5368SOL     OW27739   3.639   1.827   7.295 -0.0336 -0.0174 -0.2817
 5368SOL    HW127740   3.702   1.894   7.322  0.6053 -0.2973 -1.0747
 5368SOL    HW227741   3.621   1.782   7.378 -1.2177 -3.1654 -2.2575
 5369SOL     OW27742   3.640   0.834   2.217 -0.1030  0.0026  0.2395
 5369SOL    HW127743   3.730   0.859   2.240 -0.0505  0.4710 -0.4687
 5369SOL    HW227744   3.629   0.775   2.292  2.9109  0.5259  1.1061
 5370SOL     OW27745   4.112   0.879   2.507  0.1505  0.0621  0.2085
 5370SOL    HW127746   4.091   0.792   2.542  0.0628  0.7896  1.9958
 5370SOL    HW227747   4.040   0.936   2.533 -0.9984 -1.7125  0.9488
 5371SOL     OW27748   3.785   4.250  12.457  0.4422  0.0068  0.3849
 5371SOL    HW127749   3.818   4.339  12.444 -1.3162  0.5433 -0.4482
 5371SOL    HW227750   3.696   4.259  12.424  0.7479 -0.6616 -0.6246
 5372SOL     OW27751   0.488   2.021   5.754 -0.1032 -0.0641  0.0291
 5372SOL    HW127752   0.408   2.055   5.715  1.4348  0.7333 -2.4447
 5372SOL    HW227753   0.544   2.097   5.737 -1.1272  1.3154  2.7357
 5373SOL     OW27754   4.005   3.170  17.500 -0.4648  0.3776 -0.4373
 5373SOL    HW127755   3.945   3.149  17.572  2.1827  1.9528  2.2107
 5373SOL    HW227756   3.987   3.098  17.440 -2.4068 -0.6030  1.3134
 5374SOL     OW27757   0.661   2.118  16.465 -0.2803  0.6165  0.3531
 5374SOL    HW127758   0.718   2.142  16.539 -1.2512  3.2991  0.2287
 5374SOL    HW227759   0.618   2.200  16.443 -2.5473 -0.5326  0.5325
 5375SOL     OW27760   2.054   0.408   6.643  0.4035  0.2787  0.0290
 5375SOL    HW127761   2.096   0.476   6.590  1.8810  0.7030  1.7705
 5375SOL    HW227762   2.111   0.331   6.639  1.3046  0.9128  0.8175
 5376SOL     OW27763   0.649   2.925   6.326  0.2926  0.6814 -0.2293
 5376SOL    HW127764   0.580   2.988   6.347 -0.6023 -0.9347  1.7376
 5376SOL    HW227765   0.664   2.892   6.414 -1.4034 -1.7699 -0.8386
 5377SOL     OW27766   1.369   0.951   2.935 -0.0977  0.2029  0.2621
 5377SOL    HW127767   1.402   0.870   2.895 -0.4700  0.1420  0.0673
 5377SOL    HW227768   1.434   1.016   2.909  0.5110 -0.1650  0.8812
 5378SOL     OW27769   3.900   4.590   7.017 -0.5030  0.4076 -0.2506
 5378SOL    HW127770   3.939   4.599   6.930 -1.1648 -2.2216 -0.8150
 5378SOL    HW227771   3.887   4.495   7.017  1.1925  0.1703 -1.2524
 5379SOL     OW27772   2.921   4.573   8.926 -0.1171 -0.0421  0.0687
 5379SOL    HW127773   2.981   4.500   8.943 -1.5554 -1.4086 -0.7193
 5379SOL    HW227774   2.915   4.574   8.831 -2.1373 -1.0350  0.1907
 5380SOL     OW27775   0.548   0.262   9.513 -0.1886 -0.3469 -0.1007
 5380SOL    HW127776   0.523   0.184   9.562 -2.0854 -1.1658 -2.4004
 5380SOL    HW227777   0.642   0.267   9.531  0.2510  0.5309 -2.7385
 5381SOL     OW27778   3.278   4.145   1.471 -0.0077 -0.1125  0.5847
 5381SOL    HW127779   3.292   4.235   1.442 -0.5851 -1.4553 -3.8123
 5381SOL    HW227780   3.201   4.119   1.421 -0.1996  1.8307 -0.1395
 5382SOL     OW27781   1.862   2.085   4.107 -0.4336  0.7431 -0.0370
 5382SOL    HW127782   1.772   2.080   4.139 -0.2942  0.6692  0.3481
 5382SOL    HW227783   1.850   2.123   4.021  1.3809 -1.7168 -1.3883
 5383SOL     OW27784   0.976   1.928   1.185 -0.4440  0.0235 -0.1831
 5383SOL    HW127785   0.925   1.875   1.246  0.5865 -1.0369 -0.2559
 5383SOL    HW227786   0.934   1.900   1.104 -2.9576  0.3206  1.0028
 5384SOL     OW27787   1.338   0.703   3.116  0.2761 -0.6950 -0.5960
 5384SOL    HW127788   1.326   0.691   3.021 -1.2038 -1.0122 -0.3713
 5384SOL    HW227789   1.246   0.695   3.141 -0.6332  2.5003 -2.9265
 5385SOL     OW27790   0.047   0.005   5.227 -0.1881  0.2614 -0.0910
 5385SOL    HW127791   0.113   4.684   5.188  1.8985  1.5738  1.5682
 5385SOL    HW227792   0.088   0.018   5.313  1.5963 -1.2493 -0.7168
 5386SOL     OW27793   4.720   4.150   7.419 -0.2350  0.6496 -0.0199
 5386SOL    HW127794   0.004   4.115   7.506  1.4296 -1.3033 -1.2026
 5386SOL    HW227795   0.050   4.112   7.361  2.1160  1.9894  1.7683
 5387SOL     OW27796   1.488   1.769   7.207 -0.3569  0.0667  0.2625
 5387SOL    HW127797   1.489   1.862   7.230 -1.3522  0.0320  0.4526
 5387SOL    HW227798   1.414   1.757   7.147 -0.1104  0.9136 -0.2063
 5388SOL     OW27799   4.328   1.344  14.987 -0.5718  0.6750 -0.3179
 5388SOL    HW127800   4.238   1.347  15.019 -0.6274  0.5976 -0.4672
 5388SOL    HW227801   4.382   1.316  15.061 -1.1804  0.4451  0.0377
 5389SOL     OW27802   0.056   2.777   0.412  0.3376 -0.1323  0.1257
 5389SOL    HW127803   4.706   2.753   0.380  0.2342 -0.1590  0.4320
 5389SOL    HW227804   0.101   2.766   0.328 -0.4528 -1.4187 -0.1269
 5390SOL     OW27805   3.123   2.019   3.229  0.0833  0.0390  0.0989
 5390SOL    HW127806   3.213   2.004   3.258  0.0395 -1.4104 -0.5388
 5390SOL    HW227807   3.131   1.983   3.141  5.5155  3.3165 -0.7876
 5391SOL     OW27808   1.008   2.452   9.421  0.4580  0.0919  0.4032
 5391SOL    HW127809   1.096   2.459   9.384 -0.4101  0.5577 -1.5958
 5391SOL    HW227810   1.020   2.505   9.500  0.8156  2.8043 -1.4774
 5392SOL     OW27811   1.373   4.671   7.713 -0.2023  0.9059 -0.1623
 5392SOL    HW127812   1.435   4.713   7.772 -0.4336  0.3193  0.5009
 5392SOL    HW227813   1.307   4.632   7.771 -0.3618 -0.9005 -1.5956
 5393SOL     OW27814   3.184   1.647   1.187 -0.2395 -0.1179 -0.4747
 5393SOL    HW127815   3.180   1.557   1.220 -0.1312 -0.4919 -1.4529
 5393SOL    HW227816   3.269   1.675   1.221 -0.3023 -1.3879  0.7325
 5394SOL     OW27817   2.912   3.532   7.578 -0.3976  0.2023 -0.2636
 5394SOL    HW127818   2.849   3.557   7.646 -0.9885 -0.9204 -0.3979
 5394SOL    HW227819   2.876   3.572   7.500 -0.5020  0.4127 -0.1061
 5395SOL     OW27820   0.174   1.390  16.519  0.1162  0.1707  0.5274
 5395SOL    HW127821   0.241   1.349  16.464 -1.0818 -0.4327 -0.4758
 5395SOL    HW227822   0.230   1.412  16.594  2.7816 -1.8449 -0.8597
 5396SOL     OW27823   4.061   2.446   1.149 -0.4795  0.3480 -0.1440
 5396SOL    HW127824   4.120   2.386   1.195 -0.7852  0.1483 -0.0081
 5396SOL    HW227825   4.055   2.403   1.064 -1.0643 -1.3216  0.7394
 5397SOL     OW27826   4.182   1.052   1.146  0.0578 -0.1936  0.0193
 5397SOL    HW127827   4.232   0.970   1.144 -0.2211 -0.3272 -1.3023
 5397SOL    HW227828   4.096   1.021   1.118 -0.1921 -0.6524  1.2744
 5398SOL     OW27829   3.069   3.034   7.028  0.2588  0.2628 -0.1829
 5398SOL    HW127830   3.109   3.120   7.038 -0.2345  0.3066  1.3638
 5398SOL    HW227831   2.989   3.044   7.080  1.3479 -1.8865  1.9247
 5399SOL     OW27832   0.254   3.090   5.397 -0.4940 -0.1471  0.0966
 5399SOL    HW127833   0.277   3.042   5.476  0.9114 -0.5796 -0.5799
 5399SOL    HW227834   0.330   3.147   5.401 -1.4493  1.1973 -0.6681
 5400SOL     OW27835   3.111   3.820   9.757 -0.3689 -0.4983  0.0898
 5400SOL    HW127836   3.086   3.883   9.825 -1.2033 -0.7997  0.0696
 5400SOL    HW227837   3.051   3.747   9.773  0.4805 -0.9530  1.2113
 5401SOL     OW27838   3.099   2.620   8.867  0.2791  0.7628 -0.7151
 5401SOL    HW127839   3.091   2.615   8.772 -1.0007 -0.4229 -0.5436
 5401SOL    HW227840   3.020   2.672   8.880 -0.7980 -0.7685 -1.1532
 5402SOL     OW27841   3.510   1.787   4.733  0.0106 -0.4834  0.3963
 5402SOL    HW127842   3.578   1.820   4.792 -1.4635  2.5212  0.4488
 5402SOL    HW227843   3.555   1.783   4.649 -1.5985  1.1935 -0.5386
 5403SOL     OW27844   2.598   2.848   8.068  0.2085  0.1697 -0.8527
 5403SOL    HW127845   2.540   2.922   8.086 -0.5248 -0.7909  0.8022
 5403SOL    HW227846   2.607   2.861   7.973  1.2435 -2.9613 -1.1807
 5404SOL     OW27847   0.835   2.097   8.557 -0.2039  0.3445  0.5215
 5404SOL    HW127848   0.775   2.024   8.544  0.7208 -0.6481  1.9269
 5404SOL    HW227849   0.908   2.057   8.605 -0.9602 -1.0435  0.4868
 5405SOL     OW27850   4.257   3.430   3.263  0.7062 -0.6242  0.2765
 5405SOL    HW127851   4.216   3.430   3.177  0.1392  0.7893  0.5345
 5405SOL    HW227852   4.322   3.500   3.262  1.7346 -1.6287 -1.6505
 5406SOL     OW27853   0.094   2.219   7.548  0.1692 -0.4004  0.1068
 5406SOL    HW127854   0.120   2.261   7.630  0.9970  0.7393 -0.7291
 5406SOL    HW227855   0.043   2.146   7.582 -1.5290  3.0222  4.8673
 5407SOL     OW27856   0.750   1.469  11.899  0.2906 -0.1944  0.1910
 5407SOL    HW127857   0.739   1.544  11.841 -1.2865 -0.4656  0.1466
 5407SOL    HW227858   0.775   1.512  11.982  0.4226 -0.2339  0.1728
 5408SOL     OW27859   0.374   0.827  13.423 -0.0947 -0.2038  0.1259
 5408SOL    HW127860   0.281   0.812  13.439 -0.6196  0.7568 -1.9739
 5408SOL    HW227861   0.403   0.740  13.397 -0.9295 -0.2272 -0.7180
 5409SOL     OW27862   3.040   3.172   9.638 -0.7659  0.1400  0.3796
 5409SOL    HW127863   3.066   3.245   9.583  0.9352 -1.2149 -0.6485
 5409SOL    HW227864   2.989   3.216   9.705 -1.3574 -2.6865  1.8084
 5410SOL     OW27865   2.582   4.082   0.474  0.3525  0.0573 -0.2130
 5410SOL    HW127866   2.505   4.050   0.427 -0.0762 -0.3233  0.7524
 5410SOL    HW227867   2.623   4.005   0.513  0.2063  1.2087  2.2387
 5411SOL     OW27868   4.270   3.846   3.724  0.1458 -0.4696 -0.3157
 5411SOL    HW127869   4.327   3.869   3.797 -0.6257 -1.1630  0.4920
 5411SOL    HW227870   4.282   3.752   3.710  0.0669 -1.0112  3.4610
 5412SOL     OW27871   3.002   1.140  14.143  0.5861  0.1578  0.0567
 5412SOL    HW127872   2.965   1.083  14.076  0.6270 -1.0700  1.0678
 5412SOL    HW227873   3.082   1.094  14.169  0.7013 -0.5255 -1.5367
 5413SOL     OW27874   3.974   2.552   0.746  0.0793 -0.0452 -0.2224
 5413SOL    HW127875   3.956   2.532   0.655  1.8292 -2.1093 -0.1109
 5413SOL    HW227876   4.043   2.617   0.736 -1.5911  1.8156  0.2350
 5414SOL     OW27877   3.020   1.413   0.502 -0.2326 -0.2789 -0.3042
 5414SOL    HW127878   3.054   1.428   0.590 -0.2206 -0.0680 -0.3448
 5414SOL    HW227879   3.051   1.494   0.461 -0.7747  0.5029  0.8553
 5415SOL     OW27880   1.866   2.455   5.697  0.3585  0.1329 -0.5092
 5415SOL    HW127881   1.861   2.401   5.775 -0.3990 -0.9647 -1.3292
 5415SOL    HW227882   1.817   2.531   5.727  0.7749  0.5296 -0.8268
 5416SOL     OW27883   1.805   4.254  12.180 -0.3786 -0.1644  0.2338
 5416SOL    HW127884   1.739   4.312  12.217 -2.2814 -2.6400  0.7359
 5416SOL    HW227885   1.771   4.170  12.212 -0.1452 -0.1543  0.5066
 5417SOL     OW27886   1.556   3.586   4.311  0.7900 -0.1644  0.0761
 5417SOL    HW127887   1.554   3.503   4.359  0.9755  1.1973  2.4411
 5417SOL    HW227888   1.573   3.556   4.222 -0.4808  0.4900 -0.3919
 5418SOL     OW27889   4.033   2.914  16.514  0.2078 -0.1070 -0.2929
 5418SOL    HW127890   4.111   2.867  16.544 -0.4082 -1.5741 -0.9720
 5418SOL    HW227891   4.026   2.876  16.427 -1.6671  0.5925 -0.4449
 5419SOL     OW27892   0.634   1.553   2.770 -0.5329 -0.1669 -0.0389
 5419SOL    HW127893   0.574   1.626   2.781 -1.2924 -0.7735 -0.2008
 5419SOL    HW227894   0.711   1.586   2.816 -1.7763  3.1279 -0.3474
 5420SOL     OW27895   2.338   2.984  13.288  0.4564  0.0602  0.3743
 5420SOL    HW127896   2.269   2.925  13.257 -0.0753  0.6885  0.3629
 5420SOL    HW227897   2.371   3.017  13.205 -1.2343 -0.1878 -0.3943
 5421SOL     OW27898   4.571   1.332  12.869  0.1437  0.5368  0.7860
 5421SOL    HW127899   4.663   1.327  12.895  1.2605  2.0122 -2.9177
 5421SOL    HW227900   4.583   1.300  12.780  2.9183 -2.5504  2.3052
 5422SOL     OW27901   2.579   0.591  17.127 -0.2372 -0.0309 -0.1989
 5422SOL    HW127902   2.516   0.628  17.065 -1.3046  0.2258  1.0363
 5422SOL    HW227903   2.529   0.566  17.205  1.2082 -1.1778  0.3638
 5423SOL     OW27904   2.913   3.990   9.285 -0.2461  0.0876 -0.1797
 5423SOL    HW127905   2.877   4.049   9.350  1.5248 -0.8415  1.6493
 5423SOL    HW227906   2.976   3.939   9.337 -2.4604 -1.8879  0.5543
 5424SOL     OW27907   0.012   4.005   8.351  0.3110 -0.1508  0.1189
 5424SOL    HW127908   0.042   4.033   8.438  1.7375 -2.3406  0.3400
 5424SOL    HW227909   0.096   3.997   8.305 -0.7516  1.3506 -2.0721
 5425SOL     OW27910   4.084   2.418  11.969 -0.3510 -0.0092  0.2769
 5425SOL    HW127911   4.066   2.419  11.875 -1.0293  1.7176  0.4278
 5425SOL    HW227912   4.120   2.330  11.979  1.2196  0.3080 -2.5342
 5426SOL     OW27913   1.932   3.128  11.986  0.4853 -0.4104 -0.4593
 5426SOL    HW127914   1.879   3.191  11.939  1.2387  1.6015  1.3554
 5426SOL    HW227915   2.001   3.186  12.020 -0.8290  1.4659 -1.0244
 5427SOL     OW27916   0.439   3.048  16.791 -0.2951  0.1090  0.4510
 5427SOL    HW127917   0.368   3.020  16.733  0.2577  2.7655 -1.4488
 5427SOL    HW227918   0.408   3.003  16.871 -1.2584  1.9455  1.1024
 5428SOL     OW27919   2.329   1.555  11.558  0.3069  0.1291  0.2320
 5428SOL    HW127920   2.337   1.600  11.642 -0.6844 -0.2799  0.5461
 5428SOL    HW227921   2.324   1.629  11.497 -2.4070  0.4481  0.8529
 5429SOL     OW27922   3.200   1.265   7.379 -0.3199 -0.0642  0.3363
 5429SOL    HW127923   3.133   1.256   7.447 -0.2326  2.1645  0.7164
 5429SOL    HW227924   3.202   1.178   7.340 -1.2493 -0.6082  1.4843
 5430SOL     OW27925   3.708   3.530   9.878 -0.0651  0.5742 -0.4634
 5430SOL    HW127926   3.706   3.578   9.961 -3.3395 -0.0368 -0.1851
 5430SOL    HW227927   3.633   3.566   9.831 -0.6423  0.7032  0.5438
 5431SOL     OW27928   4.417   2.768   1.469 -0.0535  0.2842  0.0616
 5431SOL    HW127929   4.367   2.810   1.540  0.2330 -1.5820  1.3665
 5431SOL    HW227930   4.503   2.797   1.500 -1.0793 -0.6355  3.8174
 5432SOL     OW27931   2.864   3.032  15.962 -0.1918 -0.5011 -0.2114
 5432SOL    HW127932   2.865   3.051  16.056 -1.4879 -1.4662 -0.0002
 5432SOL    HW227933   2.788   2.974  15.952 -0.0948 -0.5920 -0.4090
 5433SOL     OW27934   1.534   3.309   7.493  0.1658 -0.3528 -0.6745
 5433SOL    HW127935   1.624   3.335   7.513 -0.2091 -0.5755  1.2941
 5433SOL    HW227936   1.495   3.307   7.581 -1.6098  2.1755 -1.4231
 5434SOL     OW27937   2.588   2.798   5.653  0.7140  0.6910 -0.2348
 5434SOL    HW127938   2.618   2.767   5.739  0.3029 -3.1492 -1.4631
 5434SOL    HW227939   2.668   2.830   5.610 -0.4155  3.1040 -0.5142
 5435SOL     OW27940   0.551   3.386   1.474 -0.4304  0.5339  0.3106
 5435SOL    HW127941   0.576   3.315   1.533 -0.0972  0.5850  0.2331
 5435SOL    HW227942   0.599   3.361   1.394 -0.0871  0.7134  0.4601
 5436SOL     OW27943   4.354   4.636   5.569  0.1015  0.2618 -0.1437
 5436SOL    HW127944   4.375   4.551   5.530  2.7454  0.4717  0.7843
 5436SOL    HW227945   4.270   4.651   5.527 -0.1921 -0.1959  0.2747
 5437SOL     OW27946   2.871   2.797   7.489 -0.1359  0.7028 -0.1327
 5437SOL    HW127947   2.811   2.735   7.447  0.0495  1.1999 -1.1272
 5437SOL    HW227948   2.835   2.879   7.456 -0.3995  0.4086 -0.5728
 5438SOL     OW27949   1.522   2.615   5.485  0.1751  0.3766  0.4170
 5438SOL    HW127950   1.541   2.522   5.468 -0.4905  0.1983  0.6536
 5438SOL    HW227951   1.506   2.653   5.399  1.5479 -0.5916 -0.2753
 5439SOL     OW27952   2.258   2.439   5.432 -0.0400 -0.4500  0.3899
 5439SOL    HW127953   2.228   2.516   5.384  3.3417 -0.4310 -1.7031
 5439SOL    HW227954   2.271   2.383   5.356 -2.3733 -1.8441  1.0174
 5440SOL     OW27955   4.633   3.249  13.137  0.0637  0.1161  0.1415
 5440SOL    HW127956   4.619   3.224  13.046 -1.0948  0.0069  0.3464
 5440SOL    HW227957   4.552   3.210  13.171  1.7034 -1.2625  2.4698
 5441SOL     OW27958   4.654   0.903  12.496 -0.0799 -0.5738  0.2548
 5441SOL    HW127959   4.663   0.930  12.587  1.2858 -1.2653  0.3287
 5441SOL    HW227960   4.730   0.847  12.479  0.0407 -0.2979 -0.1216
 5442SOL     OW27961   4.022   0.885   9.591  0.1494  0.4852  0.0785
 5442SOL    HW127962   3.956   0.816   9.589  0.4731  0.2536 -2.2989
 5442SOL    HW227963   4.031   0.897   9.496 -0.8075  1.7973  0.1629
 5443SOL     OW27964   4.631   2.323   7.406 -0.6973  0.4384 -0.8203
 5443SOL    HW127965   4.712   2.288   7.442 -0.1146  3.0895  0.4675
 5443SOL    HW227966   4.568   2.257   7.435  0.9790 -0.9789 -0.3918
 5444SOL     OW27967   3.309   1.022   2.759 -0.4702 -0.1219 -0.6610
 5444SOL    HW127968   3.261   1.024   2.676  0.3209 -0.5327 -1.1211
 5444SOL    HW227969   3.296   0.931   2.786 -0.6756  0.5705  1.5033
 5445SOL     OW27970   4.572   2.629  15.532  0.3240 -0.2410  0.1240
 5445SOL    HW127971   4.622   2.657  15.608  1.3674  0.9983 -1.0123
 5445SOL    HW227972   4.517   2.708  15.520 -1.3910 -1.6698 -1.5063
 5446SOL     OW27973   2.992   2.237   2.994  0.0577  0.0329  0.5929
 5446SOL    HW127974   2.929   2.294   2.950  0.4664 -2.4410 -3.2491
 5446SOL    HW227975   3.011   2.172   2.926 -0.3070 -0.8451  1.3339
 5447SOL     OW27976   2.044   2.181   4.297 -0.1476 -0.3098  0.4953
 5447SOL    HW127977   2.016   2.156   4.209 -0.7629  2.1751  0.0100
 5447SOL    HW227978   1.997   2.115   4.348  0.9274 -0.9874  0.6325
 5448SOL     OW27979   3.790   3.803   1.609  0.4332  0.4184  0.1418
 5448SOL    HW127980   3.786   3.807   1.704 -0.2214 -0.2991  0.1397
 5448SOL    HW227981   3.811   3.895   1.589 -3.6825  1.7130  1.7680
 5449SOL     OW27982   1.389   3.892   4.133  0.2088  0.2514 -0.0507
 5449SOL    HW127983   1.455   3.834   4.171  0.1012  0.5934  0.6571
 5449SOL    HW227984   1.440   3.972   4.124 -1.1713  0.8873 -2.1401
 5450SOL     OW27985   2.018   4.673  10.596 -0.0175  0.3311 -0.2739
 5450SOL    HW127986   1.951   4.605  10.590  1.0682 -0.7222 -0.4498
 5450SOL    HW227987   1.976   4.733  10.658 -0.4333  2.4072 -2.5974
 5451SOL     OW27988   1.351   2.741  11.532 -0.1388 -0.0872  0.0687
 5451SOL    HW127989   1.370   2.744  11.438 -3.7779  0.8457 -0.6375
 5451SOL    HW227990   1.367   2.652  11.563 -1.3329 -0.4161 -0.2544
 5452SOL     OW27991   1.794   2.292   7.706 -0.3857  0.3739  0.3316
 5452SOL    HW127992   1.792   2.226   7.776 -1.2610  0.9408  0.8298
 5452SOL    HW227993   1.705   2.326   7.713 -0.3700 -0.0139  2.2223
 5453SOL     OW27994   3.050   1.524  10.685  0.6842 -0.7306 -0.0293
 5453SOL    HW127995   3.106   1.595  10.654  0.6088 -0.7129 -0.1263
 5453SOL    HW227996   2.970   1.520  10.634  1.3304  0.4611 -1.1342
 5454SOL     OW27997   1.089   1.682  17.099 -0.1400 -0.0694  0.4085
 5454SOL    HW127998   1.053   1.712  17.182 -0.8348 -1.4998  0.6169
 5454SOL    HW227999   1.152   1.614  17.121  1.2773  0.4592 -1.9795
 5455SOL     OW28000   2.542   3.747   3.021 -0.0639  0.5307  0.0106
 5455SOL    HW128001   2.492   3.827   3.006 -1.2781 -0.1748  0.3034
 5455SOL    HW228002   2.631   3.782   3.017 -0.0438  0.4010 -0.7915
 5456SOL     OW28003   0.228   1.729   2.921  0.4069  0.4103  0.2052
 5456SOL    HW128004   0.192   1.669   2.856 -3.0580  1.8034  0.8297
 5456SOL    HW228005   0.273   1.667   2.978 -0.6942 -2.1774 -1.7439
 5457SOL     OW28006   3.708   4.211   7.876 -1.3010  0.2158  0.9387
 5457SOL    HW128007   3.638   4.257   7.829  0.4160  2.0585  0.2142
 5457SOL    HW228008   3.773   4.194   7.808  1.0960  0.4220  3.1811
 5458SOL     OW28009   3.558   2.397   4.675 -0.0911  0.7373 -0.5741
 5458SOL    HW128010   3.501   2.372   4.748  2.0320  0.0540  0.8736
 5458SOL    HW228011   3.497   2.381   4.603  0.0515 -0.9068 -0.3360
 5459SOL     OW28012   3.076   1.897   8.138  0.7836 -0.3784  0.1694
 5459SOL    HW128013   3.166   1.866   8.132  0.7423 -0.5798  0.6526
 5459SOL    HW228014   3.074   1.931   8.227 -1.1727  0.1528 -0.0693
 5460SOL     OW28015   4.292   0.574   9.206  0.3765 -0.1115  0.0965
 5460SOL    HW128016   4.257   0.575   9.295  0.0460  4.1590 -0.0618
 5460SOL    HW228017   4.336   0.490   9.195 -0.9952 -0.7906 -0.1955
 5461SOL     OW28018   2.084   0.580   7.190 -0.2502 -0.0578  0.0244
 5461SOL    HW128019   2.051   0.623   7.269 -1.0973  0.5083 -0.6474
 5461SOL    HW228020   2.008   0.523   7.182  0.7671 -1.2674 -1.0390
 5462SOL     OW28021   2.238   1.179   2.696  0.1001  0.3474  0.5409
 5462SOL    HW128022   2.185   1.244   2.741  0.0607  0.8747 -0.2631
 5462SOL    HW228023   2.317   1.230   2.678  0.5218 -0.2101  0.7788
 5463SOL     OW28024   2.135   1.244   8.350 -0.2061 -0.0506 -0.1558
 5463SOL    HW128025   2.209   1.245   8.289  1.4169 -1.8750  1.7962
 5463SOL    HW228026   2.070   1.195   8.299 -0.4814 -0.3567  0.4872
 5464SOL     OW28027   1.747   1.671   1.088  0.1262  0.1161 -0.5553
 5464SOL    HW128028   1.739   1.764   1.064  2.9921 -0.5953 -4.4557
 5464SOL    HW228029   1.700   1.632   1.014 -0.7459 -0.9485  0.5791
 5465SOL     OW28030   3.178   0.374  17.155  0.6254 -0.2286 -0.4262
 5465SOL    HW128031   3.236   0.311  17.199 -2.1716 -1.2986  1.7063
 5465SOL    HW228032   3.103   0.320  17.132  0.3257 -0.9492  2.2013
 5466SOL     OW28033   1.225   2.576  13.992 -0.3866  0.5019 -0.0223
 5466SOL    HW128034   1.269   2.519  14.055 -0.7644 -0.7584 -0.8805
 5466SOL    HW228035   1.202   2.652  14.046 -0.1177  0.9453 -0.5382
 5467SOL     OW28036   0.793   2.774   3.414  0.0828 -0.0398  0.2583
 5467SOL    HW128037   0.768   2.744   3.326  0.6360 -1.0496  0.4415
 5467SOL    HW228038   0.827   2.694   3.454 -0.8463 -0.4436  0.2371
 5468SOL     OW28039   0.605   4.038   9.590 -0.0215  0.2119  0.3970
 5468SOL    HW128040   0.633   4.061   9.501 -1.2456 -2.3340 -0.6774
 5468SOL    HW228041   0.681   3.987   9.617  0.5184  1.0107  0.3731
 5469SOL     OW28042   0.300   2.380   1.619 -0.0296  0.0152  0.4519
 5469SOL    HW128043   0.344   2.418   1.695 -3.3938 -0.9150  2.8815
 5469SOL    HW228044   0.377   2.358   1.568  0.3471  0.6902  0.7287
 5470SOL     OW28045   3.815   0.528   8.606  0.4333  0.1546  0.1953
 5470SOL    HW128046   3.910   0.521   8.599  0.3142 -0.1335 -1.1420
 5470SOL    HW228047   3.797   0.565   8.520 -0.5666  3.0912  1.6839
 5471SOL     OW28048   4.717   4.603   5.501  1.2185 -0.0573  0.1053
 5471SOL    HW128049   4.702   4.683   5.552  1.4545 -0.4007  0.7118
 5471SOL    HW228050   4.633   4.599   5.456  1.9993  0.8334 -1.4504
 5472SOL     OW28051   3.364   2.747   5.212  0.3317 -0.4590  0.0069
 5472SOL    HW128052   3.426   2.740   5.139  0.1603  0.3752 -0.2189
 5472SOL    HW228053   3.310   2.818   5.177 -0.1718 -0.1604  1.3748
 5473SOL     OW28054   3.974   3.203   7.785 -0.1743 -0.0413  0.0820
 5473SOL    HW128055   3.994   3.273   7.724  0.2423 -0.6688 -0.5023
 5473SOL    HW228056   3.944   3.262   7.854 -1.4067 -0.6109  0.0441
 5474SOL     OW28057   1.640   1.853   1.875 -0.0710 -0.3414 -1.0577
 5474SOL    HW128058   1.662   1.946   1.882 -1.6720  0.0821 -1.6959
 5474SOL    HW228059   1.557   1.861   1.829  0.3734 -1.4289 -2.0439
 5475SOL     OW28060   4.001   2.999   2.856  0.0991 -0.1558  0.3680
 5475SOL    HW128061   3.946   3.076   2.842  0.8698 -0.0461 -2.1373
 5475SOL    HW228062   4.025   3.016   2.947 -0.1200 -0.1401  0.4230
 5476SOL     OW28063   3.800   0.166   3.194 -0.4035 -0.2532 -0.0556
 5476SOL    HW128064   3.883   0.125   3.167 -1.5351  0.2583 -4.3846
 5476SOL    HW228065   3.825   0.207   3.277 -2.4748  1.5971 -0.3414
 5477SOL     OW28066   1.686   0.069   5.992  0.0248  0.6725 -0.2513
 5477SOL    HW128067   1.727   0.023   6.065 -0.7209  1.7993  0.8782
 5477SOL    HW228068   1.619   0.003   5.970  1.3895 -1.0262  0.7011
 5478SOL     OW28069   1.915   3.648   5.162  0.1962  0.1368  0.8616
 5478SOL    HW128070   1.881   3.558   5.159 -0.0703  0.2159  1.5978
 5478SOL    HW228071   1.922   3.661   5.067  0.6226  0.3185  0.9179
 5479SOL     OW28072   2.300   4.176   4.634  0.0545 -0.3053  0.0824
 5479SOL    HW128073   2.296   4.160   4.728 -1.5835 -2.0042 -0.2673
 5479SOL    HW228074   2.211   4.150   4.612 -0.1174  0.6170 -0.3067
 5480SOL     OW28075   4.658   3.687   1.277 -0.5873  0.3417  0.0286
 5480SOL    HW128076   4.571   3.686   1.316 -1.5018  0.7993 -2.0048
 5480SOL    HW228077   4.624   3.673   1.189  0.2052  1.6657 -0.4855
 5481SOL     OW28078   3.197   0.779   1.034  0.2176  0.1314 -0.2814
 5481SOL    HW128079   3.138   0.724   1.086  1.4845  0.2641  1.2768
 5481SOL    HW228080   3.148   0.857   1.008 -0.6740 -0.3599 -0.0590
 5482SOL     OW28081   2.668   0.983   2.410 -0.1854 -0.2825  0.3785
 5482SOL    HW128082   2.656   0.891   2.385  0.3085 -0.7839  1.9522
 5482SOL    HW228083   2.650   0.980   2.504  0.3399 -0.7438  0.4667
 5483SOL     OW28084   0.931   1.444   8.687 -0.0352  0.0783  0.0949
 5483SOL    HW128085   0.916   1.527   8.731 -1.9753 -0.7212  0.9690
 5483SOL    HW228086   0.892   1.463   8.602  1.3550 -0.4442 -0.6474
 5484SOL     OW28087   0.332   2.301   2.981 -0.0898 -0.7329 -0.1199
 5484SOL    HW128088   0.382   2.322   3.059  0.3475 -0.5943 -0.4386
 5484SOL    HW228089   0.345   2.380   2.928 -0.3917  1.2096  2.6881
 5485SOL     OW28090   3.574   2.274  12.545  0.1993 -0.4269 -0.4095
 5485SOL    HW128091   3.632   2.348  12.526 -0.4792  0.6620  1.6534
 5485SOL    HW228092   3.484   2.307  12.540 -0.2781 -1.7506 -0.5343
 5486SOL     OW28093   4.248   1.580  14.248  0.1114  0.0995  0.5124
 5486SOL    HW128094   4.315   1.638  14.283  1.1172  0.7033 -2.4284
 5486SOL    HW228095   4.262   1.496  14.293  0.8079  1.0348  2.0334
 5487SOL     OW28096   1.863   4.375   4.518 -0.4001  0.2888 -0.1817
 5487SOL    HW128097   1.885   4.284   4.498  3.9367  1.7809 -2.0246
 5487SOL    HW228098   1.850   4.414   4.432 -0.5312  0.6096 -0.0178
 5488SOL     OW28099   3.491   4.237   4.636 -0.0736 -0.5271  0.4057
 5488SOL    HW128100   3.554   4.251   4.565  0.7401  0.6737  1.3549
 5488SOL    HW228101   3.413   4.206   4.590 -0.9874 -0.5543  1.9606
 5489SOL     OW28102   3.910   4.085   9.479  0.5783 -0.3566  1.0300
 5489SOL    HW128103   3.834   4.101   9.534 -0.1960  1.5885 -0.6145
 5489SOL    HW228104   3.950   4.172   9.468 -1.8529  0.8981  2.1088
 5490SOL     OW28105   2.321   0.008   4.109 -0.4619  0.0600 -0.0340
 5490SOL    HW128106   2.410   0.005   4.073 -0.2916 -1.3044  0.5327
 5490SOL    HW228107   2.305   4.657   4.144 -1.6707  1.2510  2.3809
 5491SOL     OW28108   0.139   3.514   0.537 -0.6010 -0.0181  0.0306
 5491SOL    HW128109   0.092   3.529   0.619 -2.0937  0.8096 -0.9498
 5491SOL    HW228110   0.197   3.442   0.560 -0.8715 -0.7350 -1.5476
 5492SOL     OW28111   2.164   0.138   2.150  0.5572 -0.6702 -0.1181
 5492SOL    HW128112   2.089   0.181   2.192  2.0758  2.3687 -0.5447
 5492SOL    HW228113   2.135   0.135   2.059 -2.6010 -1.2669  0.8812
 5493SOL     OW28114   3.105   2.647   3.208 -0.0946  0.2363 -0.5646
 5493SOL    HW128115   3.021   2.659   3.165  0.1956  0.3796 -1.0946
 5493SOL    HW228116   3.129   2.564   3.168  2.5071  0.8674 -0.3113
 5494SOL     OW28117   3.404   2.715   6.594  0.0882 -0.0403  0.4180
 5494SOL    HW128118   3.457   2.724   6.514 -2.3953  3.0366 -0.8884
 5494SOL    HW228119   3.425   2.628   6.628  0.1219  0.4239  1.6000
 5495SOL     OW28120   2.946   1.282   3.725 -0.4743 -0.5388  0.2268
 5495SOL    HW128121   2.934   1.204   3.780  0.8526 -0.3606  0.7752
 5495SOL    HW228122   3.001   1.330   3.787 -0.6205 -1.7153  1.2722
 5496SOL     OW28123   2.341   0.734   9.829 -0.0803  0.1811  0.3107
 5496SOL    HW128124   2.259   0.731   9.879 -0.4344 -1.8149 -0.3696
 5496SOL    HW228125   2.400   0.754   9.901 -1.0090  0.0025  1.1318
 5497SOL     OW28126   4.038   3.126  13.714  0.1060  0.1393 -0.4287
 5497SOL    HW128127   3.949   3.105  13.686  0.5903 -0.9368 -1.1501
 5497SOL    HW228128   4.085   3.106  13.633 -0.3248  1.8836 -1.1127
 5498SOL     OW28129   3.702   2.862  13.840 -0.7659 -0.1309 -0.4149
 5498SOL    HW128130   3.760   2.881  13.766 -1.5752  0.3972 -0.9138
 5498SOL    HW228131   3.750   2.904  13.912  1.1444 -0.9398 -1.2099
 5499SOL     OW28132   1.557   0.950   5.307 -0.4031  0.5476  0.3342
 5499SOL    HW128133   1.637   0.979   5.350  0.3989  2.2838 -2.3795
 5499SOL    HW228134   1.489   1.010   5.338 -1.2556 -0.5543  0.6054
 5500SOL     OW28135   2.945   0.194   5.640 -0.1755  0.0045 -0.0923
 5500SOL    HW128136   3.007   0.158   5.576  0.4214  1.2680 -0.2089
 5500SOL    HW228137   2.907   0.255   5.577  1.3881  1.7639  0.6782
 5501SOL     OW28138   1.454   4.701   2.312  0.4939  0.0586  0.5206
 5501SOL    HW128139   1.455   0.019   2.233  1.2939  0.3674  0.7431
 5501SOL    HW228140   1.460   0.020   2.390  0.8568  1.8115 -0.7509
 5502SOL     OW28141   4.267   1.749   5.365 -0.2023  0.2560  0.6434
 5502SOL    HW128142   4.248   1.659   5.339  1.3106 -0.0143  0.4366
 5502SOL    HW228143   4.265   1.790   5.278  1.6579 -0.3053  0.3300
 5503SOL     OW28144   3.964   4.642   5.911 -0.2779 -0.3000  0.4601
 5503SOL    HW128145   4.035   4.616   5.969  0.6116  1.8591  0.3246
 5503SOL    HW228146   3.985   4.582   5.840 -1.8411 -0.0945 -0.1862
 5504SOL     OW28147   3.835   3.013   4.588  0.1451 -0.3964  0.2397
 5504SOL    HW128148   3.811   2.943   4.528 -1.3071  1.0245 -0.8517
 5504SOL    HW228149   3.780   3.087   4.563  1.0204  0.6127  1.2886
 5505SOL     OW28150   4.183   3.116  13.486 -0.1754  0.1145  0.6089
 5505SOL    HW128151   4.279   3.111  13.484 -0.2694 -2.0702  1.6308
 5505SOL    HW228152   4.158   3.076  13.403  0.3290 -1.9166  1.4226
 5506SOL     OW28153   3.773   3.105   8.847  0.7129  0.0190  0.1768
 5506SOL    HW128154   3.748   3.114   8.939  1.9160 -1.2554  0.6260
 5506SOL    HW228155   3.775   3.011   8.833 -1.3462 -0.1040  0.8015
 5507SOL     OW28156   1.981   3.863   2.631 -0.1906 -0.4401  0.2750
 5507SOL    HW128157   2.070   3.879   2.660 -0.0567  0.1864 -0.4626
 5507SOL    HW228158   1.990   3.777   2.591  3.2459 -0.7200  1.6670
 5508SOL     OW28159   0.611   2.964   5.631  0.2220  0.8352 -0.0868
 5508SOL    HW128160   0.542   2.916   5.585  0.2657 -0.0733  0.7955
 5508SOL    HW228161   0.578   2.985   5.718 -1.0930 -0.4119 -0.2814
 5509SOL     OW28162   1.471   2.364   5.521 -0.2632 -0.6879  0.2536
 5509SOL    HW128163   1.485   2.270   5.536  1.5238 -0.4548  0.1005
 5509SOL    HW228164   1.400   2.381   5.582  1.2942  0.3630  1.7829
 5510SOL     OW28165   1.860   3.083   5.040  0.1321  0.6678  0.0016
 5510SOL    HW128166   1.870   2.990   5.019  2.7267  1.1937 -1.0870
 5510SOL    HW228167   1.805   3.080   5.118  1.5418  1.9045  1.0586
 5511SOL     OW28168   4.220   3.618   1.868  0.5491 -0.9275 -0.5395
 5511SOL    HW128169   4.196   3.537   1.823  0.3539  0.3109 -2.7129
 5511SOL    HW228170   4.172   3.619   1.950  2.1563  0.7849  0.3715
 5512SOL     OW28171   0.372   3.213   4.633 -0.0153 -0.1615 -0.0334
 5512SOL    HW128172   0.288   3.247   4.602 -0.0342 -0.4107 -0.2557
 5512SOL    HW228173   0.352   3.183   4.722 -3.7889  1.2921 -0.3716
 5513SOL     OW28174   3.832   0.834  14.435  0.0035 -0.0987  0.0243
 5513SOL    HW128175   3.922   0.823  14.404 -0.0390 -1.0848  0.2349
 5513SOL    HW228176   3.800   0.882  14.359  1.3128 -0.1002 -0.5333
 5514SOL     OW28177   0.087   0.374   8.308 -0.3685 -0.1996 -0.0218
 5514SOL    HW128178   0.049   0.288   8.331  2.1532 -1.5573 -0.9289
 5514SOL    HW228179   0.016   0.438   8.317 -0.1655  0.0862 -0.4968
 5515SOL     OW28180   4.685   4.105  11.951  0.0465 -0.2852 -0.4773
 5515SOL    HW128181   4.676   4.048  12.027  0.5847 -1.3220 -1.1839
 5515SOL    HW228182   4.718   4.038  11.891  0.6627 -1.3272  1.0272
 5516SOL     OW28183   2.075   0.225  15.350 -0.1567 -0.0602 -0.1244
 5516SOL    HW128184   2.064   0.197  15.440 -3.2462 -0.7080 -0.6873
 5516SOL    HW228185   2.096   0.317  15.367  0.3240  0.1034 -1.5995
 5517SOL     OW28186   2.661   1.759  12.427 -0.0267 -0.3464  0.3150
 5517SOL    HW128187   2.612   1.774  12.508 -1.2343 -1.7647 -0.1556
 5517SOL    HW228188   2.702   1.675  12.448  1.0277 -0.4841 -2.3193
 5518SOL     OW28189   4.008   4.367  13.412  0.1705  1.0785  0.5513
 5518SOL    HW128190   4.092   4.409  13.395 -0.0444  1.3383  0.1278
 5518SOL    HW228191   4.031   4.278  13.388 -0.7692  1.1799 -0.7465
 5519SOL     OW28192   2.864   4.668   5.025  0.2867 -0.2858  0.1537
 5519SOL    HW128193   2.934   4.705   4.970 -2.8379 -1.0194 -4.3218
 5519SOL    HW228194   2.913   4.596   5.064 -2.5736 -2.2813  0.0175
 5520SOL     OW28195   4.498   0.714   7.177 -0.0226  0.3182  0.4075
 5520SOL    HW128196   4.552   0.792   7.178  1.4270 -0.6641 -1.6140
 5520SOL    HW228197   4.513   0.673   7.092 -0.1852  0.3547  0.3600
 5521SOL     OW28198   3.509   3.627   7.327  0.3325  0.2278 -0.2374
 5521SOL    HW128199   3.509   3.535   7.353  1.0423 -0.0921 -1.3407
 5521SOL    HW228200   3.450   3.668   7.390 -0.4070 -0.1006 -0.7169
 5522SOL     OW28201   0.955   4.553   8.143  0.6116  0.1708 -0.0958
 5522SOL    HW128202   0.862   4.546   8.165  0.9799 -0.8952  1.1619
 5522SOL    HW228203   0.944   4.638   8.102 -0.9693 -0.4321 -0.9245
 5523SOL     OW28204   4.120   2.595  17.084 -0.1503  0.1148 -0.5682
 5523SOL    HW128205   4.178   2.623  17.013 -0.9612 -0.5694 -1.5090
 5523SOL    HW228206   4.056   2.543  17.035  0.6955 -0.3015 -1.2513
 5524SOL     OW28207   1.861   1.934   8.098  0.0385 -0.1891  0.7259
 5524SOL    HW128208   1.916   1.907   8.024 -1.3976  0.5576 -0.5989
 5524SOL    HW228209   1.918   1.969   8.168 -0.7694 -0.3229  1.4463
 5525SOL     OW28210   3.182   2.745   2.881  0.4266  0.4490 -0.5058
 5525SOL    HW128211   3.166   2.829   2.924 -0.2695  0.3842 -0.6497
 5525SOL    HW228212   3.276   2.725   2.889  0.3525  0.4973  0.4386
 5526SOL     OW28213   0.650   1.905   5.446  0.4403  0.1142 -0.0299
 5526SOL    HW128214   0.710   1.921   5.373 -0.3655  1.1041 -0.4698
 5526SOL    HW228215   0.702   1.880   5.522 -1.9897 -0.1488  1.5314
 5527SOL     OW28216   1.321   2.303   6.255  0.3911 -0.0702 -0.2576
 5527SOL    HW128217   1.362   2.300   6.341  0.4802 -1.3029 -0.3545
 5527SOL    HW228218   1.235   2.272   6.282  0.6405  0.1065  0.7413
 5528SOL     OW28219   0.033   2.860   8.403  0.0946  0.0049  0.4077
 5528SOL    HW128220   0.003   2.877   8.314  1.2639  2.0514  0.3987
 5528SOL    HW228221   0.116   2.817   8.384  0.1845  0.8974 -1.2422
 5529SOL     OW28222   1.953   2.060   2.860  0.1962 -0.3032  0.2209
 5529SOL    HW128223   2.024   2.112   2.824 -2.5992  2.4188 -1.3258
 5529SOL    HW228224   1.927   2.020   2.777 -2.6981  0.2827  0.8587
 5530SOL     OW28225   4.169   1.058  16.995  0.0647  0.2094  0.4533
 5530SOL    HW128226   4.231   0.989  17.018  1.8313  1.6627  0.0458
 5530SOL    HW228227   4.098   1.015  16.947 -0.0252  1.5729 -0.6532
 5531SOL     OW28228   3.111   1.202   7.834 -0.6144 -0.3476  0.0618
 5531SOL    HW128229   3.104   1.107   7.831  0.8962 -0.3845 -2.3515
 5531SOL    HW228230   3.093   1.228   7.924  1.1020  2.1834 -0.3016
 5532SOL     OW28231   3.343   3.951   4.225 -0.0310  0.3189 -0.8867
 5532SOL    HW128232   3.424   3.900   4.227  0.7648  1.6184 -0.1736
 5532SOL    HW228233   3.287   3.904   4.288 -1.1745  1.6204 -0.9238
 5533SOL     OW28234   0.730   2.464   3.455  0.0699 -0.3909  0.3574
 5533SOL    HW128235   0.658   2.405   3.477  0.6062 -0.2891  2.4052
 5533SOL    HW228236   0.750   2.504   3.540 -2.2818  0.5240  0.4875
 5534SOL     OW28237   0.766   0.938   7.203 -0.2986 -0.0190 -0.3162
 5534SOL    HW128238   0.776   1.033   7.192 -0.0972  0.1522  1.3334
 5534SOL    HW228239   0.766   0.900   7.116 -0.4198  1.3510 -0.9188
 5535SOL     OW28240   3.247   3.137   6.671  0.1417 -0.1551  0.6988
 5535SOL    HW128241   3.230   3.229   6.650  1.3060 -0.4156 -1.4509
 5535SOL    HW228242   3.343   3.140   6.669  0.1079  0.9183  0.2220
 5536SOL     OW28243   1.942   3.457   8.246  0.2744 -0.2228  0.4371
 5536SOL    HW128244   1.865   3.501   8.283  0.4790  0.3931  0.1213
 5536SOL    HW228245   2.002   3.480   8.316 -0.2910  2.3985  0.0371
 5537SOL     OW28246   3.803   4.052   8.339 -0.5737  0.4274  0.0200
 5537SOL    HW128247   3.825   3.973   8.291  0.7540 -0.1550  1.5994
 5537SOL    HW228248   3.888   4.083   8.371 -0.2477  1.0218 -1.4208
 5538SOL     OW28249   2.845   2.951   8.000 -0.0792  0.4792 -0.5991
 5538SOL    HW128250   2.776   2.987   7.946 -0.4625 -0.8690 -1.0033
 5538SOL    HW228251   2.817   2.983   8.086  0.9548  2.5517 -1.0249
 5539SOL     OW28252   4.209   0.419   3.461  0.6811 -0.8461  0.5124
 5539SOL    HW128253   4.115   0.438   3.462  1.2176  1.9173 -2.7343
 5539SOL    HW228254   4.241   0.431   3.550 -0.2106 -3.3731  1.1745
 5540SOL     OW28255   0.858   2.686   5.270 -0.0415 -0.1138 -0.1602
 5540SOL    HW128256   0.771   2.660   5.302  0.3527 -0.3140  0.7569
 5540SOL    HW228257   0.864   2.632   5.192  0.6869  0.3370 -0.4142
 5541SOL     OW28258   3.662   3.944   2.589 -0.7123 -0.3362 -0.1171
 5541SOL    HW128259   3.724   3.986   2.530 -2.2280  0.2495 -1.3124
 5541SOL    HW228260   3.578   3.988   2.572 -0.4433 -0.5660 -2.0556
 5542SOL     OW28261   2.355   3.219  15.126 -0.1512 -0.2581 -0.8925
 5542SOL    HW128262   2.359   3.130  15.091  0.8489  0.1058 -1.7126
 5542SOL    HW228263   2.420   3.259  15.068  0.4999  1.4377  1.0242
 5543SOL     OW28264   2.064   2.512   9.505 -0.0752  0.0267 -0.3738
 5543SOL    HW128265   2.065   2.478   9.595 -1.6824  0.6439 -0.1240
 5543SOL    HW228266   1.997   2.580   9.511  0.6075  0.3884  3.7066
 5544SOL     OW28267   3.226   1.004   5.430  0.3680 -0.7285 -0.2180
 5544SOL    HW128268   3.203   1.031   5.519  1.1860 -0.7642  0.0024
 5544SOL    HW228269   3.303   0.955   5.460 -0.6578 -2.3922 -0.2873
 5545SOL     OW28270   2.681   3.132   3.019 -0.3054 -0.0201 -1.2717
 5545SOL    HW128271   2.743   3.198   3.049  1.2049 -0.9132 -2.4804
 5545SOL    HW228272   2.696   3.078   3.097  1.9422 -0.2785 -1.9130
 5546SOL     OW28273   3.408   4.467   4.004  0.0198 -0.1894 -0.2826
 5546SOL    HW128274   3.348   4.508   4.066 -0.1183 -0.5027 -0.2069
 5546SOL    HW228275   3.426   4.546   3.953 -1.3728  0.1361 -0.2590
 5547SOL     OW28276   3.099   2.932  11.885 -0.4961 -0.1125  0.7501
 5547SOL    HW128277   3.003   2.929  11.879 -0.2812 -2.0067 -1.8572
 5547SOL    HW228278   3.107   2.962  11.975 -2.1552  0.7037  0.6170
 5548SOL     OW28279   4.220   2.284   7.015 -0.0667 -0.0586  1.0036
 5548SOL    HW128280   4.174   2.202   7.033  1.4772 -1.0728  0.2514
 5548SOL    HW228281   4.224   2.322   7.103 -0.0784 -0.6547  1.2613
 5549SOL     OW28282   1.562   1.708   3.402  0.2286  0.2391 -0.2109
 5549SOL    HW128283   1.564   1.733   3.494 -3.2839  2.0782 -0.6295
 5549SOL    HW228284   1.603   1.784   3.362 -2.4800  1.2560 -1.1056
 5550SOL     OW28285   3.409   3.253   8.029  0.2953 -0.2769 -0.3834
 5550SOL    HW128286   3.422   3.309   8.106  1.5194  0.5911 -1.2383
 5550SOL    HW228287   3.332   3.201   8.053 -0.0270 -0.2353 -1.3610
 5551SOL     OW28288   4.026   2.782   1.872 -0.0070 -0.2639 -0.3405
 5551SOL    HW128289   3.978   2.864   1.880  2.0227  0.9932 -0.8391
 5551SOL    HW228290   3.958   2.725   1.836 -0.8822 -0.7046  2.0125
 5552SOL     OW28291   2.822   1.263   2.943  0.0790  0.1103 -0.3337
 5552SOL    HW128292   2.906   1.277   2.987  0.1138  0.5333 -0.5452
 5552SOL    HW228293   2.768   1.247   3.021 -0.9007  2.7186 -0.4960
 5553SOL     OW28294   0.952   3.256  15.707  0.2521 -0.7898  0.0742
 5553SOL    HW128295   0.906   3.339  15.720 -0.4433 -0.9461 -1.3410
 5553SOL    HW228296   1.024   3.257  15.770 -1.6995  2.2959  2.2889
 5554SOL     OW28297   0.468   4.595   5.394  0.1000 -0.2338  0.1859
 5554SOL    HW128298   0.477   4.689   5.380 -2.3922 -0.1369 -0.8234
 5554SOL    HW228299   0.405   4.593   5.466  0.2518  0.0398  0.3245
 5555SOL     OW28300   4.642   0.296   2.572  0.4295  0.0699 -0.5895
 5555SOL    HW128301   4.589   0.217   2.567  0.0550  0.3393 -0.9177
 5555SOL    HW228302   4.602   0.339   2.648  0.6802  1.2186 -1.0973
 5556SOL     OW28303   2.732   4.077   6.912 -0.6445 -0.2532 -0.1338
 5556SOL    HW128304   2.711   4.156   6.962  0.2832  0.4763 -0.8936
 5556SOL    HW228305   2.694   4.093   6.825  0.2456  0.2166 -0.4382
 5557SOL     OW28306   2.738   0.956   7.202  0.5555  0.1775  0.2565
 5557SOL    HW128307   2.785   1.030   7.241 -2.5786  1.6549  1.2473
 5557SOL    HW228308   2.718   0.901   7.278  2.3879 -1.2151 -0.2901
 5558SOL     OW28309   4.097   2.166  11.038  0.9904  0.2595  0.5247
 5558SOL    HW128310   4.033   2.233  11.064 -1.3335 -1.5651 -0.5058
 5558SOL    HW228311   4.151   2.223  10.983  0.0226 -0.7614 -1.4831
 5559SOL     OW28312   4.639   2.131   1.096 -0.1014  0.1873  0.2082
 5559SOL    HW128313   4.691   2.079   1.157  0.2098  0.1266 -0.1022
 5559SOL    HW228314   4.652   2.217   1.137  0.7305  0.1733 -0.0124
 5560SOL     OW28315   3.098   3.866   9.473 -0.2810 -0.6127  0.0191
 5560SOL    HW128316   3.188   3.898   9.460  0.0269 -0.6524  2.0908
 5560SOL    HW228317   3.093   3.840   9.564 -1.6025 -1.8743 -0.4189
 5561SOL     OW28318   3.453   3.686   8.787 -0.1412 -0.1846 -0.0293
 5561SOL    HW128319   3.451   3.746   8.712 -1.2915 -1.6569 -1.1803
 5561SOL    HW228320   3.424   3.601   8.753 -0.4926 -0.2193  0.3623
 5562SOL     OW28321   4.154   0.012   6.509  0.1602  0.1976  0.2302
 5562SOL    HW128322   4.145   4.710   6.422 -1.7525  0.4983  0.3049
 5562SOL    HW228323   4.088   0.081   6.497  0.7546  1.1721  2.6276
 5563SOL     OW28324   0.513   1.993   8.485 -0.0730 -0.5716 -0.0204
 5563SOL    HW128325   0.438   2.044   8.456 -0.4559 -2.3442 -2.1323
 5563SOL    HW228326   0.506   1.999   8.580  0.9293 -1.0822  0.0914
 5564SOL     OW28327   4.204   2.572   5.403 -0.5257 -0.3395 -0.0848
 5564SOL    HW128328   4.285   2.547   5.447 -0.2867  2.3286  0.9738
 5564SOL    HW228329   4.181   2.500   5.344  2.0605 -1.0395 -0.2453
 5565SOL     OW28330   2.254   1.226   4.848 -0.4495  0.2957 -0.1058
 5565SOL    HW128331   2.242   1.277   4.767  1.2931 -0.6436 -0.9712
 5565SOL    HW228332   2.188   1.157   4.841 -2.4144  2.1822 -0.1899
 5566SOL     OW28333   2.511   4.269   2.302 -0.7876 -0.1510  0.0594
 5566SOL    HW128334   2.426   4.227   2.286  0.0053 -1.6888 -0.1545
 5566SOL    HW228335   2.493   4.351   2.256  1.6118  0.8774  0.9918
 5567SOL     OW28336   0.799   3.253  15.200  0.7574 -0.4319  0.4499
 5567SOL    HW128337   0.848   3.307  15.262  1.3949 -0.0702 -0.3835
 5567SOL    HW228338   0.794   3.302  15.118  0.2263  1.2825  1.5021
 5568SOL     OW28339   2.114   1.077   7.548  0.2720 -0.1097 -0.3126
 5568SOL    HW128340   2.138   1.169   7.544  2.3021 -0.6003  0.8656
 5568SOL    HW228341   2.098   1.075   7.642 -0.0044 -3.1355 -0.3909
 5569SOL     OW28342   2.376   1.263   1.901 -0.0204 -0.0943  0.0202
 5569SOL    HW128343   2.426   1.241   1.980 -0.5127 -2.0825 -0.2325
 5569SOL    HW228344   2.424   1.207   1.841  0.8812  1.5480 -0.7935
 5570SOL     OW28345   3.916   4.537   3.853  0.3251 -0.1626  0.4313
 5570SOL    HW128346   3.832   4.507   3.889  0.2294 -0.2602  0.1217
 5570SOL    HW228347   3.982   4.502   3.913 -1.5447  0.1927  2.6985
 5571SOL     OW28348   4.555   0.564   6.945  0.7967  0.1540  0.4741
 5571SOL    HW128349   4.600   0.481   6.960 -0.4690 -0.5226  0.5182
 5571SOL    HW228350   4.477   0.539   6.896 -0.7989  0.8967  2.5986
 5572SOL     OW28351   1.136   1.717   7.917 -0.3846 -0.3571  0.0093
 5572SOL    HW128352   1.051   1.756   7.895 -1.0025 -1.8452 -0.2367
 5572SOL    HW228353   1.186   1.753   7.844  1.7249  0.6249  1.9186
 5573SOL     OW28354   4.374   3.903   2.461  0.7827 -0.4737  0.5713
 5573SOL    HW128355   4.435   3.977   2.463 -2.8202  2.5591 -0.2774
 5573SOL    HW228356   4.333   3.927   2.544 -1.7738  3.4566 -1.8200
 5574SOL     OW28357   3.733   2.109   5.842 -0.8174  0.0266 -0.3300
 5574SOL    HW128358   3.637   2.106   5.842 -0.8331  0.5410  0.0551
 5574SOL    HW228359   3.745   2.097   5.748  1.4182 -3.4187  0.3898
 5575SOL     OW28360   4.096   3.019  10.186  0.6100  0.1486  0.3807
 5575SOL    HW128361   4.160   2.977  10.128  0.5383 -0.2450  0.5899
 5575SOL    HW228362   4.084   3.103  10.142 -0.2113 -0.3241 -0.3013
 5576SOL     OW28363   0.728   1.846  14.766 -0.5578  0.4251  0.4000
 5576SOL    HW128364   0.774   1.827  14.684 -0.2355  1.4935  0.3416
 5576SOL    HW228365   0.691   1.762  14.795 -1.0883  1.2256  2.0513
 5577SOL     OW28366   3.530   4.049   8.453 -0.1907 -0.0880  0.0174
 5577SOL    HW128367   3.493   4.072   8.368  1.4124 -1.0193 -0.9255
 5577SOL    HW228368   3.622   4.052   8.427  0.0955  1.1191  1.1589
 5578SOL     OW28369   1.653   2.392   3.479 -0.1189 -0.0165  0.9380
 5578SOL    HW128370   1.735   2.426   3.516  1.0449  1.0486 -2.5585
 5578SOL    HW228371   1.591   2.462   3.499 -0.7900 -0.5884  0.8241
 5579SOL     OW28372   3.933   4.010  11.240  0.2036 -0.1090  0.4322
 5579SOL    HW128373   4.004   4.024  11.178 -0.9980  0.6889 -0.7797
 5579SOL    HW228374   3.857   4.048  11.195 -0.0815  1.3827  2.1627
 5580SOL     OW28375   0.409   2.968   4.155  0.2537 -0.1152 -0.0388
 5580SOL    HW128376   0.385   2.913   4.229  0.9503  2.0530  1.8081
 5580SOL    HW228377   0.451   3.047   4.190 -0.6884  0.0729  0.6747
 5581SOL     OW28378   3.156   2.515   2.618  0.0443  0.0029  0.2778
 5581SOL    HW128379   3.104   2.594   2.599  0.6956  1.2286  3.5598
 5581SOL    HW228380   3.102   2.444   2.584 -1.4436  0.9400  0.6842
 5582SOL     OW28381   0.947   0.300   5.553 -0.3189  0.2999 -0.1490
 5582SOL    HW128382   0.962   0.307   5.647 -1.8663  2.5465 -0.0925
 5582SOL    HW228383   0.856   0.271   5.555 -0.6890  1.2528 -2.2445
 5583SOL     OW28384   4.394   1.694   5.587  0.8348  0.0177 -0.2640
 5583SOL    HW128385   4.357   1.718   5.502  0.5708  1.7580  0.3671
 5583SOL    HW228386   4.471   1.750   5.585  1.2015 -0.4619  0.1895
 5584SOL     OW28387   2.859   2.316   0.870 -0.5050 -0.2254  0.4606
 5584SOL    HW128388   2.944   2.351   0.842 -0.8651  2.1608  2.3572
 5584SOL    HW228389   2.858   2.238   0.814 -1.9869  0.2402 -0.1729
 5585SOL     OW28390   3.300   1.246   2.945  0.0666  0.2980  0.2235
 5585SOL    HW128391   3.345   1.203   3.018  0.3134  1.5050  0.7862
 5585SOL    HW228392   3.253   1.178   2.897 -0.5755  0.5369  0.5305
 5586SOL     OW28393   3.702   4.579   1.988 -0.6318 -0.4369 -0.1241
 5586SOL    HW128394   3.775   4.583   2.050  1.2709 -0.2826 -2.3654
 5586SOL    HW228395   3.745   4.563   1.904 -2.0572 -0.0663 -0.9113
 5587SOL     OW28396   4.170   0.989   8.317  0.1526  0.0406 -0.2245
 5587SOL    HW128397   4.133   0.920   8.372  0.7803  1.4419  1.9405
 5587SOL    HW228398   4.154   1.069   8.366 -1.5838 -2.2957  3.0151
 5588SOL     OW28399   4.480   2.394   5.906 -0.1760  0.5050 -0.1797
 5588SOL    HW128400   4.566   2.364   5.877 -1.7250 -1.2475 -2.9674
 5588SOL    HW228401   4.489   2.390   6.001  2.0507  0.6664 -0.3893
 5589SOL     OW28402   0.375   4.669   4.374 -0.1526  0.9910 -0.0517
 5589SOL    HW128403   0.405   0.022   4.359  0.2552  0.9652  0.5827
 5589SOL    HW228404   0.380   4.662   4.469  0.0609  0.6148 -0.0907
 5590SOL     OW28405   4.585   1.728   2.123 -0.0582 -0.5898 -0.1268
 5590SOL    HW128406   4.562   1.795   2.058  2.1870  1.2059  0.9030
 5590SOL    HW228407   4.671   1.758   2.153 -0.4635 -0.5233  0.9699
 5591SOL     OW28408   0.959   4.392  15.867 -0.1794  0.4906  0.1241
 5591SOL    HW128409   0.962   4.402  15.772  2.9645  0.9393  0.2679
 5591SOL    HW228410   0.953   4.480  15.903 -1.0579  1.2813 -1.9373
 5592SOL     OW28411   3.796   1.946   0.885  0.2602  0.2461 -0.2476
 5592SOL    HW128412   3.797   1.850   0.886  1.5162  0.2462 -1.6163
 5592SOL    HW228413   3.827   1.970   0.973  0.3183 -0.3183 -0.1139
 5593SOL     OW28414   2.862   2.357  15.924  0.2960 -0.3547  0.5887
 5593SOL    HW128415   2.939   2.384  15.876  0.4018 -0.9207  0.4353
 5593SOL    HW228416   2.902   2.310  15.996  0.8946  0.6717  0.9169
 5594SOL     OW28417   1.560   2.556  13.821 -0.0917 -0.0242  0.1835
 5594SOL    HW128418   1.655   2.556  13.806 -0.1187  3.5893 -0.0213
 5594SOL    HW228419   1.557   2.574  13.915  2.2596 -2.8283  0.8132
 5595SOL     OW28420   4.555   2.885   5.406 -0.6018 -0.0463  0.4718
 5595SOL    HW128421   4.624   2.940   5.368 -2.4233  0.7540 -1.6796
 5595SOL    HW228422   4.584   2.797   5.381 -0.9301 -0.2850  0.9366
 5596SOL     OW28423   4.027   2.093   2.543  0.3548  0.9507  0.7115
 5596SOL    HW128424   4.066   2.016   2.503 -1.1057 -0.9279  2.9134
 5596SOL    HW228425   4.108   2.142   2.558  1.6180 -0.4091 -1.7833
 5597SOL     OW28426   2.757   2.757  15.775  0.3354  0.1384  0.2450
 5597SOL    HW128427   2.737   2.721  15.689 -0.5151  1.2143 -0.0098
 5597SOL    HW228428   2.853   2.757  15.777  0.3170 -1.0925  1.3290
 5598SOL     OW28429   2.991   1.575   6.790 -0.1484  0.4232  0.2381
 5598SOL    HW128430   2.926   1.641   6.811 -0.0140 -0.1475  2.4045
 5598SOL    HW228431   3.034   1.571   6.875  0.2617  1.2112  0.0682
 5599SOL     OW28432   2.532   0.869   2.110  0.5163 -0.1500 -0.5901
 5599SOL    HW128433   2.459   0.820   2.073  0.9606 -0.6553 -0.7943
 5599SOL    HW228434   2.603   0.804   2.113  1.6323  1.0942  0.1416
 5600SOL     OW28435   4.027   2.578   8.786 -0.0425  0.3484  0.1414
 5600SOL    HW128436   4.007   2.628   8.706 -1.1227  0.3665  0.4310
 5600SOL    HW228437   3.957   2.514   8.793  0.5610 -0.3689 -0.3387
 5601SOL     OW28438   4.163   4.604   9.205  0.0692 -0.4662 -0.3392
 5601SOL    HW128439   4.233   4.539   9.213  0.6853  0.2539  0.0981
 5601SOL    HW228440   4.147   4.602   9.111  1.1623 -0.8078 -0.5175
 5602SOL     OW28441   1.810   0.489   6.221  0.0484  0.0158  0.2530
 5602SOL    HW128442   1.830   0.439   6.300 -1.6629  1.0320  1.3185
 5602SOL    HW228443   1.894   0.474   6.177  1.8405  1.4844  3.1633
 5603SOL     OW28444   0.740   4.664  13.238 -0.4938 -0.1863 -0.1922
 5603SOL    HW128445   0.687   4.589  13.211  1.5633 -1.2191 -1.3850
 5603SOL    HW228446   0.726   4.723  13.164 -2.5038  0.0362  0.3704
 5604SOL     OW28447   2.394   1.499   7.427 -0.3374  0.4005 -0.6495
 5604SOL    HW128448   2.464   1.518   7.365  1.0899 -2.1165  0.1669
 5604SOL    HW228449   2.325   1.553   7.390 -0.2439  0.5787 -0.5668
 5605SOL     OW28450   2.961   2.026  17.275 -0.0558 -0.1223 -0.3955
 5605SOL    HW128451   2.927   2.024  17.186  1.5433  0.9399 -1.0073
 5605SOL    HW228452   3.047   2.067  17.270 -0.1319  0.2802  1.6086
 5606SOL     OW28453   4.249   2.145   0.666  0.2132 -0.0239 -0.3344
 5606SOL    HW128454   4.158   2.169   0.649  0.6072  2.4943  1.1638
 5606SOL    HW228455   4.233   2.080   0.734  1.8640  0.7583  0.8125
 5607SOL     OW28456   4.329   3.264   8.868  0.9408  0.1478  0.1268
 5607SOL    HW128457   4.251   3.315   8.842 -0.4538 -1.8531  0.3623
 5607SOL    HW228458   4.373   3.343   8.899  1.8964  0.5387 -2.2387
 5608SOL     OW28459   4.167   2.364   6.746  0.0717  0.1919  0.1602
 5608SOL    HW128460   4.148   2.388   6.837 -0.3860 -1.9842  0.6266
 5608SOL    HW228461   4.263   2.364   6.743  0.1028  0.0592  1.4444
 5609SOL     OW28462   0.760   0.839   2.196  0.2067  0.3668 -0.2562
 5609SOL    HW128463   0.841   0.787   2.201 -1.2960 -2.0964 -1.6109
 5609SOL    HW228464   0.782   0.898   2.268 -1.3926  0.3494  0.2229
 5610SOL     OW28465   1.279   0.543   7.472 -0.5675 -0.0932 -0.3721
 5610SOL    HW128466   1.372   0.539   7.451 -0.1437  0.6780  1.3116
 5610SOL    HW228467   1.270   0.448   7.477 -0.3392 -0.2105 -2.0826
 5611SOL     OW28468   3.482   0.295  12.268 -0.4714  0.2075 -0.5279
 5611SOL    HW128469   3.569   0.267  12.295 -0.2619 -0.0639 -1.5215
 5611SOL    HW228470   3.481   0.341  12.184  2.5275  4.4730  1.7758
 5612SOL     OW28471   3.046   4.408   1.044  0.2164  0.1827 -0.6333
 5612SOL    HW128472   3.068   4.362   1.125  0.2723 -0.5131 -1.0444
 5612SOL    HW228473   2.977   4.352   1.008  1.5397 -2.0316  0.2970
 5613SOL     OW28474   4.697   3.744   7.702  0.0163  0.2965  0.0325
 5613SOL    HW128475   0.019   3.669   7.709 -0.1999  0.2809  1.6491
 5613SOL    HW228476   4.660   3.743   7.790 -0.7923  0.0825 -0.3054
 5614SOL     OW28477   2.916   3.528  16.665  0.4644 -0.8127  0.2806
 5614SOL    HW128478   2.827   3.494  16.658 -0.5997  2.4148 -2.4533
 5614SOL    HW228479   2.951   3.483  16.742 -2.5565 -2.1289  0.8704
 5615SOL     OW28480   3.043   4.080   6.651 -0.4162 -0.9204 -0.2633
 5615SOL    HW128481   3.115   4.141   6.662 -1.2311 -0.2174  1.1190
 5615SOL    HW228482   2.976   4.141   6.620 -1.3221 -0.9834  1.5896
 5616SOL     OW28483   3.686   0.873   7.282 -0.0090 -0.3663  0.2634
 5616SOL    HW128484   3.708   0.814   7.353  2.5653  1.2363  0.7883
 5616SOL    HW228485   3.711   0.821   7.205  0.6102  0.6641 -0.2359
 5617SOL     OW28486   2.720   3.713  15.612 -0.7289 -0.0035 -0.0560
 5617SOL    HW128487   2.670   3.780  15.565 -0.1048  1.1375  0.9061
 5617SOL    HW228488   2.686   3.632  15.574  1.6266 -0.8379 -0.4032
 5618SOL     OW28489   0.005   1.323   1.571  0.0298 -0.2262  0.3779
 5618SOL    HW128490   0.023   1.409   1.608  2.0735  0.4446 -2.1990
 5618SOL    HW228491   0.056   1.325   1.490 -0.2148 -1.3712  0.1866
 5619SOL     OW28492   2.796   3.396   2.116  0.0069  0.9213  0.5052
 5619SOL    HW128493   2.796   3.491   2.127  1.6959  0.9791  0.1262
 5619SOL    HW228494   2.855   3.380   2.042  0.9644 -0.2710  1.5248
 5620SOL     OW28495   3.623   4.342   0.994  0.4748  0.0547  0.3337
 5620SOL    HW128496   3.577   4.267   0.955  0.1540 -1.4262  3.5073
 5620SOL    HW228497   3.586   4.352   1.082  1.9499  0.2602  0.9310
 5621SOL     OW28498   1.021   0.102   3.687  0.3216 -0.6972 -0.2135
 5621SOL    HW128499   1.101   0.140   3.651  1.1495 -0.8324  1.5128
 5621SOL    HW228500   1.017   0.014   3.648  3.0215 -0.5210 -0.8570
 5622SOL     OW28501   2.898   1.375   8.687  0.0517 -0.0977  0.2784
 5622SOL    HW128502   2.832   1.444   8.680 -0.0982 -0.1893  0.7706
 5622SOL    HW228503   2.850   1.322   8.625  1.6999  0.5506 -1.5484
 5623SOL     OW28504   2.796   4.505   6.306  0.4758  0.4006 -0.3544
 5623SOL    HW128505   2.787   4.576   6.243  0.3368 -1.2090 -2.1550
 5623SOL    HW228506   2.719   4.449   6.295  0.4487  0.1808  1.0114
 5624SOL     OW28507   1.883   1.812   0.831 -0.2897 -0.3646  0.3114
 5624SOL    HW128508   1.805   1.841   0.784 -0.7877 -2.2218  0.0105
 5624SOL    HW228509   1.886   1.878   0.901  1.0639  0.9928 -1.0411
 5625SOL     OW28510   3.580   0.008   2.712 -0.3387 -0.1749 -0.7215
 5625SOL    HW128511   3.544   0.050   2.634  1.1499  1.2555 -0.6280
 5625SOL    HW228512   3.497   4.721   2.754  0.6729 -1.2846  0.6769
 5626SOL     OW28513   4.446   0.090   2.591  0.1722 -0.0625  0.2477
 5626SOL    HW128514   4.387   0.164   2.584  1.1274  0.7342  0.6849
 5626SOL    HW228515   4.423   0.045   2.510  0.1524  0.3225  0.0416
 5627SOL     OW28516   0.025   4.280  17.393  0.2344  0.6545 -0.1207
 5627SOL    HW128517   0.025   4.298  17.487  1.4016  1.2886 -0.2494
 5627SOL    HW228518   4.695   4.212  17.382  3.0878 -2.0406 -0.5780
 5628SOL     OW28519   3.499   0.719  15.229  0.0099 -0.2286  0.2626
 5628SOL    HW128520   3.503   0.649  15.295  1.4993 -0.5100 -0.1088
 5628SOL    HW228521   3.583   0.760  15.251  0.1986 -0.6870  0.3955
 5629SOL     OW28522   2.177   4.407  15.294  0.3828 -0.6251  0.1669
 5629SOL    HW128523   2.125   4.478  15.333 -0.9390 -1.3118 -0.3387
 5629SOL    HW228524   2.240   4.374  15.357  1.6583 -0.5974 -1.1007
 5630SOL     OW28525   0.834   1.659   4.625 -0.7552 -0.5123 -0.1604
 5630SOL    HW128526   0.829   1.662   4.721 -2.0844 -2.2342 -0.1933
 5630SOL    HW228527   0.919   1.616   4.621 -0.6708 -0.2092 -1.5308
 5631SOL     OW28528   1.246   0.224  13.673  0.0051  0.4795 -0.1387
 5631SOL    HW128529   1.239   0.140  13.627  0.9334  0.2175  0.1980
 5631SOL    HW228530   1.326   0.263  13.639  0.4984 -0.0467  0.4205
 5632SOL     OW28531   2.239   0.080   9.633  0.1737  0.3057 -0.5529
 5632SOL    HW128532   2.300   0.153   9.635  0.9101 -0.3353  0.3644
 5632SOL    HW228533   2.201   0.101   9.718  2.2801  1.0810  0.1998
 5633SOL     OW28534   2.557   1.748  16.353  0.3749  0.0091  0.3574
 5633SOL    HW128535   2.507   1.666  16.352  1.0466 -0.3869 -1.4136
 5633SOL    HW228536   2.642   1.722  16.389  1.1635  1.7390 -0.2324
 5634SOL     OW28537   0.684   2.016   7.638  0.2230  0.6300  0.4575
 5634SOL    HW128538   0.651   1.944   7.692 -0.7352  0.9068  0.2344
 5634SOL    HW228539   0.600   2.052   7.612 -0.2072 -1.0230 -0.4329
 5635SOL     OW28540   2.064   3.015   6.951  0.0942  0.5277 -0.5954
 5635SOL    HW128541   1.974   2.984   6.940  0.5965 -1.6297  1.1845
 5635SOL    HW228542   2.095   2.998   6.862 -2.5430  1.7581 -1.7504
 5636SOL     OW28543   1.592   4.149   9.540 -0.2367 -0.4933 -0.4314
 5636SOL    HW128544   1.585   4.232   9.492  0.6265 -0.0025  0.2978
 5636SOL    HW228545   1.526   4.089   9.506 -1.6042  0.7345  0.0906
 5637SOL     OW28546   2.358   3.899  12.088 -0.0517  0.3665  0.2817
 5637SOL    HW128547   2.399   3.929  12.006 -1.5734  0.7143 -0.3457
 5637SOL    HW228548   2.271   3.883  12.053 -0.3712  0.4368  1.0533
 5638SOL     OW28549   1.591   1.810  15.328 -0.4207 -0.5147 -0.0783
 5638SOL    HW128550   1.674   1.801  15.282 -0.0899 -0.8191  0.5811
 5638SOL    HW228551   1.530   1.845  15.263  1.6772  0.3723 -1.5685
 5639SOL     OW28552   1.817   4.354   3.459  0.3072  0.3921 -0.1580
 5639SOL    HW128553   1.819   4.436   3.508 -1.4365  0.2467  0.1741
 5639SOL    HW228554   1.896   4.309   3.488 -2.0934 -2.6012  1.7046
 5640SOL     OW28555   1.139   3.041  11.919 -0.5076  0.3216 -0.1788
 5640SOL    HW128556   1.231   3.038  11.945  0.1015 -0.8830 -2.4385
 5640SOL    HW228557   1.096   3.058  12.003  1.5097  1.8500  0.5303
 5641SOL     OW28558   1.452   1.493   5.586  0.4184  0.3733 -0.1891
 5641SOL    HW128559   1.409   1.560   5.640 -1.9473 -1.9597  0.8397
 5641SOL    HW228560   1.537   1.476   5.628 -0.1281 -0.3306  0.6382
 5642SOL     OW28561   2.101   1.744   0.671  0.4141  0.1772 -0.0689
 5642SOL    HW128562   2.156   1.822   0.683 -0.2760  0.5365  0.6791
 5642SOL    HW228563   2.019   1.783   0.700 -0.9170 -1.6744 -1.3112
 5643SOL     OW28564   4.104   1.153   6.411  0.0087  0.4246 -0.1980
 5643SOL    HW128565   4.177   1.141   6.350  0.7553  1.9591  0.3922
 5643SOL    HW228566   4.152   1.193   6.484  1.3692 -1.9422  0.2094
 5644SOL     OW28567   0.717   2.988   2.529  0.0737  0.2919 -0.1803
 5644SOL    HW128568   0.780   3.060   2.534 -2.0111  2.2071 -1.4220
 5644SOL    HW228569   0.747   2.939   2.452 -1.9698 -0.7304 -0.3219
 5645SOL     OW28570   0.466   1.701   5.192  0.3588  0.2308  0.5942
 5645SOL    HW128571   0.451   1.689   5.099 -2.4656  3.3073  0.6875
 5645SOL    HW228572   0.399   1.763   5.220 -0.1870 -0.1955  0.2282
 5646SOL     OW28573   0.344   1.418  16.738  0.3908 -0.0815 -0.0210
 5646SOL    HW128574   0.347   1.504  16.778 -1.0654 -1.4595  3.0779
 5646SOL    HW228575   0.436   1.393  16.739  0.2994 -0.4468 -0.7132
 5647SOL     OW28576   4.481   3.705   1.844  0.7973 -0.0853  0.6168
 5647SOL    HW128577   4.525   3.640   1.790  0.9867 -0.8078  1.6308
 5647SOL    HW228578   4.388   3.686   1.834  0.7805 -0.9421  2.4466
 5648SOL     OW28579   1.523   3.152   1.694 -0.3253 -0.2252  0.7821
 5648SOL    HW128580   1.489   3.237   1.668 -1.1467 -0.9611 -0.5735
 5648SOL    HW228581   1.454   3.101   1.651  0.4727 -0.5982 -0.0528
 5649SOL     OW28582   1.222   4.261   5.043  0.2042 -0.1482 -0.2685
 5649SOL    HW128583   1.289   4.251   5.111  1.0965  1.0238 -0.9832
 5649SOL    HW228584   1.268   4.232   4.964  0.4187 -0.8243  0.0974
 5650SOL     OW28585   1.706   4.275   3.819  0.4475 -0.0166  0.8247
 5650SOL    HW128586   1.735   4.365   3.834  0.1524  0.3386 -0.7603
 5650SOL    HW228587   1.611   4.283   3.826  0.6734  1.0204  2.7248
 5651SOL     OW28588   4.653   4.648  13.109 -0.4681 -0.2102  0.3117
 5651SOL    HW128589   0.002   4.606  13.115 -0.3592 -0.1470 -0.7479
 5651SOL    HW228590   4.600   4.569  13.096  1.2394 -1.1219 -1.1145
 5652SOL     OW28591   0.898   0.097   7.053  0.1485  0.0881  0.0362
 5652SOL    HW128592   0.912   0.185   7.019  3.0611 -1.0524 -1.6748
 5652SOL    HW228593   0.989   0.068   7.059  0.3241  0.5550 -0.3655
 5653SOL     OW28594   0.617   2.158   6.016 -0.0522 -0.0679 -0.1392
 5653SOL    HW128595   0.536   2.199   5.987  1.2397  2.2892 -0.4630
 5653SOL    HW228596   0.656   2.152   5.928  0.8679  1.0294  0.1942
 5654SOL     OW28597   2.221   2.955   4.234  0.2505  0.4661  0.0527
 5654SOL    HW128598   2.216   3.013   4.159 -0.7569 -0.2776 -0.4597
 5654SOL    HW228599   2.315   2.958   4.250  0.5112 -1.6015 -1.0648
 5655SOL     OW28600   4.068   2.294   9.748  0.6011  0.1081  0.4962
 5655SOL    HW128601   4.015   2.219   9.718 -0.2109  0.4198  1.1667
 5655SOL    HW228602   4.007   2.336   9.808  1.4346  1.3561  0.4702
 5656SOL     OW28603   1.834   1.451   2.772 -0.3730  0.2548  0.4855
 5656SOL    HW128604   1.778   1.399   2.828 -0.5669 -0.4248 -0.3391
 5656SOL    HW228605   1.831   1.537   2.815  1.0646  0.7794 -0.4512
 5657SOL     OW28606   1.211   0.069   5.737 -0.0117  0.7404 -0.0940
 5657SOL    HW128607   1.140   0.120   5.776  0.6829  0.7016  1.2204
 5657SOL    HW228608   1.150   0.001   5.710 -0.4161 -0.2526  3.3062
 5658SOL     OW28609   2.516   3.857   6.064  0.4232 -0.6339 -0.0610
 5658SOL    HW128610   2.578   3.851   5.992  0.7728  1.8070  0.0429
 5658SOL    HW228611   2.431   3.877   6.024 -0.4442 -0.9360  1.6041
 5659SOL     OW28612   2.935   4.273   4.931  0.2139 -0.3386  0.3352
 5659SOL    HW128613   2.996   4.226   4.987  0.8964  0.7745  0.5223
 5659SOL    HW228614   2.875   4.314   4.993  1.2274 -1.6077  2.1398
 5660SOL     OW28615   2.026   2.496   7.734  0.1056  0.1449 -0.0598
 5660SOL    HW128616   1.968   2.422   7.718  1.0094 -0.8288  1.2324
 5660SOL    HW228617   2.088   2.465   7.800  0.8906 -0.0415 -0.8932
 5661SOL     OW28618   4.225   2.200   5.973  0.6852  0.2845 -0.0663
 5661SOL    HW128619   4.289   2.184   6.043 -2.2427 -2.1317  2.0956
 5661SOL    HW228620   4.284   2.219   5.901 -0.6745  0.3068 -1.1871
 5662SOL     OW28621   3.572   0.343   3.127 -0.1733 -0.6538 -0.0761
 5662SOL    HW128622   3.653   0.292   3.120 -0.2248 -0.3789 -2.6644
 5662SOL    HW228623   3.592   0.399   3.052  1.1544 -0.1960  0.6264
 5663SOL     OW28624   3.701   1.354  16.401 -0.0431 -0.4493  0.1571
 5663SOL    HW128625   3.608   1.353  16.381  0.1257 -2.0621 -0.5479
 5663SOL    HW228626   3.735   1.343  16.312 -1.1066  0.4108 -0.3604
 5664SOL     OW28627   1.978   0.849  16.595 -0.2865  0.0253  0.5504
 5664SOL    HW128628   2.010   0.923  16.545 -0.5382 -1.0009 -1.1429
 5664SOL    HW228629   1.883   0.853  16.579 -0.3957  1.3429  1.5559
 5665SOL     OW28630   2.509   0.944   5.320 -0.1959 -0.2169  0.6314
 5665SOL    HW128631   2.446   1.001   5.363 -0.0814  0.2788  0.1456
 5665SOL    HW228632   2.474   0.857   5.338 -1.9999  0.8777  2.3497
 5666SOL     OW28633   4.292   1.477   7.824  0.4816 -0.2136 -0.6188
 5666SOL    HW128634   4.254   1.561   7.853 -0.0117 -1.0066  1.0441
 5666SOL    HW228635   4.233   1.426   7.879  0.6570 -1.4390 -1.5960
 5667SOL     OW28636   3.429   0.933   4.623  0.6700 -0.9508 -0.3073
 5667SOL    HW128637   3.347   0.907   4.665 -0.5314 -0.4656 -2.3407
 5667SOL    HW228638   3.468   0.855   4.583  0.3019  0.0224 -2.6167
 5668SOL     OW28639   1.562   0.372   4.878 -0.3201  0.3060 -0.5945
 5668SOL    HW128640   1.608   0.454   4.862  1.4935 -0.7440 -0.7436
 5668SOL    HW228641   1.468   0.390   4.881 -0.5844 -0.9179 -1.4595
 5669SOL     OW28642   0.674   1.991   1.472  0.0021  0.3032 -0.0664
 5669SOL    HW128643   0.697   1.935   1.398  0.4399 -0.9530  1.0181
 5669SOL    HW228644   0.658   2.073   1.425 -0.1862  0.4326  0.2271
 5670SOL     OW28645   3.728   1.641   9.583  0.8442 -0.1736 -0.2982
 5670SOL    HW128646   3.657   1.578   9.595 -1.1079  1.4393 -3.4479
 5670SOL    HW228647   3.735   1.663   9.676 -3.0074  2.3047 -0.5873
 5671SOL     OW28648   1.331   3.114  13.727 -0.2151 -0.5353 -0.0608
 5671SOL    HW128649   1.324   3.024  13.759 -1.0588 -0.7695 -0.9110
 5671SOL    HW228650   1.347   3.157  13.811 -0.6239 -3.5916  1.5882
 5672SOL     OW28651   0.635   1.067  13.790  0.1740 -0.0088 -0.2660
 5672SOL    HW128652   0.707   1.084  13.729  1.9769  0.8932  2.1018
 5672SOL    HW228653   0.610   0.975  13.780  0.4210 -0.2164  1.0788
 5673SOL     OW28654   0.557   4.060   2.106  0.0207 -0.0580  0.1299
 5673SOL    HW128655   0.611   4.129   2.145  0.3051 -1.1651  1.6979
 5673SOL    HW228656   0.500   4.034   2.179  0.4738  2.3246  1.3320
 5674SOL     OW28657   3.825   3.981   3.409 -0.0189  0.4746  0.1033
 5674SOL    HW128658   3.879   4.006   3.484 -1.8854  0.3803  1.4868
 5674SOL    HW228659   3.883   3.922   3.361  0.4334 -0.6719  2.0477
 5675SOL     OW28660   4.075   4.100   8.453 -0.1356 -0.0409  0.4744
 5675SOL    HW128661   4.072   4.092   8.548 -1.5344 -0.6068  0.3789
 5675SOL    HW228662   4.093   4.010   8.424 -2.6887  0.4200 -2.4730
 5676SOL     OW28663   1.096   1.453   5.374 -0.3177  0.1340 -0.2913
 5676SOL    HW128664   1.045   1.525   5.338  1.5165  0.6867 -1.7934
 5676SOL    HW228665   1.073   1.469   5.466  2.7863 -1.0329  0.6928
 5677SOL     OW28666   4.186   0.204   9.673 -0.2950  0.2444  0.0135
 5677SOL    HW128667   4.172   0.113   9.699  0.1477  0.4053  0.8152
 5677SOL    HW228668   4.113   0.250   9.714  0.6565  0.5992  1.3133
 5678SOL     OW28669   0.874   1.439   9.077  0.2412  0.5113  0.3506
 5678SOL    HW128670   0.938   1.376   9.045  1.8361  2.4547 -0.2621
 5678SOL    HW228671   0.805   1.413   9.016 -1.9925  0.7839  2.7362
 5679SOL     OW28672   1.010   1.911   7.272 -0.5000  0.1502  0.4904
 5679SOL    HW128673   1.079   1.928   7.336 -1.9965  2.0525  1.6159
 5679SOL    HW228674   1.036   1.959   7.193  0.3052 -0.7921  0.1979
 5680SOL     OW28675   3.180   3.005   6.051 -0.0629  0.5652  0.1595
 5680SOL    HW128676   3.169   3.016   6.145 -2.9245  2.9444 -0.4650
 5680SOL    HW228677   3.136   2.922   6.030 -0.0909  0.7582 -0.5516
 5681SOL     OW28678   2.927   2.925   3.275 -0.4616  0.1519 -0.2745
 5681SOL    HW128679   2.919   2.915   3.180  0.0656  2.6225 -0.5842
 5681SOL    HW228680   2.844   2.967   3.299 -1.3606 -2.4603  1.2068
 5682SOL     OW28681   0.978   0.702   1.897  0.3165 -0.4883 -0.2937
 5682SOL    HW128682   1.061   0.723   1.939 -0.6127  0.5953  1.0339
 5682SOL    HW228683   0.937   0.645   1.963 -1.7270 -1.2711 -2.2251
 5683SOL     OW28684   1.689   2.780  12.726 -0.3019 -0.4638  0.1565
 5683SOL    HW128685   1.684   2.793  12.821  1.6409 -0.9127  0.3100
 5683SOL    HW228686   1.743   2.854  12.699  0.2715 -1.2966 -0.9820
 5684SOL     OW28687   2.176   1.208  16.983 -0.4520 -0.1349 -0.0491
 5684SOL    HW128688   2.171   1.293  16.939  0.8717  0.2381  0.5025
 5684SOL    HW228689   2.232   1.161  16.922  0.1995 -0.3610  0.7120
 5685SOL     OW28690   1.346   2.809   0.337  0.2452  0.3291  0.7893
 5685SOL    HW128691   1.415   2.858   0.382  0.5856  1.6252 -1.1268
 5685SOL    HW228692   1.383   2.804   0.249 -1.6403 -1.1038  0.0791
 5686SOL     OW28693   1.933   2.457   4.844 -0.1374  0.0318 -0.1130
 5686SOL    HW128694   1.838   2.471   4.841 -0.0160  0.5489 -1.8311
 5686SOL    HW228695   1.948   2.480   4.936  0.6397 -0.7412 -0.0494
 5687SOL     OW28696   3.180   2.183   9.824  0.1926  0.1488  0.2272
 5687SOL    HW128697   3.122   2.115   9.859  1.7882 -0.9744  0.6640
 5687SOL    HW228698   3.179   2.239   9.901 -1.8880  1.6207 -0.8631
 5688SOL     OW28699   0.939   0.713   1.119 -0.2285 -0.0127 -0.3048
 5688SOL    HW128700   0.941   0.672   1.205 -0.2451  0.5092 -0.0599
 5688SOL    HW228701   0.903   0.800   1.134  0.9614  0.0775  1.8788
 5689SOL     OW28702   3.861   1.678   4.160  0.0567  0.6872  0.2399
 5689SOL    HW128703   3.956   1.668   4.157  0.2407  2.3719  0.2489
 5689SOL    HW228704   3.824   1.602   4.205  0.7959  1.1673  1.6620
 5690SOL     OW28705   3.291   4.731   5.334 -0.5024 -0.5512 -0.0279
 5690SOL    HW128706   3.387   4.730   5.332 -0.5165 -1.6780 -0.1899
 5690SOL    HW228707   3.283   4.710   5.428 -2.6710 -0.5140 -0.1985
 5691SOL     OW28708   4.496   1.447   4.062 -0.2176 -0.0950  0.7762
 5691SOL    HW128709   4.529   1.471   4.149 -0.7687 -2.1008  1.5329
 5691SOL    HW228710   4.427   1.386   4.087 -0.9961 -0.4203 -2.1838
 5692SOL     OW28711   0.574   2.251  11.411  0.3926 -0.1171  0.2414
 5692SOL    HW128712   0.652   2.306  11.417  0.2029  0.0251  1.4437
 5692SOL    HW228713   0.533   2.298  11.339  1.8256  0.4361 -0.2202
 5693SOL     OW28714   1.471   3.449  17.236  0.0999 -0.1607 -0.2313
 5693SOL    HW128715   1.501   3.540  17.227  1.2111 -0.1940  3.0024
 5693SOL    HW228716   1.493   3.410  17.151  1.3410  0.3015 -0.1248
 5694SOL     OW28717   2.494   2.188   8.947  0.1331  0.3027  0.2253
 5694SOL    HW128718   2.402   2.173   8.965  0.4350 -0.3491  1.2197
 5694SOL    HW228719   2.535   2.188   9.034  1.9746  0.2530 -0.6380
 5695SOL     OW28720   4.490   2.708  11.754 -0.0858 -0.1436 -0.4499
 5695SOL    HW128721   4.419   2.645  11.742 -0.2428 -0.3171  1.5314
 5695SOL    HW228722   4.555   2.668  11.695 -0.1098 -0.5975 -0.1695
 5696SOL     OW28723   2.163   3.061   0.050 -0.0792 -0.1928 -0.2318
 5696SOL    HW128724   2.239   3.042  17.740 -0.9212  0.4359 -1.6311
 5696SOL    HW228725   2.099   3.025  17.733  2.0138  0.8594 -3.0259
 5697SOL     OW28726   2.095   3.614   1.643 -0.1297  0.1842  0.4945
 5697SOL    HW128727   2.101   3.585   1.734  1.3133 -2.1554 -0.3635
 5697SOL    HW228728   2.101   3.542   1.581  1.2177  0.7172  0.0134
 5698SOL     OW28729   0.879   3.000  13.205  0.0034 -0.4783  0.1851
 5698SOL    HW128730   0.907   2.951  13.282  2.4385  1.2575  0.4078
 5698SOL    HW228731   0.906   3.085  13.239  1.3461 -1.6353  2.0371
 5699SOL     OW28732   4.316   1.630   5.012  0.4517  0.3110 -0.3167
 5699SOL    HW128733   4.405   1.627   5.046  0.4639  1.0678 -0.2848
 5699SOL    HW228734   4.297   1.536   5.013 -0.9309  0.5941  0.9860
 5700SOL     OW28735   3.332   3.951   5.545 -0.2864 -0.1390 -0.1491
 5700SOL    HW128736   3.392   4.007   5.593  1.4615 -2.4199  0.3218
 5700SOL    HW228737   3.301   4.021   5.487 -1.8084 -0.4251  0.3206
 5701SOL     OW28738   0.289   2.473   0.633 -0.8775  0.4378  0.2326
 5701SOL    HW128739   0.213   2.480   0.576 -0.1863 -1.0847 -0.8743
 5701SOL    HW228740   0.359   2.435   0.580 -0.2987 -0.4145  1.6196
 5702SOL     OW28741   4.237   4.293   7.866 -0.3322 -0.1679  0.1600
 5702SOL    HW128742   4.263   4.385   7.867 -0.1575 -0.2142 -0.0743
 5702SOL    HW228743   4.224   4.278   7.959 -0.8951 -0.1001  0.0965
 5703SOL     OW28744   1.003   2.191   1.960  0.1538  0.0411  0.7553
 5703SOL    HW128745   1.054   2.113   1.983 -0.3319 -0.7713 -0.9727
 5703SOL    HW228746   1.040   2.224   1.878  1.2340 -1.4350  0.6355
 5704SOL     OW28747   4.632   1.777   1.413  0.3471 -0.1919 -0.0974
 5704SOL    HW128748   4.689   1.853   1.427 -0.5585  0.4773 -0.0392
 5704SOL    HW228749   4.657   1.724   1.489  1.2481 -1.1035 -1.0360
 5705SOL     OW28750   1.273   1.551   4.165 -0.4852 -0.2602  0.3084
 5705SOL    HW128751   1.234   1.598   4.091 -2.3279  0.9423  2.0274
 5705SOL    HW228752   1.348   1.506   4.128 -0.8074 -0.7652  0.2754
 5706SOL     OW28753   4.022   0.803   9.063  0.5494  0.7234  0.0946
 5706SOL    HW128754   3.981   0.827   8.980  1.8122 -1.1414 -1.0840
 5706SOL    HW228755   4.107   0.764   9.043  0.6393  0.2150  1.4357
 5707SOL     OW28756   0.409   1.157   8.947 -0.0207  0.0591  0.5855
 5707SOL    HW128757   0.320   1.125   8.931 -0.0106  1.7187 -2.8447
 5707SOL    HW228758   0.456   1.074   8.937  2.2856  1.2834  1.2788
 5708SOL     OW28759   2.709   4.039   2.347 -0.0467  0.6988  0.0576
 5708SOL    HW128760   2.693   3.947   2.326  0.3411 -0.0481  3.0156
 5708SOL    HW228761   2.621   4.077   2.343 -0.6730 -0.7543 -0.1297
 5709SOL     OW28762   2.227   1.821  16.586 -0.0161  0.2916  0.0450
 5709SOL    HW128763   2.210   1.829  16.492 -0.4834 -2.6103 -0.1351
 5709SOL    HW228764   2.223   1.911  16.619  0.2402  0.3301 -0.0271
 5710SOL     OW28765   1.323   4.163   3.114 -0.1978 -0.0302  0.0535
 5710SOL    HW128766   1.262   4.091   3.100  0.9219 -0.9210 -0.2399
 5710SOL    HW228767   1.355   4.168   3.024 -2.3263 -1.1821 -0.7607
 5711SOL     OW28768   0.217   1.960   3.080  0.7243  0.0236  0.2682
 5711SOL    HW128769   0.229   1.884   3.023  0.9357 -0.4184  0.8980
 5711SOL    HW228770   0.176   2.026   3.023 -0.2974 -1.5705 -0.8447
 5712SOL     OW28771   0.199   0.137  13.144  0.9758  0.8924 -0.0347
 5712SOL    HW128772   0.172   0.076  13.213  0.2242  0.7844 -0.4219
 5712SOL    HW228773   0.165   0.096  13.064  2.2780 -1.4784  0.6272
 5713SOL     OW28774   2.347   1.005   8.809  0.0699  0.0370  0.0776
 5713SOL    HW128775   2.308   0.989   8.723 -0.2664  0.1138  0.2151
 5713SOL    HW228776   2.342   1.100   8.803  0.8993 -0.1572 -3.5040
 5714SOL     OW28777   0.873   2.645   7.861 -0.0659  0.2659 -0.2462
 5714SOL    HW128778   0.908   2.617   7.946  1.6142  1.9907 -0.3605
 5714SOL    HW228779   0.844   2.730   7.894  0.2129 -0.0538  0.8278
 5715SOL     OW28780   3.288   3.128   8.440 -0.2029  0.2340 -0.3952
 5715SOL    HW128781   3.348   3.120   8.514 -0.9517 -0.4279  0.1298
 5715SOL    HW228782   3.201   3.117   8.476 -0.5121  0.6347 -1.0085
 5716SOL     OW28783   0.849   1.259   4.405 -0.2603  0.5591  0.1206
 5716SOL    HW128784   0.888   1.307   4.478  0.7283 -0.9231  0.5380
 5716SOL    HW228785   0.895   1.293   4.328 -2.0925  0.5428 -0.9999
 5717SOL     OW28786   2.212   2.909   3.608 -0.4507 -0.2223  0.0831
 5717SOL    HW128787   2.178   2.993   3.576  0.0762 -0.0532 -0.0355
 5717SOL    HW228788   2.303   2.932   3.629 -0.6008  0.5655 -0.1204
 5718SOL     OW28789   2.260   2.440   2.260 -0.0293 -0.1397  0.7049
 5718SOL    HW128790   2.285   2.531   2.242  1.3416 -0.8146 -0.8227
 5718SOL    HW228791   2.238   2.418   2.169  0.2825  0.4543  0.4876
 5719SOL     OW28792   1.089   2.558   2.537  0.0577  0.2628  0.2992
 5719SOL    HW128793   1.141   2.482   2.510 -0.0591  0.1860  0.2903
 5719SOL    HW228794   1.010   2.526   2.579  0.8742  0.0848  1.7053
 5720SOL     OW28795   1.696   0.727   7.536  0.0734  0.3509 -0.0064
 5720SOL    HW128796   1.639   0.795   7.500 -0.4376  1.8128  3.6027
 5720SOL    HW228797   1.760   0.725   7.464 -1.4655  1.1375 -1.4115
 5721SOL     OW28798   1.141   0.803   6.511 -0.2763 -0.2289  0.5329
 5721SOL    HW128799   1.177   0.865   6.447 -0.2214 -1.1560 -0.3323
 5721SOL    HW228800   1.136   0.867   6.582 -0.5100 -1.7647  1.8914
 5722SOL     OW28801   0.835   1.905   0.946  0.3608 -0.4036  0.4520
 5722SOL    HW128802   0.741   1.890   0.942  0.2045  1.4301 -3.7708
 5722SOL    HW228803   0.837   1.999   0.925  4.3825 -1.0048 -1.9152
 5723SOL     OW28804   3.451   1.407   9.034  0.0243 -0.0122  0.0695
 5723SOL    HW128805   3.515   1.336   9.032  0.7023  0.5586  1.7524
 5723SOL    HW228806   3.503   1.476   8.993  1.3813 -0.1376  1.5897
 5724SOL     OW28807   2.212   2.222   7.395 -0.1449 -0.5236 -1.0836
 5724SOL    HW128808   2.151   2.148   7.396 -0.3255 -0.3883 -1.8575
 5724SOL    HW228809   2.161   2.302   7.379 -3.4780 -2.4394 -0.0695
 5725SOL     OW28810   1.938   2.718   6.051 -0.1737  0.5695 -0.0834
 5725SOL    HW128811   1.925   2.790   6.113 -0.6831  1.2694 -0.9910
 5725SOL    HW228812   1.858   2.734   6.000 -1.3304 -2.7267  0.7360
 5726SOL     OW28813   0.769   3.318   5.292 -0.0048  0.0455  0.0048
 5726SOL    HW128814   0.864   3.316   5.283 -0.1462 -1.3561 -1.2038
 5726SOL    HW228815   0.744   3.231   5.325  2.7189 -0.1767  1.4976
 5727SOL     OW28816   3.231   2.207   8.192 -0.6259  0.9911  0.3415
 5727SOL    HW128817   3.287   2.266   8.142 -0.0501 -0.6130 -0.9064
 5727SOL    HW228818   3.293   2.164   8.250  0.4168  0.3867 -1.2187
 5728SOL     OW28819   1.577   0.487   3.568 -0.0152  0.1569 -0.6884
 5728SOL    HW128820   1.575   0.579   3.540  0.4979  0.8913  1.7128
 5728SOL    HW228821   1.518   0.491   3.643  0.1209 -1.4211 -0.5003
 5729SOL     OW28822   1.649   3.475   7.923 -0.5008 -0.3520 -0.4807
 5729SOL    HW128823   1.702   3.409   7.966  0.6145  1.7397  1.3675
 5729SOL    HW228824   1.678   3.563   7.947 -1.9806 -0.2954  1.1485
 5730SOL     OW28825   1.424   2.385   5.230 -0.2454 -0.4232  0.3826
 5730SOL    HW128826   1.337   2.406   5.198  0.0501  0.3903  0.1112
 5730SOL    HW228827   1.409   2.378   5.324  2.3281  3.2395  1.0750
 5731SOL     OW28828   1.507   3.397   3.091 -0.2640 -0.2514  0.4867
 5731SOL    HW128829   1.507   3.392   3.187  1.1558  0.0709  0.5056
 5731SOL    HW228830   1.419   3.365   3.076 -0.7467  1.6489 -0.7503
 5732SOL     OW28831   2.398   2.565   2.935  0.0294 -0.0734  0.1185
 5732SOL    HW128832   2.484   2.549   2.898  0.2011 -0.5305  0.7226
 5732SOL    HW228833   2.387   2.659   2.921  1.4436  0.3222  1.6423
 5733SOL     OW28834   1.313   3.926   8.244  0.0535  0.2006  0.6137
 5733SOL    HW128835   1.260   3.857   8.283  0.4241 -0.4300  0.0211
 5733SOL    HW228836   1.313   3.985   8.319  1.1021  1.7704 -0.6232
 5734SOL     OW28837   2.850   1.349  13.761 -0.3353 -0.7118 -0.1204
 5734SOL    HW128838   2.870   1.391  13.677  0.0660 -2.1293 -0.7468
 5734SOL    HW228839   2.939   1.318  13.782 -1.0250 -2.1330  0.6934
 5735SOL     OW28840   0.669   1.693  15.813  0.5506  0.5140 -0.2023
 5735SOL    HW128841   0.677   1.730  15.901 -1.8849 -0.6432  0.4904
 5735SOL    HW228842   0.758   1.681  15.778  0.0203 -0.7131 -1.1159
 5736SOL     OW28843   0.565   0.035  11.284 -0.2653 -0.0790 -0.5254
 5736SOL    HW128844   0.528   0.121  11.265  0.3382  0.7309  1.9734
 5736SOL    HW228845   0.512   0.020  11.362  0.9904 -2.2001 -0.0858
 5737SOL     OW28846   2.900   2.051   8.411  0.6750  0.2003  0.0241
 5737SOL    HW128847   2.883   2.083   8.322  1.6114  0.2951 -0.1241
 5737SOL    HW228848   2.869   2.119   8.470  1.4685 -2.3879  3.3907
 5738SOL     OW28849   2.320   0.254  10.544  1.3878  0.2541 -1.2737
 5738SOL    HW128850   2.390   0.295  10.595 -1.5023  0.3984  2.5223
 5738SOL    HW228851   2.352   0.165  10.527 -2.1617 -0.7801 -2.5667
 5739SOL     OW28852   3.859   3.651   7.761  0.0577 -0.1326  0.0029
 5739SOL    HW128853   3.808   3.570   7.752 -0.4377  0.3485 -1.5075
 5739SOL    HW228854   3.841   3.685   7.674  1.6065  0.3950 -0.0972
 5740SOL     OW28855   0.182   3.057   8.553  0.2490 -0.7772 -0.0091
 5740SOL    HW128856   0.155   2.971   8.518 -2.2522  0.5246 -1.2926
 5740SOL    HW228857   0.109   3.105   8.513 -0.6458 -2.9516 -1.0367
 5741SOL     OW28858   3.923   0.599   2.288  0.3377 -0.5569 -0.8215
 5741SOL    HW128859   3.870   0.542   2.232 -1.2510  0.9983 -0.9245
 5741SOL    HW228860   4.008   0.596   2.245  1.0567  2.0349  0.4186
 5742SOL     OW28861   0.584   2.339   8.733 -0.0107  0.4231  0.1175
 5742SOL    HW128862   0.514   2.375   8.679 -0.7142 -1.5915 -0.3383
 5742SOL    HW228863   0.659   2.325   8.676 -0.0317  0.6674  0.0311
 5743SOL     OW28864   2.445   1.954   3.314 -0.5488 -0.2263  0.1431
 5743SOL    HW128865   2.530   1.957   3.271 -0.5242  0.5516  0.2415
 5743SOL    HW228866   2.406   2.039   3.292  2.6949  1.4064  0.6813
 5744SOL     OW28867   0.218   0.189   2.945 -0.1659  0.0690 -0.2392
 5744SOL    HW128868   0.181   0.260   2.998  0.5806 -0.5742  1.1564
 5744SOL    HW228869   0.248   0.243   2.871  1.3511 -0.2087  0.1673
 5745SOL     OW28870   2.035   3.245  15.983  0.1493 -0.5744  0.1332
 5745SOL    HW128871   2.028   3.214  15.893  1.8131 -1.6592  0.3843
 5745SOL    HW228872   1.945   3.227  16.007  0.5325 -0.0282  1.9882
 5746SOL     OW28873   1.618   4.053   1.619 -0.6858  0.1888 -0.1508
 5746SOL    HW128874   1.594   4.142   1.643  0.7599  1.2282 -2.4685
 5746SOL    HW228875   1.671   4.035   1.697 -1.2804  0.2484  0.2601
 5747SOL     OW28876   1.403   4.097  14.933  0.6931 -0.3327 -0.2276
 5747SOL    HW128877   1.482   4.044  14.926  1.5259  0.8647  0.1483
 5747SOL    HW228878   1.336   4.068  14.871  0.3519 -0.0821  0.0204
 5748SOL     OW28879   4.686   1.776   9.490  0.3304  0.1328 -0.0024
 5748SOL    HW128880   4.695   1.832   9.567 -0.3391  1.8220 -1.1581
 5748SOL    HW228881   0.037   1.771   9.452 -0.9597  1.2611 -3.1509
 5749SOL     OW28882   0.394   4.486   7.989  0.0645  0.1994  0.2344
 5749SOL    HW128883   0.458   4.557   7.989  2.3334 -1.8500  0.9065
 5749SOL    HW228884   0.448   4.408   7.976  0.8622  1.1637 -2.1476
 5750SOL     OW28885   2.455   1.341   2.645 -0.2310 -0.9404  0.0068
 5750SOL    HW128886   2.550   1.352   2.650 -0.3502  0.9886 -1.7582
 5750SOL    HW228887   2.426   1.427   2.675 -0.0656 -1.0063  0.3476
 5751SOL     OW28888   0.984   0.066   1.688  0.1359  0.3524  0.4530
 5751SOL    HW128889   0.897   0.032   1.710  1.1117 -0.9271  2.3240
 5751SOL    HW228890   1.022   0.066   1.776 -0.2055  2.0862  0.5960
 5752SOL     OW28891   4.226   2.054   8.457  0.0932  0.1702  0.2033
 5752SOL    HW128892   4.162   2.095   8.516 -0.1906 -1.5053  1.0579
 5752SOL    HW228893   4.306   2.101   8.480 -2.2292  3.6208  1.1779
 5753SOL     OW28894   4.454   2.772   0.254 -0.3142 -0.0587  0.1740
 5753SOL    HW128895   4.459   2.853   0.204 -2.5765  0.4759  0.7935
 5753SOL    HW228896   4.363   2.762   0.285  0.3940  1.5237  2.7830
 5754SOL     OW28897   0.424   3.871  16.861 -0.7649 -0.1838 -0.3398
 5754SOL    HW128898   0.363   3.799  16.879  0.1771 -0.6455  1.0153
 5754SOL    HW228899   0.510   3.837  16.884 -0.4461 -0.5488 -2.0488
 5755SOL     OW28900   1.403   2.340   4.904  0.1614  0.1952 -0.0623
 5755SOL    HW128901   1.411   2.346   5.000  1.3605  0.9985 -0.2168
 5755SOL    HW228902   1.330   2.399   4.886 -0.4777 -0.6294 -0.2048
 5756SOL     OW28903   3.450   2.705   8.579  0.5465  0.1381  0.2800
 5756SOL    HW128904   3.488   2.784   8.540 -3.1545  1.6647 -0.3025
 5756SOL    HW228905   3.390   2.676   8.509  0.5271 -0.9629  0.7604
 5757SOL     OW28906   1.342   2.310   2.615 -0.3056  0.0812 -0.5639
 5757SOL    HW128907   1.428   2.323   2.575 -0.7753  1.1493 -1.2562
 5757SOL    HW228908   1.308   2.250   2.549 -0.2998  1.3173 -1.6963
 5758SOL     OW28909   2.679   2.004   0.437  0.9115  0.0117 -0.3024
 5758SOL    HW128910   2.775   2.003   0.443  1.0470  1.2113 -2.1912
 5758SOL    HW228911   2.655   1.991   0.529  0.2686  0.5884 -0.3941
 5759SOL     OW28912   2.705   4.681   8.608  0.2690  0.6438 -0.0040
 5759SOL    HW128913   2.697   4.710   8.517  0.0100  1.6853  0.3508
 5759SOL    HW228914   2.634   4.619   8.622 -1.0756  1.9642 -1.0385
 5760SOL     OW28915   3.333   4.292   8.446 -0.8852  0.4941  0.2773
 5760SOL    HW128916   3.398   4.251   8.389 -0.4110 -3.2797  3.5663
 5760SOL    HW228917   3.377   4.299   8.531 -1.6085 -1.1153  0.7673
 5761SOL     OW28918   1.406   2.207  11.837 -0.1959  0.4267  0.1579
 5761SOL    HW128919   1.433   2.267  11.906 -1.8194  2.4210 -0.9233
 5761SOL    HW228920   1.313   2.222  11.818 -0.1836  0.9153  0.4978
 5762SOL     OW28921   1.466   1.112  14.993  0.4191 -0.3780 -0.4329
 5762SOL    HW128922   1.402   1.177  15.022 -0.0406 -1.3376  0.7274
 5762SOL    HW228923   1.529   1.104  15.065 -2.0816 -1.1901  1.6845
 5763SOL     OW28924   0.073   2.958   8.010 -0.8111 -0.6226 -0.4201
 5763SOL    HW128925   0.160   2.930   8.039  0.5347  0.9568 -2.9124
 5763SOL    HW228926   0.100   2.984   7.922 -0.1224  0.1986  0.0213
 5764SOL     OW28927   0.457   1.763   0.988  0.9583  0.0506  0.0384
 5764SOL    HW128928   0.517   1.709   0.936 -1.0703 -1.0850 -1.1209
 5764SOL    HW228929   0.474   1.845   0.942  1.2119  0.8629  1.5750
 5765SOL     OW28930   2.068   1.039  17.187 -0.1320  0.3629  0.0752
 5765SOL    HW128931   2.033   1.091  17.259  0.6769 -2.2948  2.3772
 5765SOL    HW228932   2.066   1.105  17.118  1.6980 -0.8319 -1.1412
 5766SOL     OW28933   0.616   0.510   3.221  0.1269  0.4680 -0.3527
 5766SOL    HW128934   0.636   0.538   3.132 -2.5992 -0.7734 -1.3509
 5766SOL    HW228935   0.560   0.435   3.202  2.3543 -0.9387 -1.4007
 5767SOL     OW28936   0.924   4.142   7.518  0.8544 -0.3483  0.6742
 5767SOL    HW128937   0.978   4.141   7.598  1.9585  1.9680 -0.0454
 5767SOL    HW228938   0.975   4.093   7.454 -1.4675 -1.6561 -0.1608
 5768SOL     OW28939   4.102   1.432   9.756  0.1047  0.2947 -0.0190
 5768SOL    HW128940   4.028   1.371   9.757  0.6622 -0.3864 -0.0603
 5768SOL    HW228941   4.068   1.518   9.778  0.0715 -0.3560  2.4959
 5769SOL     OW28942   3.967   3.836   5.707  0.5395  0.3461  0.0660
 5769SOL    HW128943   4.062   3.823   5.714  0.2787 -1.8150 -0.4227
 5769SOL    HW228944   3.934   3.849   5.796  1.6228  1.6698  0.2891
 5770SOL     OW28945   2.458   4.465   4.222  0.4268  0.0122  0.0380
 5770SOL    HW128946   2.551   4.459   4.199  0.0146 -1.2216 -1.3374
 5770SOL    HW228947   2.413   4.409   4.159  1.4700 -1.2573  0.4307
 5771SOL     OW28948   1.436   0.711   5.937  0.0427  0.0658  0.1232
 5771SOL    HW128949   1.510   0.662   5.899 -1.2032 -2.6278  1.1362
 5771SOL    HW228950   1.475   0.796   5.957  0.7962 -0.3806  0.5541
 5772SOL     OW28951   0.704   2.152   3.338 -0.3408  0.5032  0.3165
 5772SOL    HW128952   0.630   2.155   3.399  0.6953 -1.1845  1.6630
 5772SOL    HW228953   0.742   2.065   3.347  0.0677  1.0958  4.4933
 5773SOL     OW28954   3.206   0.307   2.524  0.2827 -0.1365  0.0744
 5773SOL    HW128955   3.193   0.228   2.576  1.4546  0.4069  1.1831
 5773SOL    HW228956   3.180   0.371   2.590 -2.1177 -1.7703  0.6973
 5774SOL     OW28957   1.948   1.939  17.617  0.2703  0.4710 -0.1733
 5774SOL    HW128958   1.986   1.972  17.699 -2.2961  2.0317  0.4010
 5774SOL    HW228959   2.028   1.925  17.567  1.4505 -2.5377  2.5421
 5775SOL     OW28960   3.716   0.060   4.269  0.0183  0.8387  0.4493
 5775SOL    HW128961   3.699   0.100   4.354  4.0685  2.6262  0.4055
 5775SOL    HW228962   3.673   0.116   4.205  1.9826  0.9371 -0.7807
 5776SOL     OW28963   0.444   3.084  17.231 -0.0712  0.2236 -0.2597
 5776SOL    HW128964   0.486   3.004  17.262  0.1931  1.0038  1.4095
 5776SOL    HW228965   0.410   3.061  17.145 -0.7849  0.5864 -0.0787
 5777SOL     OW28966   0.661   1.213   7.105  0.2268  0.3545 -0.1792
 5777SOL    HW128967   0.641   1.137   7.050 -1.4875  0.0972  0.8197
 5777SOL    HW228968   0.735   1.237   7.048 -0.7458  1.3924 -1.0044
 5778SOL     OW28969   0.950   2.678   7.578 -0.0979  0.5964 -0.1725
 5778SOL    HW128970   0.951   2.668   7.673 -0.1855 -0.1909 -0.2611
 5778SOL    HW228971   1.033   2.639   7.552 -0.8366  0.6711 -2.6852
 5779SOL     OW28972   2.597   0.986   0.927 -0.2010  1.0997  0.7068
 5779SOL    HW128973   2.653   1.062   0.909 -3.0187  2.7577 -1.2226
 5779SOL    HW228974   2.633   0.964   1.012 -0.5792  1.3784  0.9391
 5780SOL     OW28975   3.061   0.930   1.540  0.4278  0.0123 -0.2668
 5780SOL    HW128976   2.988   0.990   1.558  0.9321  0.4559  0.3182
 5780SOL    HW228977   3.137   0.988   1.545 -1.4149  2.3226  1.2020
 5781SOL     OW28978   2.488   4.573   9.341 -0.5228  0.2085 -0.0869
 5781SOL    HW128979   2.442   4.613   9.267  0.5623  0.5455 -0.5921
 5781SOL    HW228980   2.579   4.567   9.309 -1.0438  1.4824 -1.8362
 5782SOL     OW28981   0.447   4.131   6.264 -0.3799  0.4166  0.3413
 5782SOL    HW128982   0.410   4.201   6.318 -2.0232  1.0722 -1.6065
 5782SOL    HW228983   0.381   4.135   6.194  1.7044 -1.9547 -1.7697
 5783SOL     OW28984   1.432   4.285   5.265  0.0919 -0.3076  0.0654
 5783SOL    HW128985   1.468   4.279   5.354 -1.1915  0.5810  0.6443
 5783SOL    HW228986   1.418   4.194   5.236 -0.3720  0.0158 -0.7174
 5784SOL     OW28987   0.437   3.775  17.601  0.1042 -0.5210  0.2240
 5784SOL    HW128988   0.421   3.718  17.525  1.1162 -0.0283 -0.3660
 5784SOL    HW228989   0.434   3.708  17.670  1.4197  0.9404  1.7077
 5785SOL     OW28990   3.175   0.523   8.797  0.4296 -0.0525 -0.4445
 5785SOL    HW128991   3.138   0.493   8.880 -0.7419  0.5414 -0.7465
 5785SOL    HW228992   3.254   0.469   8.795  0.4453 -0.0642  0.5805
 5786SOL     OW28993   0.731   1.992   4.672 -0.0748 -0.0351 -0.4020
 5786SOL    HW128994   0.807   2.009   4.617  0.6638  0.9193  0.9235
 5786SOL    HW228995   0.716   2.083   4.698  2.7722  0.4862 -0.6431
 5787SOL     OW28996   1.620   0.116   5.013  0.4346  0.4711  0.3247
 5787SOL    HW128997   1.603   0.149   5.101 -1.6114  1.1790 -0.3443
 5787SOL    HW228998   1.616   0.200   4.968 -0.7332 -1.3373 -2.9343
 5788SOL     OW28999   0.056   1.369   6.990  1.1498 -0.0837 -0.0046
 5788SOL    HW129000   0.053   1.290   7.043 -2.4403  0.3977  0.4781
 5788SOL    HW229001   4.704   1.376   6.954  1.4045  1.9832 -0.2736
 5789SOL     OW29002   4.109   1.424   0.114  0.1556 -0.0090  0.4476
 5789SOL    HW129003   4.146   1.495   0.064 -0.3701 -0.2587 -0.2936
 5789SOL    HW229004   4.141   1.435   0.204 -1.3176 -1.8835  1.2339
 5790SOL     OW29005   2.855   2.717   4.802  0.2023 -0.4333  0.2508
 5790SOL    HW129006   2.936   2.693   4.846  0.0704 -0.0958  0.6750
 5790SOL    HW229007   2.867   2.811   4.792  0.0451 -0.2507  1.7604
 5791SOL     OW29008   1.266   1.665   5.051  0.7299 -0.3140  0.0234
 5791SOL    HW129009   1.278   1.698   4.962  0.2450  0.5207  0.2644
 5791SOL    HW229010   1.273   1.740   5.110  1.1346  0.8704 -1.5297
 5792SOL     OW29011   1.225   3.232   9.363  0.1753 -0.3901  0.0906
 5792SOL    HW129012   1.294   3.250   9.299 -0.0924 -1.1391 -0.4123
 5792SOL    HW229013   1.271   3.160   9.404  1.5011  0.5989  0.3323
 5793SOL     OW29014   0.430   4.645  15.200 -0.2958  0.2996 -0.6026
 5793SOL    HW129015   0.437   4.675  15.109  3.0016  1.0968 -0.0792
 5793SOL    HW229016   0.350   4.683  15.237 -0.3898 -2.1611  1.6962
 5794SOL     OW29017   2.753   3.028   6.240  0.2783  0.8241 -0.2167
 5794SOL    HW129018   2.813   2.978   6.295 -0.4421  1.6134  1.3021
 5794SOL    HW229019   2.795   3.114   6.227 -1.0583  1.9558  2.9058
 5795SOL     OW29020   1.436   2.557   0.451 -0.2788  0.2454  0.1310
 5795SOL    HW129021   1.378   2.483   0.435 -1.2251  0.5847  1.9336
 5795SOL    HW229022   1.515   2.513   0.481 -0.5066  1.2938  2.3014
 5796SOL     OW29023   0.112   3.104   2.573  0.0538  0.1787  0.1141
 5796SOL    HW129024   0.052   3.056   2.629 -1.1967  1.5228 -0.0767
 5796SOL    HW229025   0.053   3.152   2.514 -1.3501 -0.3360  1.1004
 5797SOL     OW29026   4.668   4.303  10.741 -0.0298  0.0851  0.5380
 5797SOL    HW129027   0.012   4.339  10.703 -0.1931  0.4066  0.4940
 5797SOL    HW229028   4.706   4.245  10.806 -1.6600 -1.9613 -0.3421
 5798SOL     OW29029   0.575   3.880   1.898  0.3007 -0.2435  0.1780
 5798SOL    HW129030   0.531   3.801   1.930 -0.1971  0.5702  1.5053
 5798SOL    HW229031   0.589   3.925   1.981 -1.9425  0.0791  0.3799
 5799SOL     OW29032   4.075   4.239   8.113  0.9408 -0.1798  0.2088
 5799SOL    HW129033   4.076   4.284   8.197  0.4039  1.6939 -0.8014
 5799SOL    HW229034   3.986   4.265   8.090  0.7435 -0.8707  0.1774
 5800SOL     OW29035   2.514   2.478  10.467 -0.4639  0.3963  0.3277
 5800SOL    HW129036   2.473   2.447  10.548  0.0009 -0.6092  0.1858
 5800SOL    HW229037   2.585   2.533  10.499 -0.3744  0.4320  0.0673
 5801SOL     OW29038   1.325   0.878  13.511 -0.5212  0.2907 -0.1075
 5801SOL    HW129039   1.256   0.879  13.577  0.8172 -1.2166  1.3197
 5801SOL    HW229040   1.300   0.810  13.449 -0.8878  1.5758 -1.3744
 5802SOL     OW29041   0.797   3.413   9.348 -0.0194 -0.3623  0.1700
 5802SOL    HW129042   0.780   3.400   9.442 -0.0756 -1.1306  0.0538
 5802SOL    HW229043   0.707   3.419   9.318  0.0956 -1.8852 -0.4557
 5803SOL     OW29044   0.041   4.224   1.399 -0.5187  0.2166  0.0884
 5803SOL    HW129045   0.111   4.164   1.425 -0.4129 -0.6352 -2.2020
 5803SOL    HW229046   4.733   4.166   1.337  1.8084 -1.1542 -0.2776
 5804SOL     OW29047   0.648   4.314  12.358 -0.6875  0.7443  0.3820
 5804SOL    HW129048   0.644   4.238  12.300 -0.0577 -0.3345  1.7318
 5804SOL    HW229049   0.574   4.287  12.413 -0.5018 -1.8514 -0.6859
 5805SOL     OW29050   1.410   4.559  10.628 -0.3857  0.2257  0.2106
 5805SOL    HW129051   1.409   4.626  10.560  2.9404  0.0860  0.0028
 5805SOL    HW229052   1.467   4.490  10.593  1.5691  1.9188  0.0429
 5806SOL     OW29053   1.160   4.469   3.305  0.1928  0.3997 -0.8426
 5806SOL    HW129054   1.118   4.403   3.251  0.0443 -0.5385  0.4294
 5806SOL    HW229055   1.228   4.425   3.356 -0.1716 -2.7192 -3.0200
 5807SOL     OW29056   2.901   3.263   3.932  0.0121 -0.4209 -0.4296
 5807SOL    HW129057   2.981   3.265   3.880  0.6006  0.1907  0.5057
 5807SOL    HW229058   2.926   3.333   3.993 -1.8282  0.6784 -0.9377
 5808SOL     OW29059   3.125   2.758   4.220 -0.5863  0.0316  0.3222
 5808SOL    HW129060   3.122   2.806   4.303 -2.2168 -0.0127  0.2926
 5808SOL    HW229061   3.097   2.819   4.152 -2.2295 -1.5236 -0.3923
 5809SOL     OW29062   2.524   2.135   8.439 -0.3035  0.2774  0.3097
 5809SOL    HW129063   2.525   2.079   8.361  0.3438  1.5269 -0.5708
 5809SOL    HW229064   2.583   2.089   8.499 -2.7636 -0.4077  2.2028
 5810SOL     OW29065   3.664   0.669   7.503  0.1730 -0.4466  0.1533
 5810SOL    HW129066   3.731   0.630   7.558  0.1556 -0.3534  0.2401
 5810SOL    HW229067   3.601   0.708   7.564  1.5425  0.9235  0.6968
 5811SOL     OW29068   4.361   0.182   0.288  0.2061  0.1538 -0.1680
 5811SOL    HW129069   4.456   0.197   0.286 -0.1319  2.2487 -0.3988
 5811SOL    HW229070   4.326   0.254   0.236 -0.9009  0.0605  0.4674
 5812SOL     OW29071   3.496   1.143   4.297 -0.0427  0.3757  0.4250
 5812SOL    HW129072   3.546   1.091   4.235  0.6095 -0.0023  1.2654
 5812SOL    HW229073   3.411   1.098   4.292  0.4522 -0.4213 -0.8374
 5813SOL     OW29074   0.539   0.914   2.060 -0.1708  0.2059  0.6633
 5813SOL    HW129075   0.607   0.872   2.112  0.6898 -0.9140 -1.3737
 5813SOL    HW229076   0.516   0.989   2.116  0.7073 -1.0892  2.7315
 5814SOL     OW29077   4.348   4.608  10.175  0.1516 -0.5542  0.0749
 5814SOL    HW129078   4.299   4.669  10.232  1.1481  0.0528  0.2928
 5814SOL    HW229079   4.430   4.657  10.173  0.7848 -1.7046 -1.8968
 5815SOL     OW29080   1.588   3.039   2.421 -0.2532 -0.0698  0.1585
 5815SOL    HW129081   1.548   3.061   2.337  1.2805 -1.4218 -0.8975
 5815SOL    HW229082   1.678   3.012   2.405 -0.0722  0.9614 -0.5841
 5816SOL     OW29083   2.438   1.550   3.363 -0.3094  0.1719 -0.5077
 5816SOL    HW129084   2.498   1.604   3.413 -1.6510  1.0374  0.1677
 5816SOL    HW229085   2.473   1.464   3.387  2.1086  1.7807  1.6994
 5817SOL     OW29086   1.283   1.043   4.886  0.3361 -0.1819 -0.0936
 5817SOL    HW129087   1.254   1.101   4.956  0.3112  1.7625 -1.7252
 5817SOL    HW229088   1.358   1.013   4.938  0.7585  1.9060  0.5027
 5818SOL     OW29089   2.248   3.895   3.908  0.4125  0.0010 -0.0946
 5818SOL    HW129090   2.273   3.804   3.898  1.3084  0.2199  0.1272
 5818SOL    HW229091   2.332   3.939   3.895  1.1977 -1.3023  0.6051
 5819SOL     OW29092   2.792   1.162   0.893 -0.2436  0.0317  0.1339
 5819SOL    HW129093   2.781   1.211   0.811  1.2235 -2.2447 -1.4056
 5819SOL    HW229094   2.856   1.210   0.946  0.0499  0.1581 -0.3361
 5820SOL     OW29095   0.087   0.413   8.651  0.4913 -0.5091 -0.5723
 5820SOL    HW129096   0.164   0.438   8.599 -1.1300  1.7282 -1.8964
 5820SOL    HW229097   0.134   0.357   8.713 -0.5437 -1.7841 -0.9344
 5821SOL     OW29098   2.450   1.211   5.715  0.2064  0.7157 -0.0637
 5821SOL    HW129099   2.531   1.183   5.756  0.8583  1.9378 -0.5198
 5821SOL    HW229100   2.455   1.306   5.704 -0.3445  0.6204 -1.0916
 5822SOL     OW29101   1.419   0.499   3.778  0.1670  0.5232  0.1037
 5822SOL    HW129102   1.338   0.454   3.804  0.1477 -0.0212 -0.9169
 5822SOL    HW229103   1.416   0.575   3.836 -1.0382 -2.1100  3.5374
 5823SOL     OW29104   0.392   1.736  11.191 -0.3736 -0.2080  0.0042
 5823SOL    HW129105   0.382   1.775  11.278  0.3219  0.7240 -0.3351
 5823SOL    HW229106   0.440   1.656  11.211 -0.6112 -0.3108  0.1650
 5824SOL     OW29107   0.340   4.306   7.301  0.5046  0.1867  0.9795
 5824SOL    HW129108   0.361   4.235   7.241  1.2064 -0.4664  2.0077
 5824SOL    HW229109   0.276   4.357   7.251 -0.2859 -0.3687  1.4233
 5825SOL     OW29110   2.508   4.558   3.351 -0.1716  0.5049 -0.5936
 5825SOL    HW129111   2.507   4.626   3.284  2.3548 -0.4780 -1.6311
 5825SOL    HW229112   2.524   4.485   3.290 -1.0610 -0.7907  0.7240
 5826SOL     OW29113   4.004   1.104   1.415  0.5072  1.0629 -0.1318
 5826SOL    HW129114   4.081   1.119   1.470  1.7841  0.3017 -1.7239
 5826SOL    HW229115   4.032   1.114   1.324 -0.4178  0.7327 -0.4465
 5827SOL     OW29116   3.024   1.397   1.192  0.4559  0.6197  0.3529
 5827SOL    HW129117   2.994   1.339   1.122  1.0338  0.4400  0.2572
 5827SOL    HW229118   3.042   1.327   1.254 -1.1003  0.1843  0.3214
 5828SOL     OW29119   3.400   3.369   1.784  0.2542 -0.1916 -0.1533
 5828SOL    HW129120   3.409   3.463   1.801  0.9638 -0.4587  0.9128
 5828SOL    HW229121   3.357   3.363   1.699  0.5958  1.3028 -0.4302
 5829SOL     OW29122   3.542   2.151   4.959  0.1444 -0.4644 -0.4657
 5829SOL    HW129123   3.543   2.207   5.037  0.1831 -1.5050  0.2888
 5829SOL    HW229124   3.479   2.204   4.912  0.1363  0.8242  1.0138
 5830SOL     OW29125   0.625   3.498   6.815 -0.3642 -0.2254  0.1133
 5830SOL    HW129126   0.644   3.428   6.754 -0.0880  0.1921 -0.2792
 5830SOL    HW229127   0.601   3.576   6.765  1.3129 -0.6555 -1.3321
 5831SOL     OW29128   0.812   4.678   0.468  0.4746  0.2997 -0.1274
 5831SOL    HW129129   0.756   4.719   0.534  0.8002  0.0236  0.3207
 5831SOL    HW229130   0.897   4.675   0.512  0.8806  0.3498 -0.9160
 5832SOL     OW29131   2.193   0.756  16.291  0.3781  0.2300  0.1963
 5832SOL    HW129132   2.194   0.707  16.209 -0.7138  3.0160 -1.4554
 5832SOL    HW229133   2.202   0.681  16.351  1.3038 -0.7789 -1.2117
 5833SOL     OW29134   1.892   2.879   3.625  0.2957  0.4952  0.0979
 5833SOL    HW129135   1.876   2.965   3.587 -0.9226 -1.2814 -3.4625
 5833SOL    HW229136   1.986   2.887   3.644  0.2408  1.0286  0.1335
 5834SOL     OW29137   2.199   2.863  13.548  0.1569 -0.2023  0.0815
 5834SOL    HW129138   2.163   2.876  13.636 -0.7483 -2.3378  0.0197
 5834SOL    HW229139   2.256   2.940  13.549 -1.7978  1.2523  0.5003
 5835SOL     OW29140   0.951   1.920  17.601 -0.1651  0.0885 -0.2143
 5835SOL    HW129141   0.907   1.943  17.519 -1.1746 -0.6098  0.1275
 5835SOL    HW229142   0.962   2.005  17.644  0.5692  0.4535 -1.1292
 5836SOL     OW29143   2.723   1.986   8.638  0.0727 -0.5134  0.5195
 5836SOL    HW129144   2.776   1.953   8.710  0.9049  0.0048  0.1461
 5836SOL    HW229145   2.754   2.076   8.632 -1.0280 -0.2717 -1.7091
 5837SOL     OW29146   2.044   0.790   4.421  0.1064 -0.5467  0.2379
 5837SOL    HW129147   2.015   0.776   4.331 -0.7410  0.2727  0.3908
 5837SOL    HW229148   2.005   0.871   4.453 -0.6046  0.3646 -2.9784
 5838SOL     OW29149   4.689   1.606   7.531  0.1800 -0.3086  0.1025
 5838SOL    HW129150   4.727   1.589   7.617  0.1019  0.0626  0.2081
 5838SOL    HW229151   4.598   1.626   7.555 -0.3286 -0.9103 -1.3390
 5839SOL     OW29152   3.820   4.327   8.096  0.1834  0.0172 -0.6944
 5839SOL    HW129153   3.773   4.280   8.028  0.9168 -1.0890 -0.4269
 5839SOL    HW229154   3.822   4.415   8.059 -1.0988  0.5531  0.4827
 5840SOL     OW29155   1.614   0.935   9.287 -0.2982  0.0729  0.2006
 5840SOL    HW129156   1.557   1.010   9.269  0.6587  0.3076 -1.8237
 5840SOL    HW229157   1.586   0.926   9.378 -0.6673  0.9689  0.1759
 5841SOL     OW29158   3.158   2.816   7.346 -0.1172  0.1306  0.4625
 5841SOL    HW129159   3.181   2.888   7.405 -1.9166  0.4433  0.7668
 5841SOL    HW229160   3.095   2.863   7.291  0.1406 -0.3763 -0.2697
 5842SOL     OW29161   3.480   0.631   2.697 -0.2103  0.3588 -0.1579
 5842SOL    HW129162   3.447   0.571   2.763  2.2702 -1.3455 -0.4533
 5842SOL    HW229163   3.481   0.714   2.745 -0.0718  0.4524 -0.3200
 5843SOL     OW29164   0.547   1.424   8.565  0.3171 -0.0647 -0.3108
 5843SOL    HW129165   0.605   1.358   8.526  1.3992 -0.8301  2.6490
 5843SOL    HW229166   0.460   1.385   8.554  0.0090  0.4814  0.2303
 5844SOL     OW29167   0.788   2.242   1.589  0.1429  0.8066 -0.1986
 5844SOL    HW129168   0.815   2.157   1.554 -1.4378 -0.0921  0.7617
 5844SOL    HW229169   0.838   2.296   1.527  0.4571  0.5056 -0.2061
 5845SOL     OW29170   1.049   4.199   3.787 -0.2534  0.4942 -0.2382
 5845SOL    HW129171   0.997   4.227   3.712 -2.2570  0.5421  1.1629
 5845SOL    HW229172   1.131   4.174   3.745 -0.8988 -2.4843  0.2589
 5846SOL     OW29173   4.644   2.594   7.696  0.6242 -0.0126  0.0030
 5846SOL    HW129174   4.736   2.582   7.671  0.5976 -0.9018  0.3194
 5846SOL    HW229175   4.646   2.608   7.791  2.8443  2.8317 -0.4848
 5847SOL     OW29176   1.805   4.020   6.829  0.2020  0.0103 -0.1667
 5847SOL    HW129177   1.864   3.971   6.886  0.6724  0.5086 -0.2291
 5847SOL    HW229178   1.762   4.075   6.895 -1.4973  1.4818 -2.4962
 5848SOL     OW29179   1.899   1.332   8.667  0.3112  0.4890  0.4633
 5848SOL    HW129180   1.899   1.287   8.752  1.1030 -0.8576 -0.2410
 5848SOL    HW229181   1.981   1.380   8.676  1.2461 -1.0199 -0.0090
 5849SOL     OW29182   0.772   3.233  17.545 -0.2677  0.0427  0.8589
 5849SOL    HW129183   0.829   3.258  17.473  1.8846 -0.3252  2.4147
 5849SOL    HW229184   0.746   3.319  17.578  0.2127  0.1378  0.9995
 5850SOL     OW29185   0.319   3.194   3.957 -0.1147  0.2166  0.2109
 5850SOL    HW129186   0.262   3.270   3.947 -1.8514 -0.9806  0.8979
 5850SOL    HW229187   0.260   3.135   4.004 -0.6907  1.1058  0.5993
 5851SOL     OW29188   4.184   3.962   3.482  0.3939  0.3042  0.4054
 5851SOL    HW129189   4.200   3.924   3.568  3.3223 -0.8753 -0.6668
 5851SOL    HW229190   4.118   3.903   3.447  0.0965  1.2722 -0.6926
 5852SOL     OW29191   4.239   1.169   3.780 -0.0420 -0.5268 -0.0467
 5852SOL    HW129192   4.177   1.242   3.781 -2.6950 -2.7996  1.5897
 5852SOL    HW229193   4.274   1.167   3.868  2.6975 -0.6504 -1.1543
 5853SOL     OW29194   1.492   2.626  15.799 -0.5279 -0.3627  0.2082
 5853SOL    HW129195   1.547   2.656  15.727  0.5773 -1.1112  0.7336
 5853SOL    HW229196   1.408   2.606  15.757 -1.2310  0.7532  1.0889
 5854SOL     OW29197   2.654   3.587   0.683 -0.0996 -0.0925 -0.1695
 5854SOL    HW129198   2.718   3.520   0.702 -2.6221 -2.4200  0.1447
 5854SOL    HW229199   2.630   3.607   0.774  1.6455 -1.5197  0.5850
 5855SOL     OW29200   1.932   4.502   4.765  0.1089  0.7655 -0.4617
 5855SOL    HW129201   1.902   4.467   4.681 -0.0581  1.5462 -0.7269
 5855SOL    HW229202   1.864   4.562   4.796 -0.7675 -0.3952 -0.1004
 5856SOL     OW29203   4.567   4.223   4.366  0.0133 -0.1627 -0.2573
 5856SOL    HW129204   4.502   4.244   4.433  1.1435 -0.4153  0.9151
 5856SOL    HW229205   4.653   4.233   4.407 -0.9430  1.0727  1.3873
 5857SOL     OW29206   1.733   1.242  10.497 -0.2039  0.4412 -0.3188
 5857SOL    HW129207   1.795   1.278  10.434 -0.0796 -0.7338 -0.8663
 5857SOL    HW229208   1.655   1.234  10.442  0.8895  2.8006 -2.2189
 5858SOL     OW29209   0.402   0.574   9.702  0.1838 -0.3731  0.3047
 5858SOL    HW129210   0.419   0.546   9.612 -1.2256 -0.7656  0.1599
 5858SOL    HW229211   0.447   0.517   9.764  2.0521 -2.5775 -3.1109
 5859SOL     OW29212   4.333   1.840   4.853  0.6010 -0.3055 -0.4787
 5859SOL    HW129213   4.339   1.761   4.905 -1.3154  1.6459  2.7038
 5859SOL    HW229214   4.291   1.812   4.772  2.4447  1.5271 -2.0718
 5860SOL     OW29215   0.859   2.325   8.052 -0.1056  0.4382  0.0336
 5860SOL    HW129216   0.786   2.314   7.991 -0.0003  2.2986 -0.4114
 5860SOL    HW229217   0.928   2.273   8.011  1.3718  2.3652  0.0960
 5861SOL     OW29218   2.564   4.329   7.437 -0.1426 -0.7062 -0.0016
 5861SOL    HW129219   2.487   4.385   7.428  0.7933  0.4163 -1.0368
 5861SOL    HW229220   2.534   4.255   7.385  1.8675 -0.4468 -1.5136
 5862SOL     OW29221   3.054   0.602  15.837 -0.2798  0.1337  0.5056
 5862SOL    HW129222   2.967   0.571  15.812 -0.1187  0.4284 -0.3866
 5862SOL    HW229223   3.059   0.689  15.798  1.5867 -0.3773 -0.3798
 5863SOL     OW29224   2.845   2.348  16.300  0.2523 -0.5655  0.1281
 5863SOL    HW129225   2.795   2.401  16.238 -0.7585 -1.1275  0.4625
 5863SOL    HW229226   2.917   2.315  16.247 -0.2666  0.9302 -1.4968
 5864SOL     OW29227   4.227   3.552   7.713 -0.5264  0.0573  0.0598
 5864SOL    HW129228   4.219   3.595   7.798 -0.0774  0.2935 -0.0163
 5864SOL    HW229229   4.268   3.624   7.665 -1.8819  0.0781 -1.0827
 5865SOL     OW29230   4.514   0.533   3.955  0.0340 -0.4227 -0.3761
 5865SOL    HW129231   4.574   0.580   4.013 -1.5962  0.7301  0.3628
 5865SOL    HW229232   4.535   0.448   3.995 -0.9236  0.3665  1.8163
 5866SOL     OW29233   0.937   3.136   1.822  0.2771  0.4480  0.6986
 5866SOL    HW129234   1.006   3.078   1.854 -0.9655 -1.3242  0.1483
 5866SOL    HW229235   0.975   3.215   1.784  1.9660 -0.3959  0.6569
 5867SOL     OW29236   3.010   0.731   2.726  0.0878 -0.2118 -0.1524
 5867SOL    HW129237   2.963   0.765   2.802  2.4423  0.1447  1.1323
 5867SOL    HW229238   3.012   0.813   2.677 -0.9568 -0.3086 -0.3678
 5868SOL     OW29239   1.652   4.236   3.294 -0.6602  0.4801  0.3442
 5868SOL    HW129240   1.718   4.253   3.361 -0.9395  0.8590  0.5203
 5868SOL    HW229241   1.678   4.156   3.249  0.6379  1.5420 -0.7972
 5869SOL     OW29242   0.906   4.221   6.734 -0.3267  0.6077  0.4497
 5869SOL    HW129243   0.843   4.201   6.665  0.6790  0.8655 -0.5502
 5869SOL    HW229244   0.885   4.312   6.757 -1.0387 -0.0085  2.2101
 5870SOL     OW29245   2.904   2.340  10.908 -0.5668  0.1925  0.2241
 5870SOL    HW129246   2.908   2.426  10.949 -0.7150 -0.0233  0.7020
 5870SOL    HW229247   2.945   2.359  10.824  2.0607 -0.4549  1.3480
 5871SOL     OW29248   3.424   4.654  13.309  0.4376 -0.1372  0.4873
 5871SOL    HW129249   3.425   4.639  13.404  0.4264  0.4540  0.5819
 5871SOL    HW229250   3.516   4.636  13.293  0.3184  1.1863 -1.6365
 5872SOL     OW29251   2.225   2.936   4.876 -0.1410 -0.2317  0.2247
 5872SOL    HW129252   2.235   3.021   4.919 -0.8511 -0.2141  0.3586
 5872SOL    HW229253   2.252   2.871   4.941  0.5695 -0.0243  0.1440
 5873SOL     OW29254   0.230   2.144  11.766 -0.6112  0.1588 -0.5113
 5873SOL    HW129255   0.174   2.071  11.739  1.0207 -0.0739 -3.2538
 5873SOL    HW229256   0.168   2.203  11.809  0.4939  0.5776  0.5473
 5874SOL     OW29257   0.555   4.436   7.377  0.3094  0.1060  0.0680
 5874SOL    HW129258   0.486   4.374   7.353  1.3114 -0.9771  0.0321
 5874SOL    HW229259   0.548   4.489   7.297  1.7164  0.1775 -0.0073
 5875SOL     OW29260   0.877   2.901  17.412 -0.0178  0.0206 -0.2029
 5875SOL    HW129261   0.888   2.963  17.341 -0.3937  0.4932  0.1489
 5875SOL    HW229262   0.914   2.823  17.372  2.8949  1.6213 -0.5633
 5876SOL     OW29263   2.148   3.914   8.534  0.2668  0.0024  0.2109
 5876SOL    HW129264   2.231   3.874   8.559 -0.4277  0.0948  2.6581
 5876SOL    HW229265   2.165   4.008   8.537 -0.5430  0.1127  1.2069
 5877SOL     OW29266   3.641   3.657   8.985 -0.2051 -0.4304  0.4763
 5877SOL    HW129267   3.581   3.633   8.914  1.0152  1.7966 -1.3192
 5877SOL    HW229268   3.647   3.752   8.971 -1.2323 -0.1808  1.7297
 5878SOL     OW29269   3.367   0.505  10.546 -0.1368  0.2007 -0.0100
 5878SOL    HW129270   3.407   0.528  10.630  0.8503 -0.3356 -0.3315
 5878SOL    HW229271   3.377   0.409  10.548  1.7011  0.3816 -0.6281
 5879SOL     OW29272   2.365   3.019   0.279 -0.2403 -0.1228 -0.2608
 5879SOL    HW129273   2.289   3.031   0.222 -2.0406 -0.4101  2.0488
 5879SOL    HW229274   2.330   2.958   0.344  0.8359 -0.3800  0.0769
 5880SOL     OW29275   1.490   2.854  14.936 -0.1415  0.3184  0.8299
 5880SOL    HW129276   1.561   2.915  14.919 -0.9141  1.1021  0.3971
 5880SOL    HW229277   1.419   2.917  14.951 -0.4743 -0.1123  1.0693
 5881SOL     OW29278   2.375   2.971   8.979  0.6909  0.3165 -0.4675
 5881SOL    HW129279   2.378   2.903   9.045 -0.4732  0.0527 -0.6721
 5881SOL    HW229280   2.287   3.002   9.004  1.0082  0.2781  0.6518
 5882SOL     OW29281   3.951   1.685   6.043  0.2464 -0.3892 -0.6060
 5882SOL    HW129282   3.903   1.733   5.976 -2.3517 -0.5844  1.1058
 5882SOL    HW229283   4.009   1.754   6.075  0.7705 -0.4329 -1.4610
 5883SOL     OW29284   1.544   2.669   0.876 -0.0468  0.6493 -0.2612
 5883SOL    HW129285   1.465   2.685   0.824 -0.3653 -0.4759 -0.1275
 5883SOL    HW229286   1.585   2.755   0.876  3.3410 -0.9305 -0.8027
 5884SOL     OW29287   2.537   3.604  14.391  0.2238 -0.2583  0.2175
 5884SOL    HW129288   2.614   3.580  14.339 -0.1155 -0.7899 -0.0425
 5884SOL    HW229289   2.467   3.584  14.330 -0.0279 -2.0301  1.0634
 5885SOL     OW29290   4.009   0.629  13.141 -0.8000  0.3055 -0.3232
 5885SOL    HW129291   3.929   0.665  13.101 -1.9648  0.4741  2.1626
 5885SOL    HW229292   4.048   0.576  13.071 -2.0292  0.5584 -1.2031
 5886SOL     OW29293   1.510   4.234   7.684  0.6892  0.0857  0.4924
 5886SOL    HW129294   1.587   4.214   7.737  0.3596 -1.9097  0.2200
 5886SOL    HW229295   1.506   4.327   7.707 -0.4311 -0.4929  2.6297
 5887SOL     OW29296   0.784   4.729   7.663  0.2941 -0.0047  0.1713
 5887SOL    HW129297   0.717   0.007   7.595 -0.0590  0.7204  0.6709
 5887SOL    HW229298   0.748   4.648   7.698  0.4651  0.2532  0.9309
 5888SOL     OW29299   3.747   4.253   1.903 -0.0034 -0.3250 -0.2146
 5888SOL    HW129300   3.742   4.338   1.859  0.7474 -1.0589 -1.7369
 5888SOL    HW229301   3.663   4.209   1.894  1.1065 -1.7304 -3.6924
 5889SOL     OW29302   1.434   4.625   9.183 -0.1342 -0.8825  0.1696
 5889SOL    HW129303   1.425   4.538   9.143  0.2146 -0.6428 -0.4323
 5889SOL    HW229304   1.527   4.644   9.170 -0.5607 -0.0504 -1.7534
 5890SOL     OW29305   2.185   2.122   2.133  0.3832 -0.0669 -0.2071
 5890SOL    HW129306   2.164   2.055   2.197  0.3704 -0.2572 -0.4108
 5890SOL    HW229307   2.276   2.141   2.157 -0.3557  1.4433  1.4556
 5891SOL     OW29308   2.863   3.229  13.149 -0.6621 -0.2983 -0.0044
 5891SOL    HW129309   2.882   3.175  13.073  2.3287 -1.4980  1.5980
 5891SOL    HW229310   2.778   3.273  13.145 -1.3486 -1.5994  0.1818
 5892SOL     OW29311   0.058   0.774  13.423 -0.3699 -0.0275  0.2923
 5892SOL    HW129312   0.077   0.763  13.330  0.6147  0.7788  0.3995
 5892SOL    HW229313   4.725   0.709  13.438  0.6633 -0.8623  1.4849
 5893SOL     OW29314   4.189   4.586  12.537  0.0287  0.2063  0.9004
 5893SOL    HW129315   4.130   4.513  12.558  3.5502 -2.7902  0.5268
 5893SOL    HW229316   4.240   4.598  12.618  1.4651 -0.7160  0.1467
 5894SOL     OW29317   0.937   2.909   5.414 -0.7231 -0.3856  0.2989
 5894SOL    HW129318   0.911   2.828   5.369  1.2299 -1.1371  0.5295
 5894SOL    HW229319   0.861   2.967   5.402 -1.6283 -1.6760 -0.1835
 5895SOL     OW29320   3.002   1.801   5.814  0.1818 -0.2359  0.6098
 5895SOL    HW129321   2.954   1.729   5.854  0.3030 -0.0729  1.0438
 5895SOL    HW229322   3.058   1.834   5.885 -2.0743  0.8873  1.8655
 5896SOL     OW29323   1.020   0.154   0.555 -0.3074  0.1389  0.2530
 5896SOL    HW129324   1.035   0.204   0.636  0.9253 -0.9163  0.6653
 5896SOL    HW229325   1.006   0.065   0.588  1.2187  0.3752  1.5666
 5897SOL     OW29326   4.481   0.381  13.704  0.1700 -0.2996  0.1421
 5897SOL    HW129327   4.409   0.325  13.677 -0.9284  0.9825  0.4518
 5897SOL    HW229328   4.525   0.333  13.774 -0.7627 -0.0899  0.8683
 5898SOL     OW29329   4.609   3.766   3.060 -0.0936 -0.3868  0.1577
 5898SOL    HW129330   4.647   3.844   3.100 -1.6075 -0.1102  1.0226
 5898SOL    HW229331   4.639   3.773   2.969 -1.4665 -0.4374 -0.2996
 5899SOL     OW29332   4.503   3.241   5.616  0.3402 -0.0543 -0.1089
 5899SOL    HW129333   4.448   3.170   5.582 -0.2243  1.3074 -2.0326
 5899SOL    HW229334   4.515   3.210   5.705 -2.1867 -0.4921  0.0594
 5900SOL     OW29335   2.314   0.782   4.509 -0.0385  0.3809 -0.3493
 5900SOL    HW129336   2.219   0.775   4.520  0.0595  0.4677  0.5056
 5900SOL    HW229337   2.330   0.733   4.428  3.1369 -1.4701  1.4198
 5901SOL     OW29338   2.874   2.847   5.070  0.1522  0.3165 -0.3562
 5901SOL    HW129339   2.837   2.759   5.067 -1.2149  0.9007 -0.5383
 5901SOL    HW229340   2.795   2.884   5.111  0.8570  0.8813  0.5078
 5902SOL     OW29341   4.309   4.350   0.995  0.1841 -0.1784 -0.4372
 5902SOL    HW129342   4.321   4.385   1.083 -0.7341  0.6652 -0.6531
 5902SOL    HW229343   4.275   4.427   0.949 -0.7534  1.0477  2.3257
 5903SOL     OW29344   0.790   3.595  15.355 -0.4971 -0.1105  0.1307
 5903SOL    HW129345   0.773   3.615  15.263  0.5074  0.3006  0.0407
 5903SOL    HW229346   0.856   3.525  15.359 -0.4315 -0.0319  0.3720
 5904SOL     OW29347   0.149   1.445  11.681  0.2029  0.1735 -0.1461
 5904SOL    HW129348   0.123   1.522  11.631 -3.2586 -1.0885 -0.3274
 5904SOL    HW229349   0.158   1.469  11.773  2.5097 -0.3593 -0.2394
 5905SOL     OW29350   0.082   1.976   1.237  0.1187  0.4305 -0.3916
 5905SOL    HW129351   0.042   1.984   1.324 -0.4730  1.1412 -0.7207
 5905SOL    HW229352   0.158   1.926   1.264  0.4044  1.7528  1.2185
 5906SOL     OW29353   3.992   1.798  17.213  0.5067  0.0340 -0.0408
 5906SOL    HW129354   3.963   1.721  17.164 -0.6231  0.2625  0.2590
 5906SOL    HW229355   3.914   1.854  17.203  1.3975  1.1419 -0.8557
 5907SOL     OW29356   2.564   0.475   9.124 -0.7184 -0.5465  0.0655
 5907SOL    HW129357   2.481   0.507   9.088  0.8847  1.2624 -2.0609
 5907SOL    HW229358   2.557   0.485   9.219 -0.3384  1.2869 -0.0895
 5908SOL     OW29359   3.259   1.250   3.338  0.5633  0.3691  0.5627
 5908SOL    HW129360   3.341   1.295   3.361  0.3749  0.2237  1.5307
 5908SOL    HW229361   3.280   1.206   3.255 -0.0006 -1.7392  1.5448
 5909SOL     OW29362   4.245   1.697   8.772 -0.4752  0.1252 -0.7077
 5909SOL    HW129363   4.194   1.775   8.793 -2.2271 -0.8354 -1.3632
 5909SOL    HW229364   4.176   1.637   8.803 -0.2649 -1.0315 -2.4582
 5910SOL     OW29365   1.796   0.772  13.204  0.0591 -0.1144  0.3245
 5910SOL    HW129366   1.782   0.866  13.214 -2.5807 -0.6976  2.0302
 5910SOL    HW229367   1.722   0.747  13.148  1.5330 -3.8743  0.0504
 5911SOL     OW29368   0.791   1.456   3.622  0.0800  0.3644 -0.1559
 5911SOL    HW129369   0.755   1.428   3.538 -1.2626  3.7349 -0.6882
 5911SOL    HW229370   0.781   1.377   3.675 -0.5504 -0.1124 -1.0019
 5912SOL     OW29371   3.297   0.630   4.607 -0.0010 -0.1799 -0.3606
 5912SOL    HW129372   3.386   0.645   4.574  0.2615 -1.8694 -0.4395
 5912SOL    HW229373   3.270   0.708   4.655  1.5645  0.1037  0.0564
 5913SOL     OW29374   2.040   3.809  12.780 -0.3030  0.2476  0.0435
 5913SOL    HW129375   1.971   3.874  12.764 -0.5073  0.2358  0.9006
 5913SOL    HW229376   2.066   3.793  12.689 -1.2538  1.4024 -0.4458
 5914SOL     OW29377   4.579   0.919  13.562  0.1619  0.1996  0.3775
 5914SOL    HW129378   4.608   0.829  13.556  0.2094  0.1620  1.1898
 5914SOL    HW229379   4.522   0.920  13.639 -0.1776 -0.0961  0.1298
 5915SOL     OW29380   1.532   0.950   2.471  0.3098 -0.0916 -0.9409
 5915SOL    HW129381   1.477   1.000   2.410  0.1493  0.1197 -0.6236
 5915SOL    HW229382   1.614   0.995   2.453  0.7002  0.6882  2.9577
 5916SOL     OW29383   3.050   0.464  10.971 -0.3058  0.1720  0.9717
 5916SOL    HW129384   3.081   0.551  10.994  1.5234 -0.1941 -0.1811
 5916SOL    HW229385   3.037   0.470  10.877 -1.0046 -2.9952  0.8615
 5917SOL     OW29386   3.710   0.829   1.282 -0.5116  0.0229 -0.2019
 5917SOL    HW129387   3.759   0.844   1.201 -2.3225 -1.6142 -1.6109
 5917SOL    HW229388   3.670   0.747   1.255  0.6001 -0.3295 -0.7903
 5918SOL     OW29389   0.504   2.017  17.415  0.2155 -0.0083 -0.0757
 5918SOL    HW129390   0.517   1.952  17.483  0.2193 -1.6273 -1.6212
 5918SOL    HW229391   0.418   2.055  17.433  0.2339 -0.2892  0.5789
 5919SOL     OW29392   1.181   4.500   7.888 -0.3860  0.2063 -0.4612
 5919SOL    HW129393   1.129   4.543   7.820 -0.0070 -0.4284 -1.1434
 5919SOL    HW229394   1.171   4.411   7.854 -2.1274 -0.3459  1.4679
 5920SOL     OW29395   4.360   4.230   1.938 -1.0478 -0.1783  0.1692
 5920SOL    HW129396   4.265   4.244   1.937 -1.0773 -0.3214  0.7217
 5920SOL    HW229397   4.395   4.303   1.989  0.6738 -0.7252 -0.2315
 5921SOL     OW29398   1.419   2.327   9.129  0.3548  0.7884  0.0414
 5921SOL    HW129399   1.489   2.389   9.109  0.8875  0.6872  1.5999
 5921SOL    HW229400   1.437   2.261   9.062  0.4943  3.9145 -2.9909
 5922SOL     OW29401   4.478   0.664   3.288 -0.0227 -0.2363  0.4661
 5922SOL    HW129402   4.454   0.713   3.209  2.0299 -0.0787 -0.0381
 5922SOL    HW229403   4.450   0.720   3.360  0.1075  1.2663 -0.6527
 5923SOL     OW29404   3.079   0.427   2.298  0.0657 -0.2465 -0.5187
 5923SOL    HW129405   3.137   0.382   2.359 -0.4611  0.6148  0.6137
 5923SOL    HW229406   2.992   0.401   2.330  0.3107  0.3378  0.6080
 5924SOL     OW29407   0.924   0.931  16.219 -0.4970  0.1611  0.1119
 5924SOL    HW129408   0.908   0.970  16.305  2.1864 -0.5450  0.9126
 5924SOL    HW229409   1.009   0.893  16.239 -0.7485 -0.9819 -1.0099
 5925SOL     OW29410   0.608   0.155  17.167 -0.5416 -1.0635  0.2649
 5925SOL    HW129411   0.587   0.235  17.119 -1.6035 -0.4367  1.7653
 5925SOL    HW229412   0.551   0.094  17.120  1.9649 -1.1412 -2.6493
 5926SOL     OW29413   4.170   4.113  10.354  0.2468  0.3757 -0.0145
 5926SOL    HW129414   4.206   4.061  10.425  2.1124 -0.5047 -1.5786
 5926SOL    HW229415   4.201   4.203  10.367 -0.4864  0.5876  0.2324
 5927SOL     OW29416   4.097   2.547   3.272 -0.5189  0.1785 -0.3116
 5927SOL    HW129417   4.072   2.628   3.315  1.8224  0.3885  0.6726
 5927SOL    HW229418   4.191   2.557   3.255 -0.1775 -1.0619  0.8394
 5928SOL     OW29419   2.618   4.725   1.324 -0.5838 -0.4490  0.5820
 5928SOL    HW129420   2.553   4.658   1.303 -0.8820  0.1139 -0.3282
 5928SOL    HW229421   2.602   0.051   1.253 -0.4712 -0.7450  0.2948
 5929SOL     OW29422   2.106   2.343   8.700  0.1193 -0.0453 -0.2343
 5929SOL    HW129423   2.195   2.310   8.689 -0.5395 -1.1430 -2.2894
 5929SOL    HW229424   2.060   2.267   8.737  2.3836 -0.5824  1.4788
 5930SOL     OW29425   2.648   0.493   6.118 -0.6591 -0.1417 -0.1845
 5930SOL    HW129426   2.726   0.459   6.162  0.3325  0.5081 -1.4413
 5930SOL    HW229427   2.687   0.539   6.044 -1.1049  0.3786 -0.0946
 5931SOL     OW29428   3.624   1.882   6.029  0.0604 -0.0776 -0.0984
 5931SOL    HW129429   3.685   1.925   6.088  0.4055  0.7508 -1.0650
 5931SOL    HW229430   3.568   1.953   5.999 -1.1795 -0.8404  0.4333
 5932SOL     OW29431   3.169   2.406   7.603  0.6887  0.0679  0.0862
 5932SOL    HW129432   3.251   2.449   7.627  0.6787 -1.7979  3.4774
 5932SOL    HW229433   3.113   2.475   7.568  3.1809  2.3245  0.5219
 5933SOL     OW29434   1.892   0.388   3.619  0.7030  0.1245 -0.7380
 5933SOL    HW129435   1.798   0.407   3.624  0.7925  0.6263 -0.9700
 5933SOL    HW229436   1.884   0.293   3.621  4.5755 -0.2071 -1.0261
 5934SOL     OW29437   2.996   2.271   6.245 -0.6405 -0.0890  0.2143
 5934SOL    HW129438   3.078   2.247   6.288 -0.9381 -0.4119  0.6007
 5934SOL    HW229439   3.014   2.238   6.157 -0.4467  1.8235 -0.4604
 5935SOL     OW29440   3.603   2.749   3.327 -0.0313 -0.2880  0.0168
 5935SOL    HW129441   3.544   2.702   3.268  0.5543 -2.2913  1.0057
 5935SOL    HW229442   3.547   2.803   3.384  0.2965  0.5467 -0.4605
 5936SOL     OW29443   1.631   4.345   2.105  0.2730 -0.1312  0.1503
 5936SOL    HW129444   1.715   4.386   2.084 -0.5576  2.6108  2.2021
 5936SOL    HW229445   1.621   4.378   2.194 -1.4319  0.7212 -0.3608
 5937SOL     OW29446   4.350   2.951   1.111  0.4120 -0.6178 -0.0602
 5937SOL    HW129447   4.313   3.039   1.112  1.4300 -0.2015  1.1332
 5937SOL    HW229448   4.417   2.966   1.178 -2.4799 -1.0856  2.9442
 5938SOL     OW29449   0.686   3.950  15.305  0.0386 -0.7166  0.1862
 5938SOL    HW129450   0.681   3.920  15.395 -0.7350  0.4067  0.5066
 5938SOL    HW229451   0.746   4.024  15.309  0.3034 -0.8249 -1.4589
 5939SOL     OW29452   2.113   3.214   4.005 -0.2867  0.2944  0.3862
 5939SOL    HW129453   2.020   3.223   3.983  0.0767  0.0699 -1.2372
 5939SOL    HW229454   2.113   3.238   4.097  3.9772  1.3650  0.1136
 5940SOL     OW29455   2.457   3.325   7.850  0.6239  0.0863 -0.2243
 5940SOL    HW129456   2.495   3.383   7.784  1.2375  0.6511  0.6354
 5940SOL    HW229457   2.425   3.248   7.802  3.5224 -0.8511 -0.6288
 5941SOL     OW29458   1.181   0.593   8.672 -0.0602  0.1511 -0.4367
 5941SOL    HW129459   1.103   0.543   8.648 -0.7698 -0.1416  2.4668
 5941SOL    HW229460   1.141   0.679   8.658  1.4710  1.0129  0.4447
 5942SOL     OW29461   3.278   4.129   7.986  0.0143  0.1810 -0.4599
 5942SOL    HW129462   3.350   4.136   7.923 -0.6889 -1.3370 -1.4265
 5942SOL    HW229463   3.228   4.205   7.956  1.1398  0.1421 -2.4267
 5943SOL     OW29464   3.214   2.641   9.621 -0.1464  0.2283  0.4423
 5943SOL    HW129465   3.160   2.710   9.660 -0.1182 -1.6062  3.6611
 5943SOL    HW229466   3.156   2.574   9.657 -0.6121  0.0449 -0.6302
 5944SOL     OW29467   2.094   0.506   1.812 -0.8004 -0.1450 -0.0029
 5944SOL    HW129468   2.189   0.503   1.821 -0.6875  2.5703 -0.2705
 5944SOL    HW229469   2.073   0.540   1.899 -0.1456 -2.3341  1.0027
 5945SOL     OW29470   4.066   1.926  15.992 -0.2111  0.3966 -0.1039
 5945SOL    HW129471   4.130   1.863  16.026 -0.7953 -1.1835 -1.9530
 5945SOL    HW229472   3.984   1.890  16.026 -0.1881  0.1574 -0.3067
 5946SOL     OW29473   1.918   1.953   9.007  0.4641  0.6558 -0.2725
 5946SOL    HW129474   1.883   1.880   9.058  0.4165  1.4277  0.7901
 5946SOL    HW229475   1.884   2.035   9.044  0.5243  0.4471  0.2464
 5947SOL     OW29476   0.989   2.000   3.784 -0.4843  0.1116  0.3573
 5947SOL    HW129477   0.966   2.052   3.861  0.9283  1.8282 -0.3819
 5947SOL    HW229478   0.903   1.968   3.757 -0.1721  0.2862 -0.8458
 5948SOL     OW29479   3.232   2.368  12.850  0.0357  0.2488 -0.3320
 5948SOL    HW129480   3.319   2.346  12.882  0.2958  2.3373  0.4304
 5948SOL    HW229481   3.181   2.403  12.923 -0.4486  0.7320 -0.8975
 5949SOL     OW29482   0.050   4.313  17.042  0.6649  0.2009  0.4713
 5949SOL    HW129483   0.127   4.364  17.065  0.9894  0.9892 -2.3208
 5949SOL    HW229484   4.730   4.329  17.118 -1.5501  1.3444 -1.3912
 5950SOL     OW29485   0.366   4.552   2.899  0.4772 -0.8031  0.1189
 5950SOL    HW129486   0.381   4.597   2.982 -1.5824  2.2516 -1.1491
 5950SOL    HW229487   0.444   4.577   2.850 -0.1856 -0.1526 -0.6024
 5951SOL     OW29488   3.752   3.148   6.011  0.1170 -0.5125 -0.4469
 5951SOL    HW129489   3.733   3.079   5.947  0.1169 -0.1987 -0.7887
 5951SOL    HW229490   3.828   3.102   6.047 -1.8753 -2.1205  1.5921
 5952SOL     OW29491   1.432   1.211   5.284 -0.2020  0.0729 -0.0371
 5952SOL    HW129492   1.512   1.239   5.240 -0.3115  1.6950  0.8140
 5952SOL    HW229493   1.447   1.209   5.378 -0.7890 -0.8406  0.0393
 5953SOL     OW29494   3.792   2.831   0.326 -0.4721  0.1259  0.1104
 5953SOL    HW129495   3.753   2.829   0.413 -2.5438  1.8952 -0.7738
 5953SOL    HW229496   3.885   2.833   0.347 -0.1769  1.7834 -1.3414
 5954SOL     OW29497   1.316   3.564  10.594  0.0473 -0.0053 -0.0310
 5954SOL    HW129498   1.317   3.477  10.635  0.3125 -0.2012 -0.4532
 5954SOL    HW229499   1.229   3.598  10.614 -0.7051 -1.4722 -0.7619
 5955SOL     OW29500   3.510   0.032   0.093  0.2218  0.0872 -0.8175
 5955SOL    HW129501   3.566   0.043   0.017  0.2921  0.8313 -0.6591
 5955SOL    HW229502   3.467   0.115   0.077 -0.0793  0.1324  0.2013
 5956SOL     OW29503   4.306   3.728   9.046  0.5117 -0.3509 -1.2091
 5956SOL    HW129504   4.346   3.793   8.988 -1.1359  1.9552  0.1913
 5956SOL    HW229505   4.348   3.645   9.024 -1.4210 -1.1288 -2.0008
 5957SOL     OW29506   3.791   2.623   3.723 -0.4164  0.0708 -0.2738
 5957SOL    HW129507   3.794   2.635   3.628 -0.3262  0.3879 -0.2293
 5957SOL    HW229508   3.882   2.597   3.736 -0.3776  0.0195 -0.6409
 5958SOL     OW29509   1.176   2.694   8.095  0.9202  0.5183  0.7687
 5958SOL    HW129510   1.083   2.683   8.076  0.5012 -0.2134  3.2320
 5958SOL    HW229511   1.176   2.675   8.188  2.8678 -0.7780  0.5057
 5959SOL     OW29512   0.731   1.141   3.119 -0.0657 -0.4066 -0.7478
 5959SOL    HW129513   0.801   1.077   3.132 -0.0255  0.2621  2.3433
 5959SOL    HW229514   0.756   1.193   3.043 -0.0269  0.7470  0.0583
 5960SOL     OW29515   3.859   2.576  15.904  0.1202 -0.0976 -0.4397
 5960SOL    HW129516   3.867   2.545  15.995  2.8598  0.9190 -0.3285
 5960SOL    HW229517   3.802   2.652  15.902 -1.3483 -1.1994 -0.3796
 5961SOL     OW29518   4.241   3.007   8.856  0.4936 -0.1159 -0.2019
 5961SOL    HW129519   4.316   2.964   8.815  1.6649  2.2431 -0.5014
 5961SOL    HW229520   4.280   3.094   8.860 -1.3697  0.6640  1.3633
 5962SOL     OW29521   2.690   3.382   4.099 -0.1983 -0.1837  0.2920
 5962SOL    HW129522   2.595   3.380   4.115 -0.9195  0.8017 -3.7296
 5962SOL    HW229523   2.697   3.411   4.008 -0.9391 -0.2764  0.2041
 5963SOL     OW29524   1.772   0.266  16.231 -0.4980 -0.1371 -0.4115
 5963SOL    HW129525   1.832   0.341  16.229 -0.9290  0.2589  1.9384
 5963SOL    HW229526   1.779   0.248  16.137  0.0999 -0.1393 -0.3648
 5964SOL     OW29527   0.549   2.938   7.877  0.1332 -0.5189  0.1385
 5964SOL    HW129528   0.604   3.012   7.854 -0.0366 -0.4680 -0.1071
 5964SOL    HW229529   0.612   2.876   7.912  1.2026  0.0474 -0.7776
 5965SOL     OW29530   1.974   2.706   3.073  0.4779  0.3206 -0.7262
 5965SOL    HW129531   1.940   2.640   3.134  1.3928  0.7568  0.2557
 5965SOL    HW229532   1.889   2.745   3.054 -0.1576 -1.2509 -1.1722
 5966SOL     OW29533   3.590   4.719   3.139 -0.3429 -0.0668 -0.0167
 5966SOL    HW129534   3.647   0.055   3.166 -0.2970 -0.4163  0.8098
 5966SOL    HW229535   3.641   4.645   3.171 -0.2668  1.0138  2.3842
 5967SOL     OW29536   4.182   2.851   6.416  0.3658  0.2556 -0.0921
 5967SOL    HW129537   4.155   2.897   6.337 -2.5426  2.1220  2.0127
 5967SOL    HW229538   4.212   2.916   6.478 -1.2711 -0.7447  1.7468
 5968SOL     OW29539   0.775   0.439   6.551 -0.0447  0.0167 -0.2713
 5968SOL    HW129540   0.811   0.511   6.500 -0.6592  1.2071  0.9839
 5968SOL    HW229541   0.858   0.392   6.564  0.2406  0.5190 -0.2502
 5969SOL     OW29542   0.046   3.973   4.359 -0.0105  0.6926  0.1385
 5969SOL    HW129543   0.050   3.982   4.454  3.1327  4.1165 -0.2828
 5969SOL    HW229544   0.011   4.058   4.332 -1.8049  0.3442  1.4086
 5970SOL     OW29545   3.512   3.705   9.549  0.2355 -0.0445 -0.0482
 5970SOL    HW129546   3.541   3.784   9.596 -0.8801  0.4193 -0.1157
 5970SOL    HW229547   3.514   3.635   9.614 -0.4501  0.6118  0.6990
 5971SOL     OW29548   1.700   2.571   4.283 -0.0640  0.0107 -0.1372
 5971SOL    HW129549   1.747   2.608   4.359  0.0890  1.1384 -0.7792
 5971SOL    HW229550   1.770   2.534   4.229  0.8828  0.7114  0.5843
 5972SOL     OW29551   0.746   2.338   7.761 -0.1653 -0.4497  0.3354
 5972SOL    HW129552   0.832   2.378   7.754  0.4175 -1.5753  1.1329
 5972SOL    HW229553   0.744   2.286   7.681 -1.8891 -0.8123  0.6046
 5973SOL     OW29554   1.141   1.871   5.491  0.0031  0.0047 -0.1872
 5973SOL    HW129555   1.150   1.810   5.565 -0.8001  0.3503  0.1983
 5973SOL    HW229556   1.176   1.950   5.532  1.4722 -0.3679 -0.7342
 5974SOL     OW29557   0.887   3.777  12.097  0.1240  0.3054  0.0554
 5974SOL    HW129558   0.931   3.772  12.012  2.4004 -0.3509  1.2826
 5974SOL    HW229559   0.800   3.750  12.068  1.4865 -2.2084 -1.6821
 5975SOL     OW29560   0.975   2.906   4.645 -0.1433  0.0085 -0.0948
 5975SOL    HW129561   0.894   2.857   4.632 -0.6862  1.1964 -1.1921
 5975SOL    HW229562   0.996   2.889   4.737  1.1234  1.2891 -0.1567
 5976SOL     OW29563   1.565   0.363  13.887 -0.4021 -0.0602 -0.1888
 5976SOL    HW129564   1.624   0.439  13.883  0.4091 -0.6780  0.1515
 5976SOL    HW229565   1.483   0.409  13.905  0.0342  0.1312  1.3634
 5977SOL     OW29566   3.386   0.720   8.996 -0.0394 -0.1731  0.2878
 5977SOL    HW129567   3.381   0.766   9.080  1.5389 -1.5166  1.1092
 5977SOL    HW229568   3.307   0.744   8.948  0.4001 -1.9381 -1.2994
 5978SOL     OW29569   2.036   3.696   3.691  0.0595 -0.2060  0.1151
 5978SOL    HW129570   1.983   3.774   3.707 -0.0724 -0.2550 -0.0817
 5978SOL    HW229571   2.022   3.661   3.779 -2.5611  1.0008  0.1880
 5979SOL     OW29572   3.072   3.500   8.521 -0.8387 -0.4783  0.2548
 5979SOL    HW129573   3.129   3.570   8.489  0.4283 -2.5066 -1.9079
 5979SOL    HW229574   3.087   3.482   8.614 -0.6213  2.6738  0.8227
 5980SOL     OW29575   0.411   0.302   6.546 -0.0243 -0.3550  0.3970
 5980SOL    HW129576   0.333   0.278   6.596 -1.6188  1.3165 -1.2435
 5980SOL    HW229577   0.390   0.396   6.550  0.3784 -0.1564 -2.2278
 5981SOL     OW29578   0.590   2.334  17.098 -0.6738 -0.0690  0.0032
 5981SOL    HW129579   0.554   2.351  17.010 -0.6181  0.4601  0.0849
 5981SOL    HW229580   0.666   2.392  17.092 -0.5715  0.0308  2.6450
 5982SOL     OW29581   3.129   3.255  16.084  0.2129 -0.0482 -0.0969
 5982SOL    HW129582   3.184   3.187  16.044  1.6383  0.8541  0.3001
 5982SOL    HW229583   3.200   3.319  16.097  0.0505 -0.1917  1.4765
 5983SOL     OW29584   4.443   1.096  15.892 -0.2450  0.1186 -0.2215
 5983SOL    HW129585   4.375   1.129  15.835  0.5711  1.2078 -0.5714
 5983SOL    HW229586   4.396   1.090  15.975  0.0538  1.6628  0.0552
 5984SOL     OW29587   0.671   1.808   0.593 -0.0967  0.0393  0.1808
 5984SOL    HW129588   0.629   1.818   0.678  1.5355  1.6060  0.7836
 5984SOL    HW229589   0.653   1.718   0.566 -1.2419 -0.0149  1.1511
 5985SOL     OW29590   4.157   1.720   8.179 -0.6668 -0.4933 -0.4469
 5985SOL    HW129591   4.119   1.792   8.230  0.1675 -1.2117  1.1956
 5985SOL    HW229592   4.243   1.722   8.221 -1.2879 -3.3586  0.9472
 5986SOL     OW29593   1.318   3.957   5.084  0.6269  0.1602  1.2744
 5986SOL    HW129594   1.222   3.955   5.085  0.6210 -0.4639 -0.2789
 5986SOL    HW229595   1.325   4.023   5.015 -1.7836  0.9376  1.7566
 5987SOL     OW29596   4.423   3.340  12.465  0.3685 -0.3812 -0.4185
 5987SOL    HW129597   4.458   3.288  12.537  0.3423  1.4697  0.9133
 5987SOL    HW229598   4.390   3.265  12.415 -3.1541 -0.5143  2.0561
 5988SOL     OW29599   4.282   3.811   7.640  0.3713  0.4306 -0.0508
 5988SOL    HW129600   4.362   3.829   7.592  1.9363 -2.9427  1.2682
 5988SOL    HW229601   4.256   3.898   7.669  1.7305  1.3135 -1.5513
 5989SOL     OW29602   4.733   0.141   4.342  0.0533 -0.0346  0.2093
 5989SOL    HW129603   0.016   0.048   4.340 -2.3618 -0.5372  0.2098
 5989SOL    HW229604   4.658   0.152   4.400  0.7485 -0.0775  1.1163
 5990SOL     OW29605   1.790   3.861   1.912 -0.0082 -0.1052  0.3342
 5990SOL    HW129606   1.701   3.897   1.917  0.1147  0.2270  0.1113
 5990SOL    HW229607   1.822   3.873   2.001 -0.9342  1.2140  0.4897
 5991SOL     OW29608   2.735   3.787   1.879  0.1197  0.0731  0.2391
 5991SOL    HW129609   2.654   3.755   1.839  2.5599 -1.9428 -3.1481
 5991SOL    HW229610   2.777   3.828   1.803  0.2206  1.1741  0.8941
 5992SOL     OW29611   3.460   3.315   2.600 -0.0841  0.2725 -0.0984
 5992SOL    HW129612   3.421   3.253   2.661 -0.3220 -0.7692 -1.3198
 5992SOL    HW229613   3.381   3.360   2.573  0.5431  0.9635 -0.7728
 5993SOL     OW29614   4.249   0.902   4.345  0.3728  0.2480  0.4586
 5993SOL    HW129615   4.205   0.985   4.366 -0.4546  0.4063 -1.9045
 5993SOL    HW229616   4.225   0.893   4.253 -2.0009 -1.1800  1.2108
 5994SOL     OW29617   0.928   4.378   2.942  0.1804 -0.0652  0.1703
 5994SOL    HW129618   1.007   4.395   2.891  0.7270 -1.5839  0.4956
 5994SOL    HW229619   0.975   4.341   3.017 -0.8991 -1.0744  0.3477
 5995SOL     OW29620   1.983   3.882   5.597  0.3929  0.1074  0.4127
 5995SOL    HW129621   1.985   3.795   5.636  1.3371 -0.5052 -0.9944
 5995SOL    HW229622   1.948   3.861   5.510 -1.1382  0.0288  1.0552
 5996SOL     OW29623   4.299   0.408   8.665  0.0844 -0.1646  0.4729
 5996SOL    HW129624   4.394   0.407   8.673 -0.0310  1.5196  2.0879
 5996SOL    HW229625   4.269   0.390   8.754  0.7782 -0.5012  0.6390
 5997SOL     OW29626   4.156   3.848   2.306  0.0480 -0.0807  0.4147
 5997SOL    HW129627   4.234   3.894   2.337 -1.1569  2.0751  0.2439
 5997SOL    HW229628   4.115   3.920   2.257 -1.8413  0.1944  2.4583
 5998SOL     OW29629   3.175   0.486   6.816  0.1111  0.1845 -0.0951
 5998SOL    HW129630   3.250   0.506   6.760 -0.9177  1.6892 -0.9330
 5998SOL    HW229631   3.162   0.571   6.856  2.0766  1.1378 -1.4857
 5999SOL     OW29632   2.024   3.371   9.586 -0.1507  0.1226 -0.0395
 5999SOL    HW129633   2.016   3.409   9.674  1.1440  0.3638 -0.0223
 5999SOL    HW229634   2.086   3.428   9.539 -2.0130  0.7950 -1.6976
 6000SOL     OW29635   1.270   2.839   4.281 -0.3569 -0.2181  0.4767
 6000SOL    HW129636   1.264   2.929   4.249  0.5966 -0.6371 -0.8604
 6000SOL    HW229637   1.350   2.810   4.238 -0.7886 -0.1993 -0.3444
 6001SOL     OW29638   0.251   3.138   5.149 -0.2378  0.1881 -0.0847
 6001SOL    HW129639   0.178   3.199   5.144 -0.4554  0.0117  1.0038
 6001SOL    HW229640   0.242   3.112   5.241  0.0052 -0.7403 -0.3219
 6002SOL     OW29641   4.072   3.339   5.736 -0.2123 -0.1897  0.9066
 6002SOL    HW129642   4.030   3.256   5.714  0.2006 -0.1604  0.0044
 6002SOL    HW229643   4.003   3.384   5.785 -0.6587  0.6419 -0.4881
 6003SOL     OW29644   4.470   3.148   3.053 -0.2331  0.1287 -0.3052
 6003SOL    HW129645   4.553   3.148   3.005 -1.5551  0.1446 -2.5988
 6003SOL    HW229646   4.433   3.062   3.037  1.1146 -0.4188 -0.4926
 6004SOL     OW29647   4.654   0.686   5.972  0.4274  0.1197 -0.0862
 6004SOL    HW129648   4.682   0.595   5.971  1.2078  0.3588 -0.2587
 6004SOL    HW229649   4.731   0.734   6.003 -0.2520  1.4815 -0.4721
 6005SOL     OW29650   0.977   2.130   8.284 -0.3536  0.0063  0.1467
 6005SOL    HW129651   0.886   2.133   8.312 -0.5476  0.3355 -0.5416
 6005SOL    HW229652   0.974   2.204   8.224 -2.1697 -2.1160 -2.3531
 6006SOL     OW29653   2.751   0.399   3.846  0.1884 -0.4187 -0.6986
 6006SOL    HW129654   2.707   0.368   3.926  0.0803  0.4006 -0.4345
 6006SOL    HW229655   2.702   0.343   3.785  1.7325 -2.5939  0.0839
 6007SOL     OW29656   0.663   1.294   4.194 -0.0874 -0.2409 -0.1614
 6007SOL    HW129657   0.713   1.278   4.274 -0.3755 -1.3585 -0.2067
 6007SOL    HW229658   0.648   1.208   4.154 -1.0127 -0.2731  0.2647
 6008SOL     OW29659   2.589   4.310  17.448 -0.6149 -0.0049 -0.4943
 6008SOL    HW129660   2.590   4.332  17.541 -0.3378 -0.6041 -0.3521
 6008SOL    HW229661   2.567   4.217  17.456  1.5365 -0.3933  0.7792
 6009SOL     OW29662   4.322   2.285   0.961  0.0405 -0.4167 -0.1655
 6009SOL    HW129663   4.230   2.312   0.965  0.2057  0.0910  0.2174
 6009SOL    HW229664   4.338   2.247   0.874  0.5647 -0.4093 -0.0701
 6010SOL     OW29665   1.478   3.944  10.694  0.2125  0.2460  0.0921
 6010SOL    HW129666   1.401   3.921  10.641 -1.6491  0.4314  2.7088
 6010SOL    HW229667   1.453   4.031  10.725  1.5351  1.0577 -1.1395
 6011SOL     OW29668   0.632   4.139   2.484  0.2555  0.3775  0.2154
 6011SOL    HW129669   0.556   4.169   2.533 -0.0893 -0.8183  0.3912
 6011SOL    HW229670   0.613   4.187   2.403 -2.5687 -0.8198  0.1721
 6012SOL     OW29671   1.314   0.365   2.241  0.1195  0.0772 -0.9067
 6012SOL    HW129672   1.309   0.421   2.163 -1.8897  1.6603  0.3632
 6012SOL    HW229673   1.407   0.386   2.255 -0.3428  2.4738 -1.4046
 6013SOL     OW29674   2.979   3.126  16.673 -0.5380 -0.0565 -0.3604
 6013SOL    HW129675   3.021   3.139  16.588  0.0538 -0.0982 -0.0789
 6013SOL    HW229676   2.892   3.093  16.651 -0.7165  0.2573 -0.1383
 6014SOL     OW29677   0.443   0.711  17.027 -0.8275 -0.0042 -0.0947
 6014SOL    HW129678   0.417   0.710  17.119  2.4384 -0.4998  0.8143
 6014SOL    HW229679   0.523   0.763  17.022 -2.5282  2.6129 -0.0889
 6015SOL     OW29680   0.533   0.913   8.957  0.2207  0.5790 -0.3766
 6015SOL    HW129681   0.513   0.878   9.044 -1.4754 -1.3001 -1.5242
 6015SOL    HW229682   0.519   0.834   8.904 -2.5435  0.7713  0.0743
 6016SOL     OW29683   1.081   0.766  16.866 -0.2287  0.1128  0.1631
 6016SOL    HW129684   1.121   0.679  16.867 -1.1927 -0.3296  0.0030
 6016SOL    HW229685   1.130   0.814  16.799 -1.2756  1.4300  0.3431
 6017SOL     OW29686   0.737   2.665  15.768 -0.0931  0.4894  0.5172
 6017SOL    HW129687   0.796   2.590  15.762 -1.8187 -0.9353  1.1486
 6017SOL    HW229688   0.678   2.640  15.696  1.6495  0.9097 -1.0652
 6018SOL     OW29689   1.216   3.008   0.919 -0.1824 -0.4810  0.2462
 6018SOL    HW129690   1.218   2.985   1.012 -2.1073  0.3922  0.5135
 6018SOL    HW229691   1.304   3.043   0.907 -0.1878 -1.1007 -1.6663
 6019SOL     OW29692   2.973   3.643   1.650 -0.2136  0.5383  0.4085
 6019SOL    HW129693   2.904   3.580   1.632 -0.4414  1.2505 -1.2517
 6019SOL    HW229694   2.921   3.719   1.676 -1.6053 -0.9939  2.0430
 6020SOL     OW29695   0.027   3.589  17.660 -0.4186 -0.6264 -0.0631
 6020SOL    HW129696   0.023   3.675  17.618  1.0883  0.1069  1.2949
 6020SOL    HW229697   0.115   3.555  17.645 -0.2584 -1.4552  2.6943
 6021SOL     OW29698   4.147   1.719   4.182 -0.2098  0.3663  0.0046
 6021SOL    HW129699   4.189   1.791   4.134 -0.8859  1.2845  0.7848
 6021SOL    HW229700   4.163   1.749   4.271 -0.8226  1.2223 -0.1740
 6022SOL     OW29701   0.889   1.223   8.127  0.3128 -0.7206  0.1123
 6022SOL    HW129702   0.919   1.259   8.044 -0.3907 -2.0556 -0.7100
 6022SOL    HW229703   0.796   1.246   8.134  0.6692  0.7789  0.0343
 6023SOL     OW29704   0.920   1.540   7.191  0.2040 -0.0399  0.0235
 6023SOL    HW129705   0.866   1.483   7.246 -0.8008 -1.6637 -2.6975
 6023SOL    HW229706   0.957   1.602   7.254  0.4254  0.5560 -0.7055
 6024SOL     OW29707   3.168   4.090   3.419  0.7146 -0.0411  0.3796
 6024SOL    HW129708   3.177   4.183   3.442  0.1220 -0.1361  1.0090
 6024SOL    HW229709   3.101   4.053   3.477  0.7318 -0.7502 -0.0632
 6025SOL     OW29710   0.049   4.734   2.670 -0.3646 -0.0437 -0.5801
 6025SOL    HW129711   4.717   4.700   2.728 -1.0748  0.3542 -1.1691
 6025SOL    HW229712   0.054   0.092   2.686  0.0183 -0.3694  1.2598
 6026SOL     OW29713   3.615   2.604   4.988 -1.1345 -0.5403 -0.0524
 6026SOL    HW129714   3.675   2.678   4.983  0.0681 -1.4224  1.3757
 6026SOL    HW229715   3.682   2.536   4.993  0.4013  1.0100  0.2713
 6027SOL     OW29716   2.256   3.023   2.478  0.3382 -0.2680  0.4967
 6027SOL    HW129717   2.331   2.973   2.511  1.3777  2.2149  1.8146
 6027SOL    HW229718   2.183   2.969   2.507  1.2171 -1.7175  0.0405
 6028SOL     OW29719   0.947   2.295   0.350  0.0152  0.5217  0.1474
 6028SOL    HW129720   0.867   2.348   0.359  0.6258  1.4051  0.4378
 6028SOL    HW229721   0.929   2.214   0.396  1.0488  0.1991 -0.0122
 6029SOL     OW29722   2.361   4.203   3.374 -0.2339 -0.3292 -0.3656
 6029SOL    HW129723   2.309   4.134   3.414  1.6772  0.1686  2.9250
 6029SOL    HW229724   2.432   4.209   3.437  0.1011 -1.4706 -0.6217
 6030SOL     OW29725   2.936   3.720   0.503 -0.5189 -0.0626 -0.3676
 6030SOL    HW129726   3.032   3.725   0.499 -0.5529 -0.4407 -1.4198
 6030SOL    HW229727   2.906   3.648   0.447 -1.7948  0.6475 -0.5803
 6031SOL     OW29728   3.277   3.954   2.892  0.3420  0.1514  0.0101
 6031SOL    HW129729   3.366   3.987   2.876 -0.4090  1.8484 -0.6227
 6031SOL    HW229730   3.287   3.916   2.979  0.8612 -0.5366 -0.3448
 6032SOL     OW29731   3.780   3.859   5.297 -0.1243  0.1043 -0.2397
 6032SOL    HW129732   3.768   3.784   5.355 -1.8332  1.8778  1.6559
 6032SOL    HW229733   3.691   3.863   5.262 -0.1020  1.5057 -0.1260
 6033SOL     OW29734   4.132   0.487   6.872  0.2391  0.5382  0.0066
 6033SOL    HW129735   4.067   0.469   6.804 -0.4324  1.1696  0.4712
 6033SOL    HW229736   4.132   0.583   6.866  1.1403  0.5496  0.2501
 6034SOL     OW29737   0.169   3.601  14.524 -0.5186 -0.0018  0.2531
 6034SOL    HW129738   0.198   3.686  14.557  1.1563 -1.3503  2.2626
 6034SOL    HW229739   0.095   3.635  14.474  0.2568  2.3715  0.7047
 6035SOL     OW29740   1.831   2.320   2.694  0.5244 -0.7609  0.0824
 6035SOL    HW129741   1.750   2.370   2.708  0.3700 -1.1300  0.5307
 6035SOL    HW229742   1.884   2.344   2.770  0.0735  1.0021 -0.1710
 6036SOL     OW29743   3.763   4.370   8.360 -0.0877 -0.3870  0.0397
 6036SOL    HW129744   3.763   4.320   8.441 -0.2033 -2.6407 -1.3408
 6036SOL    HW229745   3.780   4.296   8.302 -0.7534  1.2121 -2.2044
 6037SOL     OW29746   3.778   4.338  15.165  0.1705  0.1591 -0.1357
 6037SOL    HW129747   3.839   4.398  15.207 -0.9087 -0.2008  1.9467
 6037SOL    HW229748   3.826   4.314  15.085  1.8779  1.9848  0.3464
 6038SOL     OW29749   0.109   3.828   2.724 -0.5949  0.2666 -0.2952
 6038SOL    HW129750   0.110   3.847   2.817 -2.1217  0.2008 -0.2784
 6038SOL    HW229751   0.014   3.825   2.714 -0.7063 -1.0091  1.1875
 6039SOL     OW29752   1.613   2.798  11.100 -0.1248 -0.0064  0.3932
 6039SOL    HW129753   1.709   2.799  11.099 -0.1197 -1.1608 -1.0112
 6039SOL    HW229754   1.589   2.760  11.016 -0.9928  1.6524 -0.0989
 6040SOL     OW29755   0.794   4.194   1.086  0.0222 -0.1716  0.2545
 6040SOL    HW129756   0.775   4.189   0.992 -2.1087  0.8829  0.6423
 6040SOL    HW229757   0.758   4.112   1.119  0.7113 -0.8721 -0.7089
 6041SOL     OW29758   4.476   1.092   3.216 -0.1382 -0.1731 -0.4353
 6041SOL    HW129759   4.381   1.085   3.222 -0.1491  2.1175  1.6795
 6041SOL    HW229760   4.491   1.074   3.123 -0.5415  1.2254 -0.7608
 6042SOL     OW29761   3.227   2.327   4.008  0.6509 -0.1087  0.3043
 6042SOL    HW129762   3.266   2.268   4.073  0.8804 -1.3624 -0.9839
 6042SOL    HW229763   3.193   2.389   4.073 -0.2851  1.1258 -1.3768
 6043SOL     OW29764   4.188   2.583   7.302  0.3146 -0.5031  0.4057
 6043SOL    HW129765   4.184   2.489   7.318  1.2434 -0.7972 -1.1348
 6043SOL    HW229766   4.177   2.578   7.207  0.3038 -0.3786  0.4004
 6044SOL     OW29767   1.152   3.313  15.140 -0.3508 -0.3724  0.9088
 6044SOL    HW129768   1.166   3.407  15.135 -0.0716 -0.4383  0.4549
 6044SOL    HW229769   1.129   3.306  15.232  0.2927 -0.8234  1.0326
 6045SOL     OW29770   3.141   2.618   3.903  0.1607  0.1638  0.4044
 6045SOL    HW129771   3.154   2.544   3.962 -0.0696  0.3354  0.6659
 6045SOL    HW229772   3.231   2.652   3.900 -0.2053  1.1106  0.4080
 6046SOL     OW29773   3.140   1.687   2.347 -0.3103  0.2167  0.2057
 6046SOL    HW129774   3.187   1.704   2.428  0.0901 -1.8992  0.4092
 6046SOL    HW229775   3.210   1.648   2.295 -1.7279 -0.0348 -1.5165
 6047SOL     OW29776   1.325   4.294  15.884  0.3436  0.0675  0.2124
 6047SOL    HW129777   1.332   4.388  15.863  0.6854 -0.6835 -2.9646
 6047SOL    HW229778   1.304   4.302  15.977  1.7563 -1.7038  0.6835
 6048SOL     OW29779   3.985   1.789   3.576  0.0068 -0.1805 -0.5582
 6048SOL    HW129780   3.948   1.877   3.576  1.2612  0.3386  0.1288
 6048SOL    HW229781   4.076   1.816   3.588  0.9543 -3.2611 -0.5816
 6049SOL     OW29782   4.014   1.784   3.918 -0.1552  0.3527  0.0035
 6049SOL    HW129783   4.001   1.771   4.012  0.0030  0.9301  0.1078
 6049SOL    HW229784   3.941   1.844   3.908  0.9138  1.5720 -0.5195
 6050SOL     OW29785   2.027   2.018   8.583  0.2851  0.0440  0.2292
 6050SOL    HW129786   2.040   2.067   8.664 -0.2855  1.4017 -0.4930
 6050SOL    HW229787   2.109   2.022   8.534 -0.0130  0.6837 -0.2159
 6051SOL     OW29788   2.791   1.364   9.648 -0.0473 -0.5255  0.2460
 6051SOL    HW129789   2.702   1.357   9.682 -0.3641  1.6504 -0.1022
 6051SOL    HW229790   2.787   1.312   9.568 -2.2203 -0.1028  0.0822
 6052SOL     OW29791   3.725   2.953   0.612 -0.5773  0.2811 -0.2026
 6052SOL    HW129792   3.649   3.010   0.622 -1.0438 -0.4041  0.1626
 6052SOL    HW229793   3.751   2.945   0.704 -1.3226  0.5784  0.0385
 6053SOL     OW29794   3.043   2.418   9.680  0.3884 -0.6381 -0.3338
 6053SOL    HW129795   3.062   2.401   9.588 -0.0557 -1.6432 -0.2381
 6053SOL    HW229796   3.100   2.353   9.721 -1.3456 -0.6869  1.9967
 6054SOL     OW29797   1.741   1.433   9.507  0.0372  0.3593  0.2332
 6054SOL    HW129798   1.675   1.492   9.545 -0.2239  1.0427 -1.2855
 6054SOL    HW229799   1.796   1.485   9.449 -0.2484  1.1074  0.6249
 6055SOL     OW29800   3.623   0.823   3.050 -0.7150  0.0701  0.1958
 6055SOL    HW129801   3.540   0.806   3.095 -1.4169  0.4278 -0.9591
 6055SOL    HW229802   3.602   0.867   2.968 -1.3424 -0.4668  0.0743
 6056SOL     OW29803   1.105   3.778   0.445 -0.0544 -0.3224 -0.1448
 6056SOL    HW129804   1.161   3.729   0.505 -0.2771 -2.4037 -1.6394
 6056SOL    HW229805   1.020   3.737   0.459 -0.0666 -0.3660 -0.3458
 6057SOL     OW29806   3.464   3.199   3.357 -0.4671 -0.0366 -0.0233
 6057SOL    HW129807   3.459   3.146   3.277 -2.4022  0.4295 -0.2104
 6057SOL    HW229808   3.492   3.286   3.329  0.3621  0.0620  1.1034
 6058SOL     OW29809   4.153   1.621  10.382 -0.6402  0.4748 -0.0976
 6058SOL    HW129810   4.137   1.546  10.440  3.5100 -0.8377 -0.6268
 6058SOL    HW229811   4.166   1.568  10.303  0.9862  2.2218 -0.9988
 6059SOL     OW29812   3.016   0.695  17.573 -0.2747 -0.4318 -0.6288
 6059SOL    HW129813   3.083   0.677  17.506  0.9615 -2.2395  1.0994
 6059SOL    HW229814   3.044   0.632  17.639 -1.2065 -1.1824 -0.9585
 6060SOL     OW29815   1.414   0.132  10.526  0.3525  0.0123 -0.5214
 6060SOL    HW129816   1.377   0.057  10.478  0.7963  0.5642 -1.7196
 6060SOL    HW229817   1.337   0.190  10.524 -0.7425 -1.4648 -1.3471
 6061SOL     OW29818   2.289   1.193   5.961  0.3204  0.3272  0.4121
 6061SOL    HW129819   2.323   1.277   5.993 -1.8069  1.8259 -1.2579
 6061SOL    HW229820   2.352   1.181   5.891 -0.8124  1.6219 -0.8484
 6062SOL     OW29821   3.841   1.506   6.756 -1.0671  0.1423  0.3364
 6062SOL    HW129822   3.815   1.561   6.683 -0.2541  1.1476  0.8026
 6062SOL    HW229823   3.774   1.438   6.757 -0.9025 -0.0355 -1.7347
 6063SOL     OW29824   1.417   2.840   1.881 -0.2129  0.5269 -0.3680
 6063SOL    HW129825   1.324   2.852   1.901  0.2747  1.1476  1.5332
 6063SOL    HW229826   1.452   2.871   1.965  0.7157 -2.2538  0.2802
 6064SOL     OW29827   1.097   0.846   4.836 -0.0383 -0.0437  0.3904
 6064SOL    HW129828   1.085   0.849   4.931  0.0580  0.3220  0.3907
 6064SOL    HW229829   1.165   0.912   4.822 -0.1853  0.1295  0.4954
 6065SOL     OW29830   4.567   0.182  10.319  0.1537 -0.2283 -0.5053
 6065SOL    HW129831   4.479   0.190  10.355 -0.9710 -0.7505 -3.1455
 6065SOL    HW229832   4.559   0.127  10.240  0.7798  2.4130 -2.3993
 6066SOL     OW29833   1.814   2.903   6.891 -0.2622  0.6564  0.0625
 6066SOL    HW129834   1.815   2.807   6.889  1.1794  0.6937 -1.6998
 6066SOL    HW229835   1.768   2.919   6.809 -2.2869 -1.4440  0.8090
 6067SOL     OW29836   0.930   4.382   4.227 -0.0628 -0.3286 -0.5046
 6067SOL    HW129837   0.993   4.355   4.161 -1.6602 -0.0927 -2.1355
 6067SOL    HW229838   0.963   4.470   4.248 -0.8694 -0.2845  0.5725
 6068SOL     OW29839   3.366   0.965  11.701  0.0025  0.3521 -0.0872
 6068SOL    HW129840   3.356   1.038  11.640  0.9853  0.5337 -0.0310
 6068SOL    HW229841   3.462   0.967  11.699  0.0116 -1.1042 -1.4247
 6069SOL     OW29842   0.310   2.786   4.664 -0.5496  0.0644 -0.1702
 6069SOL    HW129843   0.384   2.832   4.704 -0.8945  1.4146 -1.0457
 6069SOL    HW229844   0.293   2.714   4.724  3.0951 -1.5518 -1.0885
 6070SOL     OW29845   1.735   2.205   4.930 -0.6128  0.4601 -0.4326
 6070SOL    HW129846   1.710   2.271   4.995 -0.2981  0.6946 -0.5512
 6070SOL    HW229847   1.748   2.125   4.981 -1.4525  0.3760 -0.3401
 6071SOL     OW29848   2.333   1.683   5.871  0.6437  0.2847 -0.0474
 6071SOL    HW129849   2.278   1.624   5.924  0.9507  0.8053  0.8480
 6071SOL    HW229850   2.327   1.771   5.908  0.7184  0.5895 -0.7642
 6072SOL     OW29851   4.168   4.104   4.322  0.3269 -0.6220 -0.1903
 6072SOL    HW129852   4.075   4.104   4.345  0.9867 -2.7529  2.3701
 6072SOL    HW229853   4.202   4.054   4.395  2.2148  1.0783  0.0970
 6073SOL     OW29854   0.298   1.500   4.076 -0.2812  0.4083  0.6907
 6073SOL    HW129855   0.301   1.405   4.068 -1.8815  0.3609  0.7639
 6073SOL    HW229856   0.389   1.511   4.105  0.2775  1.1570 -1.3408
 6074SOL     OW29857   1.611   0.966  10.317 -0.4341 -0.0849  0.2601
 6074SOL    HW129858   1.523   1.003  10.329 -0.3022  1.1663 -2.6089
 6074SOL    HW229859   1.636   0.963  10.410 -0.0117 -0.3310  0.1376
 6075SOL     OW29860   2.895   1.150   1.571  0.1052 -0.4624  0.6195
 6075SOL    HW129861   2.826   1.092   1.540  0.7994 -1.1764  0.3886
 6075SOL    HW229862   2.889   1.138   1.665  0.8273  0.2877  0.7555
 6076SOL     OW29863   2.125   0.080  15.928  0.7584 -0.0337  0.2831
 6076SOL    HW129864   2.166   0.006  15.882  0.4994  0.0045 -0.0059
 6076SOL    HW229865   2.095   0.033  16.006  0.8054  0.7844  0.7945
 6077SOL     OW29866   0.132   0.207  16.106  0.3569  0.0995 -0.3294
 6077SOL    HW129867   0.110   0.152  16.181 -0.6847  2.2324  0.9185
 6077SOL    HW229868   0.211   0.159  16.082  0.0860  0.3263 -1.6971
 6078SOL     OW29869   1.719   1.678  11.212 -0.5818 -0.1947  0.0608
 6078SOL    HW129870   1.798   1.716  11.250  0.3265 -0.8028 -1.2098
 6078SOL    HW229871   1.685   1.751  11.161 -1.0607  1.5769  2.9121
 6079SOL     OW29872   3.907   1.344  12.467  0.5894 -0.2919  0.2605
 6079SOL    HW129873   3.816   1.360  12.492  0.2276 -0.5312 -0.9111
 6079SOL    HW229874   3.936   1.434  12.457  1.2726 -0.6362 -0.8692
 6080SOL     OW29875   3.709   0.340  11.625  0.1685  0.3890  0.3648
 6080SOL    HW129876   3.639   0.375  11.571 -2.6226 -1.4488  2.7859
 6080SOL    HW229877   3.669   0.269  11.676  0.9455 -0.8669 -0.7499
 6081SOL     OW29878   0.441   3.293   3.330 -0.4517 -0.2037 -0.0009
 6081SOL    HW129879   0.431   3.379   3.371  1.3286  0.9455 -1.9787
 6081SOL    HW229880   0.379   3.303   3.258 -1.8791 -0.0092  1.2553
 6082SOL     OW29881   3.658   2.664   6.814  0.3384  0.2550 -0.2389
 6082SOL    HW129882   3.723   2.597   6.837 -2.4201 -1.9303  1.1136
 6082SOL    HW229883   3.580   2.610   6.799 -1.7798  2.9309  1.1457
 6083SOL     OW29884   2.670   3.026   8.388 -0.1934  0.1063  0.3962
 6083SOL    HW129885   2.585   2.998   8.356 -0.9410  2.3837  0.3650
 6083SOL    HW229886   2.679   3.116   8.358  2.8587 -0.2171  0.2830
 6084SOL     OW29887   3.048   3.808   2.202  0.6876 -0.8192  0.6034
 6084SOL    HW129888   2.983   3.873   2.231  0.9808 -0.3928  0.3173
 6084SOL    HW229889   2.985   3.751   2.159 -1.5885  1.5166  0.8025
 6085SOL     OW29890   2.480   3.422   4.329 -0.1942  0.6831 -0.1680
 6085SOL    HW129891   2.441   3.367   4.262 -1.0492  0.4123  0.5562
 6085SOL    HW229892   2.430   3.504   4.334 -1.7231 -0.3228  0.9264
 6086SOL     OW29893   4.482   2.700   4.503 -0.5253  0.2804  0.4939
 6086SOL    HW129894   4.472   2.767   4.436 -2.9535 -1.4682 -0.9012
 6086SOL    HW229895   4.395   2.662   4.511 -0.0985 -0.8944 -0.3927
 6087SOL     OW29896   3.904   0.580  11.372 -0.3629 -0.0522  0.7323
 6087SOL    HW129897   3.900   0.634  11.451 -2.7326  1.7023 -0.5651
 6087SOL    HW229898   3.991   0.599  11.338 -0.8291  2.1542  0.7362
 6088SOL     OW29899   0.761   0.834   5.638  0.0828 -0.5353  0.5853
 6088SOL    HW129900   0.843   0.862   5.597 -0.2608  1.8322  1.4906
 6088SOL    HW229901   0.698   0.830   5.565 -1.1403 -0.0017  1.6070
 6089SOL     OW29902   1.543   1.494   2.281 -0.1737 -0.9219 -0.3363
 6089SOL    HW129903   1.636   1.495   2.304 -0.2777 -0.7775  0.0766
 6089SOL    HW229904   1.553   1.488   2.186 -0.7500  0.2292 -0.4677
 6090SOL     OW29905   4.680   3.482   3.229 -0.4040 -0.1238  0.0089
 6090SOL    HW129906   4.731   3.561   3.246 -0.6074  0.1628 -0.6883
 6090SOL    HW229907   4.591   3.506   3.256 -0.8490 -1.1152 -0.5677
 6091SOL     OW29908   2.081   3.248   2.448 -0.2074  0.2838  0.9247
 6091SOL    HW129909   2.137   3.171   2.460 -0.8823 -0.0757  1.7822
 6091SOL    HW229910   2.148   3.307   2.483  0.8926 -1.0389  1.0460
 6092SOL     OW29911   3.828   1.016   0.136  0.6285  0.0180 -0.0324
 6092SOL    HW129912   3.888   1.067   0.191 -0.1155 -0.3627  1.1464
 6092SOL    HW229913   3.746   1.066   0.130 -0.7774 -2.1946  0.5105
 6093SOL     OW29914   0.180   4.258   8.651  0.6906 -0.2007  0.1231
 6093SOL    HW129915   0.141   4.180   8.612  0.0472  0.2900 -0.2192
 6093SOL    HW229916   0.099   4.291   8.689  0.3318  1.4057 -1.9991
 6094SOL     OW29917   0.260   4.301   7.569 -0.7239  0.2353 -0.0569
 6094SOL    HW129918   0.284   4.311   7.477  1.9195  1.4398  0.7429
 6094SOL    HW229919   0.187   4.362   7.559  0.6533  2.2433  2.1427
 6095SOL     OW29920   3.991   4.045   7.197  0.1833  0.7541 -0.5659
 6095SOL    HW129921   3.932   4.070   7.268  1.2146  0.2186  0.4811
 6095SOL    HW229922   3.971   3.951   7.200  0.8458  0.6264  0.0981
 6096SOL     OW29923   2.701   3.462   3.825 -0.6102 -0.0716 -0.3233
 6096SOL    HW129924   2.681   3.516   3.749  0.7131  0.5983 -0.1997
 6096SOL    HW229925   2.793   3.449   3.799 -0.4451  1.1195 -0.3008
 6097SOL     OW29926   4.329   4.695   4.804 -0.3394 -0.0590 -0.4415
 6097SOL    HW129927   4.235   4.702   4.789 -0.5819  0.0531  1.1253
 6097SOL    HW229928   4.370   0.003   4.731 -1.2687 -0.9980 -1.5477
 6098SOL     OW29929   3.999   3.355   3.140 -0.2773  0.3441  0.0381
 6098SOL    HW129930   4.010   3.374   3.047  1.5272 -1.4018 -0.0913
 6098SOL    HW229931   3.949   3.274   3.141  0.5414 -0.1715 -1.0404
 6099SOL     OW29932   4.547   3.886  17.468  0.1961  0.1144 -0.4870
 6099SOL    HW129933   4.558   3.962  17.412  2.0894 -1.1062 -1.7849
 6099SOL    HW229934   4.640   3.864  17.478  0.2046 -0.7938 -2.4250
 6100SOL     OW29935   3.325   1.213   2.503 -0.0717 -0.6248 -0.3206
 6100SOL    HW129936   3.401   1.154   2.506  0.3560 -0.2781 -4.1667
 6100SOL    HW229937   3.277   1.151   2.448 -0.0165 -0.9011 -0.0554
 6101SOL     OW29938   2.472   1.042   4.929  0.0576  0.1637 -0.0633
 6101SOL    HW129939   2.444   1.133   4.920  0.0345  0.1730  0.0937
 6101SOL    HW229940   2.409   0.995   4.874 -0.2041 -1.8174  1.9336
 6102SOL     OW29941   1.671   0.449  13.182 -0.0961  0.2850  0.9000
 6102SOL    HW129942   1.593   0.497  13.209  0.3411  0.8847  1.0991
 6102SOL    HW229943   1.639   0.433  13.094  0.8975  2.0669  0.2180
 6103SOL     OW29944   2.772   0.446   4.179 -0.8535  0.4651 -0.0720
 6103SOL    HW129945   2.750   0.489   4.262 -1.0967  0.6735 -0.2476
 6103SOL    HW229946   2.867   0.462   4.181 -0.5189 -1.5155  0.1740
 6104SOL     OW29947   0.950   2.640  15.258 -0.2854 -0.0527  0.2081
 6104SOL    HW129948   0.920   2.726  15.285 -1.7485  0.0666 -1.8128
 6104SOL    HW229949   1.045   2.646  15.270  0.1137 -1.4616 -2.1977
 6105SOL     OW29950   4.283   3.290  13.764  0.5811 -0.3548  0.6411
 6105SOL    HW129951   4.197   3.247  13.771  0.0904  0.4347 -0.4856
 6105SOL    HW229952   4.326   3.215  13.722  0.4916 -1.1939  2.0289
 6106SOL     OW29953   3.597   0.214   9.086 -0.0225 -0.3594 -0.0581
 6106SOL    HW129954   3.536   0.287   9.073  0.7188  0.0647 -1.2656
 6106SOL    HW229955   3.584   0.162   9.006  0.1429  0.7351 -0.8086
 6107SOL     OW29956   1.650   1.232   6.685  0.4348  0.2340  0.1529
 6107SOL    HW129957   1.572   1.181   6.663  0.4256  0.5284 -0.4861
 6107SOL    HW229958   1.621   1.323   6.696  1.1244  0.6370 -1.3658
 6108SOL     OW29959   0.993   2.276   6.596  0.6823 -0.0253  0.1034
 6108SOL    HW129960   1.009   2.365   6.628 -0.1746 -0.0989  0.7456
 6108SOL    HW229961   0.909   2.286   6.550  1.4193  0.2453 -1.2064
 6109SOL     OW29962   3.088   0.164   9.050  0.1989  0.1102  0.0801
 6109SOL    HW129963   3.150   0.138   8.982  0.5746  1.1236  0.0375
 6109SOL    HW229964   3.109   0.258   9.055  0.0998  0.2164 -1.2816
 6110SOL     OW29965   1.333   1.387   6.519  0.1771  0.3810 -0.1014
 6110SOL    HW129966   1.304   1.398   6.610  0.1400  0.0506 -0.0760
 6110SOL    HW229967   1.291   1.468   6.489 -0.8125  0.2138  0.8270
 6111SOL     OW29968   3.337   2.162   3.022  0.2964 -0.0128  0.4963
 6111SOL    HW129969   3.281   2.098   2.978  0.7476  1.3471 -2.0873
 6111SOL    HW229970   3.339   2.236   2.961  2.2782 -1.2477 -0.9366
 6112SOL     OW29971   0.508   3.927  14.427  0.2830  0.1357 -0.1307
 6112SOL    HW129972   0.473   3.948  14.513  2.1812 -1.7065  1.0707
 6112SOL    HW229973   0.556   4.007  14.402 -0.4063  0.0931 -1.6308
 6113SOL     OW29974   1.683   0.674   1.207 -0.1208  0.1036  1.0101
 6113SOL    HW129975   1.614   0.737   1.225  0.0434  0.7686 -0.6945
 6113SOL    HW229976   1.669   0.614   1.280 -1.7021  2.1310  2.3760
 6114SOL     OW29977   1.668   4.622   3.693  0.5170 -0.2439 -0.2763
 6114SOL    HW129978   1.742   4.580   3.650  2.6925 -0.1618  3.3378
 6114SOL    HW229979   1.603   4.607   3.626  1.6985  1.2040 -1.7494
 6115SOL     OW29980   3.362   0.454   4.410 -0.2655 -0.4477  0.6753
 6115SOL    HW129981   3.305   0.488   4.479 -1.3345 -1.9126  0.5370
 6115SOL    HW229982   3.344   0.517   4.341  0.9610 -0.8590 -0.0166
 6116SOL     OW29983   1.231   1.684  12.301  0.2530 -0.0948  0.0271
 6116SOL    HW129984   1.302   1.654  12.358 -2.6156 -2.3222  2.4207
 6116SOL    HW229985   1.246   1.779  12.310 -0.3996  0.0392 -0.2782
 6117SOL     OW29986   0.272   1.874   6.609  0.5269  0.0934 -0.4203
 6117SOL    HW129987   0.277   1.782   6.583  2.4101  0.6124 -1.9394
 6117SOL    HW229988   0.184   1.884   6.644  0.2207 -0.4359 -1.0243
 6118SOL     OW29989   3.594   0.855   8.853 -0.3482 -0.3272  0.1336
 6118SOL    HW129990   3.537   0.795   8.902 -1.7397  0.7181 -0.1924
 6118SOL    HW229991   3.528   0.920   8.825 -0.7205 -1.0921 -0.7595
 6119SOL     OW29992   4.210   2.834   2.451 -0.0803 -0.2243  0.8125
 6119SOL    HW129993   4.255   2.750   2.444 -0.7746 -0.5272 -0.0083
 6119SOL    HW229994   4.136   2.821   2.510 -0.2825 -1.3922  0.2933
 6120SOL     OW29995   3.540   4.510  13.490 -0.2536  0.4696  0.5236
 6120SOL    HW129996   3.529   4.581  13.553  1.3603  2.0892 -1.0502
 6120SOL    HW229997   3.518   4.436  13.547 -0.5434 -0.8665 -1.2897
 6121SOL     OW29998   0.548   2.348   1.497 -0.1509  0.6167  0.6101
 6121SOL    HW129999   0.550   2.287   1.424 -1.7705  0.5647  0.6176
 6121SOL    HW230000   0.634   2.327   1.533  0.2379  0.3195 -0.4988
 6122SOL     OW30001   1.629   3.478   0.752  0.5434  0.0805 -0.1388
 6122SOL    HW130002   1.605   3.386   0.764 -2.1565  0.6230 -1.4188
 6122SOL    HW230003   1.564   3.526   0.804 -0.4113 -1.7131  0.3327
 6123SOL     OW30004   1.096   1.763   6.200 -0.3033 -0.5707  0.4365
 6123SOL    HW130005   1.101   1.775   6.105 -2.1680  0.6411  0.4820
 6123SOL    HW230006   1.008   1.797   6.217 -0.1984 -1.0550  1.9216
 6124SOL     OW30007   3.446   2.457   6.710 -0.3262 -0.4974  0.1124
 6124SOL    HW130008   3.398   2.450   6.792 -0.2218  0.8607  0.2850
 6124SOL    HW230009   3.442   2.365   6.683 -0.3124 -0.2466 -0.7706
 6125SOL     OW30010   4.025   0.742   0.886 -0.0019 -0.4499 -0.4455
 6125SOL    HW130011   4.058   0.826   0.855  0.3064 -0.7461 -0.9185
 6125SOL    HW230012   3.950   0.767   0.939 -0.1312 -0.7864 -0.4692
 6126SOL     OW30013   1.134   3.749   5.376 -0.2776 -0.0480  0.5126
 6126SOL    HW130014   1.117   3.798   5.296 -3.4401 -1.4316  0.3147
 6126SOL    HW230015   1.049   3.719   5.408 -0.6860 -0.0296 -0.5750
 6127SOL     OW30016   3.449   0.398   3.979 -0.1374 -0.4632  0.0470
 6127SOL    HW130017   3.355   0.380   3.977 -0.0396 -0.9219 -0.3945
 6127SOL    HW230018   3.453   0.469   3.914 -2.1118 -0.7529 -0.3763
 6128SOL     OW30019   0.513   0.513  11.289 -0.1313  0.0520 -0.3814
 6128SOL    HW130020   0.453   0.575  11.328 -1.3996 -0.8500 -0.8878
 6128SOL    HW230021   0.536   0.465  11.368  2.9274  0.2003 -1.1664
 6129SOL     OW30022   4.432   4.692   0.643 -0.2289 -0.3078  0.7394
 6129SOL    HW130023   4.355   0.002   0.610  0.6780 -0.0147 -0.9508
 6129SOL    HW230024   4.498   4.727   0.583 -0.0745  1.2379  1.8042
 6130SOL     OW30025   1.943   0.326   1.479 -0.0619  0.3481  0.5061
 6130SOL    HW130026   1.996   0.259   1.437 -0.2078 -0.3576  1.4350
 6130SOL    HW230027   1.882   0.274   1.532 -2.0881  0.7476 -1.4276
 6131SOL     OW30028   0.787   2.300   3.761  0.4864 -0.4198  0.1088
 6131SOL    HW130029   0.838   2.381   3.755  0.1419 -0.4441 -3.3593
 6131SOL    HW230030   0.718   2.313   3.696  0.1916  2.8351  1.0314
 6132SOL     OW30031   1.060   0.427  13.708 -0.0709 -0.1827 -0.3465
 6132SOL    HW130032   0.981   0.394  13.751 -0.7871  2.4839  0.3894
 6132SOL    HW230033   1.128   0.360  13.711 -0.7286 -0.7343  2.5509
 6133SOL     OW30034   4.207   0.937  16.601 -0.0556 -0.2103  0.1465
 6133SOL    HW130035   4.293   0.944  16.561 -1.0886 -0.1949 -2.0526
 6133SOL    HW230036   4.192   1.026  16.632  1.3842  0.0869 -0.0138
 6134SOL     OW30037   3.079   0.172   3.125 -0.0714  0.6378 -0.4193
 6134SOL    HW130038   3.112   0.255   3.158 -1.0277  1.6913 -2.1382
 6134SOL    HW230039   3.132   0.159   3.046  0.6761 -1.1672  0.3784
 6135SOL     OW30040   3.009   1.227  14.960 -0.4416  0.3419  0.1406
 6135SOL    HW130041   3.092   1.201  15.000 -1.8850 -2.0652  1.5810
 6135SOL    HW230042   2.957   1.239  15.040 -1.1714  2.0743 -0.5822
 6136SOL     OW30043   2.331   2.402  10.731 -0.5736 -0.2317  0.0937
 6136SOL    HW130044   2.334   2.334  10.664 -0.6026 -1.4498  1.3477
 6136SOL    HW230045   2.261   2.368  10.787 -3.3206  3.5124 -1.0491
 6137SOL     OW30046   3.593   1.233   5.496 -0.3173  0.0128 -0.0750
 6137SOL    HW130047   3.541   1.309   5.467 -1.1958 -0.3727  0.4947
 6137SOL    HW230048   3.608   1.266   5.584 -0.7659  3.2727 -1.2124
 6138SOL     OW30049   1.265   3.212  13.989 -0.3807 -0.0417  0.1696
 6138SOL    HW130050   1.223   3.140  13.942 -0.1247 -0.0466 -0.0580
 6138SOL    HW230051   1.187   3.259  14.018  0.6651  0.8070  1.6283
 6139SOL     OW30052   3.748   3.205   6.913 -0.5203 -0.6595 -0.2019
 6139SOL    HW130053   3.834   3.162   6.907 -0.0051  0.3131  0.2565
 6139SOL    HW230054   3.710   3.172   6.995  0.8055 -0.0009  0.6859
 6140SOL     OW30055   3.834   3.847   9.600 -0.3218  0.6286 -0.1555
 6140SOL    HW130056   3.873   3.927   9.565 -0.8336 -0.3512 -2.9891
 6140SOL    HW230057   3.778   3.884   9.669 -1.6236 -0.6483 -0.5139
 6141SOL     OW30058   3.579   4.141  15.994 -0.2247  0.6227  0.2504
 6141SOL    HW130059   3.565   4.229  16.028  2.4914  1.2055 -0.1247
 6141SOL    HW230060   3.495   4.112  15.957  0.7257 -1.7532 -0.0400
 6142SOL     OW30061   1.050   3.236   6.670 -0.1912 -0.2407  0.1748
 6142SOL    HW130062   1.016   3.324   6.685 -0.1203  0.0987 -1.7267
 6142SOL    HW230063   1.140   3.254   6.698 -0.1666 -0.1887  0.0623
 6143SOL     OW30064   4.291   0.855   9.366 -0.4597  0.3092  0.0421
 6143SOL    HW130065   4.259   0.768   9.391 -0.7577  0.2927 -0.4168
 6143SOL    HW230066   4.209   0.901   9.349 -1.3180 -2.2887 -2.8537
 6144SOL     OW30067   3.700   1.864   1.494  0.3754 -0.3140  0.0429
 6144SOL    HW130068   3.641   1.931   1.458  0.2059 -0.6644 -0.3345
 6144SOL    HW230069   3.774   1.916   1.524  0.6376 -1.7093  1.8278
 6145SOL     OW30070   4.189   3.425   0.839  0.4012  0.1213  0.9965
 6145SOL    HW130071   4.149   3.499   0.884 -0.2614 -1.8238  3.5719
 6145SOL    HW230072   4.282   3.445   0.850  0.6127  0.4000 -1.2330
 6146SOL     OW30073   4.191   2.394   4.323 -0.4464  0.0586 -0.6371
 6146SOL    HW130074   4.112   2.363   4.279 -0.1090 -0.5623 -0.8106
 6146SOL    HW230075   4.203   2.473   4.270 -1.0805 -0.6199 -1.7958
 6147SOL     OW30076   2.084   4.271   7.924  0.0740  0.1125 -0.3157
 6147SOL    HW130077   2.026   4.346   7.939  1.3240  1.1855 -0.8128
 6147SOL    HW230078   2.131   4.254   8.006  1.2368  0.6005 -0.8747
 6148SOL     OW30079   3.740   2.902  11.176 -0.3048  0.1237 -0.3678
 6148SOL    HW130080   3.652   2.940  11.185 -0.1645  0.1522  0.9575
 6148SOL    HW230081   3.724   2.830  11.115 -0.4962  0.6172 -0.8908
 6149SOL     OW30082   2.289   0.834  16.583 -0.4226 -0.0566 -0.1399
 6149SOL    HW130083   2.385   0.834  16.574 -0.2947 -2.0369  1.1833
 6149SOL    HW230084   2.266   0.847  16.492 -0.6115 -1.8034 -0.3316
 6150SOL     OW30085   1.836   1.140  12.648 -0.1688 -0.2574  0.2983
 6150SOL    HW130086   1.883   1.183  12.720 -0.2797  0.0891  0.1610
 6150SOL    HW230087   1.884   1.057  12.652  2.2647  1.2416  2.6208
 6151SOL     OW30088   1.064   4.445  11.210 -0.6208 -0.1324 -0.6700
 6151SOL    HW130089   1.043   4.424  11.119 -0.5802 -0.1610 -0.6729
 6151SOL    HW230090   0.976   4.458  11.246  0.2602 -0.0752  1.4488
 6152SOL     OW30091   3.736   1.166   1.993 -0.5076 -0.4212 -0.0480
 6152SOL    HW130092   3.808   1.186   1.934 -1.8389  1.8678 -0.8688
 6152SOL    HW230093   3.700   1.088   1.952 -1.6545  0.5104 -0.8150
 6153SOL     OW30094   2.203   0.599   4.891 -0.0563  0.0293 -0.1942
 6153SOL    HW130095   2.292   0.591   4.926 -0.1178  0.2059  0.0009
 6153SOL    HW230096   2.174   0.674   4.942 -1.0678 -0.4841 -0.0188
 6154SOL     OW30097   1.849   2.885   2.049  0.6966  0.2340 -0.0529
 6154SOL    HW130098   1.886   2.797   2.035 -1.8633 -0.7315 -0.7192
 6154SOL    HW230099   1.897   2.900   2.130  0.1484 -1.9998  0.6875
 6155SOL     OW30100   2.343   0.816   6.940  0.4362  0.0609  0.5574
 6155SOL    HW130101   2.433   0.840   6.963  1.2526 -0.3413 -2.3009
 6155SOL    HW230102   2.291   0.873   6.996  0.7594 -0.4941  1.4243
 6156SOL     OW30103   3.559   3.416  11.926  0.1823  0.0484 -0.2998
 6156SOL    HW130104   3.634   3.379  11.879  0.7518 -0.1374  0.7539
 6156SOL    HW230105   3.501   3.431  11.851 -1.3098 -1.1420  0.6223
 6157SOL     OW30106   1.275   2.468  10.000 -0.1655  0.4957 -0.5819
 6157SOL    HW130107   1.369   2.452   9.988 -0.6009 -1.1067 -1.8176
 6157SOL    HW230108   1.246   2.405   9.934 -2.2120 -1.2155  1.9548
 6158SOL     OW30109   2.434   3.989  11.824 -0.0940 -0.0869 -0.2062
 6158SOL    HW130110   2.374   4.059  11.798  0.8199  0.3580 -1.0747
 6158SOL    HW230111   2.414   3.920  11.760  0.1049  1.0829 -1.5241
 6159SOL     OW30112   2.530   0.372  10.687 -0.5541  0.2319 -0.2876
 6159SOL    HW130113   2.598   0.336  10.744  0.7646  0.8598 -1.4695
 6159SOL    HW230114   2.584   0.430  10.632  1.2911 -0.2434  1.0241
 6160SOL     OW30115   3.555   1.983   3.598 -0.2258 -0.1610  0.6451
 6160SOL    HW130116   3.565   1.891   3.621 -3.1129  0.0677  2.6927
 6160SOL    HW230117   3.514   2.015   3.678  2.1105 -1.7455  2.4710
 6161SOL     OW30118   1.685   4.568   8.375 -0.1743 -0.1506 -0.1328
 6161SOL    HW130119   1.768   4.538   8.339 -2.0650 -3.4635 -1.7372
 6161SOL    HW230120   1.656   4.482   8.405  0.2450  0.8617  3.2288
 6162SOL     OW30121   4.319   3.988  10.549  0.1430  0.2078  0.0332
 6162SOL    HW130122   4.390   3.928  10.573 -1.6440 -2.5830 -1.7171
 6162SOL    HW230123   4.273   4.009  10.630 -0.8618  3.8823 -1.4607
 6163SOL     OW30124   3.494   0.920   5.488  0.0355  0.0756  0.2423
 6163SOL    HW130125   3.560   0.851   5.485 -0.0485 -0.0080  0.3495
 6163SOL    HW230126   3.543   0.990   5.532  0.4843  1.6191 -2.6564
 6164SOL     OW30127   1.824   2.125   6.015  0.4091 -0.0272  0.0236
 6164SOL    HW130128   1.882   2.126   5.938  2.2789 -1.1013  1.4177
 6164SOL    HW230129   1.798   2.217   6.016 -0.3889 -0.2673  1.8646
 6165SOL     OW30130   0.036   0.931   5.796  0.1336 -0.1255  0.2916
 6165SOL    HW130131   0.046   0.896   5.884 -1.8078 -1.1722  0.0986
 6165SOL    HW230132   4.698   0.991   5.801  1.1512  1.1882 -0.1488
 6166SOL     OW30133   2.327   3.204   0.712  0.0111  0.1415 -0.0999
 6166SOL    HW130134   2.356   3.246   0.632  0.8003 -2.1374 -1.0296
 6166SOL    HW230135   2.237   3.186   0.685 -0.4576  1.3808  0.6331
 6167SOL     OW30136   2.808   4.400   7.499  0.0299 -0.5722 -0.3024
 6167SOL    HW130137   2.716   4.380   7.484  0.0690  0.8265 -2.3557
 6167SOL    HW230138   2.812   4.495   7.510  2.3599 -0.4546 -2.1109
 6168SOL     OW30139   3.955   3.523   2.744 -0.2373 -0.8992  0.9586
 6168SOL    HW130140   4.013   3.561   2.810 -0.1406  1.7846 -0.6804
 6168SOL    HW230141   3.891   3.592   2.727 -0.3539 -0.8209  1.7195
 6169SOL     OW30142   0.465   2.614   5.914  0.1225  0.7754  0.2115
 6169SOL    HW130143   0.432   2.525   5.927  0.3132  0.9101  1.6165
 6169SOL    HW230144   0.522   2.599   5.838  2.3425 -0.2663  2.0696
 6170SOL     OW30145   3.211   2.992   7.584  0.0260  0.1420 -0.3968
 6170SOL    HW130146   3.214   2.918   7.644  1.4732 -0.9954 -1.8389
 6170SOL    HW230147   3.166   3.061   7.633  1.7663 -0.4933  2.1042
 6171SOL     OW30148   0.888   3.607   0.502  0.7244 -0.0930 -0.1891
 6171SOL    HW130149   0.868   3.589   0.594  1.7254 -0.8194 -0.1150
 6171SOL    HW230150   0.824   3.551   0.458  4.0943 -3.5749 -0.6707
 6172SOL     OW30151   3.635   1.931   7.942 -0.1392  0.5272  0.1404
 6172SOL    HW130152   3.674   1.969   8.021  0.5013 -2.1660  1.0915
 6172SOL    HW230153   3.617   1.840   7.962 -0.1947  0.2713 -1.0706
 6173SOL     OW30154   1.895   1.533   7.138  0.1890 -0.2416 -0.5215
 6173SOL    HW130155   1.961   1.488   7.085 -0.0623  1.1003 -1.9596
 6173SOL    HW230156   1.846   1.464   7.183  0.3655 -0.2954 -0.4081
 6174SOL     OW30157   1.047   0.602   3.923  0.3946  0.2286 -0.1306
 6174SOL    HW130158   1.020   0.658   3.850  0.3910  0.7556  0.2736
 6174SOL    HW230159   1.102   0.659   3.977  1.8260 -1.3599  0.0871
 6175SOL     OW30160   0.109   2.336   4.893 -0.1194  0.2487  0.7311
 6175SOL    HW130161   0.178   2.287   4.848 -0.4352  1.0935 -0.6714
 6175SOL    HW230162   0.042   2.268   4.902  0.9881 -1.2101 -2.0434
 6176SOL     OW30163   1.493   4.204  12.480 -0.4679 -1.0005 -0.8053
 6176SOL    HW130164   1.498   4.112  12.503  1.6472 -0.5619  0.4860
 6176SOL    HW230165   1.455   4.196  12.393 -0.2482  0.9888 -1.0783
 6177SOL     OW30166   2.474   2.209  13.166  0.0591  0.2232 -0.9721
 6177SOL    HW130167   2.565   2.238  13.169  1.1340 -3.2133 -1.4387
 6177SOL    HW230168   2.430   2.287  13.200  1.6016  0.7195 -0.0884
 6178SOL     OW30169   3.560   4.302   3.702  0.0782 -0.3471  0.0882
 6178SOL    HW130170   3.640   4.253   3.720 -0.5418 -1.5631 -0.4376
 6178SOL    HW230171   3.515   4.245   3.640  1.2755 -2.7294  1.4235
 6179SOL     OW30172   2.490   3.438   4.607  0.4228 -0.6332  0.0028
 6179SOL    HW130173   2.495   3.421   4.513  0.8122 -0.3272 -0.0322
 6179SOL    HW230174   2.496   3.351   4.647  0.2974 -0.6320  0.0238
 6180SOL     OW30175   0.724   3.249   0.283  0.1264  0.8261 -0.2469
 6180SOL    HW130176   0.790   3.227   0.349 -1.6026 -1.8520  0.5823
 6180SOL    HW230177   0.694   3.330   0.325 -1.0786  0.6615 -0.7950
 6181SOL     OW30178   1.302   3.985   7.981 -0.3516  0.5823 -0.3841
 6181SOL    HW130179   1.302   3.960   8.073  1.9276 -0.5050 -0.7036
 6181SOL    HW230180   1.216   4.026   7.971  0.9177  2.9049 -1.6788
 6182SOL     OW30181   0.301   0.068   3.430 -0.0099  0.4561  0.7341
 6182SOL    HW130182   0.275   0.019   3.507 -2.2165  0.3871 -0.0379
 6182SOL    HW230183   0.309   0.000   3.363 -0.8368  1.7297 -0.6549
 6183SOL     OW30184   0.118   2.469   6.907  0.9529  0.5160  0.4036
 6183SOL    HW130185   0.138   2.548   6.857 -0.4388  0.0065 -0.9738
 6183SOL    HW230186   0.141   2.400   6.845  2.2473  0.5388  0.8618
 6184SOL     OW30187   2.274   4.707  10.739 -0.4059  0.1232 -0.4727
 6184SOL    HW130188   2.269   0.066  10.748  0.8953  0.1914 -0.4720
 6184SOL    HW230189   2.189   4.676  10.708 -0.2687  0.4577 -1.1935
 6185SOL     OW30190   4.092   2.750   7.485  0.1710  0.7037  0.7229
 6185SOL    HW130191   4.093   2.682   7.417  0.4758  1.8689 -0.4370
 6185SOL    HW230192   4.002   2.781   7.484 -0.9983 -2.6803  1.7715
 6186SOL     OW30193   4.177   1.739  14.922 -0.4038  0.5426 -0.3745
 6186SOL    HW130194   4.102   1.702  14.875  2.0568 -1.7650 -2.4116
 6186SOL    HW230195   4.170   1.830  14.892  0.6283  1.3556  1.9046
 6187SOL     OW30196   2.380   2.254   6.229 -0.7622 -0.6854 -0.1525
 6187SOL    HW130197   2.369   2.195   6.155 -0.4610 -2.8100  1.4766
 6187SOL    HW230198   2.313   2.239   6.296  0.3807 -0.9144  0.9428
 6188SOL     OW30199   0.467   3.649  15.310 -0.6863  0.1333 -0.2168
 6188SOL    HW130200   0.476   3.674  15.402  1.5307 -2.0206  0.1598
 6188SOL    HW230201   0.444   3.557  15.325  0.1094 -0.0217  0.0627
 6189SOL     OW30202   0.618   2.527   0.049 -0.6121 -0.1541  0.1751
 6189SOL    HW130203   0.643   2.616   0.074  0.3289  0.4772 -3.0664
 6189SOL    HW230204   0.582   2.555  17.709 -1.4233  1.0765  0.9304
 6190SOL     OW30205   2.132   1.640   5.469 -0.0319  0.0438 -0.7294
 6190SOL    HW130206   2.107   1.574   5.533  0.4125 -1.1681 -1.7816
 6190SOL    HW230207   2.133   1.721   5.519  0.4650 -1.1635  1.2379
 6191SOL     OW30208   3.497   4.717   9.214  0.4142  0.1713  0.4477
 6191SOL    HW130209   3.410   0.017   9.230  0.5685 -0.3044  2.3457
 6191SOL    HW230210   3.536   0.044   9.154 -1.2493 -1.7624 -2.7285
 6192SOL     OW30211   0.905   1.670   4.899  0.3159 -0.3238 -0.6005
 6192SOL    HW130212   0.882   1.689   4.990 -1.0568  1.0652 -1.2469
 6192SOL    HW230213   0.945   1.753   4.875 -1.0292  0.7731  0.9344
 6193SOL     OW30214   0.923   3.477   6.733  0.6071 -0.5603  0.0033
 6193SOL    HW130215   0.985   3.496   6.803  0.2368  4.7776 -1.0616
 6193SOL    HW230216   0.842   3.481   6.783  0.3625 -2.1083 -0.2737
 6194SOL     OW30217   2.414   1.409  11.224 -0.0028  0.7323 -0.3017
 6194SOL    HW130218   2.361   1.482  11.192  1.6596  1.5083 -1.2758
 6194SOL    HW230219   2.501   1.435  11.192  0.2348 -0.3027 -0.4760
 6195SOL     OW30220   2.629   3.195  12.674 -0.2792  0.3579  0.6383
 6195SOL    HW130221   2.701   3.188  12.737 -1.6078  0.8787  2.2099
 6195SOL    HW230222   2.555   3.156  12.719 -0.0103 -0.8788 -0.0007
 6196SOL     OW30223   2.455   0.243   7.739 -0.1058  0.2250  0.5371
 6196SOL    HW130224   2.520   0.236   7.669 -1.5249 -3.0684 -0.4408
 6196SOL    HW230225   2.397   0.309   7.701 -0.7416  0.0788  1.2590
 6197SOL     OW30226   2.614   2.423   8.709 -0.6799 -0.3253 -0.3870
 6197SOL    HW130227   2.624   2.516   8.728 -1.6799 -0.0573 -1.1564
 6197SOL    HW230228   2.648   2.383   8.789 -0.6230  1.9846  0.7390
 6198SOL     OW30229   1.443   3.418   8.554  0.0557  0.4651  0.8460
 6198SOL    HW130230   1.453   3.431   8.460 -1.5117  0.2208  0.6485
 6198SOL    HW230231   1.534   3.424   8.583  0.0255  1.1301  0.8111
 6199SOL     OW30232   1.956   3.204   3.181  0.2675 -0.4797 -0.3356
 6199SOL    HW130233   1.902   3.263   3.233  3.6605  1.9931  0.3655
 6199SOL    HW230234   1.928   3.117   3.208 -1.5183 -0.4532 -2.1216
 6200SOL     OW30235   1.757   0.105   7.066  0.5001  0.3332  0.1083
 6200SOL    HW130236   1.839   0.069   7.100  0.7264  0.5004 -0.2622
 6200SOL    HW230237   1.786   0.128   6.978 -3.8146  0.3992 -1.2972
 6201SOL     OW30238   0.658   1.046   0.442 -0.0270 -0.1117 -0.3467
 6201SOL    HW130239   0.591   1.021   0.505  0.7098  0.5035  0.6590
 6201SOL    HW230240   0.739   1.016   0.484  0.1539  2.8284  1.3693
 6202SOL     OW30241   4.313   2.750   4.173  0.1396 -0.4709  0.1326
 6202SOL    HW130242   4.248   2.699   4.124 -0.4371  0.1659  0.2376
 6202SOL    HW230243   4.387   2.735   4.115 -0.0417 -1.9178  0.2630
 6203SOL     OW30244   4.223   2.453  14.196  0.5451  0.2710 -0.0951
 6203SOL    HW130245   4.143   2.401  14.203  0.4250  0.1781 -2.0119
 6203SOL    HW230246   4.190   2.537  14.165 -0.4688 -0.2325 -0.3930
 6204SOL     OW30247   3.220   1.367   6.989 -0.3905  0.0545  0.4554
 6204SOL    HW130248   3.219   1.457   7.020  0.2681 -0.6898  2.6888
 6204SOL    HW230249   3.145   1.329   7.035  0.4990 -0.6896  1.3175
 6205SOL     OW30250   2.213   1.525   6.370 -0.1399 -0.2823  0.1985
 6205SOL    HW130251   2.267   1.454   6.336 -1.2231 -0.4930 -1.1000
 6205SOL    HW230252   2.213   1.586   6.296  0.3105 -0.3737  0.1276
 6206SOL     OW30253   4.059   2.690   9.671 -0.1245  0.2226  0.0204
 6206SOL    HW130254   4.088   2.731   9.590  0.4032 -0.4779 -0.1471
 6206SOL    HW230255   4.129   2.628   9.692  1.2907  1.5856 -0.7238
 6207SOL     OW30256   0.891   2.411   0.064 -0.6618 -0.2725  0.5487
 6207SOL    HW130257   0.819   2.457   0.106 -1.0514  0.3135 -0.7716
 6207SOL    HW230258   0.905   2.337   0.123  0.0967  0.9062  1.8579
 6208SOL     OW30259   4.635   4.603  14.456 -0.5016 -0.0520  0.4752
 6208SOL    HW130260   4.598   4.548  14.525  1.0545 -0.2246  1.1891
 6208SOL    HW230261   4.725   4.598  14.490 -0.3562 -1.0909 -0.0443
 6209SOL     OW30262   2.703   3.930   9.740 -0.2551  0.5035  0.3698
 6209SOL    HW130263   2.641   3.973   9.799 -1.1826  0.0326 -0.2592
 6209SOL    HW230264   2.652   3.868   9.688 -0.2863 -0.1480  1.1737
 6210SOL     OW30265   2.354   0.633  13.096 -0.3329 -0.4199  0.4952
 6210SOL    HW130266   2.384   0.718  13.128 -0.8966  0.1522 -0.4967
 6210SOL    HW230267   2.261   0.639  13.117 -0.0380  1.2169  1.3588
 6211SOL     OW30268   3.326   2.187   7.546 -0.4877  0.5691 -0.0494
 6211SOL    HW130269   3.259   2.255   7.550 -0.1416  0.7788  2.3014
 6211SOL    HW230270   3.317   2.150   7.634 -0.6869 -0.5494 -0.5523
 6212SOL     OW30271   0.592   3.840  17.173 -0.0040 -0.5398  0.0901
 6212SOL    HW130272   0.653   3.769  17.195  0.2057 -0.2586  0.4196
 6212SOL    HW230273   0.600   3.841  17.078 -1.3482  2.0126  0.0106
 6213SOL     OW30274   0.116   2.909  14.754 -0.2898 -0.0995 -0.5123
 6213SOL    HW130275   0.201   2.881  14.789 -0.3028 -0.2895 -0.6348
 6213SOL    HW230276   0.140   2.999  14.729  1.1672 -0.8675 -1.8821
 6214SOL     OW30277   3.803   2.973   9.960 -0.1135 -0.1350 -0.0794
 6214SOL    HW130278   3.895   2.954   9.939 -0.3959 -1.6673  0.0936
 6214SOL    HW230279   3.791   3.060   9.923 -1.2064  0.3497  1.4101
 6215SOL     OW30280   0.110   1.748  15.516  0.3523  0.0747  0.3979
 6215SOL    HW130281   0.036   1.808  15.506 -0.8512 -1.5165 -0.2527
 6215SOL    HW230282   0.136   1.753  15.608  1.3359  1.0728  0.0652
 6216SOL     OW30283   0.276   3.611   9.342  0.3267 -0.9101 -0.4235
 6216SOL    HW130284   0.233   3.675   9.285 -0.8898 -0.4865  0.9753
 6216SOL    HW230285   0.293   3.543   9.276  0.2878 -0.4123 -0.9433
 6217SOL     OW30286   3.272   2.814   8.907 -0.1228 -0.2274  0.6490
 6217SOL    HW130287   3.242   2.875   8.974  0.9317  1.3341 -0.2971
 6217SOL    HW230288   3.209   2.741   8.908  0.5425 -0.8204 -0.2004
 6218SOL     OW30289   2.778   0.785   7.946 -0.1550 -0.1973 -0.3662
 6218SOL    HW130290   2.684   0.797   7.931 -0.5462  0.3512  2.5027
 6218SOL    HW230291   2.785   0.853   8.013 -0.5669  0.4441 -0.9715
 6219SOL     OW30292   2.125   3.895   0.309 -0.4529  0.0692  0.0013
 6219SOL    HW130293   2.212   3.861   0.331 -0.2581 -2.1850 -4.2827
 6219SOL    HW230294   2.127   3.909   0.214 -0.7364 -1.4444 -0.2168
 6220SOL     OW30295   1.931   1.396   8.093 -0.1082  0.3028  0.1745
 6220SOL    HW130296   1.893   1.482   8.074 -0.8228  0.3774  1.9783
 6220SOL    HW230297   1.904   1.387   8.184  0.8292  0.8059  0.5051
 6221SOL     OW30298   4.549   4.127   2.463  0.4581  0.1186  0.0981
 6221SOL    HW130299   4.538   4.150   2.370  0.1410 -1.4688 -0.2634
 6221SOL    HW230300   4.486   4.183   2.507 -0.3891 -0.3354 -0.5354
 6222SOL     OW30301   2.047   1.341   1.846 -0.0249  0.0276 -0.7091
 6222SOL    HW130302   2.078   1.369   1.760  2.8162 -2.2236 -0.4066
 6222SOL    HW230303   2.030   1.249   1.825  0.8023 -0.0153 -1.1807
 6223SOL     OW30304   1.317   0.695   2.231  0.2976 -0.2814 -0.2188
 6223SOL    HW130305   1.408   0.700   2.261  0.4445  0.2867 -0.7702
 6223SOL    HW230306   1.282   0.635   2.297  3.3741 -3.7598 -1.7269
 6224SOL     OW30307   1.336   1.523   7.082  0.0611 -0.1626  0.0298
 6224SOL    HW130308   1.316   1.608   7.045  1.9007  0.7323  1.1006
 6224SOL    HW230309   1.426   1.504   7.055 -0.6170 -1.3878 -1.3717
 6225SOL     OW30310   0.824   2.585   7.186  0.2154 -0.6361  0.0595
 6225SOL    HW130311   0.768   2.556   7.258 -0.9688  1.7749  0.1357
 6225SOL    HW230312   0.798   2.677   7.174 -0.2119 -0.8788 -0.8147
 6226SOL     OW30313   4.026   4.638   6.773  0.1583 -0.1162 -0.1227
 6226SOL    HW130314   3.996   4.728   6.765 -1.6175 -0.8139 -1.5184
 6226SOL    HW230315   4.057   4.632   6.682  1.1509 -0.5250  0.2426
 6227SOL     OW30316   2.165   1.696   7.671  0.1452 -0.1436 -0.3150
 6227SOL    HW130317   2.174   1.614   7.720 -1.1679  0.9431  1.7518
 6227SOL    HW230318   2.072   1.715   7.659  0.4966  2.4336  1.0368
 6228SOL     OW30319   3.760   2.239  15.308  0.0794  0.8516  0.2203
 6228SOL    HW130320   3.766   2.328  15.344  0.7942  0.5984  0.7314
 6228SOL    HW230321   3.782   2.243  15.215  0.7168 -1.7340  0.2708
 6229SOL     OW30322   0.146   0.900   7.034  0.0203  0.2006  0.1193
 6229SOL    HW130323   0.063   0.909   7.080  0.1818 -1.0454  0.6455
 6229SOL    HW230324   0.199   0.962   7.084 -1.2811  1.8811 -0.5929
 6230SOL     OW30325   0.208   3.617  11.726  0.0995 -0.0523 -0.6163
 6230SOL    HW130326   0.184   3.666  11.648 -2.1230  0.2299  0.2425
 6230SOL    HW230327   0.129   3.621  11.780  0.9082 -0.0551  0.5835
 6231SOL     OW30328   4.552   2.145  16.139 -0.1417 -0.3539  0.2881
 6231SOL    HW130329   4.479   2.195  16.102  0.6078  0.4842 -0.0786
 6231SOL    HW230330   4.627   2.202  16.121 -2.2391  2.4492  0.3822
 6232SOL     OW30331   0.876   4.425   7.089  0.4055  0.0889 -0.5116
 6232SOL    HW130332   0.845   4.386   7.171  2.2965  0.8496  0.5791
 6232SOL    HW230333   0.967   4.395   7.090  0.5624  0.5696  0.5469
 6233SOL     OW30334   0.013   1.727  10.909 -0.0082  0.1290  0.0068
 6233SOL    HW130335   4.710   1.666  10.846  0.4698 -0.2823  0.1040
 6233SOL    HW230336   0.039   1.673  10.984 -0.0457 -0.5147 -0.4446
 6234SOL     OW30337   2.741   1.298   2.041  0.0684  0.9199 -0.7437
 6234SOL    HW130338   2.769   1.252   2.120  0.1377  0.5932 -0.9571
 6234SOL    HW230339   2.647   1.282   2.049 -0.4356  3.9179 -0.6696
 6235SOL     OW30340   1.007   2.509   4.009 -0.1431 -0.2605  0.0425
 6235SOL    HW130341   1.065   2.454   3.955 -0.3783  0.0337 -0.5129
 6235SOL    HW230342   1.064   2.549   4.074 -0.6232 -1.8208  1.4266
 6236SOL     OW30343   4.002   4.617   2.885 -0.3109 -0.2162  0.1143
 6236SOL    HW130344   4.044   4.623   2.970 -0.7662  0.9047  0.2567
 6236SOL    HW230345   3.931   4.682   2.884 -1.1916 -1.1704  1.2601
 6237SOL     OW30346   1.573   0.708   6.438  0.3667 -0.4064  0.5624
 6237SOL    HW130347   1.611   0.697   6.351 -1.3155 -0.2126 -0.1998
 6237SOL    HW230348   1.629   0.775   6.476 -0.9296  0.6592  0.5773
 6238SOL     OW30349   1.708   3.040  15.372 -0.2688  0.0367 -0.5802
 6238SOL    HW130350   1.613   3.047  15.375 -0.1410  1.5349  0.0468
 6238SOL    HW230351   1.717   2.959  15.322 -0.7798 -0.9124  0.8546
 6239SOL     OW30352   4.276   1.764  16.122 -0.0722 -0.1222 -0.0390
 6239SOL    HW130353   4.291   1.677  16.085 -2.4788  0.2504 -1.8985
 6239SOL    HW230354   4.367   1.787  16.138  0.2345 -1.1900 -0.2048
 6240SOL     OW30355   4.503   0.789   8.863  0.2993  0.0717 -0.1721
 6240SOL    HW130356   4.432   0.729   8.841  0.9450 -1.5134  2.0543
 6240SOL    HW230357   4.480   0.823   8.950 -0.5108 -0.4272 -0.1941
 6241SOL     OW30358   2.807   0.448   2.068 -0.0313 -0.0520  0.4677
 6241SOL    HW130359   2.759   0.531   2.077 -0.4658 -0.1995 -0.4224
 6241SOL    HW230360   2.744   0.376   2.067  0.4357 -0.4602  0.7897
 6242SOL     OW30361   3.178   1.775   6.056 -0.4511 -0.2728  0.1238
 6242SOL    HW130362   3.191   1.775   6.151  1.1216  0.9300 -0.0935
 6242SOL    HW230363   3.171   1.680   6.044  0.3288 -0.5844  2.0320
 6243SOL     OW30364   3.009   2.317   8.820  0.0390  0.3880 -0.3334
 6243SOL    HW130365   2.950   2.290   8.891  0.7310  1.2153  0.5485
 6243SOL    HW230366   3.038   2.405   8.841  0.5739 -0.0666  0.8875
 6244SOL     OW30367   3.402   3.971   7.358  0.1705  0.0473  0.5220
 6244SOL    HW130368   3.416   3.886   7.400 -3.8774  0.0433  1.8602
 6244SOL    HW230369   3.311   3.960   7.330 -0.8251  2.1282  2.9163
 6245SOL     OW30370   0.770   3.670  16.248  0.2611 -0.0462 -0.5047
 6245SOL    HW130371   0.703   3.704  16.308 -0.8401  0.7786 -2.2189
 6245SOL    HW230372   0.774   3.578  16.275  0.6844 -0.2758 -1.3353
 6246SOL     OW30373   2.979   1.225   9.159  0.1854 -0.0744 -0.0069
 6246SOL    HW130374   2.972   1.318   9.140 -1.6635 -0.0732  0.6796
 6246SOL    HW230375   3.005   1.192   9.073  3.4646  0.0455  0.9419
 6247SOL     OW30376   4.400   1.468   4.697 -0.3186  0.2766  0.0598
 6247SOL    HW130377   4.488   1.502   4.713  0.0979 -0.8016  0.0689
 6247SOL    HW230378   4.423   1.384   4.658 -0.3364 -0.6247  1.9912
 6248SOL     OW30379   2.925   0.645   9.328  0.1695  0.4384  0.4461
 6248SOL    HW130380   2.960   0.731   9.351  2.3936  0.5573 -3.3024
 6248SOL    HW230381   2.929   0.587   9.404  2.2527 -0.7060 -0.5261
 6249SOL     OW30382   4.554   2.341  12.259  0.0997  0.8246 -0.3403
 6249SOL    HW130383   4.590   2.273  12.316 -1.1420 -0.4421 -1.0703
 6249SOL    HW230384   4.601   2.419  12.289  0.8384  1.0239 -2.0417
 6250SOL     OW30385   3.930   2.388   7.491  0.0031 -0.5234 -0.1491
 6250SOL    HW130386   3.903   2.319   7.551 -1.2145  0.1804  0.1100
 6250SOL    HW230387   3.884   2.460   7.534  0.1593 -0.6703  0.2646
 6251SOL     OW30388   1.771   4.721   7.812 -0.0360  0.3982  0.1041
 6251SOL    HW130389   1.679   4.701   7.792  0.4121 -1.8425  0.3222
 6251SOL    HW230390   1.795   4.648   7.868 -1.7876 -0.2123  0.0642
 6252SOL     OW30391   0.063   3.128   3.017  0.2479  0.3505  0.1468
 6252SOL    HW130392   0.052   3.222   3.002  1.6843  0.5016 -0.0471
 6252SOL    HW230393   0.014   3.098   2.940 -1.6871  1.3261  1.0121
 6253SOL     OW30394   3.642   0.476   0.157  0.1097  0.1574 -0.5387
 6253SOL    HW130395   3.733   0.463   0.131  0.2171 -1.9486  0.9009
 6253SOL    HW230396   3.623   0.385   0.179 -0.4631  0.0969 -1.2804
 6254SOL     OW30397   2.057   1.433  16.845 -0.3140 -0.7496  0.6432
 6254SOL    HW130398   2.015   1.512  16.811  1.7539 -0.1082 -0.4676
 6254SOL    HW230399   2.048   1.380  16.766 -1.9576  0.9020 -0.2878
 6255SOL     OW30400   4.468   0.838   9.124  0.4753 -0.2575 -0.0755
 6255SOL    HW130401   4.438   0.924   9.153 -0.5500 -0.1743 -1.3652
 6255SOL    HW230402   4.401   0.787   9.169 -0.2031  0.7113  0.0224
 6256SOL     OW30403   2.508   3.798   5.572 -0.4675  0.3534  0.0493
 6256SOL    HW130404   2.427   3.819   5.524 -0.2637 -0.1001 -0.4962
 6256SOL    HW230405   2.475   3.779   5.660 -1.8411 -1.5466 -0.8781
 6257SOL     OW30406   2.014   2.098   7.032 -0.3632  0.3310  0.2082
 6257SOL    HW130407   1.989   2.050   6.952  1.3319 -0.5486  0.1935
 6257SOL    HW230408   2.105   2.126   7.017 -0.9830  0.9305 -2.3826
 6258SOL     OW30409   3.334   2.317   4.515 -0.2151 -0.1480  0.0748
 6258SOL    HW130410   3.255   2.270   4.544  0.0320 -1.2373 -1.0041
 6258SOL    HW230411   3.306   2.406   4.535  0.3655 -0.2245  1.2729
 6259SOL     OW30412   2.127   1.319  16.604 -0.9562  0.2401  0.8700
 6259SOL    HW130413   2.093   1.399  16.564 -1.2472  0.7954  2.2485
 6259SOL    HW230414   2.222   1.326  16.594 -1.0494 -0.1888 -0.3530
 6260SOL     OW30415   2.859   2.303  13.525  0.4404 -0.1709  0.6545
 6260SOL    HW130416   2.872   2.270  13.614  1.6004 -2.2734 -0.3180
 6260SOL    HW230417   2.899   2.390  13.537 -1.1100  0.6974 -0.4609
 6261SOL     OW30418   2.284   0.934  17.036 -0.7255  0.0885  0.2715
 6261SOL    HW130419   2.215   0.975  17.088  0.5604  2.2387  0.2663
 6261SOL    HW230420   2.356   0.992  17.060 -1.7829  1.4569  0.1616
 6262SOL     OW30421   4.174   3.000   5.015 -0.1445 -0.0375  0.0472
 6262SOL    HW130422   4.166   3.095   5.006  2.6603  0.2182  0.1066
 6262SOL    HW230423   4.155   2.996   5.108 -3.7533  1.9074 -0.5887
 6263SOL     OW30424   4.603   0.146   7.171  0.1457 -0.4133 -0.3493
 6263SOL    HW130425   4.662   0.168   7.099 -1.4779  2.8809 -0.6765
 6263SOL    HW230426   4.523   0.136   7.120 -1.0944 -2.1728  1.9423
 6264SOL     OW30427   3.338   0.455   5.440  0.2548 -0.1926  0.3094
 6264SOL    HW130428   3.422   0.484   5.477 -1.0490  0.8668  2.4425
 6264SOL    HW230429   3.328   0.374   5.489 -1.1715 -0.6849 -0.8214
 6265SOL     OW30430   3.271   3.886  13.088  0.2103  0.3451  0.1927
 6265SOL    HW130431   3.365   3.873  13.097  0.3830  1.9745  0.7110
 6265SOL    HW230432   3.240   3.801  13.119  3.0801 -0.7022  0.1896
 6266SOL     OW30433   2.028   0.940   5.575 -0.3625  0.2026 -0.6505
 6266SOL    HW130434   2.009   1.030   5.602  0.6106  0.1875  0.1029
 6266SOL    HW230435   2.058   0.906   5.660 -2.2071  0.8028  0.2344
 6267SOL     OW30436   0.315   1.205   1.963  0.9745 -0.0789  0.1248
 6267SOL    HW130437   0.229   1.190   1.925  0.4090 -0.5068  1.5659
 6267SOL    HW230438   0.290   1.200   2.055  0.6204  2.2210  0.1500
 6268SOL     OW30439   0.733   0.200   4.984 -0.0119  0.5598  0.1433
 6268SOL    HW130440   0.658   0.242   4.941 -0.1475 -0.3562 -0.5245
 6268SOL    HW230441   0.789   0.184   4.908  0.9571  0.8224  0.8187
 6269SOL     OW30442   0.991   4.091   8.044 -0.0410  0.3962 -0.5121
 6269SOL    HW130443   0.898   4.097   8.020  0.4968  0.7776 -2.5077
 6269SOL    HW230444   1.004   4.182   8.070 -0.3787  0.5594 -0.9232
 6270SOL     OW30445   1.437   0.243  11.839  0.0682 -0.4496 -0.4174
 6270SOL    HW130446   1.397   0.156  11.846 -3.4450  1.2490  0.4206
 6270SOL    HW230447   1.354   0.283  11.815 -0.4065 -1.1521  0.0356
 6271SOL     OW30448   4.584   3.014   3.969  0.2593  0.1643 -0.8620
 6271SOL    HW130449   4.620   2.973   3.890  0.5882 -0.8945 -0.1687
 6271SOL    HW230450   4.668   3.022   4.015  0.5255 -0.4258 -1.2460
 6272SOL     OW30451   3.919   0.211   6.569  0.3889 -0.3735 -0.1324
 6272SOL    HW130452   3.876   0.200   6.654  1.0937 -1.6795  0.0507
 6272SOL    HW230453   3.942   0.304   6.579  3.3540 -1.2151  0.9337
 6273SOL     OW30454   3.609   3.731   3.125 -0.3114 -0.4278  0.6832
 6273SOL    HW130455   3.672   3.789   3.083 -1.1245 -0.3626 -0.4354
 6273SOL    HW230456   3.616   3.647   3.079  0.5354  0.3032 -0.5361
 6274SOL     OW30457   3.860   1.847   1.765  0.0303 -0.6350  0.0000
 6274SOL    HW130458   3.770   1.819   1.780  0.3630 -1.9630 -0.4355
 6274SOL    HW230459   3.822   1.926   1.726  0.3557  0.7374  2.4766
 6275SOL     OW30460   2.986   1.637   3.037 -0.4671  0.2485 -0.6407
 6275SOL    HW130461   3.028   1.599   2.960 -0.9667  0.1873 -0.8799
 6275SOL    HW230462   2.916   1.674   2.983  0.4367  1.5781 -0.9197
 6276SOL     OW30463   0.199   1.094  16.702  0.4106 -0.5382  0.1601
 6276SOL    HW130464   0.272   1.093  16.640  0.1638  0.4764 -0.1402
 6276SOL    HW230465   0.253   1.045  16.765 -0.2937 -1.0237  0.3876
 6277SOL     OW30466   0.722   2.477  15.283  0.0729  0.3572  0.3362
 6277SOL    HW130467   0.776   2.553  15.264  0.6640 -0.5345 -1.5941
 6277SOL    HW230468   0.637   2.496  15.245  1.2492  0.4940 -2.2548
 6278SOL     OW30469   3.043   1.840   2.783  0.4342 -0.0614  0.0481
 6278SOL    HW130470   3.034   1.914   2.723  3.2677  0.8530  0.7574
 6278SOL    HW230471   2.950   1.818   2.794  0.6655 -0.9129  0.3467
 6279SOL     OW30472   0.423   2.600  14.612 -0.6816  0.0487 -0.4086
 6279SOL    HW130473   0.403   2.585  14.520  1.1457 -0.1027 -0.7925
 6279SOL    HW230474   0.375   2.535  14.663  0.6395 -0.1439  0.5827
 6280SOL     OW30475   2.709   2.959   5.267  0.4947 -0.3029 -0.2224
 6280SOL    HW130476   2.738   2.926   5.352  2.0459 -3.4019 -1.9552
 6280SOL    HW230477   2.747   3.047   5.265 -5.1150  2.0970  0.6752
 6281SOL     OW30478   0.278   2.935  16.568 -0.1439  0.3946  0.2037
 6281SOL    HW130479   0.333   2.979  16.504 -1.0794  0.3463 -0.6359
 6281SOL    HW230480   0.298   2.843  16.547 -0.2299  0.9940 -2.4536
 6282SOL     OW30481   1.781   2.387   1.361  0.0618  0.0074 -0.5762
 6282SOL    HW130482   1.862   2.395   1.309  0.9273  1.5702  0.9887
 6282SOL    HW230483   1.740   2.472   1.344 -2.8822 -1.3878 -0.3515
 6283SOL     OW30484   1.520   2.394   8.022 -0.3838 -0.3911 -0.2806
 6283SOL    HW130485   1.586   2.338   8.064 -1.5615  0.0018  2.1162
 6283SOL    HW230486   1.534   2.483   8.057  0.3898 -0.7573  0.3472
 6284SOL     OW30487   2.975   3.387   8.048  0.2260  0.0329  0.1823
 6284SOL    HW130488   2.884   3.370   8.026  0.8545 -0.7905 -1.7392
 6284SOL    HW230489   2.957   3.416   8.138  0.5531  0.0261  0.2501
 6285SOL     OW30490   1.922   4.578  14.114  0.3624 -0.4256 -0.1582
 6285SOL    HW130491   1.973   4.620  14.045  0.1740 -0.0404 -0.0642
 6285SOL    HW230492   1.849   4.542  14.064 -0.5033 -1.8397  2.1318
 6286SOL     OW30493   4.648   1.793   2.497  0.1641 -0.1178  0.2032
 6286SOL    HW130494   4.585   1.864   2.509 -0.9306 -0.6886 -2.0836
 6286SOL    HW230495   4.589   1.723   2.523 -0.8247  0.6982  0.1478
 6287SOL     OW30496   2.556   3.471   5.536 -0.0259  0.3421  0.3151
 6287SOL    HW130497   2.521   3.424   5.460  3.2704  0.0475 -1.0079
 6287SOL    HW230498   2.498   3.547   5.531  0.2229  0.6071  1.5620
 6288SOL     OW30499   4.073   2.907   3.709  0.4176  0.0060 -0.4046
 6288SOL    HW130500   3.989   2.950   3.725 -0.0657 -0.4994 -1.5629
 6288SOL    HW230501   4.099   2.883   3.798 -0.2566  2.2075  0.3741
 6289SOL     OW30502   0.788   0.592   4.065  0.4445 -0.0264 -0.0464
 6289SOL    HW130503   0.866   0.638   4.036  0.5253 -0.2816 -0.2295
 6289SOL    HW230504   0.813   0.556   4.150  0.5282  2.2665  0.8788
 6290SOL     OW30505   2.431   2.748   5.235  0.3148 -0.4446 -0.4692
 6290SOL    HW130506   2.478   2.720   5.156 -0.4488  1.1184 -1.4755
 6290SOL    HW230507   2.439   2.842   5.220 -0.8813 -0.2831 -0.0297
 6291SOL     OW30508   0.205   0.975   8.914  0.6168  0.0121 -0.0305
 6291SOL    HW130509   0.212   0.896   8.859  0.4428  1.3853 -2.0473
 6291SOL    HW230510   0.120   0.965   8.956  1.1280 -3.7400  0.1236
 6292SOL     OW30511   0.582   3.905   3.107  0.2257  0.2424  0.4008
 6292SOL    HW130512   0.662   3.852   3.110  0.5391  0.6593 -0.6430
 6292SOL    HW230513   0.549   3.889   3.196 -0.4444  3.1436  0.6735
 6293SOL     OW30514   4.333   1.099   9.890  0.2318  0.4930  0.1280
 6293SOL    HW130515   4.263   1.091   9.954  1.1619 -1.8474  0.8560
 6293SOL    HW230516   4.281   1.081   9.811 -1.8632 -0.9127  1.8367
 6294SOL     OW30517   4.311   0.031   5.093  0.2722 -0.0349  0.4162
 6294SOL    HW130518   4.237   4.707   5.103  0.4635 -0.5710 -1.3541
 6294SOL    HW230519   4.312   0.059   5.001 -1.5031  0.9789  0.7138
 6295SOL     OW30520   4.609   1.841   5.578  0.0357  0.0636  0.5006
 6295SOL    HW130521   4.685   1.795   5.613  1.0750 -0.3364 -2.2320
 6295SOL    HW230522   4.646   1.924   5.545  0.4815 -0.2164  0.2938
 6296SOL     OW30523   3.208   1.093   5.950  0.2927 -0.1953  0.4273
 6296SOL    HW130524   3.260   1.171   5.929 -2.0162  0.9046 -1.1706
 6296SOL    HW230525   3.170   1.133   6.028 -3.2187 -0.7979 -0.9840
 6297SOL     OW30526   3.388   2.295   3.766  0.2216  0.2548 -0.9537
 6297SOL    HW130527   3.369   2.364   3.702  0.3686  0.1368 -1.1241
 6297SOL    HW230528   3.340   2.329   3.841  1.5522 -0.5572  0.2529
 6298SOL     OW30529   2.186   3.189  13.569  0.1004  0.3820 -0.1007
 6298SOL    HW130530   2.235   3.132  13.628  1.3954  0.8560 -0.7225
 6298SOL    HW230531   2.260   3.223  13.519 -1.9509  1.9028 -2.1496
 6299SOL     OW30532   3.162   3.206  12.955 -0.2458 -0.2174 -0.3867
 6299SOL    HW130533   3.186   3.285  12.906 -1.6456  0.3956 -0.0717
 6299SOL    HW230534   3.217   3.137  12.918  0.2256  0.0189 -0.1210
 6300SOL     OW30535   3.468   4.311  11.575 -0.3097  0.0043  0.4139
 6300SOL    HW130536   3.486   4.251  11.648 -1.6311 -2.0277 -0.9173
 6300SOL    HW230537   3.440   4.386  11.627  1.0427 -0.3908  1.7026
 6301SOL     OW30538   0.314   4.360   4.296 -0.5420 -0.8450  0.2824
 6301SOL    HW130539   0.273   4.445   4.283 -0.0005 -0.9586 -2.2097
 6301SOL    HW230540   0.405   4.390   4.293 -1.3469  1.7025  1.8804
 6302SOL     OW30541   4.252   2.384   8.074  0.4179  0.8349 -0.0272
 6302SOL    HW130542   4.213   2.298   8.092 -1.0701  1.3480 -0.7745
 6302SOL    HW230543   4.244   2.386   7.978  1.9447 -0.6022 -0.1796
 6303SOL     OW30544   0.830   0.032  10.550  0.3172 -0.6299 -0.1436
 6303SOL    HW130545   0.816   4.697  10.611 -2.5506 -0.9826 -1.2489
 6303SOL    HW230546   0.915   0.066  10.579 -0.3576  0.4268  0.6022
 6304SOL     OW30547   2.834   1.144   4.582  0.2208 -0.5014 -0.4473
 6304SOL    HW130548   2.748   1.169   4.616  0.8860  0.3406  0.6335
 6304SOL    HW230549   2.877   1.223   4.550 -1.3998  0.4359 -0.2911
 6305SOL     OW30550   2.067   3.039   2.208  0.8853  0.0131  0.3370
 6305SOL    HW130551   2.152   3.041   2.251  0.7564 -0.9922  0.6373
 6305SOL    HW230552   2.091   3.094   2.133  0.5423  0.0428  0.2478
 6306SOL     OW30553   3.272   4.505   6.521  0.2529 -0.1991  0.5970
 6306SOL    HW130554   3.241   4.566   6.454 -0.8253  0.4023  1.6391
 6306SOL    HW230555   3.231   4.535   6.602 -0.9360  0.3625 -0.2178
 6307SOL     OW30556   3.518   4.142  11.765  0.3016 -0.2254  0.6259
 6307SOL    HW130557   3.458   4.135  11.839 -1.3753  2.8699 -0.4641
 6307SOL    HW230558   3.453   4.093  11.716 -0.4681 -0.1807  1.5982
 6308SOL     OW30559   3.376   0.601   6.651 -0.3257 -0.5002 -0.2841
 6308SOL    HW130560   3.410   0.521   6.610  0.3294 -1.4511  2.1699
 6308SOL    HW230561   3.428   0.667   6.605 -0.6599 -0.4178 -0.5515
 6309SOL     OW30562   4.203   4.243  12.825  0.3810 -0.2277  0.5772
 6309SOL    HW130563   4.173   4.159  12.859  3.8081 -1.5582  0.3173
 6309SOL    HW230564   4.274   4.216  12.767 -1.2797 -0.6829 -1.2685
 6310SOL     OW30565   2.427   0.736   2.823 -0.5790 -0.3851 -0.0881
 6310SOL    HW130566   2.410   0.730   2.917  1.4201 -1.2302  0.1997
 6310SOL    HW230567   2.368   0.807   2.798 -0.7531 -0.5940 -0.2777
 6311SOL     OW30568   0.302   3.048   3.578 -0.2417  0.5562 -0.0237
 6311SOL    HW130569   0.315   3.018   3.668  1.2325  2.6112  0.4583
 6311SOL    HW230570   0.374   3.000   3.538 -1.4274  0.7190 -2.3420
 6312SOL     OW30571   2.371   4.392   9.817  0.7697  0.6841  0.2473
 6312SOL    HW130572   2.402   4.313   9.773  2.1688  2.1566 -1.4167
 6312SOL    HW230573   2.330   4.448   9.750 -1.8539 -1.9030 -0.2977
 6313SOL     OW30574   3.549   3.176  12.616 -0.5051  0.5360 -0.1484
 6313SOL    HW130575   3.453   3.177  12.623 -0.3297 -0.1523  2.6649
 6313SOL    HW230576   3.569   3.208  12.528 -0.6072  1.3017  0.1040
 6314SOL     OW30577   0.354   1.380  11.515 -0.0970 -0.2749 -0.2222
 6314SOL    HW130578   0.277   1.414  11.560  1.3981 -0.5942  2.5965
 6314SOL    HW230579   0.422   1.429  11.561 -0.4010  1.2188 -1.4069
 6315SOL     OW30580   2.497   1.978  15.395 -0.9080  0.6161  0.1235
 6315SOL    HW130581   2.414   1.933  15.379 -0.6661  0.5378 -0.9138
 6315SOL    HW230582   2.500   1.961  15.489  0.9154  3.3484  0.5619
 6316SOL     OW30583   1.928   1.886   5.334  0.0136 -0.4150  0.2240
 6316SOL    HW130584   1.887   1.823   5.394  0.0468 -0.9870 -0.3459
 6316SOL    HW230585   2.006   1.910   5.385  2.5613 -2.6827 -2.5827
 6317SOL     OW30586   2.469   2.245   3.928  0.5159  0.0049 -0.0109
 6317SOL    HW130587   2.425   2.241   3.843  1.5117  3.7333 -0.6820
 6317SOL    HW230588   2.523   2.166   3.929  0.3358 -0.0874  2.3380
 6318SOL     OW30589   4.662   0.335   6.665 -0.1459 -0.6150  0.2193
 6318SOL    HW130590   4.659   0.336   6.760 -1.0814 -0.0603  0.1911
 6318SOL    HW230591   4.612   0.413   6.638  1.1798  0.2110  0.1659
 6319SOL     OW30592   1.836   0.553   9.125 -0.2578  0.1371  0.3932
 6319SOL    HW130593   1.744   0.571   9.102 -0.0629  0.0486 -0.4765
 6319SOL    HW230594   1.850   0.623   9.188  1.0521 -0.5730  0.8788
 6320SOL     OW30595   0.396   2.661   8.666  0.3871 -0.3215  0.5740
 6320SOL    HW130596   0.488   2.687   8.677  0.3182 -0.4504  1.4476
 6320SOL    HW230597   0.409   2.568   8.651  0.4825 -0.3512  0.8490
 6321SOL     OW30598   3.507   0.419   7.641 -0.4140  0.7700  0.0391
 6321SOL    HW130599   3.515   0.324   7.645  0.7666  0.8102 -1.1125
 6321SOL    HW230600   3.572   0.446   7.706  0.7695 -0.3740 -0.6579
 6322SOL     OW30601   3.873   0.912  14.682 -1.0340  0.2977  0.2975
 6322SOL    HW130602   3.857   0.867  14.599 -1.5311 -2.3203  1.8164
 6322SOL    HW230603   3.832   0.997  14.667 -1.3874 -0.0005 -0.4104
 6323SOL     OW30604   2.911   0.332   6.599 -1.0782 -0.1387 -0.0583
 6323SOL    HW130605   2.834   0.389   6.602 -0.4349  0.8240 -2.2116
 6323SOL    HW230606   2.985   0.393   6.605  0.1225 -1.4290 -1.9045
 6324SOL     OW30607   2.107   3.840   5.198 -0.5884  0.0060 -0.4162
 6324SOL    HW130608   2.049   3.764   5.198 -1.1980  0.4849  2.2608
 6324SOL    HW230609   2.057   3.920   5.182 -0.9650 -0.1749 -0.1514
 6325SOL     OW30610   2.229   2.647  16.185 -0.5676  0.2178 -0.6351
 6325SOL    HW130611   2.225   2.567  16.238  2.3455  1.0437  0.7780
 6325SOL    HW230612   2.188   2.612  16.105 -1.1861 -1.0031  0.2118
 6326SOL     OW30613   3.119   0.727  10.985  0.8113  0.4585  0.1712
 6326SOL    HW130614   3.178   0.795  10.954 -0.9981  0.5377 -3.1192
 6326SOL    HW230615   3.111   0.741  11.079  0.4156 -0.1956  0.2395
 6327SOL     OW30616   4.303   4.536   8.507 -0.1684  0.5857 -0.0022
 6327SOL    HW130617   4.243   4.610   8.515 -0.3442  0.6144 -1.6312
 6327SOL    HW230618   4.365   4.573   8.444 -0.7632  1.9458  0.1968
 6328SOL     OW30619   0.330   0.930   7.819 -0.3079 -0.4689  0.0050
 6328SOL    HW130620   0.401   0.919   7.756 -1.4205 -1.7320 -1.0159
 6328SOL    HW230621   0.366   0.899   7.902 -2.3420 -0.0358  1.0650
 6329SOL     OW30622   2.022   3.394   7.277 -0.3846 -0.6486  0.2895
 6329SOL    HW130623   2.055   3.312   7.240  0.9527  1.3937 -3.0093
 6329SOL    HW230624   1.949   3.411   7.217 -0.1023 -1.5185 -0.3008
 6330SOL     OW30625   3.008   0.552  11.737  0.0559  0.0762  0.1558
 6330SOL    HW130626   3.068   0.624  11.760  1.9701 -1.0069 -1.5197
 6330SOL    HW230627   3.019   0.549  11.642 -0.7916 -1.3874  0.1076
 6331SOL     OW30628   2.873   3.246   7.254  0.2842 -0.4179  0.5698
 6331SOL    HW130629   2.902   3.336   7.240 -1.1428 -0.1027 -0.3472
 6331SOL    HW230630   2.829   3.218   7.174  0.1231  0.7113  0.2643
 6332SOL     OW30631   4.510   0.756   3.775  0.3324  0.6523  0.1929
 6332SOL    HW130632   4.603   0.771   3.792  0.4800 -0.8719  0.8080
 6332SOL    HW230633   4.503   0.661   3.789 -0.4728  0.8614  1.2059
 6333SOL     OW30634   0.834   3.610   7.968  0.9254  0.5026 -0.0879
 6333SOL    HW130635   0.902   3.658   8.015  0.8857  0.0916  0.3859
 6333SOL    HW230636   0.784   3.689   7.947 -0.1491  0.1816  1.3243
 6334SOL     OW30637   0.859   1.809  10.920 -1.2211  0.4147  0.0830
 6334SOL    HW130638   0.841   1.883  10.978 -1.6202  0.8996 -0.6609
 6334SOL    HW230639   0.927   1.765  10.972  0.3358  0.7794 -1.6479
 6335SOL     OW30640   0.544   1.899   6.708 -0.0923  0.4775  0.5594
 6335SOL    HW130641   0.518   1.822   6.759  1.6341 -0.7244 -0.3828
 6335SOL    HW230642   0.461   1.905   6.660  0.1244  0.2401  0.1585
 6336SOL     OW30643   1.840   1.744   9.622  0.0412 -0.3214  0.4433
 6336SOL    HW130644   1.806   1.805   9.557 -1.7372 -1.1606  0.5693
 6336SOL    HW230645   1.880   1.679   9.565  1.5297  3.1365 -2.4443
 6337SOL     OW30646   1.311   1.362   8.632 -0.5751  0.0830 -0.3163
 6337SOL    HW130647   1.370   1.334   8.562 -3.0439 -0.6364 -2.1092
 6337SOL    HW230648   1.225   1.359   8.590 -0.7453 -3.6947  0.2481
 6338SOL     OW30649   3.518   3.101   1.929 -0.2487  0.3098  0.2832
 6338SOL    HW130650   3.598   3.049   1.918 -0.0901 -0.0414  3.1005
 6338SOL    HW230651   3.470   3.069   1.853  0.3666 -0.3625  0.1819
 6339SOL     OW30652   0.563   0.625   7.865 -0.2918 -0.5828  0.1090
 6339SOL    HW130653   0.606   0.663   7.788 -0.5089 -0.3534  0.0993
 6339SOL    HW230654   0.522   0.544   7.835  0.8343 -1.1285  0.0527
 6340SOL     OW30655   1.479   1.766  17.303  0.7699  0.3148 -0.1912
 6340SOL    HW130656   1.569   1.753  17.275  0.2209 -1.1012 -1.2508
 6340SOL    HW230657   1.488   1.842  17.361  1.5544  1.4190 -1.7685
 6341SOL     OW30658   4.243   0.295   4.360 -0.0050 -0.1545  0.3158
 6341SOL    HW130659   4.195   0.357   4.306  0.3592 -0.3291 -0.2099
 6341SOL    HW230660   4.263   0.233   4.290 -0.8704  0.3929 -0.4113
 6342SOL     OW30661   3.866   3.841   4.120  0.0094 -0.5698 -0.5797
 6342SOL    HW130662   3.902   3.888   4.046  2.4791 -1.0780  0.2938
 6342SOL    HW230663   3.881   3.749   4.096  0.7766 -0.5480 -0.1832
 6343SOL     OW30664   4.722   0.532  10.705  1.1609  0.0469  0.4927
 6343SOL    HW130665   0.023   0.462  10.651 -0.1830  1.1884 -1.9095
 6343SOL    HW230666   0.015   0.602  10.646 -1.0462  0.2889 -0.3015
 6344SOL     OW30667   4.637   3.994   7.630  0.0255 -0.2037  0.4131
 6344SOL    HW130668   4.667   3.907   7.657 -1.6525 -1.4499 -1.6922
 6344SOL    HW230669   4.584   3.966   7.555  0.5603  1.5693 -0.6098
 6345SOL     OW30670   2.782   2.497   5.901  0.0026 -0.3940  0.0192
 6345SOL    HW130671   2.775   2.461   5.990 -1.3809 -2.9188 -1.1048
 6345SOL    HW230672   2.691   2.482   5.876  0.2275 -0.8730 -0.5071
 6346SOL     OW30673   1.680   0.636   5.811 -0.4421 -0.0128  0.5875
 6346SOL    HW130674   1.645   0.559   5.767  0.0137  0.7006 -1.0268
 6346SOL    HW230675   1.764   0.654   5.768  0.4587  0.9149  2.7394
 6347SOL     OW30676   4.272   4.506   8.134  0.3719 -0.3824  1.3870
 6347SOL    HW130677   4.360   4.535   8.155  1.3440 -1.2274 -1.4664
 6347SOL    HW230678   4.274   4.415   8.166  0.1942 -0.6629  0.6194
 6348SOL     OW30679   3.305   0.045   1.389 -0.0925 -0.3310  0.5264
 6348SOL    HW130680   3.294   0.011   1.478  0.6159  0.5276  0.9390
 6348SOL    HW230681   3.219   0.080   1.364  0.3049 -0.0692 -0.4634
 6349SOL     OW30682   0.754   4.688  11.011  0.3976  0.1237  1.0118
 6349SOL    HW130683   0.799   4.624  11.066  0.6410 -2.0058 -1.6906
 6349SOL    HW230684   0.721   0.007  11.082 -1.1604 -0.4498  0.7304
 6350SOL     OW30685   3.517   0.744   5.258  0.0394 -0.5899 -0.2031
 6350SOL    HW130686   3.429   0.707   5.252  1.1815 -3.0330 -1.5116
 6350SOL    HW230687   3.505   0.837   5.279 -0.6676 -0.2911 -1.8519
 6351SOL     OW30688   4.424   1.775  15.471 -0.3125  0.4849 -0.0015
 6351SOL    HW130689   4.334   1.805  15.484 -0.0687  0.2320  2.2962
 6351SOL    HW230690   4.478   1.854  15.466  3.0740 -1.6302  3.3871
 6352SOL     OW30691   0.415   0.181  12.763  0.0716 -0.1824 -0.1353
 6352SOL    HW130692   0.503   0.153  12.739  0.4321 -2.2693  3.5747
 6352SOL    HW230693   0.396   0.103  12.816  1.1348 -0.0962  0.3808
 6353SOL     OW30694   3.786   0.769   3.956 -0.5367 -0.1419  0.4626
 6353SOL    HW130695   3.772   0.771   3.861  0.7647  0.4380  0.2766
 6353SOL    HW230696   3.878   0.743   3.948 -1.0459 -1.1814 -2.1859
 6354SOL     OW30697   3.199   0.935  14.264 -0.5350 -0.2294 -0.3623
 6354SOL    HW130698   3.183   0.859  14.320  1.7068  1.0218  1.9720
 6354SOL    HW230699   3.240   0.893  14.189  0.2246  0.8034 -0.5298
 6355SOL     OW30700   3.910   2.449   4.199  0.0009  0.6804  0.3533
 6355SOL    HW130701   3.938   2.540   4.209 -0.2499  1.0881 -2.5400
 6355SOL    HW230702   3.855   2.445   4.121  1.6213  1.3656 -0.8317
 6356SOL     OW30703   2.056   4.313   5.562 -0.1556 -0.4146 -0.3791
 6356SOL    HW130704   2.058   4.405   5.539  0.1882 -1.0285 -2.7843
 6356SOL    HW230705   2.145   4.294   5.532  0.0848 -2.5724  1.6515
 6357SOL     OW30706   1.997   1.799   1.792  0.3379  0.3082  0.2959
 6357SOL    HW130707   2.035   1.734   1.732 -0.7951  0.8963 -1.0495
 6357SOL    HW230708   1.987   1.750   1.874  0.0106  1.0259  0.6775
 6358SOL     OW30709   1.931   3.468   2.301  0.3060  0.4268  0.0023
 6358SOL    HW130710   1.863   3.404   2.279  1.3712 -0.4363 -0.7723
 6358SOL    HW230711   2.000   3.404   2.317 -0.1173 -0.0318  0.0015
 6359SOL     OW30712   1.670   3.026  13.509 -0.0475 -0.8291 -0.4162
 6359SOL    HW130713   1.677   3.051  13.601  3.4770  2.9279 -1.6717
 6359SOL    HW230714   1.763   3.029  13.485  0.3612 -2.5897  0.9813
 6360SOL     OW30715   1.594   1.214   5.866 -0.2195 -0.1446 -0.0466
 6360SOL    HW130716   1.672   1.162   5.849  0.3017  0.4561  0.4900
 6360SOL    HW230717   1.614   1.250   5.953 -3.0003 -1.9999  1.3666
 6361SOL     OW30718   0.274   4.670   5.898 -0.1160 -0.0314  0.4276
 6361SOL    HW130719   0.196   4.685   5.951  0.5074 -0.1455  1.3877
 6361SOL    HW230720   0.295   4.585   5.936  0.9100 -0.3029 -0.7704
 6362SOL     OW30721   2.387   4.452  16.529 -0.7313 -0.7222  0.0494
 6362SOL    HW130722   2.411   4.370  16.572 -1.1697 -1.3764 -0.9449
 6362SOL    HW230723   2.305   4.424  16.489 -0.2656 -0.9104 -0.7572
 6363SOL     OW30724   4.362   3.417   5.932  0.5394 -0.2677 -0.7564
 6363SOL    HW130725   4.321   3.428   5.846 -0.3572 -0.7340 -0.3920
 6363SOL    HW230726   4.397   3.504   5.948 -2.0705  0.6309  0.0641
 6364SOL     OW30727   2.433   0.650   5.001  0.7899  0.3736  0.0961
 6364SOL    HW130728   2.501   0.614   4.943  1.2263 -1.1882  1.5498
 6364SOL    HW230729   2.454   0.743   4.995 -1.6727  0.9256  0.1600
 6365SOL     OW30730   1.805   3.834  11.485 -0.0679 -0.2384  0.1328
 6365SOL    HW130731   1.730   3.800  11.534  0.5528  0.8449  1.8555
 6365SOL    HW230732   1.869   3.765  11.500 -0.3143 -0.4430  0.2555
 6366SOL     OW30733   1.358   2.649  14.330  0.0811  0.2181  0.5273
 6366SOL    HW130734   1.393   2.587  14.266 -1.9286 -1.6238  1.1865
 6366SOL    HW230735   1.283   2.596  14.358 -0.2981  0.9979  0.9591
 6367SOL     OW30736   2.180   3.776   9.820  0.0860  0.0601  0.4665
 6367SOL    HW130737   2.217   3.832   9.752 -1.0105  0.5789  0.3094
 6367SOL    HW230738   2.238   3.793   9.894 -0.7969 -0.6395  1.3136
 6368SOL     OW30739   1.837   1.312   8.338 -0.0702  0.1642 -0.1152
 6368SOL    HW130740   1.836   1.217   8.329  0.0344 -0.0193  1.7358
 6368SOL    HW230741   1.848   1.321   8.433  0.7321 -2.8134  0.0901
 6369SOL     OW30742   4.198   2.180  14.650 -0.7311  0.0556  0.0052
 6369SOL    HW130743   4.227   2.224  14.570 -0.8969 -0.1047 -0.1427
 6369SOL    HW230744   4.125   2.238  14.672 -0.7853 -0.5181  1.3935
 6370SOL     OW30745   3.861   2.731   9.053 -0.1405  0.3044  0.1080
 6370SOL    HW130746   3.810   2.756   8.976 -0.0368 -2.2994 -0.8119
 6370SOL    HW230747   3.923   2.804   9.064 -0.0455  0.2709 -0.1850
 6371SOL     OW30748   2.209   1.887   9.145 -0.1678  0.3661  0.6155
 6371SOL    HW130749   2.250   1.966   9.111  0.2874  0.2588  0.9280
 6371SOL    HW230750   2.170   1.901   9.231  0.7366  1.1579  0.8941
 6372SOL     OW30751   1.614   0.487   4.403 -0.0681 -0.0326 -0.0732
 6372SOL    HW130752   1.651   0.566   4.363  0.9086  0.0857  1.0580
 6372SOL    HW230753   1.692   0.451   4.444 -0.5746 -0.4509  0.5046
 6373SOL     OW30754   3.529   3.007   4.427 -0.4803 -0.9145  0.2024
 6373SOL    HW130755   3.518   2.971   4.515  0.7436 -2.3184 -0.2116
 6373SOL    HW230756   3.444   2.998   4.385  0.2235 -0.2246 -1.3309
 6374SOL     OW30757   0.548   0.734   9.516 -0.6125 -0.3986  0.1128
 6374SOL    HW130758   0.455   0.737   9.536 -0.1090 -1.0648  2.5958
 6374SOL    HW230759   0.539   0.660   9.455  2.6070 -0.9678  0.2992
 6375SOL     OW30760   1.031   4.192  14.506 -0.4908 -0.0275  0.3631
 6375SOL    HW130761   0.962   4.230  14.451 -2.2237 -2.3397  0.9387
 6375SOL    HW230762   1.022   4.249  14.582 -0.8023  0.7296 -0.2393
 6376SOL     OW30763   1.562   0.240   5.276 -0.3098  0.0131 -0.0063
 6376SOL    HW130764   1.485   0.227   5.330  0.5106 -2.4742  0.5335
 6376SOL    HW230765   1.620   0.236   5.351  1.6747 -0.3601 -1.5499
 6377SOL     OW30766   0.689   4.047   8.170  0.0148  0.4840 -0.7257
 6377SOL    HW130767   0.620   4.013   8.227 -0.0149  0.6607 -0.6563
 6377SOL    HW230768   0.740   4.082   8.243 -0.4791  0.4249 -0.3514
 6378SOL     OW30769   0.586   0.600   6.755  0.6043  0.4852 -0.6616
 6378SOL    HW130770   0.631   0.558   6.681  1.3930 -0.8473  0.5926
 6378SOL    HW230771   0.643   0.677   6.759 -1.2881  1.8300  0.1800
 6379SOL     OW30772   3.697   0.105   7.929 -0.6183  0.1247 -0.0384
 6379SOL    HW130773   3.700   0.098   8.024 -1.4539  2.2310  0.1496
 6379SOL    HW230774   3.736   0.020   7.908 -1.2934 -0.0130 -0.7413
 6380SOL     OW30775   2.547   2.245   1.912 -0.2208 -0.4061 -0.5783
 6380SOL    HW130776   2.457   2.260   1.884 -0.3060  1.3434  0.6116
 6380SOL    HW230777   2.600   2.261   1.834 -0.1302 -0.3889 -0.5130
 6381SOL     OW30778   3.447   1.519  13.346 -0.2487  0.4373 -0.0250
 6381SOL    HW130779   3.523   1.552  13.393  0.6077  0.8972 -1.7434
 6381SOL    HW230780   3.399   1.484  13.421 -0.6714  0.1693 -0.4211
 6382SOL     OW30781   1.649   0.572  15.682  0.4118  0.1484 -0.3128
 6382SOL    HW130782   1.601   0.529  15.611 -0.4784  0.6312  0.0055
 6382SOL    HW230783   1.660   0.661  15.648 -0.0329  0.9461  1.6450
 6383SOL     OW30784   4.574   2.605  15.844  0.6496 -0.1358 -0.7773
 6383SOL    HW130785   4.568   2.701  15.842 -2.5345 -0.3091  0.4960
 6383SOL    HW230786   4.664   2.584  15.865  0.0607 -0.8121  1.0215
 6384SOL     OW30787   2.925   2.598   0.494 -0.0743 -0.4658 -0.7377
 6384SOL    HW130788   2.939   2.581   0.400 -1.2492 -4.8881 -0.0897
 6384SOL    HW230789   2.977   2.678   0.502  2.0051 -1.5881 -2.6031
 6385SOL     OW30790   0.626   4.421   3.753  0.1942  0.0861  0.2397
 6385SOL    HW130791   0.563   4.376   3.696  0.3424 -1.5386  1.3816
 6385SOL    HW230792   0.584   4.423   3.839 -1.1332 -0.1774 -0.3875
 6386SOL     OW30793   0.725   3.919   5.071  0.6481 -0.2848  0.2130
 6386SOL    HW130794   0.792   3.954   5.129  1.0157 -0.5329 -0.0620
 6386SOL    HW230795   0.754   3.958   4.988 -2.3377 -0.9748 -1.1896
 6387SOL     OW30796   3.795   0.742   8.415 -0.1143 -0.0885  0.1675
 6387SOL    HW130797   3.843   0.793   8.350 -0.4047 -1.2625 -0.9932
 6387SOL    HW230798   3.808   0.807   8.484  1.2131  1.3927 -1.4838
 6388SOL     OW30799   2.406   2.764   9.181 -0.1305  0.3259 -0.1306
 6388SOL    HW130800   2.387   2.691   9.122 -0.7756  0.4696 -0.0973
 6388SOL    HW230801   2.344   2.754   9.254 -2.6195 -1.3175 -2.4494
 6389SOL     OW30802   1.647   2.147  13.464 -0.6408 -0.3331  0.1436
 6389SOL    HW130803   1.616   2.181  13.380  0.8734  0.2456 -0.1727
 6389SOL    HW230804   1.706   2.219  13.486  0.1477  0.0047 -3.0896
 6390SOL     OW30805   3.571   3.047   6.361 -0.3621  0.3045  0.3106
 6390SOL    HW130806   3.566   3.012   6.272 -0.5008  0.9887  0.0435
 6390SOL    HW230807   3.585   3.139   6.338  0.8885  0.5825  2.1517
 6391SOL     OW30808   2.429   4.092   9.460 -0.5406  0.1084  0.0839
 6391SOL    HW130809   2.479   4.096   9.542  1.1469  0.0589 -0.9357
 6391SOL    HW230810   2.381   4.175   9.466 -0.2688  0.3587 -1.1928
 6392SOL     OW30811   3.101   0.406   3.265  0.6701 -0.7753  0.3435
 6392SOL    HW130812   3.040   0.478   3.281  1.9790  1.3747 -4.1863
 6392SOL    HW230813   3.143   0.376   3.346  0.3436  0.4691  0.9706
 6393SOL     OW30814   1.792   1.668   2.479  0.4568  0.1511  0.2696
 6393SOL    HW130815   1.701   1.661   2.510  0.0748 -1.7499 -1.2684
 6393SOL    HW230816   1.825   1.749   2.518  1.4998 -0.6161  0.9865
 6394SOL     OW30817   3.934   3.377   7.215 -0.2023 -1.1541 -0.1840
 6394SOL    HW130818   3.892   3.292   7.225 -1.2049 -0.5863  0.5207
 6394SOL    HW230819   4.015   3.357   7.169  0.6752 -1.3298  1.4254
 6395SOL     OW30820   0.888   3.627  12.338  0.6151 -0.0852  0.3445
 6395SOL    HW130821   0.813   3.569  12.331 -0.9468  1.9733  0.0029
 6395SOL    HW230822   0.887   3.676  12.256 -0.1683  0.6186  0.7753
 6396SOL     OW30823   0.394   2.275   2.056  0.0170 -0.0176 -0.0600
 6396SOL    HW130824   0.343   2.197   2.034 -1.2801  0.3181  1.8214
 6396SOL    HW230825   0.436   2.244   2.136 -0.4334 -2.4154 -0.7521
 6397SOL     OW30826   3.833   1.749   2.703  0.0920  0.6604 -0.0768
 6397SOL    HW130827   3.891   1.723   2.632 -0.6229 -1.8580  0.2757
 6397SOL    HW230828   3.759   1.689   2.695  0.2538  0.6711 -1.6102
 6398SOL     OW30829   4.610   3.436   1.721 -0.6052  0.0951 -0.1697
 6398SOL    HW130830   4.646   3.363   1.771 -2.0401  0.0768  0.8232
 6398SOL    HW230831   4.677   3.504   1.734  1.0091 -1.7189  0.9565
 6399SOL     OW30832   0.892   2.826  12.309 -0.2475 -0.3750 -0.5233
 6399SOL    HW130833   0.942   2.757  12.353 -1.1278 -2.6500 -3.1217
 6399SOL    HW230834   0.852   2.868  12.385  2.4166  2.8569 -0.8874
 6400SOL     OW30835   2.882   0.564   1.777  0.2249  0.7382  0.4185
 6400SOL    HW130836   2.906   0.655   1.765  1.0521  0.7360  2.0373
 6400SOL    HW230837   2.789   0.582   1.795  0.4804  2.1416  0.3387
 6401SOL     OW30838   3.833   2.753  12.646 -0.1711 -0.7340  0.1756
 6401SOL    HW130839   3.785   2.822  12.692 -1.0501  0.1069 -2.0233
 6401SOL    HW230840   3.841   2.798  12.562  1.1837 -0.6653  0.3494
 6402SOL     OW30841   1.182   2.175   6.768 -0.3738  0.2222 -0.2135
 6402SOL    HW130842   1.129   2.138   6.697 -1.2740 -0.1964  0.6799
 6402SOL    HW230843   1.153   2.266   6.766 -1.7145 -0.1665  1.6842
 6403SOL     OW30844   4.454   1.156   7.287  0.4754  0.5396 -0.7333
 6403SOL    HW130845   4.391   1.142   7.357  2.3887 -1.1227  0.6225
 6403SOL    HW230846   4.467   1.248   7.309 -2.1853  0.9109 -0.6779
 6404SOL     OW30847   4.347   1.528   6.912  0.1992  0.1476 -0.6806
 6404SOL    HW130848   4.316   1.613   6.880  0.2404  0.2655 -0.4022
 6404SOL    HW230849   4.276   1.497   6.967  1.2052 -1.4557 -0.3029
 6405SOL     OW30850   4.099   1.961   9.158  0.9334 -0.1903  0.6571
 6405SOL    HW130851   4.168   1.963   9.092 -0.5279  1.6022 -0.8026
 6405SOL    HW230852   4.154   2.000   9.227 -0.1810 -0.7594  1.8533
 6406SOL     OW30853   4.525   4.535   4.200  0.3072  0.4193 -0.4340
 6406SOL    HW130854   4.588   4.554   4.270  1.5750 -0.0001 -1.4556
 6406SOL    HW230855   4.462   4.471   4.233  0.6352  1.1639  1.6673
 6407SOL     OW30856   4.459   1.716  14.400  0.1163  0.3732  0.3273
 6407SOL    HW130857   4.552   1.730  14.386 -0.0104  1.8317  0.8313
 6407SOL    HW230858   4.433   1.807  14.415 -1.7198 -0.4711  2.3524
 6408SOL     OW30859   3.029   4.112   1.743 -0.0164  0.0844  0.0871
 6408SOL    HW130860   3.037   4.147   1.654  1.1614 -0.2868  0.0448
 6408SOL    HW230861   3.121   4.108   1.769  0.5591 -0.9808 -2.1489
 6409SOL     OW30862   3.009   1.624  13.014  0.6255 -0.1378  0.5392
 6409SOL    HW130863   3.062   1.672  12.950  0.0762  0.4136  0.4930
 6409SOL    HW230864   3.077   1.598  13.076  0.2243  1.4766  1.6377
 6410SOL     OW30865   0.834   3.786  15.136  0.3257  0.1319  0.2866
 6410SOL    HW130866   0.761   3.845  15.156  1.4759  1.9222 -0.8356
 6410SOL    HW230867   0.911   3.844  15.138 -0.8073  1.6203  1.1639
 6411SOL     OW30868   1.767   4.182  17.518  0.2213  0.0482 -0.2996
 6411SOL    HW130869   1.821   4.103  17.518 -1.5076 -1.1707  3.1564
 6411SOL    HW230870   1.679   4.144  17.526 -0.4925  1.7321 -0.2969
 6412SOL     OW30871   3.432   2.510   7.420  0.0447  0.7726 -0.0868
 6412SOL    HW130872   3.350   2.559   7.413 -2.3512 -3.3152 -0.4129
 6412SOL    HW230873   3.496   2.581   7.429 -1.2158  2.1350 -1.9140
 6413SOL     OW30874   0.145   1.583   1.689  0.6794 -0.1698  0.3603
 6413SOL    HW130875   0.233   1.619   1.683 -0.6893  2.8791 -1.2201
 6413SOL    HW230876   0.159   1.517   1.757  1.3675  0.6068  0.9678
 6414SOL     OW30877   0.712   3.328  17.153 -0.5792 -0.3787  1.0125
 6414SOL    HW130878   0.756   3.412  17.163  0.7403 -0.8595 -0.7634
 6414SOL    HW230879   0.630   3.339  17.202 -0.5707 -1.1839  1.2042
 6415SOL     OW30880   1.193   0.131   7.029 -0.0249 -0.0530  0.3986
 6415SOL    HW130881   1.228   0.042   7.018  0.7464  0.2798  0.1393
 6415SOL    HW230882   1.257   0.175   7.085  1.4119 -1.1836 -0.3332
 6416SOL     OW30883   4.619   4.367   8.360  0.5028 -0.0865 -0.1458
 6416SOL    HW130884   4.689   4.307   8.336 -1.7180 -2.7648  0.1062
 6416SOL    HW230885   4.657   4.452   8.336  0.6879 -0.2652 -0.4723
 6417SOL     OW30886   1.918   4.315   1.711  0.0747  0.5339  0.2655
 6417SOL    HW130887   1.871   4.232   1.722  0.2157  0.2552 -1.1815
 6417SOL    HW230888   1.844   4.371   1.733  1.3603  1.9153  1.1196
 6418SOL     OW30889   1.510   3.010   6.358  0.5337  0.5609 -0.1731
 6418SOL    HW130890   1.448   3.055   6.417  0.2567 -0.0699  0.0202
 6418SOL    HW230891   1.589   3.054   6.389 -0.9603  2.2571  1.3311
 6419SOL     OW30892   0.866   0.494  11.604  0.4316 -0.5169 -0.3315
 6419SOL    HW130893   0.881   0.537  11.688 -0.1212  0.1738 -0.5875
 6419SOL    HW230894   0.782   0.530  11.576 -0.3325 -0.5754  1.8963
 6420SOL     OW30895   4.332   3.554   0.415  0.1270  0.5619  0.2167
 6420SOL    HW130896   4.251   3.517   0.380 -0.5863  3.3449 -1.0857
 6420SOL    HW230897   4.370   3.602   0.341  2.3683 -0.1060  0.9369
 6421SOL     OW30898   3.257   0.837   9.841 -0.2402  0.3581  0.0909
 6421SOL    HW130899   3.296   0.859   9.925  0.8409  1.3517 -0.6766
 6421SOL    HW230900   3.239   0.930   9.828 -0.6820  0.3573  0.6691
 6422SOL     OW30901   3.342   4.344   6.938 -1.0918 -0.2559  0.1309
 6422SOL    HW130902   3.266   4.333   6.881 -0.4727  1.6218 -1.0538
 6422SOL    HW230903   3.334   4.266   6.993  2.1563  0.7980  2.1128
 6423SOL     OW30904   0.692   0.112  12.747 -0.5804 -0.1872  0.1257
 6423SOL    HW130905   0.772   0.158  12.773 -0.4781 -1.2810  1.7154
 6423SOL    HW230906   0.735   0.043  12.697  0.1951  1.2152 -1.1606
 6424SOL     OW30907   3.583   2.101   6.302 -0.2859 -0.0894 -0.2144
 6424SOL    HW130908   3.492   2.111   6.272 -0.2640 -0.5729 -0.4300
 6424SOL    HW230909   3.600   2.184   6.347 -0.7241 -0.9676  1.5624
 6425SOL     OW30910   3.604   0.569   3.579  0.9529 -0.8010  0.4289
 6425SOL    HW130911   3.583   0.563   3.486 -0.9705 -1.5791  0.9178
 6425SOL    HW230912   3.623   0.476   3.592 -0.7256 -0.8577  2.4913
 6426SOL     OW30913   3.700   3.689   7.547  0.0006  0.9963  0.2897
 6426SOL    HW130914   3.610   3.713   7.568 -1.0558 -3.9148  1.5201
 6426SOL    HW230915   3.688   3.613   7.489 -2.1299  1.4088  0.1807
 6427SOL     OW30916   4.179   4.378   0.648  0.1009  0.2394  0.2384
 6427SOL    HW130917   4.202   4.432   0.724  1.9341  0.8612 -0.7479
 6427SOL    HW230918   4.246   4.310   0.647  0.1171  0.2245  2.9345
 6428SOL     OW30919   3.467   3.163   5.210  0.4381 -0.1702  0.1379
 6428SOL    HW130920   3.529   3.105   5.166  0.1214 -1.3282  1.2134
 6428SOL    HW230921   3.391   3.159   5.152  0.2134  0.0970  0.4149
 6429SOL     OW30922   0.424   0.052   7.673  0.4719  0.4945  0.1631
 6429SOL    HW130923   0.458   0.126   7.723 -0.3673 -0.2851  1.8904
 6429SOL    HW230924   0.488   0.034   7.604 -0.4184 -1.7011 -0.0873
 6430SOL     OW30925   3.171   2.256  16.312 -0.2290  0.3652  0.2120
 6430SOL    HW130926   3.181   2.202  16.390  1.2070 -1.2715 -1.0970
 6430SOL    HW230927   3.204   2.342  16.337 -1.1097  1.2873 -1.8635
 6431SOL     OW30928   1.021   3.899   5.760 -0.0764  0.5786  0.4544
 6431SOL    HW130929   0.972   3.907   5.842  0.8870 -0.7134  1.1539
 6431SOL    HW230930   1.073   3.979   5.763  1.2319 -0.2395 -0.6973
 6432SOL     OW30931   3.073   1.986   4.164  0.2742  0.1565  0.3091
 6432SOL    HW130932   3.122   2.062   4.195  1.6537  0.3270 -2.3050
 6432SOL    HW230933   3.146   1.940   4.124 -0.3160 -0.2741 -0.2624
 6433SOL     OW30934   0.433   3.388   4.121 -0.0220  0.2180  0.0166
 6433SOL    HW130935   0.412   3.326   4.051  1.7022  0.1550 -0.4535
 6433SOL    HW230936   0.528   3.391   4.116 -0.1214  0.5076 -1.9190
 6434SOL     OW30937   2.495   4.241   1.057  0.1573  0.5261  0.2777
 6434SOL    HW130938   2.432   4.245   0.984 -1.3251 -0.4194  1.5043
 6434SOL    HW230939   2.541   4.324   1.041  1.9836 -0.8331 -1.5749
 6435SOL     OW30940   1.859   0.540  14.721 -0.0063  0.0437 -0.1285
 6435SOL    HW130941   1.912   0.580  14.652  0.0806  0.5813  0.2494
 6435SOL    HW230942   1.907   0.584  14.792  1.1838 -3.8846  1.4833
 6436SOL     OW30943   0.628   1.546   1.527 -0.5899  0.2276  0.0432
 6436SOL    HW130944   0.623   1.451   1.536 -0.1909 -0.0386 -2.7162
 6436SOL    HW230945   0.721   1.560   1.544 -0.7677  1.7509 -0.2569
 6437SOL     OW30946   2.102   1.615   3.618  0.7152 -0.6013  0.3675
 6437SOL    HW130947   2.165   1.672   3.575  2.4635 -0.9936  2.4287
 6437SOL    HW230948   2.139   1.592   3.703  0.2348 -3.3702 -0.1604
 6438SOL     OW30949   0.938   2.388  15.443 -0.6347  0.1811 -0.5918
 6438SOL    HW130950   0.911   2.296  15.437  2.0117 -0.6705  0.3864
 6438SOL    HW230951   0.865   2.437  15.405 -1.2839  0.3973  0.9269
 6439SOL     OW30952   3.574   1.069   4.823  0.2243  0.5883 -0.3970
 6439SOL    HW130953   3.668   1.054   4.815  0.4270  0.8297  1.4186
 6439SOL    HW230954   3.549   1.041   4.735 -1.9844  2.0452 -0.2486
 6440SOL     OW30955   0.844   2.692   6.326 -0.0092  0.3127 -0.1831
 6440SOL    HW130956   0.760   2.663   6.288 -0.4958 -1.3066  2.1166
 6440SOL    HW230957   0.812   2.748   6.397  0.4984 -1.9598  1.8422
 6441SOL     OW30958   2.998   0.802  11.232 -0.0533  0.3162  0.2522
 6441SOL    HW130959   3.011   0.769  11.321  0.2398 -0.2634 -0.0018
 6441SOL    HW230960   2.930   0.867  11.245 -1.9010 -1.6631  0.4390
 6442SOL     OW30961   0.885   0.979   5.872 -0.4849 -0.7739  0.6517
 6442SOL    HW130962   0.875   0.903   5.930 -3.2983 -1.6598 -0.9548
 6442SOL    HW230963   0.846   0.940   5.793 -1.6819  0.6808  0.5293
 6443SOL     OW30964   2.345   1.664   9.092 -0.5638  0.0702  0.2073
 6443SOL    HW130965   2.304   1.750   9.099  0.3627  0.6336 -1.3410
 6443SOL    HW230966   2.275   1.611   9.131  0.7883 -0.1320  2.3498
 6444SOL     OW30967   3.648   1.138   5.962  0.2377  0.0130  0.4876
 6444SOL    HW130968   3.601   1.206   6.010  1.0656  0.8039  0.1978
 6444SOL    HW230969   3.725   1.131   6.018  0.0007  1.8248  1.0311
 6445SOL     OW30970   1.077   3.273  14.884  0.5168  0.1821  0.5237
 6445SOL    HW130971   0.982   3.282  14.897  0.4860  1.1695 -0.3343
 6445SOL    HW230972   1.086   3.273  14.979  1.6893  1.3701  0.4120
 6446SOL     OW30973   1.510   0.385  15.513  0.0500  0.5194  0.4646
 6446SOL    HW130974   1.527   0.351  15.426 -1.1211 -1.6214  1.0662
 6446SOL    HW230975   1.464   0.467  15.492  0.4747  1.0289  1.4706
 6447SOL     OW30976   0.443   0.779  15.992  0.1386  0.2104  0.0346
 6447SOL    HW130977   0.448   0.850  15.927 -1.2461  0.8859  0.6849
 6447SOL    HW230978   0.481   0.821  16.069  0.1623  0.6175 -0.1965
 6448SOL     OW30979   3.757   4.136   5.994 -0.0538  0.1336 -0.3141
 6448SOL    HW130980   3.775   4.225   5.964  1.5289 -0.9461 -2.5302
 6448SOL    HW230981   3.842   4.109   6.029 -0.6118 -1.7137 -0.3780
 6449SOL     OW30982   1.855   0.998   9.135 -0.0499 -0.0918  0.3409
 6449SOL    HW130983   1.898   0.912   9.135 -0.1649 -0.1543  1.5900
 6449SOL    HW230984   1.797   0.996   9.211 -1.7323  1.8314 -0.9150
 6450SOL     OW30985   3.244   2.885  10.725  0.2935 -0.4041  0.0600
 6450SOL    HW130986   3.181   2.846  10.786  0.4880 -1.0228 -0.1347
 6450SOL    HW230987   3.313   2.912  10.785 -0.2720 -1.1408  1.0546
 6451SOL     OW30988   0.509   4.260  16.341  0.4894  0.1925  0.6247
 6451SOL    HW130989   0.490   4.177  16.297  0.2565  0.0815  0.9311
 6451SOL    HW230990   0.427   4.262  16.391  0.1316 -0.9439  0.0879
 6452SOL     OW30991   0.310   1.147   6.668  0.0302 -0.0536  0.2923
 6452SOL    HW130992   0.332   1.183   6.754  1.1877 -2.2629  0.9167
 6452SOL    HW230993   0.249   1.076   6.686  0.9137 -1.3788 -2.0268
 6453SOL     OW30994   0.055   1.148   2.442 -0.4760 -0.0419 -0.5280
 6453SOL    HW130995   4.718   1.091   2.464  0.0069  0.3261  2.0442
 6453SOL    HW230996   0.127   1.099   2.480 -0.3042 -0.3938 -1.3024
 6454SOL     OW30997   3.853   0.541   7.660  0.3050 -0.0439  0.1512
 6454SOL    HW130998   3.845   0.455   7.703 -1.9465  0.8150  1.4327
 6454SOL    HW230999   3.867   0.601   7.733  0.1109 -2.0000  1.8139
 6455SOL     OW31000   3.464   4.575   9.755 -0.0257 -0.2871  0.0592
 6455SOL    HW131001   3.408   4.641   9.715 -1.1508  0.0149  2.1733
 6455SOL    HW231002   3.505   4.619   9.829  1.6909  1.6447 -2.0416
 6456SOL     OW31003   0.994   0.378   5.810  0.3042 -0.3728  0.2223
 6456SOL    HW131004   1.072   0.373   5.865  0.1046 -2.2888  0.3396
 6456SOL    HW231005   0.977   0.472   5.801  1.7633  0.0053  1.4019
 6457SOL     OW31006   1.206   4.693   1.311 -0.1465  0.5613 -0.8029
 6457SOL    HW131007   1.212   4.598   1.308  4.4409  0.8296 -0.9169
 6457SOL    HW231008   1.277   4.716   1.251  1.9731 -0.8684  1.1277
 6458SOL     OW31009   4.706   1.117   9.791  0.4785  0.4704  0.0547
 6458SOL    HW131010   4.637   1.179   9.765 -0.5484 -0.4231  0.6481
 6458SOL    HW231011   4.662   1.086   9.871 -4.4724 -1.7828 -3.5458
 6459SOL     OW31012   1.998   0.388  11.106 -0.0729 -0.0531  0.0733
 6459SOL    HW131013   1.990   0.419  11.196 -2.3213  1.5017 -0.6646
 6459SOL    HW231014   2.039   0.302  11.112 -0.2337 -0.0102  1.7964
 6460SOL     OW31015   4.106   1.615   1.242 -0.0749 -0.1674  0.1989
 6460SOL    HW131016   4.041   1.660   1.296 -0.6753 -2.1212  1.1320
 6460SOL    HW231017   4.176   1.611   1.307 -0.0699  1.2336  0.2694
 6461SOL     OW31018   4.279   3.320   4.326  0.4359 -0.3212  0.2112
 6461SOL    HW131019   4.326   3.239   4.344  2.3354  0.2038 -2.4573
 6461SOL    HW231020   4.189   3.292   4.344 -0.4745  2.7787  0.5499
 6462SOL     OW31021   1.122   3.052   7.623  0.2857  0.1590  0.7115
 6462SOL    HW131022   1.133   3.003   7.542 -1.1403 -0.0359  0.6349
 6462SOL    HW231023   1.213   3.044   7.650  1.0914  1.7020 -1.5552
 6463SOL     OW31024   3.464   4.148   0.888 -0.4589 -0.1169  0.2114
 6463SOL    HW131025   3.436   4.182   0.803 -2.3299 -2.5797 -0.1436
 6463SOL    HW231026   3.465   4.053   0.873  0.9299  0.1155 -1.2057
 6464SOL     OW31027   1.167   3.963   0.676  0.2500  0.1563  0.0964
 6464SOL    HW131028   1.166   3.895   0.609 -1.6269  0.9033 -0.6439
 6464SOL    HW231029   1.253   3.950   0.717  0.8240  0.9196 -0.8764
 6465SOL     OW31030   3.273   3.852  16.665 -0.2408  0.0906 -0.2471
 6465SOL    HW131031   3.326   3.866  16.743  2.1194 -1.3519 -1.6071
 6465SOL    HW231032   3.202   3.911  16.690 -1.9859 -2.6585  1.2220
 6466SOL     OW31033   2.132   1.473   5.971 -0.1863  0.0087 -0.0542
 6466SOL    HW131034   2.211   1.439   6.012 -0.1515 -1.9914 -1.8000
 6466SOL    HW231035   2.063   1.449   6.033  0.9140 -1.6576  0.5068
 6467SOL     OW31036   1.421   3.347   4.062 -0.3338  0.2726  0.0410
 6467SOL    HW131037   1.337   3.393   4.051 -0.9553 -0.7965  0.3623
 6467SOL    HW231038   1.476   3.425   4.049 -1.6910  1.1177 -0.6585
 6468SOL     OW31039   3.283   0.589   4.168 -0.0708  0.3922 -0.3179
 6468SOL    HW131040   3.238   0.649   4.108  0.4914  1.6482  0.5255
 6468SOL    HW231041   3.374   0.601   4.140  0.6277  0.0127  1.8211
 6469SOL     OW31042   3.070   2.643   5.277  0.0277  0.2070 -0.4046
 6469SOL    HW131043   3.104   2.562   5.314  1.5414  0.6208 -0.8950
 6469SOL    HW231044   2.985   2.637   5.320  0.2673  0.5179  0.1118
 6470SOL     OW31045   0.602   3.077  14.836 -0.1231 -0.3062 -0.0927
 6470SOL    HW131046   0.630   3.009  14.775 -0.0324 -0.9894  0.7236
 6470SOL    HW231047   0.633   3.152  14.784 -2.2474  2.2226  2.3050
 6471SOL     OW31048   0.911   3.957   5.339  0.3794 -0.0619  0.3453
 6471SOL    HW131049   0.967   4.020   5.384  0.3418 -0.6459  1.2272
 6471SOL    HW231050   0.875   3.910   5.415 -0.0346 -0.1968  0.0626
 6472SOL     OW31051   1.600   1.474   0.929  0.6609 -0.2778  0.0855
 6472SOL    HW131052   1.633   1.481   0.840  1.6674  0.5755  0.5242
 6472SOL    HW231053   1.515   1.432   0.912 -0.0738  0.5702  1.6020
 6473SOL     OW31054   3.102   2.141   0.204 -0.2360  0.3963 -0.3459
 6473SOL    HW131055   3.077   2.159   0.295  2.7116 -1.3323  0.8043
 6473SOL    HW231056   3.027   2.166   0.151  0.9555  1.0884 -1.7088
 6474SOL     OW31057   1.457   0.407   2.840  0.0720 -0.0202 -0.5763
 6474SOL    HW131058   1.438   0.415   2.747 -1.3011 -1.7893 -0.4464
 6474SOL    HW231059   1.462   0.499   2.866  0.8613 -0.3571  0.4694
 6475SOL     OW31060   0.186   1.703   8.348 -0.1791 -0.2494 -0.4149
 6475SOL    HW131061   0.267   1.696   8.298 -0.1610 -0.4651 -0.3559
 6475SOL    HW231062   0.205   1.653   8.428  2.1233 -0.0653 -0.8606
 6476SOL     OW31063   3.877   0.371   0.055 -0.2047  0.2134 -0.4157
 6476SOL    HW131064   3.911   0.284   0.032  0.7341  0.4047  0.2764
 6476SOL    HW231065   3.940   0.429   0.011 -0.5491  0.6241 -0.3706
 6477SOL     OW31066   2.958   1.064   8.540  0.3722 -0.5941  0.1728
 6477SOL    HW131067   2.982   0.994   8.479  1.4029 -0.3255  0.2753
 6477SOL    HW231068   2.934   1.009   8.615 -0.0349  1.6110  1.6641
 6478SOL     OW31069   3.364   4.149   9.662  0.1386 -0.0546  0.3868
 6478SOL    HW131070   3.349   4.227   9.716 -1.9081  1.2530 -2.0443
 6478SOL    HW231071   3.377   4.184   9.574  1.5978 -1.1212  0.1819
 6479SOL     OW31072   1.535   1.489  16.151 -0.0037  0.1110 -0.3023
 6479SOL    HW131073   1.565   1.574  16.182  1.1177  0.1084 -1.3789
 6479SOL    HW231074   1.618   1.456  16.118  1.0901 -0.5398  3.1751
 6480SOL     OW31075   0.348   3.424  17.588  0.4031 -0.3017  0.0809
 6480SOL    HW131076   0.378   3.339  17.620  1.5188 -0.4610 -1.4022
 6480SOL    HW231077   0.389   3.419  17.502 -0.6911 -0.6436 -0.4265
 6481SOL     OW31078   0.150   0.515   6.347  0.1687 -0.2835 -0.2546
 6481SOL    HW131079   0.068   0.504   6.300  0.3488 -3.0519  0.0685
 6481SOL    HW231080   0.196   0.454   6.290  2.9324  2.3550 -0.8542
 6482SOL     OW31081   2.491   4.079   9.036 -0.3384  0.2879  0.0225
 6482SOL    HW131082   2.461   4.050   8.950  0.3291  0.0718 -0.1356
 6482SOL    HW231083   2.430   4.035   9.095  1.8274 -1.1727  1.1740
 6483SOL     OW31084   4.420   2.054   5.833  0.4579 -0.1011  0.3646
 6483SOL    HW131085   4.469   2.012   5.904  1.7574 -1.9538 -1.6066
 6483SOL    HW231086   4.380   1.979   5.789  1.6069  0.4087 -1.5448
 6484SOL     OW31087   3.607   2.414   3.163  0.0618 -0.3087 -0.2151
 6484SOL    HW131088   3.574   2.339   3.114  0.3593 -0.3743 -0.3181
 6484SOL    HW231089   3.701   2.397   3.153  0.4925  1.3948  0.8340
 6485SOL     OW31090   0.282   1.735  11.670 -0.0477 -0.1060 -0.2960
 6485SOL    HW131091   0.196   1.775  11.653 -0.6962 -2.0895 -1.7153
 6485SOL    HW231092   0.306   1.763  11.758  1.8581  2.9372 -1.7947
 6486SOL     OW31093   3.943   0.715   6.119  0.1915 -0.8481  0.3051
 6486SOL    HW131094   4.033   0.683   6.129  0.4733  0.1240  0.9728
 6486SOL    HW231095   3.937   0.740   6.027  0.7107 -0.6605  0.3224
 6487SOL     OW31096   1.825   2.175   3.383  0.0313 -0.2941 -0.2988
 6487SOL    HW131097   1.841   2.188   3.290  0.3329 -0.7452 -0.3099
 6487SOL    HW231098   1.767   2.248   3.405  0.2503 -0.7978  2.0231
 6488SOL     OW31099   3.679   3.938   1.324  0.2779 -0.1823  0.0726
 6488SOL    HW131100   3.682   3.952   1.419 -2.0601  1.3033 -0.0647
 6488SOL    HW231101   3.691   4.027   1.292  2.1579 -0.6804 -0.5670
 6489SOL     OW31102   3.468   0.854   3.514  0.0161  1.0301 -0.3091
 6489SOL    HW131103   3.538   0.790   3.512 -0.2000  0.8625 -2.1036
 6489SOL    HW231104   3.511   0.930   3.552 -2.2683  1.0253  2.2867
 6490SOL     OW31105   3.545   3.992   2.860 -0.7138  0.3729 -0.5386
 6490SOL    HW131106   3.569   4.019   2.772  1.7749  1.8163  0.5671
 6490SOL    HW231107   3.620   3.935   2.879  0.4403  2.0271 -0.1560
 6491SOL     OW31108   0.098   2.377   2.511 -0.2575  0.1194 -0.1455
 6491SOL    HW131109   0.030   2.359   2.577 -1.2561  1.5400 -0.8000
 6491SOL    HW231110   0.046   2.399   2.434  1.5498 -0.6428 -1.5858
 6492SOL     OW31111   0.828   1.988  13.023  0.0553 -0.5996  1.0433
 6492SOL    HW131112   0.740   1.967  13.055  0.2826 -2.6951  0.2555
 6492SOL    HW231113   0.842   1.925  12.953  0.5566  1.6592 -0.8877
 6493SOL     OW31114   3.749   0.110  17.736  0.0296 -0.4658  0.1069
 6493SOL    HW131115   3.822   0.089  17.678  0.5998 -0.3420  0.7896
 6493SOL    HW231116   3.786   0.093   0.078  1.7965  0.4468 -0.4749
 6494SOL     OW31117   4.035   1.897   7.356  1.0192  0.2857  0.0749
 6494SOL    HW131118   4.011   1.821   7.409  0.6101  0.3949  0.0459
 6494SOL    HW231119   3.949   1.939   7.366  1.2920  1.1874 -1.3673
 6495SOL     OW31120   2.653   0.450   2.487  0.1940 -0.5506  0.0036
 6495SOL    HW131121   2.668   0.450   2.581 -2.8339  0.1815  0.4752
 6495SOL    HW231122   2.734   0.406   2.459  0.3424  0.0846 -0.5467
 6496SOL     OW31123   1.541   1.381   9.350  0.1236  0.3413 -0.0188
 6496SOL    HW131124   1.471   1.436   9.386 -0.3684  0.7997 -1.7013
 6496SOL    HW231125   1.612   1.393   9.414 -0.4373  2.4847  0.2107
 6497SOL     OW31126   3.908   0.938   7.892  0.3078  0.1405  0.2652
 6497SOL    HW131127   3.988   0.957   7.940 -0.5378  0.8823  1.3912
 6497SOL    HW231128   3.873   1.024   7.869  0.8860 -0.7096 -3.8985
 6498SOL     OW31129   4.326   0.516   7.981  0.2411 -0.1313 -0.2968
 6498SOL    HW131130   4.231   0.523   7.976  0.4357  2.7248  0.0471
 6498SOL    HW231131   4.352   0.513   7.889 -2.1229  0.3327 -0.9795
 6499SOL     OW31132   2.642   2.394   9.499 -0.5590  0.2049 -0.2349
 6499SOL    HW131133   2.711   2.348   9.546 -1.6639 -0.4944  0.6860
 6499SOL    HW231134   2.588   2.315   9.506  0.6260 -0.4131  1.5719
 6500SOL     OW31135   2.828   2.220   9.619  0.0468  0.4188  0.0569
 6500SOL    HW131136   2.876   2.288   9.666  1.6907 -1.3517  0.9845
 6500SOL    HW231137   2.855   2.138   9.662 -1.2564 -0.3363 -0.5745
 6501SOL     OW31138   2.873   2.863  16.410 -0.6502 -0.0907 -0.2613
 6501SOL    HW131139   2.869   2.829  16.499 -1.0680  0.1779 -0.1788
 6501SOL    HW231140   2.785   2.895  16.393 -1.3835 -1.4702  0.9164
 6502SOL     OW31141   4.462   0.417   3.033  0.7753 -0.3402 -0.0168
 6502SOL    HW131142   4.487   0.450   3.119 -0.9736 -1.1291  0.8039
 6502SOL    HW231143   4.468   0.324   3.053 -0.2918 -0.0492  1.6769
 6503SOL     OW31144   4.252   2.805  11.485  0.6513  0.0202  0.3257
 6503SOL    HW131145   4.303   2.736  11.445 -0.7676 -1.0228  0.3227
 6503SOL    HW231146   4.316   2.876  11.494 -0.8753  1.4859 -0.2940
 6504SOL     OW31147   4.650   3.435   7.207  0.4812  0.0410 -0.5515
 6504SOL    HW131148   4.656   3.384   7.288  0.6659 -0.6532 -1.0063
 6504SOL    HW231149   4.595   3.507   7.237 -0.4003 -0.5159 -0.8406
 6505SOL     OW31150   3.622   0.118   6.129  0.3813 -0.0262  0.7186
 6505SOL    HW131151   3.714   0.094   6.133 -0.3789 -2.8553  1.1633
 6505SOL    HW231152   3.635   0.183   6.197 -2.7376  0.3836  0.9429
 6506SOL     OW31153   0.847   3.423   2.283 -0.1167 -0.1372  0.7345
 6506SOL    HW131154   0.756   3.393   2.287  0.1996 -1.3390 -1.4855
 6506SOL    HW231155   0.879   3.357   2.221  0.2183  1.8224 -1.1668
 6507SOL     OW31156   2.332   3.889  10.032 -0.1642  0.5874 -0.1631
 6507SOL    HW131157   2.318   3.981  10.051 -0.3708  0.4714  0.2490
 6507SOL    HW231158   2.385   3.863  10.108 -1.6362 -0.4023  0.5363
 6508SOL     OW31159   1.357   1.689  15.059 -0.0789 -0.0217 -0.1780
 6508SOL    HW131160   1.344   1.644  15.142 -0.2566 -0.3329 -0.3717
 6508SOL    HW231161   1.453   1.697  15.060 -0.1231  0.3832  0.5795
 6509SOL     OW31162   1.556   0.842   6.720  0.1409  0.3937  0.0531
 6509SOL    HW131163   1.542   0.935   6.736 -1.7573 -0.0428  0.8499
 6509SOL    HW231164   1.489   0.792   6.767  1.2746  0.1276  1.3855
 6510SOL     OW31165   1.530   3.195   5.673  0.0488 -0.4144  0.1741
 6510SOL    HW131166   1.539   3.107   5.710 -0.8566 -0.3306  0.5827
 6510SOL    HW231167   1.459   3.191   5.608  0.9300 -1.3515 -0.7232
 6511SOL     OW31168   0.291   0.556   6.590  0.1670  0.4318  0.3045
 6511SOL    HW131169   0.304   0.650   6.603  2.2473  0.0424  0.9678
 6511SOL    HW231170   0.222   0.562   6.523  0.7984  1.1265 -0.2964
 6512SOL     OW31171   0.620   4.648   4.814  0.2937 -0.3851 -0.1481
 6512SOL    HW131172   0.673   4.728   4.802  0.4251 -0.6942 -1.5931
 6512SOL    HW231173   0.553   4.681   4.874 -0.8088 -1.4402 -0.8150
 6513SOL     OW31174   1.555   2.463   6.000  0.3249 -0.3375 -0.3042
 6513SOL    HW131175   1.519   2.505   6.078  0.4375  0.6999 -0.8092
 6513SOL    HW231176   1.482   2.441   5.944 -2.1676  2.5038  1.8071
 6514SOL     OW31177   0.440   2.455   1.835 -0.2055  0.0077 -0.7781
 6514SOL    HW131178   0.525   2.414   1.855 -0.7285 -1.2040 -1.0500
 6514SOL    HW231179   0.387   2.423   1.908  1.5544  1.6592  1.2341
 6515SOL     OW31180   1.094   2.678   8.749 -0.2354 -0.6409  0.4645
 6515SOL    HW131181   1.092   2.626   8.829 -0.8969 -0.1742  0.7496
 6515SOL    HW231182   1.164   2.743   8.758  0.0488 -0.8605 -0.1294
 6516SOL     OW31183   2.067   0.218   1.881 -0.6979 -0.4114 -0.1096
 6516SOL    HW131184   2.090   0.190   1.792  0.7094  3.1335 -0.8679
 6516SOL    HW231185   2.065   0.314   1.872 -1.3262 -0.4604 -0.5316
 6517SOL     OW31186   4.609   4.308   8.667  0.0091  0.5213 -0.3339
 6517SOL    HW131187   4.528   4.334   8.623 -0.7654  0.3234  0.9968
 6517SOL    HW231188   4.622   4.381   8.727 -0.8739  1.2145 -0.9986
 6518SOL     OW31189   0.474   3.264   5.450 -0.2897 -0.7839 -0.2258
 6518SOL    HW131190   0.561   3.250   5.414  0.9180 -0.9919  2.7322
 6518SOL    HW231191   0.508   3.291   5.535 -0.4621  1.2852 -0.8181
 6519SOL     OW31192   4.660   3.227   2.452 -0.0221  0.0766  0.0990
 6519SOL    HW131193   4.576   3.185   2.472 -0.8741  1.1469 -1.2958
 6519SOL    HW231194   4.639   3.309   2.409 -1.6875 -1.7549 -2.5652
 6520SOL     OW31195   0.522   4.546   3.988 -0.0668 -0.0618  0.4987
 6520SOL    HW131196   0.544   4.531   4.080  1.8817 -0.3250 -0.0204
 6520SOL    HW231197   0.482   4.632   3.979  0.1852  0.2191  1.9834
 6521SOL     OW31198   2.630   1.624   7.284  0.0564  0.4571  0.3612
 6521SOL    HW131199   2.638   1.704   7.336 -0.6246  0.4787  0.4403
 6521SOL    HW231200   2.588   1.670   7.211 -0.0263 -0.6463 -0.2837
 6522SOL     OW31201   2.863   4.507   4.469 -0.0901 -0.6661 -0.3422
 6522SOL    HW131202   2.857   4.589   4.518 -0.4869 -0.1976 -1.1908
 6522SOL    HW231203   2.795   4.455   4.511 -0.6692  0.1686 -0.2516
 6523SOL     OW31204   1.925   2.672   0.577 -0.2530  0.7244 -0.3510
 6523SOL    HW131205   1.855   2.607   0.578  1.2507 -0.8836 -1.4166
 6523SOL    HW231206   1.909   2.718   0.494 -0.5850  2.9409  0.9216
 6524SOL     OW31207   3.283   3.172  12.664 -0.3003  0.4386  0.5944
 6524SOL    HW131208   3.266   3.078  12.656  3.1420 -0.3030  1.8161
 6524SOL    HW231209   3.214   3.211  12.610 -0.3968 -1.2659 -0.5185
 6525SOL     OW31210   1.000   3.529  11.345  0.3212  0.1069 -0.4713
 6525SOL    HW131211   0.987   3.477  11.424  1.5966 -0.8649 -0.9027
 6525SOL    HW231212   1.052   3.467  11.294  1.9091 -0.4194  1.7957
 6526SOL     OW31213   3.603   3.910  15.052  0.1863  0.7888 -0.0826
 6526SOL    HW131214   3.684   3.946  15.089  0.5871 -0.1035 -0.1106
 6526SOL    HW231215   3.615   3.932  14.960  0.8071  0.6518 -0.0346
 6527SOL     OW31216   1.879   2.191   9.571 -0.0261 -0.2256  0.0420
 6527SOL    HW131217   1.839   2.207   9.656  0.9057  2.1239  0.0332
 6527SOL    HW231218   1.859   2.098   9.558 -0.8872 -0.0128 -0.1827
 6528SOL     OW31219   2.495   2.104   2.678 -0.0406 -0.3726  0.7274
 6528SOL    HW131220   2.405   2.129   2.659  0.7260  0.5037 -1.8387
 6528SOL    HW231221   2.530   2.087   2.590  0.1150 -1.0042  0.9109
 6529SOL     OW31222   2.835   3.496  11.143 -0.0998 -0.2218  0.1774
 6529SOL    HW131223   2.924   3.516  11.114 -0.0293 -0.9861 -0.1339
 6529SOL    HW231224   2.859   3.426  11.204 -0.5734  0.6191  1.3172
 6530SOL     OW31225   0.496   0.611   7.440  0.5256  0.0501 -0.2986
 6530SOL    HW131226   0.456   0.526   7.460  2.7557 -1.4414 -2.1363
 6530SOL    HW231227   0.590   0.596   7.452  0.1359 -2.0173  0.2884
 6531SOL     OW31228   3.760   4.281   8.633  0.4027  0.2041 -0.5659
 6531SOL    HW131229   3.832   4.229   8.668 -0.5901 -1.3714 -0.8681
 6531SOL    HW231230   3.686   4.249   8.684  0.3980  0.3137 -0.5046
 6532SOL     OW31231   3.128   4.412   4.402  0.1164  0.5327 -0.7358
 6532SOL    HW131232   3.042   4.424   4.443  0.2922  1.1079 -0.5319
 6532SOL    HW231233   3.100   4.444   4.317  0.5774 -2.7955 -2.1499
 6533SOL     OW31234   4.514   1.112   6.040 -0.3040  0.3958  0.0919
 6533SOL    HW131235   4.519   1.086   5.948  2.3431 -2.0513  0.9530
 6533SOL    HW231236   4.530   1.206   6.026  3.0705  0.1806  2.4998
 6534SOL     OW31237   0.865   1.622  14.377 -0.5588  0.1240  0.4315
 6534SOL    HW131238   0.850   1.694  14.315 -0.0518 -0.7784 -0.7386
 6534SOL    HW231239   0.782   1.574  14.372  1.9015 -4.3245  1.9342
 6535SOL     OW31240   3.210   2.643   0.756  0.0425 -0.3581  0.3196
 6535SOL    HW131241   3.245   2.731   0.761  0.5643 -0.6874  2.7587
 6535SOL    HW231242   3.250   2.612   0.675 -1.2404 -2.1898  0.3611
 6536SOL     OW31243   3.584   1.411   1.628  0.4098  0.0260  0.5177
 6536SOL    HW131244   3.560   1.362   1.707 -2.1735  0.6517  0.1170
 6536SOL    HW231245   3.502   1.459   1.616  0.1084 -0.4619  0.6588
 6537SOL     OW31246   3.912   0.730   4.188 -0.7936 -0.3582 -0.0676
 6537SOL    HW131247   3.923   0.639   4.215 -0.5189 -0.8675 -1.8726
 6537SOL    HW231248   3.833   0.719   4.135 -1.4605 -0.8415  1.0260
 6538SOL     OW31249   0.597   0.424  11.753  0.1942 -0.0449  0.4565
 6538SOL    HW131250   0.640   0.367  11.818  4.2377  2.0845 -0.3367
 6538SOL    HW231251   0.656   0.498  11.767  0.6472 -0.6338  1.6618
 6539SOL     OW31252   0.994   1.239   6.757  0.1193  0.0440 -0.1029
 6539SOL    HW131253   0.945   1.275   6.683 -0.7542  0.7781  0.8385
 6539SOL    HW231254   0.941   1.270   6.831  0.4161  1.1901 -0.3856
 6540SOL     OW31255   4.404   2.046   8.886 -0.1949  0.2759  0.2646
 6540SOL    HW131256   4.446   2.103   8.951  0.2902 -2.2028  2.1101
 6540SOL    HW231257   4.423   1.959   8.922  1.5056  1.3413  1.9690
 6541SOL     OW31258   3.233   1.097   9.762  0.0128 -0.2462 -0.5886
 6541SOL    HW131259   3.148   1.139   9.749  0.1652  0.6684  1.3290
 6541SOL    HW231260   3.280   1.178   9.744 -0.1059 -0.1083 -0.2820
 6542SOL     OW31261   3.062   1.210   1.386 -0.0691  0.2305 -0.0918
 6542SOL    HW131262   2.996   1.188   1.452 -1.8012 -1.5228 -2.3824
 6542SOL    HW231263   3.143   1.188   1.431 -1.8336 -2.4283  1.7653
 6543SOL     OW31264   1.586   1.042  13.035  0.0408 -0.1654 -0.6360
 6543SOL    HW131265   1.508   1.051  13.090  1.3684  0.8310  1.0728
 6543SOL    HW231266   1.655   1.083  13.088 -1.5190 -0.0970  1.3408
 6544SOL     OW31267   4.102   0.950   6.785  0.1220  0.3301 -0.1885
 6544SOL    HW131268   4.098   1.032   6.834 -0.5640  0.3975 -0.3453
 6544SOL    HW231269   4.016   0.950   6.743 -0.1360  2.1501  0.3781
 6545SOL     OW31270   1.329   1.433  16.328 -0.5426  0.3451  0.4125
 6545SOL    HW131271   1.300   1.522  16.348 -1.0616 -0.1776  1.9558
 6545SOL    HW231272   1.382   1.444  16.248 -1.5403 -1.2318 -0.4766
 6546SOL     OW31273   2.801   2.600  12.433 -0.1960 -0.1125  0.6573
 6546SOL    HW131274   2.790   2.694  12.418 -2.2228 -0.5950 -0.8209
 6546SOL    HW231275   2.729   2.586  12.494  0.9970  0.4072  2.1672
 6547SOL     OW31276   3.134   1.272   8.578 -0.4453  0.3856  0.5976
 6547SOL    HW131277   3.078   1.316   8.643 -0.8860 -1.9528  1.8101
 6547SOL    HW231278   3.085   1.193   8.557 -0.4539  0.7242 -0.6341
 6548SOL     OW31279   4.532   2.618   5.224 -0.7571 -0.6490  0.0129
 6548SOL    HW131280   4.614   2.660   5.197 -0.6524 -0.9500 -0.1339
 6548SOL    HW231281   4.461   2.658   5.173 -0.3208  0.6521  0.4312
 6549SOL     OW31282   4.681   4.217   5.941 -0.3022  0.3602  0.3335
 6549SOL    HW131283   0.029   4.174   5.930  0.1703  0.7561  2.5081
 6549SOL    HW231284   4.636   4.150   5.993  1.8319 -1.8116 -0.6003
 6550SOL     OW31285   4.207   0.608   6.434 -0.2767  0.6722  0.3491
 6550SOL    HW131286   4.191   0.643   6.347  1.9845  0.1600 -0.2760
 6550SOL    HW231287   4.224   0.515   6.416 -0.7220  0.8165 -0.8248
 6551SOL     OW31288   3.158   0.223  17.655 -0.7034  0.4996  0.3746
 6551SOL    HW131289   3.139   0.135  17.688 -1.6010  0.2118 -0.9139
 6551SOL    HW231290   3.103   0.233  17.577  0.3361  0.0217 -0.4321
 6552SOL     OW31291   3.823   1.816   5.831 -0.4259 -0.1404 -0.5079
 6552SOL    HW131292   3.745   1.861   5.864 -0.0141 -0.1779  0.5169
 6552SOL    HW231293   3.829   1.840   5.739 -0.5452  0.4197 -0.3699
 6553SOL     OW31294   4.003   1.263   5.690  0.0811 -0.1621  0.4930
 6553SOL    HW131295   4.037   1.305   5.611 -0.0322 -2.7953 -0.9434
 6553SOL    HW231296   3.944   1.332   5.721  0.3163 -0.2502  1.1305
 6554SOL     OW31297   2.350   0.342   6.886 -0.2736  0.0287 -0.0283
 6554SOL    HW131298   2.299   0.275   6.931  0.4607 -0.7205 -0.3021
 6554SOL    HW231299   2.309   0.425   6.908 -0.0884 -0.5342  2.3759
 6555SOL     OW31300   2.993   1.074   1.164 -0.4205  0.4437 -0.6316
 6555SOL    HW131301   3.080   1.034   1.157 -0.8811 -1.0454  1.8981
 6555SOL    HW231302   2.997   1.113   1.252 -0.6581 -1.3224  0.1780
 6556SOL     OW31303   0.654   2.240   4.351  0.0391  0.2113 -0.3052
 6556SOL    HW131304   0.705   2.292   4.414  0.8618 -0.3265 -0.5249
 6556SOL    HW231305   0.694   2.153   4.348 -1.2303 -0.4062  0.4595
 6557SOL     OW31306   2.461   0.101   3.419  0.0224 -0.3269  0.0410
 6557SOL    HW131307   2.373   0.094   3.382 -0.2109  0.6691  0.4221
 6557SOL    HW231308   2.518   0.089   3.343 -0.6519 -0.9843 -0.3623
 6558SOL     OW31309   2.463   2.000   4.807  0.2445 -0.2844 -0.3812
 6558SOL    HW131310   2.549   2.008   4.848 -0.1397 -2.1864  0.8022
 6558SOL    HW231311   2.455   1.905   4.800 -1.9315 -0.1519  0.4777
 6559SOL     OW31312   3.329   1.483  12.905 -0.3501 -0.2324 -0.1431
 6559SOL    HW131313   3.297   1.552  12.847 -3.3170 -0.8879  0.7117
 6559SOL    HW231314   3.312   1.419  12.836 -0.5368 -1.4858  1.0740
 6560SOL     OW31315   2.935   2.351  13.135 -0.6919 -0.5362  0.5536
 6560SOL    HW131316   2.971   2.262  13.140 -1.3933 -0.8094  0.7424
 6560SOL    HW231317   2.842   2.332  13.152 -0.6848 -1.7974 -0.7290
 6561SOL     OW31318   2.013   3.795   6.450 -0.2068  0.7380  0.4228
 6561SOL    HW131319   2.060   3.844   6.518 -0.9564  2.4058 -0.2885
 6561SOL    HW231320   1.935   3.849   6.444 -1.4315 -1.2406 -1.1461
 6562SOL     OW31321   0.855   3.042   5.928 -0.1092  0.4467  0.1506
 6562SOL    HW131322   0.946   3.059   5.951  0.2824  0.0749 -1.1362
 6562SOL    HW231323   0.865   3.035   5.834  0.9676  0.2843  0.2804
 6563SOL     OW31324   2.511   1.143   2.106 -0.0436  0.6379  0.2190
 6563SOL    HW131325   2.511   1.047   2.110  0.6803  0.6288  0.0574
 6563SOL    HW231326   2.517   1.167   2.198 -1.0739 -0.3626  0.5490
 6564SOL     OW31327   0.083   4.419   4.058 -0.0602  0.0345  0.3582
 6564SOL    HW131328   0.113   4.500   4.099  0.4242 -0.6711  1.4256
 6564SOL    HW231329   4.736   4.444   4.018  1.1680  1.8065 -1.0896
 6565SOL     OW31330   1.767   1.345   7.302 -0.5619 -0.2342  0.1405
 6565SOL    HW131331   1.709   1.419   7.317 -1.0116 -0.2928 -1.3251
 6565SOL    HW231332   1.713   1.272   7.332 -0.4124 -0.6317 -0.5519
 6566SOL     OW31333   0.610   1.634   3.783 -0.2033  0.0242  0.2174
 6566SOL    HW131334   0.628   1.583   3.862  0.5345  0.2969  0.2272
 6566SOL    HW231335   0.647   1.574   3.718 -1.2494 -1.0346  0.5852
 6567SOL     OW31336   3.447   3.132   8.655 -0.6049 -0.0221 -0.4975
 6567SOL    HW131337   3.533   3.115   8.618  0.2345  0.1676  1.3798
 6567SOL    HW231338   3.470   3.149   8.746 -0.1773  1.3425 -0.8615
 6568SOL     OW31339   4.718   2.064   7.790  0.3207 -0.8257  0.0844
 6568SOL    HW131340   4.635   2.021   7.813  0.0478 -0.9261 -1.0850
 6568SOL    HW231341   4.736   2.103   7.876  0.8431 -1.5366  0.2989
 6569SOL     OW31342   2.223   1.723   6.155 -0.0533  0.3952  0.1608
 6569SOL    HW131343   2.202   1.784   6.226  1.2809  0.9166  0.1298
 6569SOL    HW231344   2.180   1.760   6.078  2.4248 -1.4686 -2.1187
 6570SOL     OW31345   2.580   4.159   1.793 -0.4132 -0.0008  0.6969
 6570SOL    HW131346   2.602   4.130   1.705  0.7222  0.3404  0.8721
 6570SOL    HW231347   2.495   4.120   1.817 -0.4907 -0.5808 -0.5054
 6571SOL     OW31348   1.046   3.635   5.711  0.4949  1.1610 -0.1086
 6571SOL    HW131349   1.035   3.589   5.795 -2.8725  0.0996 -1.1446
 6571SOL    HW231350   1.043   3.727   5.739 -0.7251  1.7542 -2.2154
 6572SOL     OW31351   2.922   2.697   2.213  0.1400 -0.4986 -0.1708
 6572SOL    HW131352   2.965   2.614   2.191 -1.2152 -1.7416  1.9169
 6572SOL    HW231353   2.958   2.748   2.140 -1.2616  1.8236  0.7361
 6573SOL     OW31354   3.634   1.604   8.945  0.2051  0.6630  0.5958
 6573SOL    HW131355   3.716   1.648   8.965  1.2800 -0.5678 -1.0877
 6573SOL    HW231356   3.654   1.574   8.856 -0.4755  0.0209  0.6567
 6574SOL     OW31357   0.327   0.348   0.688 -0.6408 -0.5315  0.2364
 6574SOL    HW131358   0.250   0.355   0.631  0.9428 -1.5414 -2.0056
 6574SOL    HW231359   0.338   0.255   0.708  0.4508 -0.7400 -1.3667
 6575SOL     OW31360   2.486   3.389   6.978  0.4367  0.1453 -0.0058
 6575SOL    HW131361   2.576   3.421   6.977  0.1883  0.8117 -0.6233
 6575SOL    HW231362   2.466   3.436   7.059 -0.8997  0.7538 -0.6875
 6576SOL     OW31363   3.106   0.442   6.037 -0.6669  0.2103 -0.2477
 6576SOL    HW131364   3.055   0.521   6.016  0.1805  0.9923  0.7045
 6576SOL    HW231365   3.042   0.371   6.033 -0.5500  0.0469  0.8340
 6577SOL     OW31366   0.291   1.130  11.424 -0.0742 -0.0674  0.3615
 6577SOL    HW131367   0.235   1.171  11.358 -1.0038  1.5879  2.1956
 6577SOL    HW231368   0.319   1.211  11.467  2.1305 -1.5449  1.7493
 6578SOL     OW31369   0.706   0.566   2.903  0.4019 -0.7396 -0.5081
 6578SOL    HW131370   0.756   0.596   2.827 -0.5174  0.0661 -0.7992
 6578SOL    HW231371   0.656   0.641   2.935 -0.0745 -1.3155  0.0739
 6579SOL     OW31372   2.099   1.377   2.786 -0.1919 -0.8389  0.0402
 6579SOL    HW131373   2.147   1.459   2.800  1.4476 -2.0280  1.3417
 6579SOL    HW231374   2.009   1.408   2.795 -0.1593 -0.0755 -2.3131
 6580SOL     OW31375   2.266   1.758   8.000  0.4174  0.0513  0.3835
 6580SOL    HW131376   2.296   1.796   8.083  5.1559 -0.7860 -0.9164
 6580SOL    HW231377   2.307   1.814   7.934  2.2613 -1.9155 -0.1395
 6581SOL     OW31378   3.284   3.207   9.140 -0.1487 -0.0902  0.1027
 6581SOL    HW131379   3.331   3.258   9.206  2.1017 -0.2317 -1.3533
 6581SOL    HW231380   3.307   3.124   9.183  0.8153 -0.8950 -1.9232
 6582SOL     OW31381   3.991   0.542   1.392 -0.7246 -0.5530  0.1085
 6582SOL    HW131382   3.931   0.474   1.362  0.1971 -0.3071 -2.2898
 6582SOL    HW231383   4.024   0.586   1.313  2.4243  0.0033  1.7387
 6583SOL     OW31384   2.022   4.001   2.380 -0.3767  0.3987  0.3323
 6583SOL    HW131385   1.946   4.059   2.375 -0.9442 -0.6472 -3.2046
 6583SOL    HW231386   2.023   3.965   2.468 -1.3602  1.7733  0.9038
 6584SOL     OW31387   0.841   1.569   8.072 -0.3009  0.1906 -0.0250
 6584SOL    HW131388   0.832   1.663   8.084 -0.0759  0.3265 -0.9492
 6584SOL    HW231389   0.800   1.539   8.153  0.6064 -0.0959  0.3300
 6585SOL     OW31390   0.849   1.468  14.698  0.0746 -0.0672 -0.3489
 6585SOL    HW131391   0.769   1.512  14.671  0.5010  0.6258 -0.4820
 6585SOL    HW231392   0.862   1.397  14.635  0.0625  1.1716 -1.7335
 6586SOL     OW31393   0.051   4.145   4.103  0.1067 -0.3086  0.0801
 6586SOL    HW131394   0.089   4.230   4.078  0.4733 -0.2052  0.9631
 6586SOL    HW231395   4.694   4.162   4.114  0.5575  0.4797  2.9167
 6587SOL     OW31396   2.285   1.460   7.814 -0.0671  0.2087 -0.1420
 6587SOL    HW131397   2.329   1.408   7.746  0.0411  0.9544 -0.6362
 6587SOL    HW231398   2.349   1.518   7.854 -0.1004 -0.6696  1.1967
 6588SOL     OW31399   3.089   2.320   4.755  0.0599 -0.1821 -0.3801
 6588SOL    HW131400   3.009   2.353   4.795  0.0433 -1.6651  0.8303
 6588SOL    HW231401   3.112   2.399   4.705  0.1898  0.0443  0.0262
 6589SOL     OW31402   4.591   1.013   2.037  0.5040  0.3842 -0.2852
 6589SOL    HW131403   4.674   1.022   2.084  0.8770  0.9139 -1.0501
 6589SOL    HW231404   4.586   1.095   1.988 -2.8459  0.2653 -0.1609
 6590SOL     OW31405   2.178   3.304   9.908  0.0043  0.5831  0.2135
 6590SOL    HW131406   2.083   3.304   9.914  0.1109 -1.7216  1.8381
 6590SOL    HW231407   2.190   3.264   9.822  0.2849  1.1869 -0.0275
 6591SOL     OW31408   0.166   1.521   8.553  0.2389 -0.0124 -0.3097
 6591SOL    HW131409   0.099   1.515   8.621  2.3035  0.3143  1.7156
 6591SOL    HW231410   0.203   1.433   8.560  1.7180  0.7384  1.0961
 6592SOL     OW31411   3.301   1.146   8.194 -0.4454 -0.6381 -0.0301
 6592SOL    HW131412   3.207   1.146   8.209 -0.0276 -1.6367  2.6396
 6592SOL    HW231413   3.313   1.081   8.125  1.7553  1.2997 -1.4879
 6593SOL     OW31414   2.263   2.249  10.485  0.2314 -0.4236 -0.4787
 6593SOL    HW131415   2.211   2.327  10.466  1.4100  0.7167  0.9253
 6593SOL    HW231416   2.297   2.226  10.398  1.3093  0.5373 -0.3174
 6594SOL     OW31417   2.013   3.235   0.231 -0.2938  0.2467 -0.4300
 6594SOL    HW131418   2.048   3.187   0.155 -0.7476 -1.5293  0.4889
 6594SOL    HW231419   2.051   3.319   0.205 -2.2278  0.9869 -0.9143
 6595SOL     OW31420   4.336   4.406  15.036 -0.2620  0.4438  0.7872
 6595SOL    HW131421   4.288   4.324  15.032  1.8986 -0.8342  1.2585
 6595SOL    HW231422   4.337   4.440  14.946 -0.5695 -1.2377  0.1504
 6596SOL     OW31423   0.685   2.892   8.489 -0.6231 -0.0833 -0.3291
 6596SOL    HW131424   0.679   2.810   8.440  0.8864 -0.3847 -0.0044
 6596SOL    HW231425   0.765   2.871   8.538 -0.7281  2.0006  0.7398
 6597SOL     OW31426   4.373   2.157   2.945 -0.2186 -0.1149 -0.3245
 6597SOL    HW131427   4.423   2.179   3.024 -0.4492 -2.7023  0.5497
 6597SOL    HW231428   4.307   2.104   2.988 -2.9687  2.4938 -1.3612
 6598SOL     OW31429   1.655   3.722   6.849  0.0151 -0.4534 -0.7123
 6598SOL    HW131430   1.636   3.790   6.914 -1.2857 -1.7525  0.2834
 6598SOL    HW231431   1.746   3.698   6.870 -0.2764 -1.3939 -0.5018
 6599SOL     OW31432   2.195   2.179   5.977  0.0312  0.3644 -0.1301
 6599SOL    HW131433   2.127   2.189   5.911  0.4208  1.3011 -0.4034
 6599SOL    HW231434   2.184   2.258   6.031 -0.0511 -1.0173  1.8692
 6600SOL     OW31435   2.157   4.476  14.387  0.2173  0.6368 -0.6853
 6600SOL    HW131436   2.097   4.467  14.461 -0.2770  3.7646 -0.7103
 6600SOL    HW231437   2.208   4.395  14.382  0.9026  0.8929  2.2317
 6601SOL     OW31438   3.435   3.354  17.077 -0.8722  0.6618  0.5237
 6601SOL    HW131439   3.467   3.424  17.133 -1.6198  1.8150 -0.4745
 6601SOL    HW231440   3.490   3.359  16.998  0.2400 -0.3322  1.2463
 6602SOL     OW31441   3.189   1.458   0.699 -0.9330  0.0574 -0.2726
 6602SOL    HW131442   3.217   1.495   0.782  0.0276 -0.2535 -0.4567
 6602SOL    HW231443   3.232   1.524   0.645 -0.2814 -0.4843 -0.4061
 6603SOL     OW31444   1.759   2.814   6.410  0.2757 -0.5164 -0.6625
 6603SOL    HW131445   1.846   2.840   6.378  0.0780 -1.5066 -1.9983
 6603SOL    HW231446   1.711   2.770   6.340 -1.3874 -0.2903  0.3387
 6604SOL     OW31447   1.132   1.626   3.111  0.1931  0.8921 -0.3562
 6604SOL    HW131448   1.159   1.600   3.200  2.2649  1.2304 -0.8927
 6604SOL    HW231449   1.079   1.705   3.123  1.7594  2.1118 -1.5247
 6605SOL     OW31450   3.282   2.057   7.777  0.6092 -0.4509 -0.0729
 6605SOL    HW131451   3.202   2.075   7.825  0.8251  2.2909 -0.6923
 6605SOL    HW231452   3.254   1.980   7.728 -1.9046  0.0587  0.5790
 6606SOL     OW31453   4.145   2.852  11.955  0.0918  0.2436 -0.0047
 6606SOL    HW131454   4.193   2.770  11.970 -0.9429 -0.4633 -0.5913
 6606SOL    HW231455   4.224   2.901  11.935  0.4599 -0.0858  0.6098
 6607SOL     OW31456   2.880   2.745   2.774  0.0046 -0.4492  0.2360
 6607SOL    HW131457   2.965   2.742   2.731  0.3547 -1.8223  1.0349
 6607SOL    HW231458   2.867   2.835   2.742  0.0578 -0.5441 -0.0480
 6608SOL     OW31459   1.111   3.544   6.927  0.0551  0.1962 -0.3130
 6608SOL    HW131460   1.117   3.579   7.015 -0.2695  1.8212 -0.9386
 6608SOL    HW231461   1.204   3.554   6.905 -0.2105  0.9213 -1.1317
 6609SOL     OW31462   0.288   1.878   9.713  0.3926 -0.1500  0.0288
 6609SOL    HW131463   0.307   1.969   9.737  1.3796 -0.6142  1.0000
 6609SOL    HW231464   0.193   1.867   9.723  0.1485  1.2894 -0.6589
 6610SOL     OW31465   0.182   1.363  12.097 -0.0794 -0.1305  0.0479
 6610SOL    HW131466   0.248   1.406  12.044 -1.7099  0.4011 -1.5246
 6610SOL    HW231467   0.099   1.411  12.097 -0.2265 -0.3655  1.8134
 6611SOL     OW31468   3.294   4.626   4.191  0.0078  0.4037 -0.2940
 6611SOL    HW131469   3.355   4.674   4.247  3.0202 -2.1999 -1.3625
 6611SOL    HW231470   3.215   4.675   4.213 -1.5983 -1.0801 -2.7050
 6612SOL     OW31471   1.665   1.042   7.076  0.1788 -0.3192  0.3946
 6612SOL    HW131472   1.570   1.030   7.071  0.1011  0.5298 -0.1236
 6612SOL    HW231473   1.662   1.131   7.112  1.3260  0.9666 -2.7427
 6613SOL     OW31474   3.408   1.199  17.140 -0.9491 -0.0449 -0.0884
 6613SOL    HW131475   3.414   1.115  17.187  0.6010 -0.0231 -0.2380
 6613SOL    HW231476   3.371   1.264  17.199 -1.0312  1.0708 -1.3729
 6614SOL     OW31477   4.369   1.625  14.741  0.1193 -0.1639 -0.2532
 6614SOL    HW131478   4.325   1.687  14.684  1.9965  1.5093  0.1306
 6614SOL    HW231479   4.306   1.618  14.813  0.6276  1.4337  0.3436
 6615SOL     OW31480   1.286   3.433   2.025  0.1469  0.6515  0.2280
 6615SOL    HW131481   1.374   3.469   2.035  1.9940 -3.4073 -1.3748
 6615SOL    HW231482   1.314   3.351   1.985  1.3508  1.5934 -0.8346
 6616SOL     OW31483   3.295   2.567   5.950 -0.5134 -0.1214  0.4188
 6616SOL    HW131484   3.234   2.634   5.981  1.4557  1.8543  0.0837
 6616SOL    HW231485   3.378   2.615   5.960 -0.9072  0.0363  2.9716
 6617SOL     OW31486   3.945   3.665   4.776 -0.0559 -0.5101 -0.4935
 6617SOL    HW131487   3.913   3.724   4.844  2.6802  0.1108  0.2406
 6617SOL    HW231488   4.004   3.722   4.727 -1.1119  2.0459  1.1786
 6618SOL     OW31489   3.166   1.020   4.312  0.0496 -0.1803  0.0341
 6618SOL    HW131490   3.211   0.977   4.239  0.5444  0.2542  0.0781
 6618SOL    HW231491   3.101   1.074   4.268  1.8589  2.0107  0.0283
 6619SOL     OW31492   3.859   2.917  13.620 -0.0459 -0.3628  0.4347
 6619SOL    HW131493   3.825   2.904  13.531  1.5353 -0.2210 -0.1769
 6619SOL    HW231494   3.935   2.860  13.616 -0.2094 -0.5973  0.6711
 6620SOL     OW31495   3.135   3.727   5.446  0.0232  0.0118 -0.0366
 6620SOL    HW131496   3.144   3.676   5.365  0.0855  2.1711 -1.3903
 6620SOL    HW231497   3.181   3.810   5.434  0.4464 -0.1843  0.2218
 6621SOL     OW31498   0.930   4.349   3.599 -0.5540  0.1014 -0.0300
 6621SOL    HW131499   0.896   4.392   3.678 -2.9922 -2.0353  0.1078
 6621SOL    HW231500   0.957   4.427   3.550 -1.5777  1.2183  1.1476
 6622SOL     OW31501   2.978   1.603   8.468 -0.6277 -0.2766 -0.0117
 6622SOL    HW131502   2.891   1.587   8.505 -1.5354 -0.4255 -2.2616
 6622SOL    HW231503   2.972   1.553   8.387  0.4692  0.5089 -0.5854
 6623SOL     OW31504   4.134   1.304   4.753  0.2531  0.4901  0.0827
 6623SOL    HW131505   4.082   1.283   4.676  0.1959  0.8610  0.0187
 6623SOL    HW231506   4.221   1.312   4.715 -0.4360  2.4734 -1.0579
 6624SOL     OW31507   4.022   2.650   4.751  0.0484  0.7080 -0.2590
 6624SOL    HW131508   3.941   2.645   4.700  0.7777 -0.1489 -1.3385
 6624SOL    HW231509   4.051   2.561   4.728 -1.7504  0.2936 -0.9665
 6625SOL     OW31510   2.973   1.155   8.904  0.5949  0.1425 -0.3126
 6625SOL    HW131511   2.975   1.236   8.852 -0.1136  2.3729  3.1057
 6625SOL    HW231512   2.906   1.105   8.857  0.7321 -0.0571 -0.2923
 6626SOL     OW31513   1.326   1.309  11.542  0.0575  0.0834 -0.3339
 6626SOL    HW131514   1.330   1.248  11.616  0.6313  0.4861 -0.0309
 6626SOL    HW231515   1.246   1.281  11.499 -0.0926  1.2337 -0.7967
 6627SOL     OW31516   2.722   3.069   7.407  0.2333  0.0716  0.2149
 6627SOL    HW131517   2.808   3.111   7.399  0.3862 -0.2080  0.4036
 6627SOL    HW231518   2.676   3.139   7.452  1.1015  0.4416  0.5297
 6628SOL     OW31519   1.562   3.780   8.243 -0.1501  0.7681  0.6168
 6628SOL    HW131520   1.488   3.762   8.185  0.2987  0.9450 -0.0164
 6628SOL    HW231521   1.597   3.696   8.272 -0.1707  0.2985 -0.7151
 6629SOL     OW31522   1.823   3.012   5.482  0.2615 -0.0134 -0.3357
 6629SOL    HW131523   1.795   3.103   5.474 -0.2433  0.0191  1.9668
 6629SOL    HW231524   1.877   3.018   5.403 -1.3957 -1.3307 -1.5551
 6630SOL     OW31525   0.539   2.893   3.388 -0.6595  0.4627  0.3286
 6630SOL    HW131526   0.608   2.838   3.424 -0.9053  0.7892  1.3051
 6630SOL    HW231527   0.583   2.977   3.376  0.1979  0.3072  2.3519
 6631SOL     OW31528   3.374   0.529   0.170 -0.1729 -0.6355  0.0799
 6631SOL    HW131529   3.468   0.518   0.155 -0.0350 -1.1405  1.4015
 6631SOL    HW231530   3.372   0.587   0.246  0.5522 -0.0179 -0.3659
 6632SOL     OW31531   1.379   0.962  16.850  0.4245  0.2592 -0.1398
 6632SOL    HW131532   1.413   0.961  16.939 -2.0074  1.1180  0.8174
 6632SOL    HW231533   1.448   0.915  16.804  1.4989  2.9250 -1.2570
 6633SOL     OW31534   2.176   2.281   4.025  0.3311  0.2673 -0.3711
 6633SOL    HW131535   2.142   2.302   3.938 -1.5648  0.1158  0.3299
 6633SOL    HW231536   2.099   2.312   4.073  0.6265 -0.4264  0.5523
 6634SOL     OW31537   0.897   4.569   6.009  0.2876 -0.5902  0.0639
 6634SOL    HW131538   0.834   4.615   5.953 -1.4586 -1.6104  1.1995
 6634SOL    HW231539   0.839   4.513   6.059  0.7228  0.2953  1.5703
 6635SOL     OW31540   2.736   0.172   6.286 -0.3516  0.4296  0.3375
 6635SOL    HW131541   2.673   0.193   6.354 -2.4674 -1.9660 -0.8947
 6635SOL    HW231542   2.809   0.146   6.343 -0.7910  0.1697  0.7800
 6636SOL     OW31543   4.315   0.176   5.312  0.2853  0.0763  0.5870
 6636SOL    HW131544   4.317   0.102   5.250  0.2929  0.9438 -0.4478
 6636SOL    HW231545   4.245   0.222   5.266  0.4238  3.0762  3.3852
 6637SOL     OW31546   1.203   0.829   7.077  0.4199  0.2996  0.0526
 6637SOL    HW131547   1.197   0.787   7.163  3.2764  1.6445  0.9106
 6637SOL    HW231548   1.111   0.829   7.049  0.4796 -0.6262 -0.1335
 6638SOL     OW31549   4.441   0.217   8.448 -0.2435  0.0347 -0.1659
 6638SOL    HW131550   4.423   0.210   8.355  0.0520  0.5150 -0.2549
 6638SOL    HW231551   4.357   0.252   8.478 -1.5420 -2.0249 -1.3579
 6639SOL     OW31552   3.848   3.780  11.404 -0.8255 -0.4285 -0.2405
 6639SOL    HW131553   3.882   3.706  11.354  2.2999  1.8139 -1.4723
 6639SOL    HW231554   3.883   3.852  11.351 -0.2055  0.3292  1.1885
 6640SOL     OW31555   0.378   2.388   7.534  0.0051  0.2007 -0.1829
 6640SOL    HW131556   0.322   2.421   7.605 -0.6483 -0.9722 -0.1544
 6640SOL    HW231557   0.355   2.439   7.456 -1.0168 -1.3990 -0.9400
 6641SOL     OW31558   4.509   2.739   8.043  0.6203  0.2760  0.6143
 6641SOL    HW131559   4.576   2.799   8.074  0.7551  0.6455 -0.3723
 6641SOL    HW231560   4.569   2.682   7.995 -2.2173 -0.2763 -2.2906
 6642SOL     OW31561   3.228   0.477  15.636  0.0837  0.4958 -0.2761
 6642SOL    HW131562   3.157   0.523  15.680  0.0449  0.5183 -0.3624
 6642SOL    HW231563   3.293   0.468  15.706  0.9602  1.7298 -0.9389
 6643SOL     OW31564   0.579   3.387  11.021  0.0782 -0.2217 -0.7547
 6643SOL    HW131565   0.498   3.435  11.036  0.1765 -0.0485 -0.7783
 6643SOL    HW231566   0.632   3.455  11.063 -1.2863 -0.8302  1.9815
 6644SOL     OW31567   3.138   1.379   9.392  0.1576  0.2490 -0.1770
 6644SOL    HW131568   3.141   1.387   9.297  2.1518  0.0022 -0.1393
 6644SOL    HW231569   3.109   1.468   9.412  0.3667  0.4687 -0.8561
 6645SOL     OW31570   3.384   2.984  10.939 -0.1426 -0.1039 -0.1053
 6645SOL    HW131571   3.471   3.001  10.903 -1.1034  1.5989 -1.5877
 6645SOL    HW231572   3.392   2.977  11.034  1.4422 -2.0320 -0.3743
 6646SOL     OW31573   0.916   4.217  12.210 -0.2578 -0.1951  0.2530
 6646SOL    HW131574   0.823   4.197  12.197  0.6392 -2.6981 -2.5382
 6646SOL    HW231575   0.941   4.130  12.241 -0.8293  0.2550  1.9223
 6647SOL     OW31576   3.986   1.759  14.454  0.6230  0.0316  0.0947
 6647SOL    HW131577   3.947   1.677  14.482  0.3224  0.1700  0.0745
 6647SOL    HW231578   4.050   1.781  14.522 -0.1168  0.6917  0.5828
 6648SOL     OW31579   2.404   1.336  16.582  0.3953  0.6247 -0.4239
 6648SOL    HW131580   2.499   1.322  16.585  0.7199  2.8332 -0.1982
 6648SOL    HW231581   2.403   1.430  16.563 -0.7677  1.1661  2.1785
 6649SOL     OW31582   0.881   1.685   4.078  0.0282 -0.8051  0.3814
 6649SOL    HW131583   0.867   1.667   4.171  1.6394 -0.5890  0.6645
 6649SOL    HW231584   0.823   1.759   4.060 -0.2578 -1.3033 -0.7640
 6650SOL     OW31585   4.368   2.225   9.416 -0.0517  0.0765  0.1573
 6650SOL    HW131586   4.343   2.269   9.498  0.0902  0.5164 -0.0343
 6650SOL    HW231587   4.297   2.163   9.403 -0.0580  0.2071 -0.4421
 6651SOL     OW31588   4.238   4.249  16.974  0.4576  0.1167  0.6134
 6651SOL    HW131589   4.297   4.314  17.012 -0.7341  3.3829 -3.1529
 6651SOL    HW231590   4.164   4.254  17.034  0.9327  2.6762  0.9749
 6652SOL     OW31591   0.899   0.846   8.201 -0.2320  0.2402  0.0501
 6652SOL    HW131592   0.893   0.841   8.296  0.1939 -3.0228 -0.1159
 6652SOL    HW231593   0.816   0.881   8.168 -1.3181 -1.9240  0.5509
 6653SOL     OW31594   2.487   0.563   5.269 -0.0674  0.4001 -0.5727
 6653SOL    HW131595   2.401   0.578   5.309 -0.5454  0.6368 -1.6958
 6653SOL    HW231596   2.463   0.564   5.177  1.0470 -0.6663 -0.8682
 6654SOL     OW31597   2.021   0.509   3.898 -0.7463  0.3800 -0.3133
 6654SOL    HW131598   1.929   0.534   3.900 -0.4416  1.3293  1.7160
 6654SOL    HW231599   2.023   0.413   3.890 -0.0502  0.4455 -0.9492
 6655SOL     OW31600   1.645   0.605   6.912 -0.2423  0.4106 -0.6411
 6655SOL    HW131601   1.614   0.629   6.999  0.2924 -1.9816  0.2004
 6655SOL    HW231602   1.573   0.642   6.860  1.3111  1.2030 -2.2200
 6656SOL     OW31603   0.290   1.524   4.426  0.5574 -0.0438  0.3658
 6656SOL    HW131604   0.334   1.516   4.341 -2.5338 -0.0255 -1.2311
 6656SOL    HW231605   0.223   1.456   4.422  1.0875 -0.6763  2.3024
 6657SOL     OW31606   0.772   4.177  16.272  0.4655  0.1450  0.3669
 6657SOL    HW131607   0.779   4.232  16.350 -0.2070  2.1219 -0.9838
 6657SOL    HW231608   0.677   4.175  16.264  0.4442  2.5360 -0.0448
 6658SOL     OW31609   1.051   2.573  13.779  0.0881  0.3038  0.2897
 6658SOL    HW131610   1.038   2.491  13.732  0.8450  0.8910 -0.9459
 6658SOL    HW231611   1.103   2.548  13.855  1.3974 -1.3683 -1.1613
 6659SOL     OW31612   2.069   3.966   4.378 -0.2907  0.9708  0.5034
 6659SOL    HW131613   1.979   3.994   4.367 -0.5889  0.4558  1.6628
 6659SOL    HW231614   2.098   3.976   4.287  1.3110  1.0006  1.0100
 6660SOL     OW31615   3.873   4.071   6.606  0.0629  0.0613 -0.2982
 6660SOL    HW131616   3.821   4.146   6.575 -2.0294 -0.7814  1.1896
 6660SOL    HW231617   3.964   4.098   6.592  0.5308 -0.7205  1.3132
 6661SOL     OW31618   0.984   3.350   4.746  0.0690 -0.4541  0.5343
 6661SOL    HW131619   0.970   3.438   4.710  1.5102 -0.8798 -1.0427
 6661SOL    HW231620   1.073   3.346   4.781  1.2122  0.3188 -2.2841
 6662SOL     OW31621   3.448   3.650   4.494  0.2460 -0.2881 -0.1389
 6662SOL    HW131622   3.411   3.715   4.554  0.7313  0.1884 -0.3596
 6662SOL    HW231623   3.509   3.600   4.549  0.2357 -0.0231  0.1151
 6663SOL     OW31624   1.484   3.923   6.350 -1.0680 -0.2892  0.1452
 6663SOL    HW131625   1.556   3.878   6.394 -0.6541 -0.3048 -0.5627
 6663SOL    HW231626   1.409   3.865   6.366 -1.3717 -0.6660 -2.6857
 6664SOL     OW31627   4.692   1.363   7.800  0.2524 -0.0401  0.2641
 6664SOL    HW131628   0.043   1.397   7.785  0.2566 -0.3600 -0.4313
 6664SOL    HW231629   4.686   1.366   7.895  0.9032  1.6246  0.2311
 6665SOL     OW31630   1.297   2.251   9.866  0.5265 -0.1451 -0.0588
 6665SOL    HW131631   1.356   2.194   9.915  2.5953  0.7301 -1.5625
 6665SOL    HW231632   1.272   2.199   9.790 -1.8846 -0.0344  0.6630
 6666SOL     OW31633   1.064   0.620   8.119 -0.1805 -0.2535  0.0055
 6666SOL    HW131634   1.028   0.684   8.181  0.5075  0.1935 -0.0493
 6666SOL    HW231635   1.122   0.562   8.169  0.4903  0.7215  0.3720
 6667SOL     OW31636   1.541   2.516   1.570  0.1496 -0.0365  0.0849
 6667SOL    HW131637   1.453   2.536   1.539  0.6859  0.9277 -0.8070
 6667SOL    HW231638   1.567   2.506   1.478  0.1645  0.6952  0.0090
 6668SOL     OW31639   3.246   0.569   7.609 -0.0049 -0.2335  0.1158
 6668SOL    HW131640   3.339   0.545   7.609 -0.0948 -0.5791  0.2169
 6668SOL    HW231641   3.227   0.547   7.699  1.7447  2.5694  1.1892
 6669SOL     OW31642   4.440   0.453   5.809 -0.4792 -0.1503 -0.5381
 6669SOL    HW131643   4.523   0.418   5.778 -1.3645 -1.4378 -1.4160
 6669SOL    HW231644   4.415   0.509   5.736  1.0232  0.8785 -0.2762
 6670SOL     OW31645   0.140   1.668   3.347  0.2685 -0.2234  0.0880
 6670SOL    HW131646   0.208   1.670   3.415  0.4103  1.4940 -0.0932
 6670SOL    HW231647   0.057   1.637   3.383 -0.9105 -0.3133 -2.7422
 6671SOL     OW31648   1.596   0.683  11.107 -0.3508 -0.3272 -0.4842
 6671SOL    HW131649   1.664   0.630  11.149 -1.1984 -2.3826 -1.6815
 6671SOL    HW231650   1.599   0.756  11.169  0.7402 -0.2224 -0.6643
 6672SOL     OW31651   0.863   0.752   0.085  0.1885 -0.0387 -0.0211
 6672SOL    HW131652   0.829   0.831   0.127  1.0187  0.2787  0.0646
 6672SOL    HW231653   0.954   0.754   0.115 -1.0864 -1.1814  3.8634
 6673SOL     OW31654   1.660   1.502   8.191  0.7073 -0.0852 -0.1078
 6673SOL    HW131655   1.619   1.547   8.265 -3.1417 -1.6958 -1.2813
 6673SOL    HW231656   1.707   1.436   8.241  1.4663  1.0218  0.6644
 6674SOL     OW31657   3.901   0.362  11.198  0.0802 -0.1551  0.3552
 6674SOL    HW131658   3.972   0.360  11.263 -0.6642  0.4282  1.1826
 6674SOL    HW231659   3.862   0.442  11.233  0.2135 -0.7798  1.9210
 6675SOL     OW31660   1.256   3.114  14.748  0.6571  0.5747  0.3152
 6675SOL    HW131661   1.327   3.156  14.699 -1.8848  0.4902 -3.3314
 6675SOL    HW231662   1.196   3.188  14.755 -0.7044 -0.5558  0.3475
 6676SOL     OW31663   4.548   2.376   9.218  0.2654 -0.4784  0.0285
 6676SOL    HW131664   4.499   2.374   9.135 -1.0024 -1.0412  0.7874
 6676SOL    HW231665   4.482   2.343   9.279  0.5407 -0.3421  0.3953
 6677SOL     OW31666   4.554   1.152   1.029  0.2263 -0.1048  0.2660
 6677SOL    HW131667   4.590   1.222   1.084 -0.3903  0.3795  0.0508
 6677SOL    HW231668   4.465   1.186   1.018  0.1017 -1.5004 -2.8952
 6678SOL     OW31669   1.289   0.863  12.000 -0.0869  0.3174  0.2392
 6678SOL    HW131670   1.338   0.945  11.988 -2.1134  1.6735  1.2521
 6678SOL    HW231671   1.218   0.870  11.936  0.8946 -0.3861 -0.9281
 6679SOL     OW31672   4.724   0.446   8.981  0.3999  0.7621 -0.9428
 6679SOL    HW131673   0.004   0.421   8.890 -1.3385  2.7541 -1.8199
 6679SOL    HW231674   0.052   0.512   9.006  1.2490 -0.5769  0.3424
 6680SOL     OW31675   0.047   0.897   8.165 -0.1176 -0.0099 -0.0555
 6680SOL    HW131676   4.695   0.924   8.141  0.2571  0.7746 -0.5706
 6680SOL    HW231677   0.064   0.835   8.094  1.3409  1.7260 -1.2574
 6681SOL     OW31678   0.325   2.871   8.035  0.0407  0.1747 -0.1564
 6681SOL    HW131679   0.346   2.958   8.069  0.0175 -0.8382  2.3968
 6681SOL    HW231680   0.392   2.863   7.967 -0.6953  0.7134 -0.9464
 6682SOL     OW31681   2.237   3.879   1.957  0.6847 -0.1318  0.0249
 6682SOL    HW131682   2.201   3.878   1.868 -1.5438  0.1455  0.9216
 6682SOL    HW231683   2.285   3.962   1.961  1.1817 -0.2031 -4.2701
 6683SOL     OW31684   4.421   1.208   2.306  0.5978 -0.1771 -0.0578
 6683SOL    HW131685   4.506   1.229   2.346  1.5811 -1.2448 -1.5649
 6683SOL    HW231686   4.421   1.248   2.219  0.5527 -1.5836 -0.6962
 6684SOL     OW31687   1.729   1.344  12.874  0.5366  0.2323  0.2532
 6684SOL    HW131688   1.747   1.351  12.968 -0.3438  3.1319  0.1905
 6684SOL    HW231689   1.759   1.429  12.841 -1.3821  0.3553 -1.1645
 6685SOL     OW31690   0.553   0.754   3.027  0.2136  0.2536 -0.5082
 6685SOL    HW131691   0.467   0.715   3.039 -0.2813  1.5418  0.1495
 6685SOL    HW231692   0.529   0.846   3.013  2.3076  0.7169 -1.0875
 6686SOL     OW31693   1.260   3.061  14.337 -0.0834  0.7181  0.0276
 6686SOL    HW131694   1.315   3.010  14.396 -1.7292  0.2038  1.1029
 6686SOL    HW231695   1.307   3.045  14.255 -0.8854 -1.0140 -0.0744
 6687SOL     OW31696   1.454   0.720   5.083  0.0111  0.3257 -0.3968
 6687SOL    HW131697   1.370   0.688   5.115 -0.8264  1.5564 -1.4027
 6687SOL    HW231698   1.508   0.641   5.087  1.6331  1.3246 -2.3892
 6688SOL     OW31699   2.951   2.386   7.016  0.7530  0.4418 -0.8818
 6688SOL    HW131700   2.933   2.296   7.044  1.4239  0.6169  0.1159
 6688SOL    HW231701   3.029   2.407   7.067 -0.0211 -0.3563  0.6484
 6689SOL     OW31702   2.789   2.237   4.972  0.1667 -0.1748  0.2310
 6689SOL    HW131703   2.771   2.148   4.941 -0.6926  0.3087 -0.6819
 6689SOL    HW231704   2.854   2.261   4.906 -1.6696  0.2713 -1.4144
 6690SOL     OW31705   1.794   2.601   1.941 -0.3596  0.3059  0.1049
 6690SOL    HW131706   1.739   2.528   1.968  0.0690  0.3521  1.0909
 6690SOL    HW231707   1.727   2.648   1.892 -0.0698  0.8817  0.2616
 6691SOL     OW31708   0.801   2.268   2.152 -0.3275 -0.1920 -0.6636
 6691SOL    HW131709   0.736   2.243   2.088 -0.7456  1.2633 -0.8074
 6691SOL    HW231710   0.882   2.263   2.102  1.0574 -0.0173  1.5352
 6692SOL     OW31711   0.967   3.341  16.152  0.2012 -0.4209  0.0148
 6692SOL    HW131712   0.940   3.361  16.242  0.3722 -1.7876  0.3725
 6692SOL    HW231713   0.921   3.412  16.108  2.3471  0.8919 -0.1323
 6693SOL     OW31714   0.964   0.410  14.302  0.5884  0.0546 -0.5908
 6693SOL    HW131715   0.923   0.490  14.268  0.2605  0.3495  0.4943
 6693SOL    HW231716   1.018   0.439  14.375  2.0191 -2.4709 -0.6443
 6694SOL     OW31717   1.083   3.189   6.031  0.1668  0.5716 -0.5831
 6694SOL    HW131718   1.032   3.180   6.112 -0.0241 -0.0135 -0.7675
 6694SOL    HW231719   1.070   3.281   6.009  0.2065  0.6518 -0.2764
 6695SOL     OW31720   2.174   3.238   5.547 -0.5676 -0.0640  0.1302
 6695SOL    HW131721   2.184   3.296   5.472  1.1156 -0.5875 -0.0489
 6695SOL    HW231722   2.180   3.149   5.513 -0.5619  1.5659 -4.0305
 6696SOL     OW31723   3.028   4.058   5.666  0.2058  0.3462  0.3487
 6696SOL    HW131724   3.085   4.135   5.657  1.8789 -0.7786  1.3221
 6696SOL    HW231725   3.032   4.020   5.578 -0.8861  0.9704  0.0290
 6697SOL     OW31726   2.785   3.374   5.650  0.4267  0.4965  0.8576
 6697SOL    HW131727   2.859   3.435   5.657  2.2757 -1.5497 -1.0586
 6697SOL    HW231728   2.723   3.430   5.604  1.3957  1.1674  0.3531
 6698SOL     OW31729   4.605   2.421   3.419  1.0348  0.3914  0.2402
 6698SOL    HW131730   4.634   2.501   3.375  1.5201 -0.1895 -0.4968
 6698SOL    HW231731   4.522   2.454   3.454  2.0858  2.2853  0.9449
 6699SOL     OW31732   2.232   0.525   9.268 -0.1015  0.1188  0.4548
 6699SOL    HW131733   2.273   0.445   9.302  0.8386  1.0730  1.5968
 6699SOL    HW231734   2.230   0.506   9.174 -0.9407 -2.1727  0.9313
 6700SOL     OW31735   1.674   4.683   9.065  0.2961 -0.6633 -0.2461
 6700SOL    HW131736   1.692   0.038   9.042  0.0468 -0.7650 -0.8555
 6700SOL    HW231737   1.692   4.637   8.983  1.5320 -0.9191  0.1754
 6701SOL     OW31738   0.209   4.349  16.335 -0.1235 -0.2545  0.4313
 6701SOL    HW131739   0.256   4.432  16.326  2.8657 -1.9888 -0.0564
 6701SOL    HW231740   0.243   4.315  16.418  0.7637 -1.8211 -0.5763
 6702SOL     OW31741   3.909   2.267   5.384  0.3898 -0.1233  0.2367
 6702SOL    HW131742   3.971   2.265   5.311  0.2185  0.1297  0.0839
 6702SOL    HW231743   3.834   2.225   5.341 -0.9309  1.9582  0.5074
 6703SOL     OW31744   3.938   1.202   4.555  0.2403 -0.3711 -0.2334
 6703SOL    HW131745   3.881   1.132   4.525 -0.4225 -0.3917  1.0706
 6703SOL    HW231746   3.872   1.270   4.568  0.7582  0.3341 -1.3128
 6704SOL     OW31747   1.559   1.056   3.153 -0.4119  0.1887 -0.0131
 6704SOL    HW131748   1.486   1.057   3.092  2.6531 -2.1635 -3.7687
 6704SOL    HW231749   1.515   0.993   3.210  2.9685 -2.1882 -0.0345
 6705SOL     OW31750   3.275   0.637  13.836 -0.7278 -0.5382 -0.5667
 6705SOL    HW131751   3.330   0.639  13.758 -0.0627  2.1505 -0.0132
 6705SOL    HW231752   3.184   0.641  13.804 -1.1897  1.7159  1.0590
 6706SOL     OW31753   1.307   1.345  12.449 -0.1249  0.1894 -0.6934
 6706SOL    HW131754   1.357   1.382  12.522 -1.5619 -3.7588  2.2944
 6706SOL    HW231755   1.380   1.312  12.397  2.3796  1.7466  1.8751
 6707SOL     OW31756   1.758   2.576   2.530  0.0728  0.4382 -0.0589
 6707SOL    HW131757   1.819   2.600   2.460 -0.5039 -1.1835 -1.1054
 6707SOL    HW231758   1.812   2.584   2.609 -1.4804  1.7006  0.9033
 6708SOL     OW31759   4.728   2.400   1.808  0.2985  0.5674  0.0616
 6708SOL    HW131760   0.061   2.418   1.872  1.5288  3.1133 -2.0121
 6708SOL    HW231761   4.657   2.416   1.870  1.7414 -0.5429  2.0045
 6709SOL     OW31762   1.768   3.228   1.834  0.1561 -0.3354  0.7841
 6709SOL    HW131763   1.674   3.212   1.835 -0.5404  3.6332 -1.7571
 6709SOL    HW231764   1.792   3.223   1.742 -1.1903  2.7806  0.2631
 6710SOL     OW31765   3.283   0.608   5.233 -0.6744 -0.9337  0.1237
 6710SOL    HW131766   3.296   0.537   5.296 -0.2179  0.9176  2.1374
 6710SOL    HW231767   3.199   0.572   5.205 -1.4921  0.2326  1.0772
 6711SOL     OW31768   3.214   3.782   4.433 -0.5796 -0.4782  0.5387
 6711SOL    HW131769   3.144   3.719   4.451  0.0887 -1.3033  0.2478
 6711SOL    HW231770   3.287   3.728   4.464  0.0601 -0.0829 -0.2982
 6712SOL     OW31771   3.908   2.098   3.698 -0.1033 -0.2497  0.2403
 6712SOL    HW131772   3.846   2.034   3.734  0.0435  0.2553  1.4185
 6712SOL    HW231773   3.846   2.156   3.655  0.0733 -0.3583 -0.1555
 6713SOL     OW31774   3.238   0.558  16.043  0.4196 -0.0623  0.0822
 6713SOL    HW131775   3.290   0.481  16.024 -0.0947  0.1123 -2.0521
 6713SOL    HW231776   3.175   0.554  15.971  1.3594  0.6500 -0.7928
 6714SOL     OW31777   3.160   3.675   7.565  0.3501 -0.8307 -0.2619
 6714SOL    HW131778   3.119   3.735   7.627  1.2652 -1.3484  0.8372
 6714SOL    HW231779   3.080   3.634   7.530  0.6680 -0.4205 -1.4743
 6715SOL     OW31780   3.869   0.267   7.092 -0.0711 -0.4744  0.8743
 6715SOL    HW131781   3.786   0.278   7.138 -1.2824 -1.4319 -1.0675
 6715SOL    HW231782   3.902   0.356   7.103 -2.0501  0.1908  1.5880
 6716SOL     OW31783   1.743   2.843   8.157 -0.4774 -0.3529 -0.0145
 6716SOL    HW131784   1.750   2.871   8.248  0.3534  0.5365 -0.3595
 6716SOL    HW231785   1.786   2.920   8.119 -0.8320  1.2437  2.8149
 6717SOL     OW31786   1.581   3.206  11.930  0.6438 -0.3569  0.0513
 6717SOL    HW131787   1.604   3.229  12.020  3.0360 -0.9242 -0.4085
 6717SOL    HW231788   1.628   3.273  11.881  0.4011  0.1968  0.5771
 6718SOL     OW31789   2.266   3.167   5.010 -0.7944 -0.4094  0.6350
 6718SOL    HW131790   2.353   3.207   5.013 -0.3990 -1.1533 -0.7258
 6718SOL    HW231791   2.208   3.242   5.001 -0.2485 -0.2878 -1.9025
 6719SOL     OW31792   1.191   2.504   4.818 -0.1381  0.0309 -0.4592
 6719SOL    HW131793   1.107   2.474   4.783 -0.7079 -1.0279  1.8724
 6719SOL    HW231794   1.209   2.580   4.762  0.9154 -1.3500 -1.9711
 6720SOL     OW31795   2.508   1.128  15.934 -0.1941  0.3848  0.4086
 6720SOL    HW131796   2.524   1.107  16.026 -1.1075  0.8378  0.6682
 6720SOL    HW231797   2.432   1.071  15.927 -0.9607  1.4145  0.4058
 6721SOL     OW31798   3.707   2.359   2.510 -0.5303 -0.2713  0.5607
 6721SOL    HW131799   3.748   2.286   2.462 -0.1872 -0.1972  0.7348
 6721SOL    HW231800   3.620   2.325   2.529 -0.0842 -2.1031 -0.6051
 6722SOL     OW31801   1.592   4.045   4.322 -0.9160 -0.4079 -0.2263
 6722SOL    HW131802   1.536   4.099   4.266 -1.0231  1.6331  1.8338
 6722SOL    HW231803   1.571   4.078   4.410  1.9832 -0.5572  0.4950
 6723SOL     OW31804   3.073   4.502  16.437  0.8221  0.1647  0.1608
 6723SOL    HW131805   3.062   4.486  16.531  1.9702 -0.4545  0.1943
 6723SOL    HW231806   3.088   4.413  16.406 -2.2249  0.5734 -2.4403
 6724SOL     OW31807   1.611   2.986   5.812 -0.5983 -0.2408  0.0244
 6724SOL    HW131808   1.596   3.029   5.896  2.5990 -1.2533  1.1044
 6724SOL    HW231809   1.675   2.919   5.834 -0.5346 -0.2181 -0.0882
 6725SOL     OW31810   4.427   3.776   4.696 -0.3845  0.1253  0.1603
 6725SOL    HW131811   4.515   3.778   4.735 -0.1360 -2.2803 -0.2662
 6725SOL    HW231812   4.373   3.812   4.766 -1.0532 -0.8731  0.1577
 6726SOL     OW31813   3.405   3.616   8.131 -0.1114 -0.5622 -0.0534
 6726SOL    HW131814   3.466   3.580   8.067 -0.9903  0.3056 -1.3707
 6726SOL    HW231815   3.325   3.643   8.086  1.1531  0.6434 -1.5811
 6727SOL     OW31816   2.080   0.965   2.012 -0.5507  0.1519  0.3697
 6727SOL    HW131817   1.996   0.951   2.055 -0.1866 -3.7468 -0.2166
 6727SOL    HW231818   2.102   1.049   2.054 -1.3093  0.4191  0.2384
 6728SOL     OW31819   1.126   0.627   7.690  0.1832  0.3507  0.5046
 6728SOL    HW131820   1.159   0.591   7.608  0.1050 -2.5140  1.7480
 6728SOL    HW231821   1.159   0.717   7.683 -1.6968  1.2233  3.0246
 6729SOL     OW31822   3.543   2.770   8.950  0.1232 -0.1292  0.1161
 6729SOL    HW131823   3.525   2.725   9.033  2.0455 -1.3949 -0.1700
 6729SOL    HW231824   3.453   2.790   8.923  0.0133 -0.9083 -0.0935
 6730SOL     OW31825   1.524   2.881   2.113  0.3479  0.0517  0.6419
 6730SOL    HW131826   1.618   2.898   2.108  0.3447 -0.0085  0.3650
 6730SOL    HW231827   1.524   2.789   2.136 -0.6615  0.0968  0.8490
 6731SOL     OW31828   0.471   3.960   5.435  0.5459 -0.1838  0.0154
 6731SOL    HW131829   0.441   3.963   5.344  0.3393  2.2007  0.1451
 6731SOL    HW231830   0.559   3.923   5.432  0.8435  0.5332 -0.1936
 6732SOL     OW31831   0.656   3.262   6.656  0.6701  0.3712  0.2527
 6732SOL    HW131832   0.663   3.190   6.719  0.9944  0.1013 -0.0870
 6732SOL    HW231833   0.719   3.232   6.590  0.5557  1.4168 -0.3352
 6733SOL     OW31834   3.959   4.275   9.182 -0.4053  0.6439  0.2269
 6733SOL    HW131835   3.979   4.298   9.272 -3.0495  0.9196  0.7487
 6733SOL    HW231836   4.021   4.202   9.174  0.5887  1.5676 -0.4804
 6734SOL     OW31837   2.962   2.337   2.543 -0.8875  0.0936  0.3337
 6734SOL    HW131838   2.959   2.260   2.486  1.4445  0.5730 -0.4765
 6734SOL    HW231839   2.879   2.383   2.533 -0.6089  0.1891 -1.5012
 6735SOL     OW31840   3.688   2.416   7.165  0.3114  0.2670  0.0880
 6735SOL    HW131841   3.630   2.492   7.154  0.0983  0.0173 -0.5092
 6735SOL    HW231842   3.641   2.348   7.117  0.5272  1.0918 -1.3163
 6736SOL     OW31843   3.093   3.851   6.375 -0.2009 -0.1390 -0.2464
 6736SOL    HW131844   3.141   3.852   6.292 -0.3583 -2.1447 -0.3689
 6736SOL    HW231845   3.018   3.802   6.343  0.1346 -0.5990 -0.3304
 6737SOL     OW31846   0.760   1.924  12.267 -0.3470 -0.2616 -0.6232
 6737SOL    HW131847   0.852   1.901  12.254 -0.4590 -0.8336 -0.3874
 6737SOL    HW231848   0.746   1.978  12.189 -0.3557  0.5392 -0.0625
 6738SOL     OW31849   0.465   1.365  10.158 -0.3184 -0.1481 -0.5025
 6738SOL    HW131850   0.426   1.396  10.240 -0.8446  1.3197 -1.3117
 6738SOL    HW231851   0.504   1.448  10.131 -0.8184  0.8245  1.7383
 6739SOL     OW31852   3.904   1.709   1.389  0.1026  0.0786  0.5125
 6739SOL    HW131853   3.821   1.754   1.402  0.4622  0.8846  0.0037
 6739SOL    HW231854   3.907   1.648   1.463 -0.0404 -0.8191 -0.2307
 6740SOL     OW31855   3.776   2.426   9.444  0.5831 -0.1760  0.4957
 6740SOL    HW131856   3.864   2.458   9.425  0.9444 -0.8777  0.9635
 6740SOL    HW231857   3.741   2.470   9.521 -0.2684  0.5113 -0.2881
 6741SOL     OW31858   2.390   0.944   2.437  0.1546  0.0674 -0.2611
 6741SOL    HW131859   2.390   0.883   2.511 -1.1843 -0.0129 -0.3371
 6741SOL    HW231860   2.481   0.929   2.411  0.3277 -0.7432  0.8220
 6742SOL     OW31861   2.297   0.806  12.181  0.3092 -0.2756 -0.6858
 6742SOL    HW131862   2.217   0.779  12.135  0.4705 -0.3597 -0.9144
 6742SOL    HW231863   2.315   0.744  12.251 -0.2227  0.1114 -0.2065
 6743SOL     OW31864   1.694   1.955   0.672  0.1434 -0.0147 -0.0629
 6743SOL    HW131865   1.646   1.992   0.746  1.2212 -0.9573  1.1199
 6743SOL    HW231866   1.720   2.035   0.627 -1.6405  0.3165 -0.4776
 6744SOL     OW31867   4.467   1.994   7.938 -0.0075 -0.5692  0.1244
 6744SOL    HW131868   4.425   2.005   8.023 -0.5397  1.4933 -0.4105
 6744SOL    HW231869   4.391   1.995   7.879  1.2182  0.7560 -1.4387
 6745SOL     OW31870   1.548   2.023   1.553 -0.6998 -0.2421  0.4620
 6745SOL    HW131871   1.480   1.955   1.551  0.3221 -1.2898  0.6995
 6745SOL    HW231872   1.631   1.975   1.548 -0.0334  0.7941  1.7158
 6746SOL     OW31873   3.560   3.837   2.291 -0.7305 -0.1648 -0.1842
 6746SOL    HW131874   3.517   3.908   2.339  0.6157 -0.1232  0.9688
 6746SOL    HW231875   3.515   3.761   2.326 -0.8220 -0.5470 -1.1452
 6747SOL     OW31876   0.040   4.183   9.707 -0.0975  0.4506  0.2103
 6747SOL    HW131877   0.124   4.145   9.732 -0.5749 -0.7666 -0.0525
 6747SOL    HW231878   4.725   4.110   9.743  1.1338 -1.4002 -1.8090
 6748SOL     OW31879   1.029   0.747   2.251  0.2623  0.0479 -0.3358
 6748SOL    HW131880   1.025   0.658   2.217  0.1521 -0.3192  0.6326
 6748SOL    HW231881   1.080   0.790   2.182 -1.5160 -0.4328 -1.9555
 6749SOL     OW31882   1.198   1.603  11.366  0.3866  0.1501  0.3240
 6749SOL    HW131883   1.285   1.629  11.334  1.1848 -2.8261  0.0494
 6749SOL    HW231884   1.218   1.512  11.391 -0.9561 -0.2663 -0.1229
 6750SOL     OW31885   4.197   2.334   5.275 -0.1294  0.0006 -0.3757
 6750SOL    HW131886   4.188   2.303   5.185  0.9228 -0.5872 -0.2829
 6750SOL    HW231887   4.274   2.282   5.298 -0.0159 -0.5123 -1.9230
 6751SOL     OW31888   3.566   0.083   2.225 -0.0522 -0.0378  0.0057
 6751SOL    HW131889   3.495   0.123   2.175 -0.8180  0.5119  1.5199
 6751SOL    HW231890   3.640   0.117   2.175  0.2840  1.2648  1.3986
 6752SOL     OW31891   2.573   4.353   2.577  0.1128 -0.1954  0.0948
 6752SOL    HW131892   2.531   4.346   2.492 -1.1447  1.2466  0.6020
 6752SOL    HW231893   2.541   4.435   2.613  0.5692 -0.1042  0.2901
 6753SOL     OW31894   3.934   1.830   6.944  0.6804  0.4465 -0.0512
 6753SOL    HW131895   3.988   1.909   6.941 -1.0999  1.6741  0.1201
 6753SOL    HW231896   3.860   1.865   6.895 -1.5843 -1.0436  2.2863
 6754SOL     OW31897   1.556   3.827   2.206  0.1141 -0.1553  0.0505
 6754SOL    HW131898   1.603   3.886   2.266  0.1779  0.9470 -1.0743
 6754SOL    HW231899   1.566   3.866   2.119 -2.9529 -1.2793 -0.8064
 6755SOL     OW31900   0.990   4.153  15.992  0.2856  0.0314 -0.4093
 6755SOL    HW131901   0.999   4.242  15.958 -1.8583  0.4907  0.2301
 6755SOL    HW231902   0.907   4.175  16.035  0.6861  0.3051  0.2145
 6756SOL     OW31903   4.598   3.795   8.410 -1.1455  0.5775  0.1584
 6756SOL    HW131904   4.670   3.858   8.413 -0.3141 -0.3805  0.2445
 6756SOL    HW231905   4.527   3.858   8.397 -0.7948  0.8558 -0.3685
 6757SOL     OW31906   0.053   2.126   8.052  0.1782  0.6199  0.3030
 6757SOL    HW131907   0.117   2.190   8.081 -0.1993  1.2268 -0.1910
 6757SOL    HW231908   0.050   2.062   8.123 -0.3773  0.1132 -0.1705
 6758SOL     OW31909   0.577   2.449  17.390 -0.0759  0.1840 -0.1734
 6758SOL    HW131910   0.509   2.426  17.326  1.1887 -2.4948 -0.5665
 6758SOL    HW231911   0.559   2.380  17.455 -0.6446  1.0452  0.5803
 6759SOL     OW31912   0.893   1.707   6.983 -0.1352  0.0463  0.3805
 6759SOL    HW131913   0.803   1.698   6.952 -0.9855  0.8020  2.6577
 6759SOL    HW231914   0.887   1.676   7.073  2.8638 -1.7094 -0.0348
 6760SOL     OW31915   4.446   0.642   4.464  0.4774  0.0485  0.4486
 6760SOL    HW131916   4.397   0.660   4.384  1.1308  0.8501  0.2302
 6760SOL    HW231917   4.535   0.648   4.429  0.1370  0.7809 -0.2810
 6761SOL     OW31918   2.886   3.417   8.874 -0.7812 -0.3500 -0.2066
 6761SOL    HW131919   2.974   3.436   8.842 -0.7100 -1.7239 -0.8363
 6761SOL    HW231920   2.915   3.339   8.920 -0.0165  0.6751  1.0486
 6762SOL     OW31921   2.693   1.345   8.995  0.1592 -0.4520 -0.0815
 6762SOL    HW131922   2.629   1.333   8.925 -1.6056  0.8459  1.3220
 6762SOL    HW231923   2.730   1.257   8.990 -2.5367 -1.6981  2.0789
 6763SOL     OW31924   4.395   1.808   2.369 -0.0921 -0.5317  0.0432
 6763SOL    HW131925   4.433   1.896   2.378  0.4989 -0.7825 -0.0110
 6763SOL    HW231926   4.449   1.770   2.300  1.4188 -2.1335  2.0644
 6764SOL     OW31927   3.764   1.266   7.287  0.1550 -0.2427 -0.1153
 6764SOL    HW131928   3.838   1.205   7.297  1.3963  1.6651  2.3879
 6764SOL    HW231929   3.793   1.300   7.202 -0.9051  0.6485 -0.1089
 6765SOL     OW31930   4.069   2.694  11.646 -0.2255 -0.4747 -0.3781
 6765SOL    HW131931   3.994   2.752  11.645  0.5076  0.4561 -1.3050
 6765SOL    HW231932   4.132   2.740  11.591  0.1877 -1.0298 -0.3734
 6766SOL     OW31933   0.593   4.693  13.864 -0.1501 -0.3694 -0.1278
 6766SOL    HW131934   0.662   4.688  13.930  1.5993 -0.1687 -1.9694
 6766SOL    HW231935   0.510   4.663  13.902 -0.2915 -0.3401 -0.4116
 6767SOL     OW31936   4.490   0.294  17.693  0.0936  0.2968  0.3190
 6767SOL    HW131937   4.470   0.200  17.688 -1.1685  0.6094 -0.5889
 6767SOL    HW231938   4.466   0.314   0.039  0.2952 -0.0122  0.4422
 6768SOL     OW31939   3.119   0.249   0.978 -0.5956 -0.3041 -0.9989
 6768SOL    HW131940   3.105   0.175   1.038 -1.4819  1.6787  1.2745
 6768SOL    HW231941   3.161   0.212   0.901  0.1530  0.8738 -1.1502
 6769SOL     OW31942   3.118   2.881   5.154  0.0087 -0.5601 -0.2632
 6769SOL    HW131943   3.105   2.805   5.210  3.2552  1.2100  2.8802
 6769SOL    HW231944   3.028   2.882   5.121  0.3161 -0.1884 -1.0797
 6770SOL     OW31945   2.044   3.683   6.905 -0.1113  0.2375  0.4978
 6770SOL    HW131946   2.023   3.764   6.951 -1.0148  0.0017  0.5065
 6770SOL    HW231947   2.133   3.699   6.875  0.0721  1.2299  1.5884
 6771SOL     OW31948   1.556   0.737   5.493  0.6140  0.5231  0.2943
 6771SOL    HW131949   1.553   0.800   5.421  1.6091 -0.4483 -0.5982
 6771SOL    HW231950   1.648   0.718   5.508  0.5181  0.2639  0.5612
 6772SOL     OW31951   4.421   1.522   6.636  0.0121  0.2869  0.2510
 6772SOL    HW131952   4.395   1.534   6.728  1.2612 -0.6357  0.7284
 6772SOL    HW231953   4.510   1.554   6.644  0.0081  0.4989 -0.5489
 6773SOL     OW31954   2.268   4.456   6.805  0.4156 -0.7242 -0.1687
 6773SOL    HW131955   2.320   4.380   6.778 -1.6643 -1.8258 -1.0357
 6773SOL    HW231956   2.183   4.418   6.781 -0.6655  3.1832 -2.6279
 6774SOL     OW31957   1.608   1.375   5.089  0.1462 -0.0756  0.3622
 6774SOL    HW131958   1.529   1.405   5.135 -0.0492  0.3734 -0.2564
 6774SOL    HW231959   1.677   1.381   5.155  0.1450  2.2065  0.1535
 6775SOL     OW31960   2.144   0.222   1.328 -0.1661  0.0806 -0.0595
 6775SOL    HW131961   2.090   0.247   1.253 -0.2000  0.5392  0.1119
 6775SOL    HW231962   2.188   0.146   1.291  1.8233  0.2250  2.0047
 6776SOL     OW31963   3.329   1.911   9.467 -0.3365  0.2768 -0.2808
 6776SOL    HW131964   3.361   1.962   9.393 -1.6929  3.5136  1.3823
 6776SOL    HW231965   3.362   1.968   9.537  0.7547  0.5174 -0.9961
 6777SOL     OW31966   1.316   4.462  11.102  0.4502 -0.4018  0.0338
 6777SOL    HW131967   1.289   4.467  11.010  0.6678 -0.5623 -0.0388
 6777SOL    HW231968   1.231   4.447  11.143  0.2387  0.4012 -0.1197
 6778SOL     OW31969   3.056   1.022   6.459  0.5289  0.2023  0.2614
 6778SOL    HW131970   2.978   0.966   6.460  0.8170 -0.2075 -0.2515
 6778SOL    HW231971   3.089   1.021   6.549  1.1714  1.5024  0.0430
 6779SOL     OW31972   1.804   2.181   9.113 -0.4218  0.2963  0.5740
 6779SOL    HW131973   1.840   2.219   9.193  0.1189  1.2699 -0.1238
 6779SOL    HW231974   1.791   2.259   9.058 -3.1289 -2.1298 -2.1861
 6780SOL     OW31975   3.884   2.293   4.432 -0.2670 -0.1972  0.1289
 6780SOL    HW131976   3.871   2.316   4.340 -0.2103  0.1402  0.2034
 6780SOL    HW231977   3.907   2.201   4.421 -0.7586 -0.0272 -2.3314
 6781SOL     OW31978   2.621   2.237   7.019  0.0527 -0.3453 -0.6303
 6781SOL    HW131979   2.705   2.215   7.059 -1.6642  0.1855  3.2284
 6781SOL    HW231980   2.640   2.328   6.993  0.8240 -0.0948  0.8126
 6782SOL     OW31981   2.333   1.967   0.577 -0.6179 -0.3544 -0.3692
 6782SOL    HW131982   2.371   1.960   0.665  1.3533 -0.8015 -1.2551
 6782SOL    HW231983   2.240   1.976   0.597 -1.0636 -0.7764 -2.2535
 6783SOL     OW31984   3.885   1.658   2.109  0.1588  0.7211  0.2519
 6783SOL    HW131985   3.921   1.595   2.172 -1.4271  1.5237  1.9670
 6783SOL    HW231986   3.913   1.741   2.149  0.4807  0.0189  1.4769
 6784SOL     OW31987   0.588   2.779   0.376 -0.2944 -0.0882 -0.0274
 6784SOL    HW131988   0.502   2.783   0.335  0.2882 -0.3015 -1.2586
 6784SOL    HW231989   0.646   2.761   0.302 -0.4815  0.3113 -0.2742
 6785SOL     OW31990   1.527   0.689   7.153 -0.6700  0.1585 -0.7533
 6785SOL    HW131991   1.538   0.615   7.212  0.7746 -0.2077 -1.4800
 6785SOL    HW231992   1.438   0.720   7.169 -2.0371 -3.0462 -2.0044
 6786SOL     OW31993   1.493   2.933   5.389 -0.4857  0.1079 -0.0374
 6786SOL    HW131994   1.450   2.981   5.318 -0.0923  0.5956  0.0582
 6786SOL    HW231995   1.585   2.946   5.365 -0.7461  1.6392 -0.2226
 6787SOL     OW31996   0.868   2.592   0.556 -0.4058 -0.5521  0.1567
 6787SOL    HW131997   0.871   2.592   0.461 -0.1943  1.2176  0.1728
 6787SOL    HW231998   0.776   2.615   0.563  0.1425  1.4742  0.6780
 6788SOL     OW31999   3.791   2.093   9.087 -0.8751 -0.1793 -0.0033
 6788SOL    HW132000   3.787   2.024   9.152 -0.9983  1.8441  2.1288
 6788SOL    HW232001   3.832   2.167   9.131  0.0010 -1.6775  1.6745
 6789SOL     OW32002   2.436   4.380   4.476  0.0727 -0.6814  0.4771
 6789SOL    HW132003   2.418   4.419   4.390  2.0751  0.3648  0.5139
 6789SOL    HW232004   2.371   4.311   4.481 -2.3405  1.4407 -1.1785
 6790SOL     OW32005   1.159   4.576   6.016 -0.3637 -0.5131  0.3142
 6790SOL    HW132006   1.156   4.593   6.110  0.1919  0.2185  0.2025
 6790SOL    HW232007   1.069   4.601   5.995 -0.6677 -0.7577  1.2971
 6791SOL     OW32008   2.233   4.582   7.717 -0.0215 -0.7223 -0.0383
 6791SOL    HW132009   2.177   4.657   7.736  2.7772  1.7911 -1.5596
 6791SOL    HW232010   2.317   4.611   7.754  1.0116 -0.5796 -2.4845
 6792SOL     OW32011   0.547   4.096   4.815 -0.0183  0.1772 -0.0037
 6792SOL    HW132012   0.454   4.073   4.808  0.7947 -2.4829 -1.5450
 6792SOL    HW232013   0.541   4.183   4.854  1.3756 -0.1959  1.0520
 6793SOL     OW32014   3.062   1.586   1.561  0.4079 -0.4558  0.0929
 6793SOL    HW132015   2.993   1.560   1.622 -1.8615  1.9501 -1.4506
 6793SOL    HW232016   3.080   1.679   1.576  0.1869 -0.4558  0.3765
 6794SOL     OW32017   3.040   1.488   8.908 -0.4430  0.4286 -0.2115
 6794SOL    HW132018   3.118   1.521   8.862  0.4683  0.2599  1.2237
 6794SOL    HW232019   2.986   1.465   8.832 -1.6695  0.9679  0.5076
 6795SOL     OW32020   0.781   2.021  10.566  0.6088 -0.8472  0.4809
 6795SOL    HW132021   0.822   2.073  10.635 -0.4875 -1.9649  1.9715
 6795SOL    HW232022   0.840   2.036  10.492  1.3107 -3.4385  0.5114
 6796SOL     OW32023   4.322   1.401   4.416 -0.3419  0.2505 -0.1826
 6796SOL    HW132024   4.362   1.463   4.477 -3.0477  2.5315 -0.7364
 6796SOL    HW232025   4.230   1.427   4.421 -0.8453 -1.8180  1.1534
 6797SOL     OW32026   2.147   0.323   9.830  0.0557  0.5557 -0.5991
 6797SOL    HW132027   2.059   0.354   9.852  0.8927  1.9287  0.8482
 6797SOL    HW232028   2.152   0.262   9.903  1.0862  1.2343 -0.1017
 6798SOL     OW32029   2.915   2.844  13.889 -0.5278  0.6082  0.5778
 6798SOL    HW132030   2.860   2.775  13.853 -1.7595  1.2599  1.2268
 6798SOL    HW232031   2.975   2.853  13.815 -0.2486 -2.5122  0.4211
 6799SOL     OW32032   0.080   4.063   4.607  0.4389 -0.0318 -0.2923
 6799SOL    HW132033   4.731   4.097   4.636 -1.5047 -2.4373 -3.1280
 6799SOL    HW232034   0.114   4.140   4.561  3.4265 -1.9182 -1.2127
 6800SOL     OW32035   2.363   3.726   9.327 -0.3730  0.0169  0.4869
 6800SOL    HW132036   2.456   3.705   9.319 -0.9006 -2.2504  0.2773
 6800SOL    HW232037   2.324   3.666   9.263 -0.8145  0.8646 -0.0320
 6801SOL     OW32038   2.178   0.447  13.320  0.1642  0.3380  1.0437
 6801SOL    HW132039   2.164   0.516  13.256  1.2194 -0.9817 -0.6318
 6801SOL    HW232040   2.085   0.426  13.329  0.7946 -1.3954  3.5361
 6802SOL     OW32041   0.276   2.713   3.665  0.3525  0.1525  0.1567
 6802SOL    HW132042   0.200   2.742   3.715  0.1668 -0.0578 -0.0027
 6802SOL    HW232043   0.246   2.701   3.575  0.8740 -0.9917  0.1337
 6803SOL     OW32044   3.483   2.470   1.899 -0.8261  0.2193  0.0296
 6803SOL    HW132045   3.467   2.378   1.921 -0.1388 -0.3205 -1.6678
 6803SOL    HW232046   3.389   2.490   1.903 -0.9231 -0.1985 -0.1013
 6804SOL     OW32047   2.444   1.773   2.111 -0.5035 -0.4540 -0.3759
 6804SOL    HW132048   2.357   1.773   2.151  0.4740  0.4914  1.7668
 6804SOL    HW232049   2.433   1.690   2.064 -1.2470 -0.8181  0.4449
 6805SOL     OW32050   1.400   0.764  16.043  0.1428 -0.4275  0.3510
 6805SOL    HW132051   1.313   0.784  16.079 -0.0026  0.1286 -0.3102
 6805SOL    HW232052   1.382   0.681  16.000  0.0230 -0.0196 -0.3860
 6806SOL     OW32053   3.780   0.506   2.029 -0.5414 -0.0029 -0.0740
 6806SOL    HW132054   3.750   0.542   1.946 -1.1688  1.6334  0.8663
 6806SOL    HW232055   3.702   0.514   2.083 -1.1612  0.7964 -1.0911
 6807SOL     OW32056   1.768   4.051   9.093  0.2663  0.6209  0.0233
 6807SOL    HW132057   1.818   4.117   9.142 -0.6047  1.2317  0.0811
 6807SOL    HW232058   1.812   3.969   9.115  0.4354  0.8714  0.6332
 6808SOL     OW32059   1.819   2.176   3.852  0.3737 -0.1816 -0.2903
 6808SOL    HW132060   1.905   2.219   3.851  0.6351 -0.6422  1.7201
 6808SOL    HW232061   1.832   2.113   3.781 -0.8602  0.4127 -1.0434
 6809SOL     OW32062   1.083   3.754   8.313 -0.7107  0.7653  0.2504
 6809SOL    HW132063   1.129   3.675   8.282 -1.3783  1.6626 -3.0566
 6809SOL    HW232064   1.038   3.776   8.232  0.4130  1.8885 -0.0678
 6810SOL     OW32065   2.072   4.029  12.201 -0.2682 -0.3866 -0.3663
 6810SOL    HW132066   1.994   3.981  12.228 -1.0021  0.4943 -0.8895
 6810SOL    HW232067   2.048   4.040  12.109 -1.1311  1.6179  0.1043
 6811SOL     OW32068   3.550   1.239  10.723  0.2010 -0.0340 -0.0815
 6811SOL    HW132069   3.496   1.160  10.717  1.0195 -0.6149  0.2544
 6811SOL    HW232070   3.500   1.289  10.788  0.2638  0.4350 -0.3981
 6812SOL     OW32071   3.100   0.692   7.416 -0.0318  0.2282  0.3331
 6812SOL    HW132072   3.050   0.760   7.461 -0.2249 -0.5625  1.3029
 6812SOL    HW232073   3.158   0.654   7.483 -0.9042 -1.8903 -0.1127
 6813SOL     OW32074   1.272   0.995   6.094 -0.1683 -0.2210  0.3396
 6813SOL    HW132075   1.356   0.979   6.050 -2.4175  1.3198 -4.5760
 6813SOL    HW232076   1.288   0.957   6.180  0.9288 -0.0117  0.2300
 6814SOL     OW32077   2.743   1.446   7.113  0.0545  0.0716  0.1971
 6814SOL    HW132078   2.682   1.372   7.116  0.4557 -0.3657 -2.3820
 6814SOL    HW232079   2.702   1.494   7.185  0.9189 -1.1411  1.4887
 6815SOL     OW32080   2.173   4.035   7.798  0.2033  0.2133  0.0143
 6815SOL    HW132081   2.151   4.122   7.830 -0.6069 -1.0512  2.8954
 6815SOL    HW232082   2.223   4.052   7.718 -0.4193  0.1149 -0.3935
 6816SOL     OW32083   2.342   4.724   6.739 -0.2257 -0.0513  0.3765
 6816SOL    HW132084   2.313   0.062   6.792 -1.0159 -0.1359  0.0626
 6816SOL    HW232085   2.294   4.655   6.784 -1.2488  0.0397 -0.5643
 6817SOL     OW32086   2.895   1.903   8.829  0.3213  0.4441  1.2471
 6817SOL    HW132087   2.892   1.849   8.908  1.5769 -0.0793  0.9277
 6817SOL    HW232088   2.987   1.928   8.823  0.2989  0.4168  0.7920
 6818SOL     OW32089   3.195   4.362   7.863  1.0568  0.0933  0.0795
 6818SOL    HW132090   3.171   4.455   7.860 -0.6490 -0.3838 -1.1266
 6818SOL    HW232091   3.135   4.321   7.801 -0.5865  1.1578  0.9833
 6819SOL     OW32092   4.363   4.062  16.070 -0.4651  0.1155 -0.4909
 6819SOL    HW132093   4.277   4.101  16.086 -0.5646 -0.7209  1.0691
 6819SOL    HW232094   4.414   4.128  16.023 -0.3704  0.2099 -0.2615
 6820SOL     OW32095   1.146   4.370   1.839  0.3316 -0.5275 -0.1973
 6820SOL    HW132096   1.119   4.390   1.749  0.0661 -1.8151 -0.4143
 6820SOL    HW232097   1.062   4.356   1.883  0.2885  0.8379  0.1460
 6821SOL     OW32098   3.366   0.353   6.955  0.3157 -0.1317  0.3941
 6821SOL    HW132099   3.287   0.402   6.932  0.5471 -0.1589 -0.4459
 6821SOL    HW232100   3.336   0.268   6.987 -1.7722  1.3736  2.4582
 6822SOL     OW32101   3.523   1.696   9.380 -0.2885 -0.4740  0.3357
 6822SOL    HW132102   3.595   1.717   9.439  1.9039 -3.7267 -1.1637
 6822SOL    HW232103   3.488   1.784   9.373  2.5169  0.5616 -0.6428
 6823SOL     OW32104   0.359   0.549  11.700 -0.1921  0.0974 -0.1831
 6823SOL    HW132105   0.349   0.581  11.610  2.6197  1.4438 -0.0033
 6823SOL    HW232106   0.446   0.511  11.694 -0.3296 -0.0158 -1.5378
 6824SOL     OW32107   2.132   2.715   5.102  0.4440 -0.0877 -0.4117
 6824SOL    HW132108   2.219   2.753   5.115  0.7573 -1.0472  0.3214
 6824SOL    HW232109   2.151   2.622   5.114  0.1705 -0.0735  0.1178
 6825SOL     OW32110   2.300   3.984   3.536  0.5727 -0.1666  0.5394
 6825SOL    HW132111   2.328   3.896   3.514 -1.9939 -0.7305 -0.4368
 6825SOL    HW232112   2.332   3.988   3.627 -2.5199 -3.7916  1.7681
 6826SOL     OW32113   1.412   0.215   3.255 -0.8317  0.5499 -0.7532
 6826SOL    HW132114   1.338   0.183   3.308  1.0834  0.1136  1.6649
 6826SOL    HW232115   1.366   0.225   3.172 -1.3822 -2.0755 -0.7655
 6827SOL     OW32116   2.559   0.400   8.317 -0.1546  0.2055  0.0084
 6827SOL    HW132117   2.499   0.328   8.337  0.6380 -0.1688  1.0419
 6827SOL    HW232118   2.615   0.368   8.246 -1.7787 -0.4393 -0.9710
 6828SOL     OW32119   3.472   3.877   0.851 -0.2735 -0.9845  0.6644
 6828SOL    HW132120   3.441   3.859   0.940  1.2393  0.1187  1.4096
 6828SOL    HW232121   3.536   3.808   0.833  0.0135 -0.6367  0.3703
 6829SOL     OW32122   4.220   2.101   4.572  0.0991 -0.8047 -0.1489
 6829SOL    HW132123   4.280   2.026   4.566  1.9951  0.7703 -0.9135
 6829SOL    HW232124   4.155   2.084   4.504 -1.6221 -0.0892  1.3160
 6830SOL     OW32125   1.905   3.604   3.926  0.3235 -0.0639 -0.0733
 6830SOL    HW132126   1.870   3.527   3.970 -1.9742  1.3807  0.5971
 6830SOL    HW232127   1.876   3.670   3.989  3.4030  2.7193 -1.5144
 6831SOL     OW32128   2.762   0.183  13.578 -0.2003 -0.5448 -0.2009
 6831SOL    HW132129   2.726   0.099  13.550 -0.8117  0.4568 -2.4119
 6831SOL    HW232130   2.692   0.221  13.632  0.6315  2.4039 -1.1752
 6832SOL     OW32131   2.868   2.004   3.989  0.1838 -0.1336 -0.2581
 6832SOL    HW132132   2.812   1.929   4.009 -3.2404  2.8107  1.2900
 6832SOL    HW232133   2.922   2.017   4.066  0.8730  1.9882 -1.1104
 6833SOL     OW32134   3.471   4.596   3.425  0.1762  0.0814  0.0131
 6833SOL    HW132135   3.507   4.595   3.336 -2.8634  0.0379 -1.2253
 6833SOL    HW232136   3.551   4.610   3.475 -0.8005  1.5089  1.1689
 6834SOL     OW32137   0.445   0.971   4.054  0.4310  0.6284  0.6834
 6834SOL    HW132138   0.394   0.896   4.024  0.1304  0.0019  2.7357
 6834SOL    HW232139   0.408   0.987   4.141 -0.5794 -1.6543  0.6754
 6835SOL     OW32140   2.121   0.474   2.092 -0.2789 -0.6304  0.0645
 6835SOL    HW132141   2.074   0.551   2.126 -0.0290 -0.3555 -0.2130
 6835SOL    HW232142   2.077   0.409   2.147 -1.3649  0.4104  0.4233
 6836SOL     OW32143   4.532   2.901  12.329  0.4884  0.5165  0.0413
 6836SOL    HW132144   4.581   2.976  12.363  0.3617  0.7361 -0.2550
 6836SOL    HW232145   4.602   2.849  12.290 -1.1701 -0.7091 -1.3250
 6837SOL     OW32146   0.700   4.490  14.213 -0.4765 -0.2792  0.0330
 6837SOL    HW132147   0.754   4.438  14.154  2.0772  2.2018  0.1498
 6837SOL    HW232148   0.725   4.579  14.188  0.1878 -0.3440  0.4536
 6838SOL     OW32149   4.001   1.822   3.146 -0.0637  0.1724 -0.1155
 6838SOL    HW132150   3.977   1.896   3.202 -0.0984  1.0911 -1.3456
 6838SOL    HW232151   3.939   1.758   3.182  0.2718  0.0243  0.2053
 6839SOL     OW32152   3.441   2.258   7.281  0.3349 -0.3719  0.3008
 6839SOL    HW132153   3.462   2.346   7.312 -0.1366  0.8926 -3.0802
 6839SOL    HW232154   3.430   2.218   7.368 -1.6484  1.6807  0.9849
 6840SOL     OW32155   2.087   2.453  16.306  0.0959 -0.1168  0.2580
 6840SOL    HW132156   2.127   2.368  16.289  0.2906  0.4599 -2.2698
 6840SOL    HW232157   2.000   2.429  16.338  0.4570  1.1162  2.1243
 6841SOL     OW32158   4.405   0.761   8.412  0.3639 -0.1035 -0.0167
 6841SOL    HW132159   4.362   0.744   8.328  0.7634  0.3922 -0.3163
 6841SOL    HW232160   4.326   0.770   8.466  0.5107 -0.0058  0.1830
 6842SOL     OW32161   3.705   4.313   6.608 -0.2280  0.4284  0.7115
 6842SOL    HW132162   3.612   4.291   6.613 -0.4354  1.0154 -0.6285
 6842SOL    HW232163   3.705   4.388   6.667 -1.8238  2.4672 -1.8640
 6843SOL     OW32164   1.046   0.711   8.964 -0.4899 -0.5829 -0.4079
 6843SOL    HW132165   0.966   0.760   8.983 -0.3132 -1.6034  2.9419
 6843SOL    HW232166   1.105   0.786   8.962  0.6424 -1.4965 -1.4179
 6844SOL     OW32167   1.903   0.324   8.777 -0.2678 -0.5465  0.2436
 6844SOL    HW132168   1.981   0.271   8.793  0.0077 -0.2583 -0.1651
 6844SOL    HW232169   1.898   0.392   8.844 -0.3439  0.4668 -0.8129
 6845SOL     OW32170   3.938   3.104  12.584  0.5454 -0.3564  0.5400
 6845SOL    HW132171   3.950   3.178  12.526  0.3427 -1.4795 -0.9295
 6845SOL    HW232172   3.980   3.033  12.535 -0.0203 -0.4258  0.1669
 6846SOL     OW32173   2.083   1.900   3.848  0.4871  0.5956  0.3154
 6846SOL    HW132174   2.023   1.827   3.863  0.1955  0.8952  0.6318
 6846SOL    HW232175   2.011   1.955   3.815  1.1317  0.6914 -0.9012
 6847SOL     OW32176   4.173   3.820  17.133  0.8031  0.2207  0.1601
 6847SOL    HW132177   4.244   3.834  17.196  1.3226  0.2109 -0.4191
 6847SOL    HW232178   4.154   3.729  17.154  3.2301 -0.8141 -2.1258
 6848SOL     OW32179   2.434   0.604   2.184  0.1519  0.2672 -0.4684
 6848SOL    HW132180   2.412   0.512   2.168 -0.1129  0.1786  0.3857
 6848SOL    HW232181   2.343   0.634   2.191  0.2821  0.9105 -1.5656
 6849SOL     OW32182   1.023   3.711  16.237  0.1647  0.1818 -0.6640
 6849SOL    HW132183   0.934   3.679  16.250  0.5872 -1.3448 -1.5168
 6849SOL    HW232184   1.009   3.803  16.262  0.5717  0.4749 -1.5378
 6850SOL     OW32185   3.665   4.376   5.291 -0.3448  0.4182  0.9218
 6850SOL    HW132186   3.647   4.396   5.383  3.4952  0.5188  1.6266
 6850SOL    HW232187   3.759   4.358   5.286 -0.1916  1.2059  0.9582
 6851SOL     OW32188   3.013   2.752  16.158  0.3041  0.3219  0.2230
 6851SOL    HW132189   2.949   2.715  16.098 -1.3480  1.3444  1.3530
 6851SOL    HW232190   2.964   2.748  16.240  0.3099 -1.8546  0.1226
 6852SOL     OW32191   3.086   1.328  15.841 -0.4943 -0.5263 -0.4421
 6852SOL    HW132192   3.084   1.405  15.784  0.8734  0.8008  1.3069
 6852SOL    HW232193   3.071   1.370  15.926  0.8347 -2.5837  0.8239
 6853SOL     OW32194   2.141   0.082   2.780 -0.4263  0.5057 -0.0975
 6853SOL    HW132195   2.126   0.176   2.774  0.6458  0.6770 -0.2139
 6853SOL    HW232196   2.062   0.044   2.818 -0.2839 -1.5063 -1.8246
 6854SOL     OW32197   1.004   0.514   3.585 -0.0390 -0.3934 -0.0519
 6854SOL    HW132198   1.080   0.572   3.587  0.6681 -1.3347  0.7820
 6854SOL    HW232199   0.930   0.572   3.602  0.0113 -0.3658  0.0781
 6855SOL     OW32200   3.142   0.649   5.526  0.0297 -0.3369 -0.1461
 6855SOL    HW132201   3.229   0.684   5.512 -0.8750  1.9407  0.0275
 6855SOL    HW232202   3.133   0.604   5.442 -1.2299 -2.6514  1.2173
 6856SOL     OW32203   0.912   1.680  15.622  0.5850 -0.1321 -0.1255
 6856SOL    HW132204   0.841   1.686  15.558  1.3664  3.6356 -0.6727
 6856SOL    HW232205   0.984   1.730  15.583  1.6036 -0.4627  1.3474
 6857SOL     OW32206   0.255   2.239   7.315  0.4255  0.2883 -0.1952
 6857SOL    HW132207   0.208   2.171   7.265  0.5443  0.0918 -0.0413
 6857SOL    HW232208   0.206   2.241   7.398  1.7977  1.5122  0.5751
 6858SOL     OW32209   2.589   3.915  10.749 -0.1990  0.9304  0.6077
 6858SOL    HW132210   2.523   3.981  10.728 -2.0426 -1.0409  0.1901
 6858SOL    HW232211   2.673   3.957  10.769  0.8705 -1.4353  1.1353
 6859SOL     OW32212   1.854   1.031   7.407  0.2366  0.5901  0.2181
 6859SOL    HW132213   1.949   1.029   7.400  0.1346 -0.3210 -0.8958
 6859SOL    HW232214   1.845   0.988   7.492  0.2210  0.2318  0.0358
 6860SOL     OW32215   4.562   2.570   0.434  0.4175  0.3438  0.1227
 6860SOL    HW132216   4.559   2.582   0.529  4.9392 -1.0162  0.4667
 6860SOL    HW232217   4.475   2.599   0.408 -0.7854 -0.8035  2.8106
 6861SOL     OW32218   3.179   0.786  11.750  0.0719 -0.2878  0.6383
 6861SOL    HW132219   3.233   0.747  11.819  0.5035 -1.0803 -0.1452
 6861SOL    HW232220   3.244   0.848  11.718 -1.5990  1.3611  0.4678
 6862SOL     OW32221   0.283   2.565   4.824  0.2353 -0.7195  0.0355
 6862SOL    HW132222   0.287   2.578   4.919  1.3502  0.2065 -0.1380
 6862SOL    HW232223   0.216   2.499   4.808 -1.0544  0.0653  2.0803
 6863SOL     OW32224   4.652   3.432  10.713 -0.2351 -0.2528  0.2600
 6863SOL    HW132225   4.582   3.453  10.774  0.3857  2.5878  0.0295
 6863SOL    HW232226   4.719   3.400  10.773 -1.1276 -3.1766 -0.3349
 6864SOL     OW32227   0.287   2.072   8.357 -0.1422  0.0989 -0.1989
 6864SOL    HW132228   0.226   2.004   8.327  2.8724 -2.6862 -0.0058
 6864SOL    HW232229   0.279   2.137   8.288 -0.3365 -0.3807 -0.6329
 6865SOL     OW32230   3.112   0.417   1.765  0.0478  0.0760 -0.3253
 6865SOL    HW132231   3.026   0.434   1.726  0.8208  0.9739 -1.6077
 6865SOL    HW232232   3.096   0.428   1.859  0.4618  0.0056 -0.2484
 6866SOL     OW32233   4.370   2.933   4.357  0.5531 -0.6656  0.0250
 6866SOL    HW132234   4.355   2.868   4.289  0.2348  0.5082 -1.0154
 6866SOL    HW232235   4.286   2.941   4.401 -0.2378 -0.4351 -1.5577
 6867SOL     OW32236   0.502   0.862   7.585 -0.1805 -0.1392 -0.0756
 6867SOL    HW132237   0.595   0.841   7.596 -0.2478 -0.0453  0.6956
 6867SOL    HW232238   0.468   0.793   7.527 -3.8303  1.0291  0.6987
 6868SOL     OW32239   0.530   1.807  12.160 -0.0455 -0.4084 -0.6163
 6868SOL    HW132240   0.585   1.843  12.229 -0.5559 -1.0028  0.0921
 6868SOL    HW232241   0.597   1.764  12.107  0.8472 -0.0018  0.1687
 6869SOL     OW32242   3.334   1.524   1.502 -0.0444 -0.3922  0.1025
 6869SOL    HW132243   3.250   1.564   1.523  0.1336  0.8175 -1.5598
 6869SOL    HW232244   3.297   1.436   1.496 -0.3392 -0.0533 -2.6853
 6870SOL     OW32245   0.388   2.721   5.143  0.8322  0.1580  0.4104
 6870SOL    HW132246   0.382   2.705   5.237  0.7789  1.4085  0.6229
 6870SOL    HW232247   0.354   2.638   5.109  1.8015 -0.8848  1.9710
 6871SOL     OW32248   0.704   3.135   8.133  0.1736  0.9495  0.4810
 6871SOL    HW132249   0.721   3.160   8.042  2.8603  1.1529  1.0174
 6871SOL    HW232250   0.744   3.208   8.181  0.8647  1.8626 -1.4512
 6872SOL     OW32251   3.349   1.194   4.932  0.4262  0.2900  0.3481
 6872SOL    HW132252   3.379   1.200   5.023 -0.6810  1.9687  0.5835
 6872SOL    HW232253   3.425   1.155   4.889 -0.1777 -0.8505  0.3091
 6873SOL     OW32254   0.411   3.814   2.890  0.5501 -0.6989  0.1946
 6873SOL    HW132255   0.468   3.843   2.961  1.4882  0.2720 -0.9648
 6873SOL    HW232256   0.455   3.865   2.822 -1.3168 -1.7479 -1.7789
 6874SOL     OW32257   0.121   0.321  10.571  0.2884 -0.1720 -0.1290
 6874SOL    HW132258   0.074   0.248  10.611 -0.0746 -0.6229 -1.3670
 6874SOL    HW232259   0.213   0.316  10.594  0.6157  1.5995 -1.0407
 6875SOL     OW32260   0.226   0.089   8.047 -0.9581  0.7758  0.0955
 6875SOL    HW132261   0.272   0.017   8.091  0.9813  1.6481 -0.5017
 6875SOL    HW232262   0.293   0.157   8.037  1.1408 -1.3236 -0.0624
 6876SOL     OW32263   3.224   2.200   7.063  1.1191  0.1050 -0.1021
 6876SOL    HW132264   3.260   2.281   7.026  2.5780 -0.2351  0.5672
 6876SOL    HW232265   3.246   2.148   6.986  1.6043  0.9415 -0.5282
 6877SOL     OW32266   4.268   3.516   5.660  0.3461 -0.3028 -0.0616
 6877SOL    HW132267   4.200   3.449   5.669 -0.3766 -0.0125 -3.1660
 6877SOL    HW232268   4.338   3.463   5.624  0.2364 -0.7923  0.4454
 6878SOL     OW32269   1.107   3.737   6.657  0.4348  0.7530  0.4403
 6878SOL    HW132270   1.191   3.774   6.683  0.0365 -1.5068  4.7899
 6878SOL    HW232271   1.071   3.805   6.601  0.7873  0.0621 -0.6353
 6879SOL     OW32272   0.174   0.235  12.666  0.1594  0.1525 -0.0066
 6879SOL    HW132273   0.264   0.201  12.669 -0.7053 -1.9293  2.1202
 6879SOL    HW232274   0.184   0.281  12.749  1.7005  1.0614 -0.6851
 6880SOL     OW32275   0.392   1.088   3.383 -0.6633 -0.3175  0.6880
 6880SOL    HW132276   0.398   1.006   3.432  0.5660 -1.2246 -0.9910
 6880SOL    HW232277   0.307   1.092   3.339  0.3089  0.8683 -1.0565
 6881SOL     OW32278   1.103   1.264   2.177  0.5768  0.5314 -0.8225
 6881SOL    HW132279   1.175   1.288   2.235  0.6596 -0.2028 -0.6287
 6881SOL    HW232280   1.070   1.347   2.143 -0.6390  1.1241  1.8421
 6882SOL     OW32281   0.828   1.632   5.921 -0.6467 -0.3496 -0.4472
 6882SOL    HW132282   0.881   1.623   6.000 -1.5685 -0.1038  0.2117
 6882SOL    HW232283   0.792   1.721   5.930 -0.2742 -0.3464  1.1083
 6883SOL     OW32284   2.796   3.522   6.409 -0.0267  0.3398 -0.0283
 6883SOL    HW132285   2.797   3.595   6.471 -0.2727  0.9846 -0.7890
 6883SOL    HW232286   2.711   3.491   6.439 -1.4316  1.2066 -3.1886
 6884SOL     OW32287   4.426   1.447   9.286 -0.1606 -0.3349 -0.6471
 6884SOL    HW132288   4.437   1.355   9.265 -0.3712 -0.0835 -1.8513
 6884SOL    HW232289   4.392   1.442   9.376 -0.5656 -1.3465 -0.8617
 6885SOL     OW32290   3.453   0.023   8.213 -0.3097  0.2654 -0.0922
 6885SOL    HW132291   3.451   0.014   8.118  1.0151 -0.4462 -0.0652
 6885SOL    HW232292   3.367   4.721   8.227 -0.7084  1.7170  1.3964
 6886SOL     OW32293   2.032   3.660   8.947  0.2011  0.4964 -0.6117
 6886SOL    HW132294   2.055   3.739   8.995  3.0632 -0.9432  0.3777
 6886SOL    HW232295   2.116   3.639   8.904  0.1686  1.3787 -1.1059
 6887SOL     OW32296   2.645   1.726   3.398 -0.1080 -0.0372 -0.2813
 6887SOL    HW132297   2.640   1.804   3.341 -0.0231 -0.6472 -1.1248
 6887SOL    HW232298   2.714   1.682   3.349  0.6296  0.0685  0.6786
 6888SOL     OW32299   1.960   1.285   4.566  0.1437 -0.0271  0.2202
 6888SOL    HW132300   2.053   1.305   4.576  0.0597 -0.7000  2.4793
 6888SOL    HW232301   1.926   1.362   4.521 -0.4069  1.3141  2.9326
 6889SOL     OW32302   3.524   1.352   6.063  0.0904 -0.1930 -0.4244
 6889SOL    HW132303   3.520   1.430   6.009  3.5505 -0.6217 -1.2947
 6889SOL    HW232304   3.511   1.393   6.149 -0.4447 -0.1240 -0.5410
 6890SOL     OW32305   0.915   3.349   3.231 -0.4083 -0.1987 -0.1509
 6890SOL    HW132306   0.965   3.293   3.290  1.2729  1.7074  0.2301
 6890SOL    HW232307   0.876   3.280   3.177 -1.8267 -0.1843  0.8481
 6891SOL     OW32308   1.761   0.833   7.196  0.0568 -0.4382 -0.2490
 6891SOL    HW132309   1.739   0.911   7.146  0.7335  0.3471  0.6795
 6891SOL    HW232310   1.673   0.795   7.189 -1.1861  2.6208 -1.2175
 6892SOL     OW32311   0.495   0.620   3.498 -0.1642  0.4548  0.4334
 6892SOL    HW132312   0.538   0.559   3.559 -2.0804 -1.8506 -0.5033
 6892SOL    HW232313   0.514   0.579   3.414  0.3974 -0.5252  1.0274
 6893SOL     OW32314   0.792   4.086  11.087  0.2293 -0.1495  0.2720
 6893SOL    HW132315   0.746   4.163  11.119  0.6519 -0.9856  2.8698
 6893SOL    HW232316   0.878   4.127  11.077  0.6477 -1.0857  0.0009
 6894SOL     OW32317   1.273   4.587  15.662 -0.5811 -0.0044  0.0172
 6894SOL    HW132318   1.314   4.598  15.576 -0.7232 -1.1995 -0.1964
 6894SOL    HW232319   1.343   4.617  15.721 -2.4625 -0.8248  2.6463
 6895SOL     OW32320   3.252   1.259   0.487  0.1954 -0.3465  0.8254
 6895SOL    HW132321   3.278   1.232   0.575 -0.7938  0.9075  1.4990
 6895SOL    HW232322   3.161   1.278   0.509  0.5510  0.6295  1.4075
 6896SOL     OW32323   2.168   4.236   5.210 -0.0876 -0.3445  0.0882
 6896SOL    HW132324   2.230   4.237   5.283  0.0510  2.3528 -0.0460
 6896SOL    HW232325   2.200   4.319   5.175 -1.2963  0.0300 -0.1349
 6897SOL     OW32326   1.344   4.438   8.550  0.3817 -0.1355  0.0488
 6897SOL    HW132327   1.357   4.511   8.610 -0.3265 -0.5743  0.7453
 6897SOL    HW232328   1.303   4.483   8.477  3.0389  0.7877 -0.8693
 6898SOL     OW32329   2.231   3.122   4.509  0.2130  0.1577 -0.1358
 6898SOL    HW132330   2.222   3.090   4.419 -1.0720  0.2810 -0.0575
 6898SOL    HW232331   2.200   3.212   4.502 -0.8807 -0.2918 -1.2499
 6899SOL     OW32332   0.852   1.255  10.020 -0.2953 -0.6928 -0.1364
 6899SOL    HW132333   0.841   1.200   9.942 -1.6873 -1.0741  0.3450
 6899SOL    HW232334   0.778   1.221  10.070  0.7902 -0.6253  1.5393
 6900SOL     OW32335   1.097   3.040   7.333  0.1956  0.3162  0.7843
 6900SOL    HW132336   1.148   3.034   7.252  0.2861 -0.1740  0.8814
 6900SOL    HW232337   1.030   2.973   7.328 -0.1209  0.8832 -2.6815
 6901SOL     OW32338   3.155   0.382   5.714  0.5385 -0.4416  0.2386
 6901SOL    HW132339   3.136   0.441   5.642 -1.6367 -3.3056 -1.5044
 6901SOL    HW232340   3.069   0.347   5.735 -0.2700  1.0441 -0.6389
 6902SOL     OW32341   4.669   1.494   3.439 -1.2624  0.3161  0.6247
 6902SOL    HW132342   0.009   1.447   3.473 -1.6228 -0.8100 -0.1471
 6902SOL    HW232343   4.641   1.430   3.374 -0.8828 -1.2836  2.0403
 6903SOL     OW32344   2.049   0.058   7.765 -0.8341 -0.3158 -0.5749
 6903SOL    HW132345   2.055   0.116   7.842 -0.8677 -0.1016 -0.7330
 6903SOL    HW232346   1.960   0.026   7.780 -0.6579  0.8180  2.8571
 6904SOL     OW32347   3.899   1.595  17.068  0.0720  0.1835 -0.2933
 6904SOL    HW132348   3.876   1.598  16.975 -0.6182 -0.2885 -0.1330
 6904SOL    HW232349   3.813   1.607  17.108 -0.5598 -0.1200 -1.5655
 6905SOL     OW32350   2.470   2.159   6.817  0.1579 -0.0535  0.0264
 6905SOL    HW132351   2.390   2.161   6.870  0.1118 -2.4511  0.0684
 6905SOL    HW232352   2.526   2.169   6.894 -0.1626 -1.4226  0.4559
 6906SOL     OW32353   4.131   1.440   2.013  0.4532  0.3429  0.2057
 6906SOL    HW132354   4.099   1.476   2.095 -1.1633 -0.0273 -0.2690
 6906SOL    HW232355   4.068   1.486   1.957 -0.9808  2.4165  3.5213
 6907SOL     OW32356   3.485   1.950   5.293  0.0230 -0.1801  0.3358
 6907SOL    HW132357   3.448   1.921   5.209 -0.9745  0.2152  0.6380
 6907SOL    HW232358   3.422   1.914   5.356 -1.2252  0.8290 -0.3284
 6908SOL     OW32359   0.683   2.573   6.656  0.1643  0.1065 -0.2494
 6908SOL    HW132360   0.688   2.555   6.750 -1.8694 -1.1296 -0.3807
 6908SOL    HW232361   0.738   2.509   6.612  1.4769  1.4719 -0.6198
 6909SOL     OW32362   3.151   0.031   1.972  0.3708  0.5184  0.3561
 6909SOL    HW132363   3.204   0.082   2.033 -0.6129 -1.0662  2.5459
 6909SOL    HW232364   3.069   0.079   1.980 -1.2674 -2.2640  0.4862
 6910SOL     OW32365   1.619   1.697   5.866  0.4880  0.0399  0.1290
 6910SOL    HW132366   1.599   1.620   5.919  3.7765  0.5968  2.1870
 6910SOL    HW232367   1.712   1.681   5.848  0.1004 -1.5958 -0.4020
 6911SOL     OW32368   0.636   2.095   2.502 -0.0574  0.1785  0.8189
 6911SOL    HW132369   0.588   2.104   2.584 -0.9366 -1.1416  0.4635
 6911SOL    HW232370   0.720   2.071   2.540  0.4777  0.1717 -0.3628
 6912SOL     OW32371   4.063   1.530   4.399 -0.1128 -0.0394  0.0000
 6912SOL    HW132372   4.073   1.554   4.307  2.7958 -1.7652 -0.1146
 6912SOL    HW232373   4.083   1.618   4.432 -2.1988  0.6608 -0.5487
 6913SOL     OW32374   3.153   3.859   7.315 -0.6627 -0.1716 -0.0280
 6913SOL    HW132375   3.091   3.813   7.371  0.5659 -1.1003  0.5773
 6913SOL    HW232376   3.099   3.934   7.291 -1.4902 -0.3179  1.3614
 6914SOL     OW32377   3.811   2.021  16.691  0.0394  0.0452 -0.3835
 6914SOL    HW132378   3.762   2.103  16.698 -1.2766 -0.7933  0.1921
 6914SOL    HW232379   3.742   1.957  16.709 -0.4685  0.8554  0.5060
 6915SOL     OW32380   1.831   3.204   8.225  0.5290  0.2180  0.0845
 6915SOL    HW132381   1.815   3.212   8.131 -1.0830 -0.9062  0.2601
 6915SOL    HW232382   1.882   3.284   8.237  1.7397 -0.5158 -0.1150
 6916SOL     OW32383   4.115   4.677  10.349 -0.2205  0.8002 -0.0202
 6916SOL    HW132384   4.153   4.690  10.436  0.7006  0.6870 -0.4130
 6916SOL    HW232385   4.051   4.607  10.366 -2.0109  2.2006 -0.9189
 6917SOL     OW32386   2.158   2.627   3.642  0.0447 -0.2842  0.5480
 6917SOL    HW132387   2.193   2.714   3.657  1.1834 -0.1460 -2.8470
 6917SOL    HW232388   2.241   2.579   3.644 -0.1069 -0.5637  0.2020
 6918SOL     OW32389   1.837   3.002   9.300 -0.4465  0.1472  0.3433
 6918SOL    HW132390   1.869   3.089   9.321 -0.0671  0.9785 -3.7479
 6918SOL    HW232391   1.898   2.948   9.349 -3.3428 -1.7730  1.8310
 6919SOL     OW32392   3.958   0.517   7.141  0.4864  0.0055  0.5775
 6919SOL    HW132393   3.885   0.575   7.120  0.9119  0.7509  1.1442
 6919SOL    HW232394   4.038   0.569   7.133 -0.2119  0.3338 -4.2291
 6920SOL     OW32395   0.693   1.007   8.619  0.0491  0.2738 -0.0620
 6920SOL    HW132396   0.713   1.069   8.689  1.0543 -1.0820  0.8473
 6920SOL    HW232397   0.698   1.064   8.542  0.6785  0.2268 -0.0557
 6921SOL     OW32398   1.870   3.270   2.629  0.0290  0.3874 -0.2917
 6921SOL    HW132399   1.919   3.283   2.548 -0.3281 -2.0861 -0.8953
 6921SOL    HW232400   1.834   3.358   2.638 -2.1690 -0.5759  0.3781
 6922SOL     OW32401   3.212   0.429   7.301 -0.8440  0.3025  0.7257
 6922SOL    HW132402   3.153   0.502   7.316  1.7158  2.7622 -1.0160
 6922SOL    HW232403   3.292   0.462   7.342 -0.0013  0.5405 -1.0727
 6923SOL     OW32404   3.397   3.796   9.355  0.6187 -0.2402  0.1866
 6923SOL    HW132405   3.428   3.756   9.436  0.2380 -0.6044  0.1523
 6923SOL    HW232406   3.439   3.882   9.365  1.3163 -0.3976 -1.3339
 6924SOL     OW32407   0.940   3.499   2.556  0.0148  0.3356 -0.2943
 6924SOL    HW132408   0.913   3.482   2.466 -2.0963 -2.8669  0.9247
 6924SOL    HW232409   0.944   3.412   2.598 -0.8418  0.4447  0.0280
 6925SOL     OW32410   2.874   1.888   5.426  0.2559 -0.1084 -0.1435
 6925SOL    HW132411   2.840   1.868   5.513 -1.3201 -0.4190 -0.8252
 6925SOL    HW232412   2.968   1.888   5.442 -0.1096 -3.2551  1.8700
 6926SOL     OW32413   3.459   2.626   5.589 -0.9377  0.3903 -0.7767
 6926SOL    HW132414   3.471   2.647   5.682  2.3909 -0.1228 -1.0796
 6926SOL    HW232415   3.546   2.588   5.583 -2.0114 -2.0645 -0.5962
 6927SOL     OW32416   3.364   4.722   3.895 -0.5434 -0.0061  0.4303
 6927SOL    HW132417   3.271   0.003   3.908  0.0074  2.9021  0.6097
 6927SOL    HW232418   3.362   4.724   3.800 -2.5129  2.6470  0.5244
 6928SOL     OW32419   1.284   4.481   3.633  0.1077 -0.0059  0.1629
 6928SOL    HW132420   1.361   4.505   3.581 -2.0567  0.2765 -2.8590
 6928SOL    HW232421   1.275   4.385   3.633 -0.3859  0.0431 -0.5634
 6929SOL     OW32422   0.292   2.676   3.214  0.2004 -0.4969  0.2917
 6929SOL    HW132423   0.339   2.621   3.152  1.1811 -1.1790  1.6268
 6929SOL    HW232424   0.362   2.741   3.226  0.6476 -1.0430  0.6625
 6930SOL     OW32425   2.762   2.738   3.099 -0.3293  0.0907 -0.3871
 6930SOL    HW132426   2.837   2.688   3.067 -0.6134 -1.0534  0.7419
 6930SOL    HW232427   2.780   2.731   3.192 -1.5913 -2.2618 -0.3248
 6931SOL     OW32428   0.223   0.674   6.921  0.2688 -0.2990  0.2337
 6931SOL    HW132429   0.205   0.762   6.955  0.7898 -0.5666  1.2147
 6931SOL    HW232430   0.148   0.666   6.863  0.5648 -0.0901 -0.1741
 6932SOL     OW32431   2.528   0.186  12.410 -0.1207  0.3336 -0.4539
 6932SOL    HW132432   2.607   0.133  12.422 -1.3013 -0.8899  1.8227
 6932SOL    HW232433   2.485   0.151  12.488 -0.2494  0.2548 -0.5610
 6933SOL     OW32434   2.817   0.288  10.861 -0.1037 -0.5254 -0.6870
 6933SOL    HW132435   2.852   0.376  10.874 -2.1471  0.5309 -2.2905
 6933SOL    HW232436   2.887   0.249  10.808  2.0612  0.0430  1.7699
 6934SOL     OW32437   0.447   2.114   7.537 -0.7739 -0.2246  0.4303
 6934SOL    HW132438   0.401   2.062   7.472  0.5270 -0.0096 -0.6655
 6934SOL    HW232439   0.413   2.204   7.532 -0.7845 -0.2785 -0.3753
 6935SOL     OW32440   2.505   3.442   5.828 -0.4449  0.0515  0.5530
 6935SOL    HW132441   2.431   3.501   5.817  0.3447  1.2835  2.0318
 6935SOL    HW232442   2.520   3.407   5.740 -0.9566 -2.2725  1.4042
 6936SOL     OW32443   4.377   2.149  15.337  0.2284  0.1423 -0.0518
 6936SOL    HW132444   4.335   2.234  15.350 -0.3715 -0.5932  2.6796
 6936SOL    HW232445   4.375   2.123  15.429  1.5481  0.6878  0.1398
 6937SOL     OW32446   1.606   1.581  16.693 -0.2572  0.3039 -0.4444
 6937SOL    HW132447   1.512   1.582  16.710  0.1542  0.6698  1.8489
 6937SOL    HW232448   1.626   1.527  16.617  0.2444  0.8802 -0.7233
 6938SOL     OW32449   3.558   3.813   8.243  0.1677 -0.4694  0.1595
 6938SOL    HW132450   3.560   3.873   8.168  1.5581 -0.4494  0.2134
 6938SOL    HW232451   3.475   3.767   8.228  0.6417 -0.6466 -1.8938
 6939SOL     OW32452   3.172   1.415   8.279  0.0898  0.3485 -0.1366
 6939SOL    HW132453   3.259   1.453   8.277  1.1123 -2.1024 -2.2375
 6939SOL    HW232454   3.164   1.351   8.350 -0.4577  1.5409  0.8652
 6940SOL     OW32455   3.115   2.881   2.126  0.1105 -0.0811  0.1961
 6940SOL    HW132456   3.182   2.941   2.095 -1.4035  1.1099 -0.7451
 6940SOL    HW232457   3.166   2.816   2.175 -0.8296 -1.5472 -0.7651
 6941SOL     OW32458   3.804   0.630  11.621  0.2026 -0.3126 -0.0149
 6941SOL    HW132459   3.747   0.689  11.671  1.5494  0.0106  1.1288
 6941SOL    HW232460   3.773   0.542  11.641 -1.6913  0.8247  1.9966
 6942SOL     OW32461   2.445   1.095   9.480 -0.0008  0.0347  0.9038
 6942SOL    HW132462   2.486   1.071   9.397  3.9089  1.2351  2.4832
 6942SOL    HW232463   2.417   1.012   9.516 -0.2695  0.6887  2.1942
 6943SOL     OW32464   3.054   0.034  14.665  0.2848 -0.2121  0.2596
 6943SOL    HW132465   3.069   4.714  14.740  0.8018  0.9996  1.0595
 6943SOL    HW232466   3.133   0.087  14.663 -1.0100  1.7055 -0.4366
 6944SOL     OW32467   1.258   1.060   2.083  0.5340 -0.2391  0.0070
 6944SOL    HW132468   1.291   1.060   1.993  0.8292 -0.6716  0.1170
 6944SOL    HW232469   1.220   1.148   2.081  1.5137  0.1464 -2.1876
 6945SOL     OW32470   3.899   0.123   1.544  0.0355 -0.0231  0.0180
 6945SOL    HW132471   3.878   0.150   1.454  1.8089 -2.9499 -1.2556
 6945SOL    HW232472   3.820   0.157   1.586  0.2146 -2.3414  2.1805
 6946SOL     OW32473   3.253   1.970  12.063  0.4001 -0.1176  0.3597
 6946SOL    HW132474   3.331   1.923  12.093 -0.4117 -1.8616 -0.2808
 6946SOL    HW232475   3.210   1.971  12.149  0.4567 -0.4681  0.3928
 6947SOL     OW32476   1.105   4.281   7.092 -0.0291  0.1134 -0.4108
 6947SOL    HW132477   1.197   4.257   7.087 -0.3947 -1.5696  1.3087
 6947SOL    HW232478   1.090   4.225   7.168  2.2089  2.1526  1.5294
 6948SOL     OW32479   2.051   4.008   3.343  0.2693 -0.2489  0.0264
 6948SOL    HW132480   2.036   4.095   3.378 -0.4843 -0.8766  1.2687
 6948SOL    HW232481   2.119   3.983   3.406  1.9089  0.1223 -1.5822
 6949SOL     OW32482   1.522   0.958   9.006  0.0673 -0.0605 -0.2358
 6949SOL    HW132483   1.509   1.040   9.055 -2.8045  0.5423 -1.9811
 6949SOL    HW232484   1.618   0.956   9.010 -0.0095  0.0057  1.6350
 6950SOL     OW32485   3.215   2.529   1.906 -0.1299 -0.3782  0.2400
 6950SOL    HW132486   3.258   2.594   1.960 -1.8949 -0.1578  1.3871
 6950SOL    HW232487   3.196   2.470   1.979  2.1266 -0.3267  0.8396
 6951SOL     OW32488   0.662   0.503   2.276 -0.2685 -0.4737  0.2021
 6951SOL    HW132489   0.632   0.457   2.198 -0.9341  0.0220  0.1668
 6951SOL    HW232490   0.615   0.585   2.263  0.1743 -0.3473 -0.5784
 6952SOL     OW32491   4.205   0.633   6.153 -0.1279 -0.5054  0.0564
 6952SOL    HW132492   4.265   0.561   6.132  0.4624 -0.4330  1.4747
 6952SOL    HW232493   4.249   0.705   6.108 -1.1619  0.8559  1.2479
 6953SOL     OW32494   1.891   0.979  17.413 -0.2068  0.1863  0.2307
 6953SOL    HW132495   1.955   0.941  17.473  0.8423  1.8508  0.1880
 6953SOL    HW232496   1.868   1.059  17.461 -1.5137 -0.5571  0.8142
 6954SOL     OW32497   4.311   2.355   9.654  0.4381 -0.5977 -0.2633
 6954SOL    HW132498   4.244   2.312   9.707 -0.7650  0.5051 -0.9059
 6954SOL    HW232499   4.366   2.380   9.728  0.2251  1.3579 -0.7526
 6955SOL     OW32500   3.185   1.873   7.595 -0.3948 -0.1362 -0.0244
 6955SOL    HW132501   3.239   1.899   7.520  0.4601  0.2263  0.7086
 6955SOL    HW232502   3.091   1.876   7.581 -0.4983  1.3340  0.9246
 6956SOL     OW32503   2.999   3.729   7.836 -0.0603 -0.2606  0.1249
 6956SOL    HW132504   2.955   3.814   7.840  0.5342 -0.1048  3.1966
 6956SOL    HW232505   3.045   3.710   7.918 -1.3608  2.1785  1.4188
 6957SOL     OW32506   0.720   1.508   5.700  0.0430 -0.6816  0.3542
 6957SOL    HW132507   0.740   1.550   5.784  0.0715  0.9641 -0.4712
 6957SOL    HW232508   0.715   1.417   5.728 -2.4688 -0.1811  1.5231
 6958SOL     OW32509   2.204   3.287   9.074 -0.0942 -0.0149 -0.6712
 6958SOL    HW132510   2.218   3.291   9.168  1.6058 -1.6020 -0.8507
 6958SOL    HW232511   2.149   3.209   9.067 -0.9317  0.4651  0.5992
 6959SOL     OW32512   0.774   1.145  15.021 -0.0127 -0.6779  0.3598
 6959SOL    HW132513   0.815   1.229  15.041 -0.6554 -0.0785 -0.8589
 6959SOL    HW232514   0.769   1.103  15.107 -0.3859 -0.2487  0.5464
 6960SOL     OW32515   2.507   1.473   4.285  0.2378  0.6072 -0.4456
 6960SOL    HW132516   2.493   1.568   4.283  2.0277  0.8604 -0.9517
 6960SOL    HW232517   2.426   1.443   4.326  1.0069 -1.0080 -0.1166
 6961SOL     OW32518   3.036   2.964  11.593 -0.4012  0.2028  0.1035
 6961SOL    HW132519   3.016   2.890  11.650 -2.2091  0.3474 -0.3221
 6961SOL    HW232520   2.973   2.954  11.521  1.0238  0.2531 -1.1543
 6962SOL     OW32521   2.918   1.983   2.462 -0.3273 -0.6917  0.2004
 6962SOL    HW132522   2.879   1.899   2.440 -0.6527  0.4209 -3.4530
 6962SOL    HW232523   2.986   1.985   2.394 -0.4456  1.2636  0.1355
 6963SOL     OW32524   0.894   2.858  10.153  0.0396 -0.4339 -0.6598
 6963SOL    HW132525   0.864   2.777  10.113  0.4435 -0.5171 -0.7927
 6963SOL    HW232526   0.904   2.840  10.247 -1.4928  0.2302 -0.3630
 6964SOL     OW32527   2.736   1.234   2.391  0.2128 -0.8412 -0.1179
 6964SOL    HW132528   2.690   1.151   2.380 -1.5886  0.0773  0.5044
 6964SOL    HW232529   2.723   1.245   2.485  1.8541 -0.8366  0.1062
 6965SOL     OW32530   0.171   4.090   5.842 -0.3512  1.0125 -0.3429
 6965SOL    HW132531   0.261   4.124   5.850  1.0292 -2.5133 -0.8697
 6965SOL    HW232532   0.168   4.070   5.748  2.0583 -0.2954 -0.1485
 6966SOL     OW32533   4.174   1.902  13.964  0.4147  1.0214  0.1276
 6966SOL    HW132534   4.174   1.934  14.054  2.0317  1.3235  0.0294
 6966SOL    HW232535   4.111   1.967  13.933  1.2762  0.9469 -1.7898
 6967SOL     OW32536   3.887   4.486  12.430  0.0411  0.0935 -0.0171
 6967SOL    HW132537   3.832   4.564  12.419 -0.8148 -0.4947  0.1057
 6967SOL    HW232538   3.917   4.509  12.518 -2.1933  1.6704  0.3206
 6968SOL     OW32539   0.341   1.928   7.350  0.5253  0.4858  0.2556
 6968SOL    HW132540   0.255   1.888   7.338  1.0673 -1.0534  1.4808
 6968SOL    HW232541   0.351   1.982   7.272  0.0864  0.7737  0.3961
 6969SOL     OW32542   1.355   3.276   5.439 -0.4336 -0.3462  0.2472
 6969SOL    HW132543   1.259   3.276   5.439 -0.4371  1.4939 -0.2144
 6969SOL    HW232544   1.364   3.201   5.381 -1.4131 -0.7632  0.6342
 6970SOL     OW32545   2.600   2.577  12.610  0.3249 -0.5337  0.3601
 6970SOL    HW132546   2.584   2.546  12.699  0.8952  0.4479  0.8001
 6970SOL    HW232547   2.588   2.489  12.573  0.0791 -0.6663  0.7633
 6971SOL     OW32548   3.637   1.298  16.138 -0.3289  0.7362 -0.3714
 6971SOL    HW132549   3.593   1.355  16.074  0.2738  2.4950  0.7829
 6971SOL    HW232550   3.580   1.227  16.108  1.0014  0.4014 -2.1006
 6972SOL     OW32551   0.316   1.419   5.626  0.4313  0.4144 -0.0808
 6972SOL    HW132552   0.374   1.411   5.551 -0.3601 -3.0995 -0.3117
 6972SOL    HW232553   0.366   1.470   5.690  0.9357 -0.3733  0.1495
 6973SOL     OW32554   2.114   4.097   6.892 -0.3339 -0.4384  0.1691
 6973SOL    HW132555   2.163   4.067   6.816 -2.0260 -0.7923 -0.7945
 6973SOL    HW232556   2.038   4.132   6.846 -0.3926 -1.1328 -0.2722
 6974SOL     OW32557   1.230   0.322   2.646 -0.0805  0.8682 -0.1610
 6974SOL    HW132558   1.166   0.268   2.600  1.6099  0.0825 -1.6497
 6974SOL    HW232559   1.187   0.338   2.730  1.3958  0.2549  0.7138
 6975SOL     OW32560   4.638   1.513  14.566 -0.3404  0.2988 -0.0497
 6975SOL    HW132561   4.551   1.480  14.542 -1.7256  1.6636  3.0631
 6975SOL    HW232562   4.649   1.587  14.506  0.5808  0.2391  0.0412
 6976SOL     OW32563   3.707   2.047   5.569  0.2888  0.0392 -0.2891
 6976SOL    HW132564   3.695   2.076   5.478  0.4062 -0.3451 -0.4278
 6976SOL    HW232565   3.642   1.977   5.567  1.4352 -1.0550  0.8180
 6977SOL     OW32566   1.995   0.695   3.272  0.4059 -0.4847  0.2174
 6977SOL    HW132567   2.069   0.663   3.221  0.6691  1.1145 -0.3931
 6977SOL    HW232568   2.035   0.690   3.359 -0.0275 -1.0127  0.3826
 6978SOL     OW32569   4.604   0.563  12.993  0.0133 -0.6710 -0.0769
 6978SOL    HW132570   4.618   0.612  13.074 -0.0573  1.0300 -1.0919
 6978SOL    HW232571   4.590   0.632  12.928  0.7156  1.6975  2.2840
 6979SOL     OW32572   2.153   4.610   8.022 -0.0339 -0.2805  0.2658
 6979SOL    HW132573   2.153   4.706   8.025 -0.9041 -0.2869  0.4878
 6979SOL    HW232574   2.235   4.599   8.070  0.1217  2.0126  0.5153
 6980SOL     OW32575   4.051   3.081   7.222 -0.3007 -0.1388  0.1071
 6980SOL    HW132576   4.088   3.132   7.294  0.6389 -0.3168 -0.2372
 6980SOL    HW232577   3.958   3.100   7.230 -0.7122 -1.1492 -2.3185
 6981SOL     OW32578   2.817   3.535  14.609  0.3829 -0.3181  0.1427
 6981SOL    HW132579   2.819   3.611  14.667  1.6126  0.9182 -1.5138
 6981SOL    HW232580   2.833   3.565  14.519  0.0125 -0.6641 -0.0396
 6982SOL     OW32581   1.142   3.232   0.216 -0.1797  0.4057 -0.0808
 6982SOL    HW132582   1.141   3.146   0.259 -0.2595 -0.1889 -1.2724
 6982SOL    HW232583   1.132   3.289   0.292  1.4392  0.4015  0.1523
 6983SOL     OW32584   0.583   0.069  16.285 -0.6485  0.3946 -0.5617
 6983SOL    HW132585   0.600   0.135  16.217 -1.8674  0.4894 -0.7751
 6983SOL    HW232586   0.589   0.134  16.355  1.7696 -1.5091  0.9811
 6984SOL     OW32587   1.055   2.248   6.329 -0.6126  0.1413 -0.3848
 6984SOL    HW132588   1.042   2.252   6.424 -2.0018 -0.8551 -0.5336
 6984SOL    HW232589   0.966   2.239   6.296  0.3206 -3.2034 -1.9588
 6985SOL     OW32590   3.486   0.264  10.560 -0.4778  0.7855  0.3557
 6985SOL    HW132591   3.539   0.194  10.524 -0.5041  1.7923 -1.6396
 6985SOL    HW232592   3.470   0.225  10.646  1.3120  3.0333  1.7048
 6986SOL     OW32593   3.058   0.087   9.453 -0.5804  0.3373 -0.2614
 6986SOL    HW132594   3.064   0.004   9.501 -1.1484  0.2741 -0.2931
 6986SOL    HW232595   3.020   0.143   9.520  1.1796  0.7422  0.3905
 6987SOL     OW32596   1.708   2.122   1.779 -0.5896  0.5171 -0.2256
 6987SOL    HW132597   1.657   2.104   1.700 -1.9042 -2.7678  1.3529
 6987SOL    HW232598   1.727   2.215   1.765 -2.7954  0.7258 -1.9168
 6988SOL     OW32599   4.708   1.319  11.115  0.3356 -0.3259 -0.0018
 6988SOL    HW132600   4.639   1.361  11.062  0.3042  0.6857  0.8476
 6988SOL    HW232601   4.714   1.371  11.195 -1.7413 -1.7199  1.0609
 6989SOL     OW32602   3.249   2.902   3.166 -0.9387  0.1591  0.4196
 6989SOL    HW132603   3.211   2.822   3.202 -0.6418 -0.3610 -0.3936
 6989SOL    HW232604   3.163   2.944   3.164 -0.9157  0.2306  1.0825
 6990SOL     OW32605   2.204   3.414   4.908 -0.9472  0.2859 -0.6844
 6990SOL    HW132606   2.267   3.476   4.871  0.8675 -1.6170 -0.7583
 6990SOL    HW232607   2.161   3.405   4.822  1.5474  2.0554 -2.1122
 6991SOL     OW32608   1.198   4.528   8.341  0.0731  0.0706  0.1962
 6991SOL    HW132609   1.110   4.533   8.303  0.1574 -1.9678 -0.2640
 6991SOL    HW232610   1.248   4.478   8.277 -1.5044 -0.6699 -0.4345
 6992SOL     OW32611   1.942   4.642   6.423 -0.3624  0.2676 -0.5009
 6992SOL    HW132612   1.959   4.551   6.400  2.5674  0.6292  0.3412
 6992SOL    HW232613   1.846   4.644   6.425 -0.4030 -2.4168  0.1348
 6993SOL     OW32614   2.132   0.095   6.367 -0.5412  0.4524 -0.1848
 6993SOL    HW132615   2.061   0.136   6.318 -0.0260 -0.8527 -2.0447
 6993SOL    HW232616   2.091   0.025   6.419  0.2339 -0.2748 -0.5458
 6994SOL     OW32617   2.774   2.006   3.558  0.2398  0.0712  0.0785
 6994SOL    HW132618   2.828   2.085   3.562  2.5164 -1.3558 -2.0378
 6994SOL    HW232619   2.836   1.957   3.504 -0.8165  0.2680 -1.2861
 6995SOL     OW32620   3.578   1.234   7.893 -0.1373  0.3591 -0.2702
 6995SOL    HW132621   3.618   1.159   7.848  1.6348  1.3230 -0.3063
 6995SOL    HW232622   3.509   1.266   7.835 -1.0714 -0.6128  0.2987
 6996SOL     OW32623   4.014   0.110   1.994  0.6573  0.3996 -0.2732
 6996SOL    HW132624   4.004   0.032   2.049 -3.1658 -0.0285 -1.5572
 6996SOL    HW232625   4.109   0.118   1.998  0.5221  1.0436  1.7314
 6997SOL     OW32626   1.100   1.910   5.939  0.3573 -0.2682 -0.4165
 6997SOL    HW132627   1.097   2.003   5.915 -1.5982  0.0435  1.0002
 6997SOL    HW232628   1.048   1.868   5.871 -0.9534 -1.7763  1.4874
 6998SOL     OW32629   0.570   0.746   1.466 -0.0162 -0.2178  0.3524
 6998SOL    HW132630   0.489   0.796   1.479  0.5810  1.2352 -1.4355
 6998SOL    HW232631   0.571   0.693   1.546 -0.5116 -0.8055 -0.0263
 6999SOL     OW32632   3.917   3.846   5.970 -0.2313 -0.3956 -0.3121
 6999SOL    HW132633   3.946   3.763   6.008  0.5922  0.6405  1.3094
 6999SOL    HW232634   3.829   3.848   6.008  0.3699 -1.9629  1.1322
 7000SOL     OW32635   4.669   0.802   4.375  1.0311 -0.0916  0.1418
 7000SOL    HW132636   4.708   0.720   4.406 -0.6693 -0.5871  1.0157
 7000SOL    HW232637   4.694   0.871   4.437 -0.1702 -1.0101  1.6834
 7001SOL     OW32638   4.523   3.470   4.063 -0.1755  0.7337 -0.3636
 7001SOL    HW132639   4.578   3.529   4.010 -1.2879  2.6845  0.6593
 7001SOL    HW232640   4.489   3.411   3.995  1.2163  1.8961 -2.0667
 7002SOL     OW32641   1.389   3.262  10.255 -0.0360  0.0134 -0.1802
 7002SOL    HW132642   1.396   3.278  10.161 -0.5704  1.8623  0.1077
 7002SOL    HW232643   1.305   3.305  10.274 -1.5747 -3.8558  1.9805
 7003SOL     OW32644   1.320   1.135  11.762  0.2910 -0.3792 -0.2267
 7003SOL    HW132645   1.404   1.091  11.751  0.5433 -0.5314  2.1926
 7003SOL    HW232646   1.317   1.157  11.856 -1.0103 -0.2972 -0.2844
 7004SOL     OW32647   2.767   1.687   5.218  0.3538 -0.2295  0.2155
 7004SOL    HW132648   2.787   1.765   5.270  0.8175 -0.6383  0.6541
 7004SOL    HW232649   2.845   1.633   5.234  0.8429  0.1877 -0.7723
 7005SOL     OW32650   3.053   2.985  17.618 -0.1744  0.2807 -0.2813
 7005SOL    HW132651   3.081   3.059  17.563 -1.1111  0.4448 -0.5322
 7005SOL    HW232652   2.962   2.974  17.589 -0.5145  0.0413  0.9037
 7006SOL     OW32653   2.215   1.632   2.763 -0.4287 -0.3131  0.4335
 7006SOL    HW132654   2.134   1.680   2.779  0.2584  0.0980  2.6606
 7006SOL    HW232655   2.196   1.617   2.671  1.0047  1.6796 -0.1747
 7007SOL     OW32656   3.724   1.381   4.580  0.5014  0.0729 -0.2065
 7007SOL    HW132657   3.778   1.429   4.643 -0.3165  0.6860  0.0267
 7007SOL    HW232658   3.639   1.416   4.607  1.3785  0.5558  1.9657
 7008SOL     OW32659   0.957   2.365  14.788 -0.3943 -0.3933 -0.2688
 7008SOL    HW132660   0.916   2.402  14.865 -1.9410 -2.0123 -0.3103
 7008SOL    HW232661   0.957   2.446  14.738 -0.0154  1.1597  2.2674
 7009SOL     OW32662   1.001   2.215  13.030 -0.6124  0.2250 -0.0183
 7009SOL    HW132663   0.979   2.122  13.036 -0.2631  0.0634 -1.2813
 7009SOL    HW232664   0.941   2.258  12.968  1.1418  3.0140  0.2331
 7010SOL     OW32665   1.910   3.344   9.881  0.0295  0.6649 -0.1525
 7010SOL    HW132666   1.922   3.439   9.876  0.5973  0.6605  1.0714
 7010SOL    HW232667   1.821   3.362   9.912 -0.3410 -2.4810  0.6468
 7011SOL     OW32668   3.115   4.625   9.622 -0.0623  0.6619  0.0201
 7011SOL    HW132669   3.159   4.696   9.669 -0.5034  1.0432 -0.1460
 7011SOL    HW232670   3.089   4.570   9.696 -1.4334  0.3324 -0.6976
 7012SOL     OW32671   1.776   1.099  13.250 -0.0679 -0.0677  0.3486
 7012SOL    HW132672   1.780   1.133  13.339 -0.0382  1.8236 -0.3691
 7012SOL    HW232673   1.840   1.151  13.203 -0.6036 -0.1178 -0.4463
 7013SOL     OW32674   2.354   2.798   2.739  0.8013  0.1589  0.3077
 7013SOL    HW132675   2.443   2.832   2.748  0.3304  1.7218 -0.7558
 7013SOL    HW232676   2.315   2.884   2.719  4.2340  1.4936 -0.7625
 7014SOL     OW32677   3.275   0.324  15.295 -0.5841 -0.3812 -0.3971
 7014SOL    HW132678   3.205   0.295  15.235 -0.7204 -0.7909 -0.0367
 7014SOL    HW232679   3.349   0.298  15.239 -1.3892 -2.1749 -0.6315
 7015SOL     OW32680   1.063   0.305   0.778 -0.1371 -0.0152 -0.3238
 7015SOL    HW132681   1.109   0.262   0.851  1.0596  1.2762 -0.3207
 7015SOL    HW232682   1.012   0.372   0.824 -0.0710 -1.5647  2.0482
 7016SOL     OW32683   3.837   3.431   5.878  0.2978  0.0691  0.0789
 7016SOL    HW132684   3.800   3.352   5.918 -1.0216  0.9089  0.5185
 7016SOL    HW232685   3.771   3.495   5.905 -1.4548 -1.5509 -0.3065
 7017SOL     OW32686   2.157   0.249   7.612 -0.1459  0.7355 -0.5441
 7017SOL    HW132687   2.131   0.180   7.673  0.9188  1.2620  0.5189
 7017SOL    HW232688   2.128   0.210   7.530 -0.1952 -0.9256  0.2731
 7018SOL     OW32689   2.529   1.495   3.099 -0.2871 -0.3569 -0.6748
 7018SOL    HW132690   2.487   1.529   3.179  4.6542  2.3276  0.7728
 7018SOL    HW232691   2.459   1.509   3.035 -2.1444  1.8335  1.8380
 7019SOL     OW32692   2.406   0.818  14.816 -0.6757  0.1825 -0.3701
 7019SOL    HW132693   2.398   0.898  14.765  2.2689  0.3161 -0.5846
 7019SOL    HW232694   2.485   0.837  14.865 -0.9039  0.6986 -0.2096
 7020SOL     OW32695   0.226   1.515  13.702 -0.1975 -0.0596 -0.1213
 7020SOL    HW132696   0.227   1.570  13.623 -0.4056  1.1422  0.7139
 7020SOL    HW232697   0.141   1.542  13.736 -0.5492 -0.7783 -0.4257
 7021SOL     OW32698   0.292   1.623   4.973  0.4280  0.2614 -0.0391
 7021SOL    HW132699   0.295   1.642   4.879  0.4358 -0.6222 -0.2206
 7021SOL    HW232700   0.217   1.679   4.992  1.3303  2.0735 -1.8626
 7022SOL     OW32701   0.896   2.170  17.663 -0.1857  0.1679 -0.3788
 7022SOL    HW132702   0.878   2.253  17.707 -0.7445 -0.5454  0.7453
 7022SOL    HW232703   0.900   2.200  17.572  0.5956  0.4027 -0.2641
 7023SOL     OW32704   3.034   0.913   5.852  0.7040  0.1019 -0.4135
 7023SOL    HW132705   3.103   0.934   5.914  1.7348 -1.4920 -0.9920
 7023SOL    HW232706   2.958   0.931   5.907 -0.3463 -1.7510 -1.2638
 7024SOL     OW32707   1.194   4.654   2.611  0.5949 -0.1482  0.7501
 7024SOL    HW132708   1.130   4.725   2.607 -0.6113 -1.3105 -1.0051
 7024SOL    HW232709   1.181   4.599   2.533  1.0443 -0.5200  0.9405
 7025SOL     OW32710   1.951   3.125   6.641  0.0412  0.0244  0.2590
 7025SOL    HW132711   1.944   3.118   6.546  2.1980  0.4609  0.0752
 7025SOL    HW232712   1.870   3.083   6.670 -0.7152  1.4415  0.1890
 7026SOL     OW32713   4.624   2.120   9.029 -0.6182 -0.4228  0.2536
 7026SOL    HW132714   4.680   2.052   8.992 -0.3990 -0.5332  0.7981
 7026SOL    HW232715   4.661   2.194   8.981  1.7431 -1.5229  0.3909
 7027SOL     OW32716   0.929   4.201   5.868 -0.3870 -0.0460  0.2630
 7027SOL    HW132717   0.999   4.266   5.863 -0.2340 -0.0842  1.9122
 7027SOL    HW232718   0.864   4.252   5.820  1.6031  0.7545 -1.5386
 7028SOL     OW32719   1.964   2.842   4.363 -0.4992 -0.7527  0.1384
 7028SOL    HW132720   1.975   2.887   4.280  1.4866  0.6213  1.1316
 7028SOL    HW232721   2.045   2.866   4.408 -1.0272 -2.8758  2.2177
 7029SOL     OW32722   0.132   3.455  16.316 -0.2218 -0.1808 -0.0690
 7029SOL    HW132723   0.207   3.455  16.256  1.4484  1.8016  2.0218
 7029SOL    HW232724   0.171   3.477  16.401 -2.8989  3.4427  0.2339
 7030SOL     OW32725   2.653   1.910   2.235 -0.3809  0.2599 -0.6723
 7030SOL    HW132726   2.738   1.866   2.227 -0.6514 -0.5148  0.8218
 7030SOL    HW232727   2.594   1.852   2.188  2.1236 -3.5022  0.8456
 7031SOL     OW32728   3.874   4.471   2.644  0.7340 -0.9156 -0.1023
 7031SOL    HW132729   3.805   4.463   2.710  0.7270 -2.1633 -0.2636
 7031SOL    HW232730   3.938   4.514   2.700 -0.1958  1.0174 -0.4981
 7032SOL     OW32731   1.233   3.943  14.277 -0.6407  0.0116  0.4845
 7032SOL    HW132732   1.165   4.009  14.263  0.7610  1.1156 -1.0940
 7032SOL    HW232733   1.218   3.923  14.369  0.7797  2.0902  1.1873
 7033SOL     OW32734   4.326   1.613  15.131  0.2080  0.1746 -0.9732
 7033SOL    HW132735   4.260   1.664  15.084  0.0760  0.8181 -0.0776
 7033SOL    HW232736   4.367   1.557  15.065  0.1443  0.8816 -1.6128
 7034SOL     OW32737   4.082   3.628   7.018  0.2474 -0.3165  0.1466
 7034SOL    HW132738   4.036   3.626   6.934  2.7015 -3.4809 -1.1176
 7034SOL    HW232739   4.105   3.536   7.031 -0.3798 -0.6353 -1.0128
 7035SOL     OW32740   4.651   1.639   6.679 -0.1837 -0.0227  0.1042
 7035SOL    HW132741   0.001   1.640   6.720 -1.3213 -0.1492  2.4637
 7035SOL    HW232742   4.650   1.730   6.651 -1.2880  0.1228  0.6302
 7036SOL     OW32743   3.617   0.243   0.279 -0.0198 -0.1228  0.2841
 7036SOL    HW132744   3.594   0.209   0.365  1.3565  1.7500  1.3997
 7036SOL    HW232745   3.669   0.166   0.254 -0.9917 -0.6737 -0.0508
 7037SOL     OW32746   4.403   0.399   6.395  0.0680 -0.0181 -0.1390
 7037SOL    HW132747   4.436   0.310   6.404  1.6856  0.3955 -1.9144
 7037SOL    HW232748   4.319   0.372   6.359 -0.5448  0.5197  0.8837
 7038SOL     OW32749   2.902   4.357   1.811 -0.7943 -0.1457 -0.1088
 7038SOL    HW132750   2.866   4.330   1.895  1.4457 -0.1933  0.8447
 7038SOL    HW232751   2.911   4.268   1.777  3.8032  0.3082 -0.1723
 7039SOL     OW32752   4.443   1.805   9.004 -0.1373  0.2642  0.0022
 7039SOL    HW132753   4.517   1.758   9.042  0.5069  2.4865  1.4814
 7039SOL    HW232754   4.368   1.755   9.037 -1.3372  0.4669 -2.4322
 7040SOL     OW32755   2.076   2.570  15.956  0.7598  0.1123  0.0692
 7040SOL    HW132756   2.082   2.518  15.876  0.3589  0.0796  0.0625
 7040SOL    HW232757   1.982   2.557  15.967  0.6342  0.9634 -0.0606
 7041SOL     OW32758   1.604   4.293   5.829 -0.5018 -0.2313 -0.4416
 7041SOL    HW132759   1.541   4.352   5.787 -0.2803  0.0091 -0.4328
 7041SOL    HW232760   1.677   4.295   5.767 -0.1975 -0.9330 -0.1003
 7042SOL     OW32761   1.590   4.419  14.923  0.3526  0.2218  0.9195
 7042SOL    HW132762   1.571   4.507  14.890 -2.8133 -0.3873  1.1059
 7042SOL    HW232763   1.532   4.373  14.862 -1.8369  2.8806  0.9816
 7043SOL     OW32764   0.708   1.181   4.682  0.0132  0.6538 -0.1113
 7043SOL    HW132765   0.776   1.139   4.630  0.3412 -1.8708  2.3938
 7043SOL    HW232766   0.725   1.275   4.681  1.8586  0.3043 -0.1194
 7044SOL     OW32767   4.042   3.710   9.462 -0.4158  0.5825 -0.6181
 7044SOL    HW132768   3.961   3.732   9.509 -0.9868 -0.9204 -0.8987
 7044SOL    HW232769   4.095   3.788   9.472  0.9417 -0.4229  0.0058
 7045SOL     OW32770   1.532   1.068   4.380  0.2352  0.2290 -0.2914
 7045SOL    HW132771   1.548   1.095   4.471 -3.7114 -2.1465  1.1136
 7045SOL    HW232772   1.618   1.068   4.338  0.3855 -1.3255  0.0325
 7046SOL     OW32773   2.320   0.252   0.510 -0.3867 -0.5093 -0.0063
 7046SOL    HW132774   2.378   0.176   0.514  0.6279  0.2807  0.2739
 7046SOL    HW232775   2.370   0.293   0.440 -2.4555  0.9550 -0.6366
 7047SOL     OW32776   3.778   4.602   0.702  0.0058 -0.4824  0.1253
 7047SOL    HW132777   3.801   4.695   0.701 -0.3670 -0.4053 -1.2246
 7047SOL    HW232778   3.845   4.563   0.646  1.0635 -0.6858  1.5284
 7048SOL     OW32779   0.735   4.256  15.974  0.3325 -0.0406 -0.0982
 7048SOL    HW132780   0.784   4.322  15.926  3.8019 -2.7607 -0.3068
 7048SOL    HW232781   0.666   4.310  16.012  2.0936  0.5664  2.1663
 7049SOL     OW32782   3.526   3.304   7.566  0.3528  0.3529  0.5042
 7049SOL    HW132783   3.493   3.238   7.505 -0.6394 -2.0122  3.5717
 7049SOL    HW232784   3.453   3.366   7.567 -0.0918 -0.1175 -2.7355
 7050SOL     OW32785   3.925   3.264   9.865 -0.6862 -0.1235 -0.1119
 7050SOL    HW132786   3.876   3.257   9.947  1.1425 -0.3426  0.9556
 7050SOL    HW232787   3.915   3.359   9.855 -3.5966 -0.5125 -1.0404
 7051SOL     OW32788   2.939   2.739   7.855 -0.4937 -0.3809 -0.0649
 7051SOL    HW132789   2.904   2.805   7.915 -0.7267 -1.2456  0.7542
 7051SOL    HW232790   2.879   2.747   7.781 -0.0802  0.6880 -0.2761
 7052SOL     OW32791   3.211   1.148  15.120 -0.5967  0.4634 -0.2569
 7052SOL    HW132792   3.289   1.136  15.174  0.4329 -0.8962 -2.0095
 7052SOL    HW232793   3.191   1.057  15.098  0.4749  0.6630 -2.0641
 7053SOL     OW32794   3.083   2.862   8.493 -0.1226  0.4316  0.0556
 7053SOL    HW132795   3.136   2.884   8.569 -0.5164 -0.9004  0.7207
 7053SOL    HW232796   3.030   2.941   8.493  0.1447  0.6069  0.9221
 7054SOL     OW32797   3.986   3.236   3.796 -0.0492  0.4275  0.1160
 7054SOL    HW132798   4.046   3.202   3.862 -1.3142  0.3724  1.2558
 7054SOL    HW232799   3.990   3.329   3.818  0.0657  0.3467  0.4276
 7055SOL     OW32800   3.158   0.963   6.715  0.5242  0.2000  0.2909
 7055SOL    HW132801   3.108   1.041   6.738 -1.1027 -1.6330  3.0023
 7055SOL    HW232802   3.237   0.980   6.765  0.8358  0.5356 -0.3173
 7056SOL     OW32803   2.094   0.789   5.040  0.4120  0.5404 -0.2067
 7056SOL    HW132804   2.099   0.816   5.132  0.9586  1.2832 -0.4506
 7056SOL    HW232805   2.087   0.872   4.992 -0.9016  2.0747  2.6211
 7057SOL     OW32806   4.375   0.226  14.753  0.5660  0.0879 -0.5933
 7057SOL    HW132807   4.310   0.165  14.788  1.4973 -1.0764 -0.9005
 7057SOL    HW232808   4.459   0.190  14.783  1.4761  0.3158 -2.9007
 7058SOL     OW32809   4.500   1.002  12.756  0.1113  0.1283 -0.4403
 7058SOL    HW132810   4.406   1.022  12.750  0.5312  1.7885 -1.4234
 7058SOL    HW232811   4.536   1.071  12.701  1.9720 -2.1824 -2.1089
 7059SOL     OW32812   1.468   3.914   6.953 -0.8907 -0.3320 -0.2754
 7059SOL    HW132813   1.387   3.911   6.903 -1.1716 -1.8597  0.2655
 7059SOL    HW232814   1.452   3.854   7.026 -1.7133 -0.1957 -0.3455
 7060SOL     OW32815   3.054   1.312   3.095  0.3448  0.0309  0.1537
 7060SOL    HW132816   3.100   1.354   3.022 -1.4710  2.3540  0.3363
 7060SOL    HW232817   3.114   1.311   3.169 -0.3808  0.3142  0.7469
 7061SOL     OW32818   0.756   2.461   4.511  0.6079  0.7495  0.3241
 7061SOL    HW132819   0.820   2.519   4.553  1.3547 -1.3877  2.1129
 7061SOL    HW232820   0.793   2.462   4.423 -0.1631  0.5233  0.0020
 7062SOL     OW32821   3.433   3.639   4.889 -0.2615  0.3225 -0.1626
 7062SOL    HW132822   3.439   3.717   4.834  0.1792 -0.8149 -1.7548
 7062SOL    HW232823   3.526   3.615   4.890 -0.0099  1.2571 -1.8557
 7063SOL     OW32824   4.240   4.429  16.293 -0.2236  0.6357  0.1951
 7063SOL    HW132825   4.251   4.409  16.386  0.8265 -1.8080 -0.4463
 7063SOL    HW232826   4.239   4.342  16.251  0.2578  0.4352  0.5930
 7064SOL     OW32827   3.656   3.379   7.279 -0.2740 -0.6466 -0.4130
 7064SOL    HW132828   3.727   3.405   7.221 -0.1829 -0.0494 -0.0370
 7064SOL    HW232829   3.599   3.340   7.213 -3.6980  1.4844  1.2465
 7065SOL     OW32830   2.005   0.375   1.115 -0.2594 -0.2672  0.0683
 7065SOL    HW132831   2.039   0.422   1.191 -0.3107 -2.9750  1.7373
 7065SOL    HW232832   1.920   0.416   1.099 -0.7825 -0.4326  2.4379
 7066SOL     OW32833   1.734   3.145   6.416 -0.3442  0.1511 -0.1196
 7066SOL    HW132834   1.735   3.179   6.327 -1.0758 -1.5934 -0.7933
 7066SOL    HW232835   1.742   3.230   6.460  0.5738 -0.1044  0.2112
 7067SOL     OW32836   3.633   1.339   5.736  0.0264 -0.1638 -0.5276
 7067SOL    HW132837   3.697   1.392   5.783 -1.1712  1.9517 -1.2787
 7067SOL    HW232838   3.610   1.269   5.797  1.2570  1.0083  1.2670
 7068SOL     OW32839   2.242   4.530   6.068 -0.4518  0.4676  0.1575
 7068SOL    HW132840   2.287   4.572   6.141 -0.8586 -0.0822  0.7223
 7068SOL    HW232841   2.194   4.601   6.025 -1.2751 -0.2573 -0.1271
 7069SOL     OW32842   1.363   0.018  11.068 -0.2240 -0.1519 -0.1779
 7069SOL    HW132843   1.375   4.663  11.094  1.9363  0.0175 -0.5789
 7069SOL    HW232844   1.423   0.059  11.130  0.2165 -0.7149 -0.2380
 7070SOL     OW32845   4.713   3.284  15.602  0.3550  0.2668  0.0912
 7070SOL    HW132846   4.657   3.334  15.662  0.3837  0.0959  0.2597
 7070SOL    HW232847   0.047   3.262  15.663  0.9922  0.5856 -0.5364
 7071SOL     OW32848   1.455   1.525  11.668  0.0439 -0.0886 -0.0297
 7071SOL    HW132849   1.436   1.472  11.591 -2.4410  0.4705  0.2078
 7071SOL    HW232850   1.369   1.555  11.697 -0.2618 -0.6493 -0.3748
 7072SOL     OW32851   1.980   0.226   0.845  0.8192  0.6788 -0.3238
 7072SOL    HW132852   2.005   0.189   0.930  0.4238 -1.4354 -1.1151
 7072SOL    HW232853   2.066   0.261   0.821  1.3475 -2.2253 -2.6887
 7073SOL     OW32854   3.260   3.348   1.532 -0.9073  0.7811 -0.0716
 7073SOL    HW132855   3.293   3.327   1.445 -1.2708  2.2559 -0.5673
 7073SOL    HW232856   3.194   3.280   1.539 -1.5185  1.4843  0.9830
 7074SOL     OW32857   0.599   1.853   9.774  0.2986  0.6194  0.1649
 7074SOL    HW132858   0.592   1.775   9.829 -0.7772  1.2973  1.0060
 7074SOL    HW232859   0.517   1.891   9.805 -0.5701 -0.7119 -0.4770
 7075SOL     OW32860   2.609   4.704   4.933 -0.5004 -0.5231  0.4391
 7075SOL    HW132861   2.622   0.054   4.892  0.8776 -1.5042 -1.1942
 7075SOL    HW232862   2.693   4.693   4.978  0.4960  4.6787 -0.0791
 7076SOL     OW32863   2.926   0.271  17.106  0.0075  0.0707 -0.4274
 7076SOL    HW132864   2.911   0.366  17.110 -1.9594 -0.3086  1.1429
 7076SOL    HW232865   2.854   0.243  17.049  1.5085  2.1551 -3.3564
 7077SOL     OW32866   1.678   4.530   3.976 -0.6549  0.1866  0.9386
 7077SOL    HW132867   1.681   4.602   4.038  0.2390  1.6849 -0.8634
 7077SOL    HW232868   1.660   4.578   3.895  1.5129  0.3211  0.5487
 7078SOL     OW32869   2.247   0.767  15.789 -0.4902 -0.5676  0.6834
 7078SOL    HW132870   2.296   0.809  15.719 -1.5811  0.8215  0.7629
 7078SOL    HW232871   2.257   0.836  15.853 -0.1968 -0.1355  0.1689
 7079SOL     OW32872   4.143   1.463   1.012  0.4634  0.2137 -0.1845
 7079SOL    HW132873   4.188   1.387   1.048 -0.0354  0.8044  1.6688
 7079SOL    HW232874   4.138   1.522   1.087 -3.6946 -0.9372  0.4139
 7080SOL     OW32875   1.097   2.193   5.863 -0.2598  0.1973  0.0851
 7080SOL    HW132876   1.160   2.242   5.915  0.5072  1.4879 -2.0370
 7080SOL    HW232877   1.016   2.241   5.879  0.2775  1.3191 -0.5541
 7081SOL     OW32878   3.934   2.643  13.466  0.2665 -0.1836  0.1069
 7081SOL    HW132879   3.948   2.573  13.529  2.0604  0.1071  0.0394
 7081SOL    HW232880   4.028   2.662  13.461 -0.1190  2.3645  2.4594
 7082SOL     OW32881   3.014   0.261   8.113  0.2750  0.8339  0.1636
 7082SOL    HW132882   3.094   0.303   8.142  0.9904  0.0681 -0.7045
 7082SOL    HW232883   3.054   0.175   8.097  0.2676  0.5765  1.5221
 7083SOL     OW32884   3.108   4.605   7.807 -0.2094  0.0166 -0.5745
 7083SOL    HW132885   3.175   4.666   7.776 -1.0836  0.0510 -2.4113
 7083SOL    HW232886   3.039   4.618   7.741 -0.6176  0.5955 -0.0351
 7084SOL     OW32887   1.260   1.486   1.947  0.4930 -0.6215  0.0403
 7084SOL    HW132888   1.330   1.445   1.897  0.3969  0.7400 -1.2398
 7084SOL    HW232889   1.180   1.445   1.915  1.4466 -2.5476  0.1652
 7085SOL     OW32890   0.656   1.845   5.919 -0.3075  0.1636 -0.0658
 7085SOL    HW132891   0.646   1.892   6.002 -0.7625  1.3173 -0.7766
 7085SOL    HW232892   0.590   1.891   5.869 -1.0830  0.2901  1.0765
 7086SOL     OW32893   1.250   4.416  10.832 -0.4612  0.4409 -0.3482
 7086SOL    HW132894   1.277   4.472  10.759 -3.2125  0.0141 -1.6842
 7086SOL    HW232895   1.187   4.359  10.788 -1.0129  2.0825 -1.6709
 7087SOL     OW32896   4.729   3.633   3.948 -0.1020  0.3672  0.6881
 7087SOL    HW132897   0.073   3.671   3.912 -2.4828  4.8561  0.1278
 7087SOL    HW232898   4.702   3.712   3.994 -2.0542  1.4647 -2.3345
 7088SOL     OW32899   1.390   4.076   5.851 -0.1375  0.3473 -0.2486
 7088SOL    HW132900   1.387   4.062   5.757  3.0354 -0.7877 -0.1723
 7088SOL    HW232901   1.458   4.143   5.858  2.0874 -1.9136 -0.1416
 7089SOL     OW32902   3.126   1.445   2.580  0.6111  0.6786  0.0396
 7089SOL    HW132903   3.075   1.460   2.500  0.5145  1.0144  0.1688
 7089SOL    HW232904   3.191   1.384   2.545  0.3398  1.3186 -1.5884
 7090SOL     OW32905   2.882   2.622   9.571 -0.0774  0.3491 -0.1074
 7090SOL    HW132906   2.802   2.583   9.606 -0.8391 -1.2163 -3.6127
 7090SOL    HW232907   2.937   2.555   9.610 -2.8455 -1.9012 -0.0491
 7091SOL     OW32908   4.522   1.563  17.583  0.2649 -0.0543 -0.5520
 7091SOL    HW132909   4.458   1.624  17.545  1.8404  2.8268  1.4257
 7091SOL    HW232910   4.482   1.534  17.665 -1.3503  0.1585 -1.2679
 7092SOL     OW32911   2.833   3.831   6.848  0.4547 -0.0193  0.1145
 7092SOL    HW132912   2.919   3.833   6.890  2.3271  1.6579 -3.7895
 7092SOL    HW232913   2.804   3.920   6.865 -0.1609  0.0885 -1.4797
 7093SOL     OW32914   3.286   2.901   0.785 -0.4970 -0.2741  0.5214
 7093SOL    HW132915   3.193   2.883   0.798 -0.4247 -1.3940 -0.5249
 7093SOL    HW232916   3.288   2.940   0.697  0.3312  0.9075  1.0585
 7094SOL     OW32917   0.520   4.125   6.891  0.7328 -0.6787 -0.5514
 7094SOL    HW132918   0.570   4.045   6.877 -0.9381 -2.2246  2.1757
 7094SOL    HW232919   0.462   4.105   6.817  1.2332  2.5372 -1.8239
 7095SOL     OW32920   2.216   0.472   8.998  0.4446  0.4114  0.1742
 7095SOL    HW132921   2.268   0.413   8.943 -2.2499  2.6711 -4.7437
 7095SOL    HW232922   2.140   0.492   8.945 -0.6767  0.5738  1.8378
 7096SOL     OW32923   3.734   2.506  14.904  0.1926  0.0668  0.0787
 7096SOL    HW132924   3.740   2.471  14.815 -0.9112 -1.3406  0.5515
 7096SOL    HW232925   3.778   2.440  14.958 -0.8046  0.7508  1.7357
 7097SOL     OW32926   2.877   3.296   6.792  0.4434  0.5500 -0.1554
 7097SOL    HW132927   2.817   3.262   6.726  0.0749  0.6822  0.1119
 7097SOL    HW232928   2.938   3.223   6.802 -0.2623 -0.1177 -0.7948
 7098SOL     OW32929   3.832   3.748   2.318  0.3055  0.1441  0.4092
 7098SOL    HW132930   3.747   3.788   2.299 -0.5356 -0.6264  2.5975
 7098SOL    HW232931   3.873   3.817   2.371 -0.8401  1.7124 -0.7526
 7099SOL     OW32932   2.516   2.011   5.562  0.1522  0.3510  0.6937
 7099SOL    HW132933   2.535   2.014   5.468  1.7473  4.6781  1.1520
 7099SOL    HW232934   2.444   2.074   5.572 -0.8697 -0.5732 -0.7892
 7100SOL     OW32935   1.845   1.076   3.491  0.3118  0.6883  1.0942
 7100SOL    HW132936   1.911   1.037   3.549  1.1653  0.5096  0.0019
 7100SOL    HW232937   1.791   1.004   3.457  2.3911  0.2980 -1.3706
 7101SOL     OW32938   2.310   4.133  13.347 -0.2168  0.4996 -0.1945
 7101SOL    HW132939   2.248   4.097  13.284  3.3755 -1.1717 -2.7169
 7101SOL    HW232940   2.263   4.119  13.430  2.3960  2.0599  1.5443
 7102SOL     OW32941   0.441   2.654  16.919 -0.0914 -0.4751 -0.1763
 7102SOL    HW132942   0.419   2.745  16.940  0.7031  0.0826 -1.7097
 7102SOL    HW232943   0.471   2.665  16.829 -1.3421 -0.7865 -0.6348
 7103SOL     OW32944   4.285   2.871   7.970 -0.3433  0.5371 -0.1246
 7103SOL    HW132945   4.230   2.813   8.022  2.9964 -0.7890  1.9059
 7103SOL    HW232946   4.370   2.835   7.996  0.1261  1.4356 -0.3861
 7104SOL     OW32947   0.057   2.181  16.840 -0.5283 -0.4770 -0.9673
 7104SOL    HW132948   4.729   2.238  16.883 -1.5757 -1.7022 -0.8989
 7104SOL    HW232949   4.736   2.123  16.789 -0.0556 -3.3346  1.6821
 7105SOL     OW32950   2.780   3.565   7.831  0.6986 -0.0120 -0.2767
 7105SOL    HW132951   2.707   3.619   7.862  1.2965  1.5883 -1.6904
 7105SOL    HW232952   2.847   3.633   7.828  1.6688 -0.9889 -1.0429
 7106SOL     OW32953   1.754   3.597   8.393  0.3384 -0.3744  0.2899
 7106SOL    HW132954   1.829   3.654   8.408  0.7902 -0.7356 -0.6453
 7106SOL    HW232955   1.751   3.549   8.476  0.8713 -0.3574  0.3152
 7107SOL     OW32956   2.149   0.602   5.823  0.4838  0.3856  0.2160
 7107SOL    HW132957   2.085   0.536   5.795 -0.7161  1.6235  0.0092
 7107SOL    HW232958   2.159   0.585   5.916 -0.2213  1.7429  0.5325
 7108SOL     OW32959   0.264   0.216   5.034  0.2543 -0.0162  0.1807
 7108SOL    HW132960   0.324   0.262   5.093  2.3265 -0.9969 -1.1374
 7108SOL    HW232961   0.220   0.286   4.985  0.2674 -0.3710 -0.3491
 7109SOL     OW32962   0.424   3.507   3.524 -0.0929  0.3111  0.0954
 7109SOL    HW132963   0.481   3.576   3.560 -0.1072  1.1652 -1.5553
 7109SOL    HW232964   0.334   3.534   3.543  0.6162  1.7181  1.4964
 7110SOL     OW32965   4.213   0.117  11.784  0.1395  0.3912  0.1673
 7110SOL    HW132966   4.176   0.127  11.872 -1.2089 -2.4880 -0.0648
 7110SOL    HW232967   4.235   0.024  11.783 -3.2531 -0.4169  0.1358
 7111SOL     OW32968   2.422   0.243  16.290  0.3065 -0.4527 -0.6296
 7111SOL    HW132969   2.410   0.165  16.343 -0.5778  0.0215 -0.1408
 7111SOL    HW232970   2.496   0.283  16.337  0.9803 -2.8335  0.3191
 7112SOL     OW32971   1.336   1.867   9.087  0.4999 -0.2480  0.0188
 7112SOL    HW132972   1.281   1.942   9.108 -0.2863 -0.9224  0.3697
 7112SOL    HW232973   1.269   1.816   9.041 -0.7282  0.9408  0.4909
 7113SOL     OW32974   1.753   3.382   2.900 -0.3784  0.4468  0.0588
 7113SOL    HW132975   1.741   3.476   2.915 -0.5909  1.0133 -3.7643
 7113SOL    HW232976   1.710   3.345   2.977 -1.5202  1.2288 -0.2123
 7114SOL     OW32977   1.736   0.771  16.350 -0.4220  0.3425 -0.4463
 7114SOL    HW132978   1.689   0.853  16.360 -1.9154 -0.5426 -0.1500
 7114SOL    HW232979   1.725   0.754  16.256 -0.6080 -1.4040 -0.1220
 7115SOL     OW32980   4.462   0.269  16.952 -0.2142 -0.0043 -0.2689
 7115SOL    HW132981   4.468   0.328  16.876 -0.6709  0.0540 -0.2564
 7115SOL    HW232982   4.552   0.237  16.961 -0.1976  0.1083 -0.0253
 7116SOL     OW32983   4.444   2.382   8.444 -0.1076 -0.4006  0.8583
 7116SOL    HW132984   4.464   2.297   8.405  2.6862  0.1268  1.1472
 7116SOL    HW232985   4.449   2.441   8.369  0.2103  0.6450  1.6893
 7117SOL     OW32986   2.677   1.369  16.410 -0.4123 -0.9634 -0.2316
 7117SOL    HW132987   2.721   1.297  16.455 -0.8428  0.2803  2.1563
 7117SOL    HW232988   2.601   1.331  16.367 -0.7103 -0.4699 -0.1454
 7118SOL     OW32989   0.199   1.541   7.127 -0.2434  0.6612  0.1661
 7118SOL    HW132990   0.215   1.487   7.204  0.4121  0.2264 -0.2784
 7118SOL    HW232991   0.140   1.483   7.079  0.0576  1.0107 -0.6243
 7119SOL     OW32992   3.880   1.399   7.069 -0.0896  0.7387 -0.4747
 7119SOL    HW132993   3.896   1.477   7.122 -2.0983 -0.0556  1.3016
 7119SOL    HW232994   3.926   1.428   6.991 -0.4270 -1.2381 -1.4115
 7120SOL     OW32995   3.670   2.269   1.008 -0.4910 -0.4132 -0.3149
 7120SOL    HW132996   3.685   2.346   0.953  1.8920 -0.3381  0.4550
 7120SOL    HW232997   3.671   2.220   0.925  0.6767 -1.9577  0.6102
 7121SOL     OW32998   4.710   1.056   4.714 -0.5825 -0.0098  0.3716
 7121SOL    HW132999   0.024   1.130   4.746  0.1896  0.4482 -1.9255
 7121SOL    HW233000   4.671   1.095   4.636  0.1634 -1.2731 -0.6350
 7122SOL     OW33001   2.585   2.800   2.151  0.7011 -0.2510 -0.2336
 7122SOL    HW133002   2.635   2.807   2.070 -1.7785  1.8782 -1.5667
 7122SOL    HW233003   2.588   2.892   2.178 -0.7949  0.4138 -2.3621
 7123SOL     OW33004   4.307   4.582   7.842  0.3004 -0.3961  0.2816
 7123SOL    HW133005   4.235   4.644   7.827  2.8697  2.4263 -0.4770
 7123SOL    HW233006   4.300   4.565   7.936 -0.4587  2.3972  0.7321
 7124SOL     OW33007   1.139   0.771   4.101 -0.0432  0.4247 -0.2700
 7124SOL    HW133008   1.130   0.865   4.116 -3.7174  0.4481 -2.4147
 7124SOL    HW233009   1.102   0.736   4.182 -0.0298 -0.3123 -0.5760
 7125SOL     OW33010   1.790   1.377  13.154 -0.2921 -0.0704 -0.5507
 7125SOL    HW133011   1.713   1.385  13.211  1.8706 -0.7164  2.5104
 7125SOL    HW233012   1.856   1.365  13.222  1.3135  0.9577 -1.9394
 7126SOL     OW33013   1.183   0.412   5.429 -0.1082 -0.0871  0.3271
 7126SOL    HW133014   1.192   0.499   5.467 -1.2721  0.2124 -0.0800
 7126SOL    HW233015   1.101   0.390   5.473  0.6324 -3.7651 -0.1385
 7127SOL     OW33016   1.522   1.639   6.406 -0.1040 -0.0414 -0.3381
 7127SOL    HW133017   1.488   1.700   6.470 -1.4095 -2.4800  1.2914
 7127SOL    HW233018   1.469   1.672   6.333  0.6227  1.5198 -0.1462
 7128SOL     OW33019   3.630   2.426   6.268  0.3986 -0.7136  0.0838
 7128SOL    HW133020   3.689   2.391   6.335 -0.5434  2.6296  2.7149
 7128SOL    HW233021   3.615   2.513   6.306  0.8677 -0.9096  0.7251
 7129SOL     OW33022   4.603   3.752   3.687 -0.8801  0.1802  0.3934
 7129SOL    HW133023   4.606   3.670   3.637  2.2125 -0.2111  1.1979
 7129SOL    HW233024   4.643   3.724   3.769  1.2617  0.8492 -0.4251
 7130SOL     OW33025   4.247   0.255   5.702 -0.4871  0.6013  0.1006
 7130SOL    HW133026   4.322   0.226   5.651  0.6011  1.2859  1.3296
 7130SOL    HW233027   4.276   0.344   5.721  0.2710  0.9170 -2.5768
 7131SOL     OW33028   0.128   3.063  12.675 -0.1452  0.5289  0.1006
 7131SOL    HW133029   0.174   3.130  12.724 -1.3985  1.1316  0.4522
 7131SOL    HW233030   0.070   3.023  12.740 -0.3783 -1.2902 -1.2195
 7132SOL     OW33031   1.517   3.395   3.348 -0.3384  0.1389  0.2384
 7132SOL    HW133032   1.531   3.346   3.429  1.1898 -1.1756 -0.8080
 7132SOL    HW233033   1.588   3.458   3.355 -1.8144  1.6132  1.9579
 7133SOL     OW33034   2.764   0.038  11.508  0.5365 -0.2860 -0.0382
 7133SOL    HW133035   2.829   0.105  11.528 -1.2470  0.9262  1.6926
 7133SOL    HW233036   2.717   0.027  11.590 -1.8518 -0.9184 -1.4669
 7134SOL     OW33037   3.038   3.951   8.920 -0.1201  0.2263 -0.0433
 7134SOL    HW133038   3.114   3.931   8.975  0.7398 -0.8424 -1.6255
 7134SOL    HW233039   2.967   3.913   8.971  0.2929 -2.1439 -1.2497
 7135SOL     OW33040   0.676   2.363   5.453  0.1186 -0.7549 -0.5291
 7135SOL    HW133041   0.632   2.326   5.529  1.7222 -2.4769 -0.4240
 7135SOL    HW233042   0.767   2.331   5.453 -0.3262 -2.0509 -1.5384
 7136SOL     OW33043   3.719   3.275   3.908 -0.6068  0.2131 -0.0979
 7136SOL    HW133044   3.656   3.335   3.947 -1.3482 -2.9931  3.5429
 7136SOL    HW233045   3.676   3.247   3.827 -1.8586  0.1157  0.6066
 7137SOL     OW33046   2.492   4.158  12.377  0.6255 -0.2360  0.0538
 7137SOL    HW133047   2.501   4.221  12.306 -0.7487  0.1127  0.2039
 7137SOL    HW233048   2.399   4.138  12.387  0.3804  1.2801  0.7931
 7138SOL     OW33049   4.060   4.619   5.116  0.4230  0.3868 -0.3708
 7138SOL    HW133050   4.026   4.697   5.159  1.6140  0.9897 -0.5279
 7138SOL    HW233051   4.066   4.627   5.020 -0.5666  1.4112 -0.3424
 7139SOL     OW33052   0.316   0.981   5.882  0.1487 -0.0269 -0.7125
 7139SOL    HW133053   0.349   0.919   5.818 -1.8156 -1.4171 -0.3540
 7139SOL    HW233054   0.235   0.945   5.917  0.1206 -1.6367 -2.4784
 7140SOL     OW33055   2.690   4.699   9.543  0.2178 -0.2263 -0.7019
 7140SOL    HW133056   2.638   0.021   9.488 -1.4172  1.3660  2.5237
 7140SOL    HW233057   2.711   0.024   9.614 -0.3743 -1.3039  0.3976
 7141SOL     OW33058   0.879   0.491   7.728 -0.2544 -0.2963 -0.1454
 7141SOL    HW133059   0.967   0.529   7.728  0.2649 -1.5026  0.6119
 7141SOL    HW233060   0.897   0.399   7.748 -0.6675 -0.6744 -1.4896
 7142SOL     OW33061   0.055   1.520   5.454  0.1620 -0.2400  0.2703
 7142SOL    HW133062   0.113   1.522   5.378 -1.5495  0.5668 -1.0217
 7142SOL    HW233063   0.090   1.447   5.505  1.5906  0.2973  0.0656
 7143SOL     OW33064   3.351   2.276   5.534  0.4127  0.4225  0.5465
 7143SOL    HW133065   3.367   2.344   5.470  2.6014  0.4633  1.1331
 7143SOL    HW233066   3.338   2.197   5.482 -2.9467  1.9147 -0.8943
 7144SOL     OW33067   3.559   1.847   2.566  0.3421 -0.0012 -0.1687
 7144SOL    HW133068   3.630   1.848   2.503  0.4145 -0.7116 -0.0991
 7144SOL    HW233069   3.550   1.753   2.584  0.0760  0.1151  0.3204
 7145SOL     OW33070   3.296   3.554   9.285  0.2099  0.0492 -0.4332
 7145SOL    HW133071   3.248   3.578   9.206 -0.8579  1.8410  0.7652
 7145SOL    HW233072   3.340   3.633   9.316 -0.3684  0.1235  0.1998
 7146SOL     OW33073   1.359   1.006   4.174  0.2619  0.5012 -0.4306
 7146SOL    HW133074   1.264   1.012   4.184  0.2980  0.4267 -0.0590
 7146SOL    HW233075   1.389   0.987   4.263  0.8409 -0.3375 -0.7974
 7147SOL     OW33076   2.305   1.718   4.782 -0.0618  0.0485  0.0598
 7147SOL    HW133077   2.293   1.785   4.850  1.7257 -1.0218  1.4246
 7147SOL    HW233078   2.258   1.642   4.818  2.0311 -0.9665  0.6599
 7148SOL     OW33079   1.740   0.026   8.133  0.1906  0.6284  0.1703
 7148SOL    HW133080   1.713   4.717   8.212  2.7650  2.1606  1.9434
 7148SOL    HW233081   1.810   0.077   8.174  0.0270  1.3424 -0.4321
 7149SOL     OW33082   1.239   3.503   8.277  0.0353 -0.3798 -0.3302
 7149SOL    HW133083   1.274   3.537   8.195  1.2288 -0.1103  0.3033
 7149SOL    HW233084   1.322   3.463   8.304  0.2871  2.2933  2.7802
 7150SOL     OW33085   1.159   2.559  15.481 -0.5650  0.1720 -0.0049
 7150SOL    HW133086   1.091   2.493  15.468 -2.2157  1.7832  0.5280
 7150SOL    HW233087   1.219   2.544  15.407 -0.6721  0.1377 -0.0841
 7151SOL     OW33088   1.075   2.363   7.081  0.1242  0.3803 -0.1344
 7151SOL    HW133089   1.108   2.273   7.085  0.9536  0.6589 -0.9579
 7151SOL    HW233090   1.002   2.357   7.020 -0.5162 -0.4340  0.7109
 7152SOL     OW33091   0.508   0.141   5.841 -0.1385  0.1669 -0.0818
 7152SOL    HW133092   0.421   0.102   5.829 -0.1173 -0.6187  2.4792
 7152SOL    HW233093   0.491   0.189   5.922 -0.3116  2.8109 -1.6772
 7153SOL     OW33094   4.727   3.159   9.929  0.0143 -0.4146  0.1625
 7153SOL    HW133095   4.730   3.174   9.835 -0.6689 -3.0159 -0.2559
 7153SOL    HW233096   4.634   3.173   9.946 -0.0112 -0.1325 -0.2290
 7154SOL     OW33097   3.095   2.894   9.673 -0.6918 -0.8472 -0.1128
 7154SOL    HW133098   3.001   2.896   9.659 -0.5413  2.4687 -0.6590
 7154SOL    HW233099   3.114   2.988   9.673  0.7453 -1.1317  0.5188
 7155SOL     OW33100   2.000   1.170   6.386  0.2957 -0.3112  0.6127
 7155SOL    HW133101   1.955   1.086   6.381 -0.6785  0.1875  1.0776
 7155SOL    HW233102   2.066   1.147   6.452  0.6301 -1.2365 -0.0537
 7156SOL     OW33103   0.227   2.269  11.354  0.4068  0.3974  0.1704
 7156SOL    HW133104   0.193   2.192  11.401 -2.4221  2.1531  1.0259
 7156SOL    HW233105   0.281   2.231  11.286  0.6127  0.9447  0.0294
 7157SOL     OW33106   2.541   4.595   3.623 -0.3266 -0.3819  0.2496
 7157SOL    HW133107   2.528   4.587   3.528  2.2503 -0.7966 -0.0823
 7157SOL    HW233108   2.477   4.658   3.655  1.5593  1.1461  0.9806
 7158SOL     OW33109   2.550   4.399   6.631 -0.0047  0.0283  0.3490
 7158SOL    HW133110   2.534   4.334   6.699  0.6198  0.9324  1.3581
 7158SOL    HW233111   2.555   4.347   6.550 -3.7656  0.6929 -0.2900
 7159SOL     OW33112   3.150   1.109   3.567  0.4160  0.2204 -0.1779
 7159SOL    HW133113   3.144   1.153   3.482 -3.0790  1.9700  0.9281
 7159SOL    HW233114   3.135   1.178   3.632 -1.1985 -0.3305  0.0478
 7160SOL     OW33115   3.611   0.591   7.834 -0.0901  0.6308 -0.1976
 7160SOL    HW133116   3.579   0.679   7.815  0.5411  0.8506 -0.2616
 7160SOL    HW233117   3.700   0.608   7.867 -0.5008  0.6544  0.8987
 7161SOL     OW33118   0.370   0.314   8.042 -0.0930 -0.0042  0.3219
 7161SOL    HW133119   0.427   0.340   7.970 -0.2432 -1.4929 -0.3439
 7161SOL    HW233120   0.345   0.396   8.084 -0.2690  0.6661 -1.1234
 7162SOL     OW33121   2.192   0.095   5.540 -1.0697 -0.7066 -0.5111
 7162SOL    HW133122   2.107   0.063   5.570 -1.8594  2.2110  0.2829
 7162SOL    HW233123   2.242   0.060   5.614 -2.8064  0.0197  0.9737
 7163SOL     OW33124   1.734   2.363  12.811  0.2044 -0.2357  0.1532
 7163SOL    HW133125   1.643   2.351  12.840  0.4189 -1.9477  0.0904
 7163SOL    HW233126   1.729   2.443  12.758 -1.1813  1.1351  2.3495
 7164SOL     OW33127   4.243   3.647  10.917  0.5497  0.0948  0.4010
 7164SOL    HW133128   4.157   3.608  10.931  0.6638 -0.4248 -0.3467
 7164SOL    HW233129   4.231   3.720  10.979 -1.6846 -2.3425  2.8382
 7165SOL     OW33130   3.691   0.328   5.728 -0.1956  0.4553  0.5268
 7165SOL    HW133131   3.753   0.259   5.703  1.8059  2.4672 -0.0780
 7165SOL    HW233132   3.753   0.389   5.766  2.8086 -1.3465 -1.4752
 7166SOL     OW33133   1.251   4.061   2.561  0.1698 -0.2892 -0.5894
 7166SOL    HW133134   1.207   4.145   2.576 -0.3945 -0.5316 -0.8695
 7166SOL    HW233135   1.328   4.084   2.510  0.8474 -1.4177 -0.0616
 7167SOL     OW33136   3.018   2.192  16.101  0.0646 -0.3584  0.4451
 7167SOL    HW133137   3.060   2.181  16.015 -2.1000 -1.1879 -0.4908
 7167SOL    HW233138   3.079   2.174  16.173 -0.7929 -0.6718  1.0826
 7168SOL     OW33139   0.263   3.443   5.841  0.0594 -0.0870  0.6378
 7168SOL    HW133140   0.197   3.409   5.781  0.8516  0.4842 -0.5596
 7168SOL    HW233141   0.254   3.367   5.900 -3.5318 -0.0836  0.0942
 7169SOL     OW33142   0.180   3.525   6.410  0.1376  0.0031  0.5180
 7169SOL    HW133143   0.090   3.492   6.416 -0.2749  0.6710 -2.2521
 7169SOL    HW233144   0.214   3.476   6.336 -2.0646  0.9872 -1.1443
 7170SOL     OW33145   4.592   1.568   5.075 -0.5634 -0.3331  0.4879
 7170SOL    HW133146   4.592   1.615   5.159  1.7582  0.5875 -0.0280
 7170SOL    HW233147   4.633   1.488   5.107  0.1023 -0.4013 -0.5239
 7171SOL     OW33148   0.844   1.919   3.420 -0.3440 -0.0335 -0.4238
 7171SOL    HW133149   0.920   1.977   3.429  0.5457 -1.3159  0.2737
 7171SOL    HW233150   0.888   1.834   3.422  1.2305  0.7635 -1.3074
 7172SOL     OW33151   0.134   0.047   7.636 -0.0805  0.3480  0.4940
 7172SOL    HW133152   0.206   0.029   7.576 -1.0175 -1.7427  0.0123
 7172SOL    HW233153   0.158   4.727   7.710 -1.7177 -1.8330 -0.6539
 7173SOL     OW33154   3.908   1.613  11.306  0.0077  0.9081  0.9526
 7173SOL    HW133155   4.002   1.619  11.322  0.2911  1.5099 -0.9511
 7173SOL    HW233156   3.882   1.669  11.380  1.2184  0.0017  2.0666
 7174SOL     OW33157   4.566   2.000   2.292  0.2337 -0.2583  0.7520
 7174SOL    HW133158   4.636   1.938   2.274 -1.7602 -2.0638 -0.8364
 7174SOL    HW233159   4.547   2.037   2.206 -1.2163 -0.4906  0.9698
 7175SOL     OW33160   0.990   3.222  12.870  0.1856 -0.6786 -0.0537
 7175SOL    HW133161   1.045   3.144  12.877 -0.1703 -0.7491  1.9383
 7175SOL    HW233162   0.924   3.219  12.939 -2.9810  0.9382 -2.9816
 7176SOL     OW33163   4.072   0.748   3.192 -0.4780 -0.0732 -0.2358
 7176SOL    HW133164   4.067   0.659   3.227 -1.2921 -0.4839 -1.3823
 7176SOL    HW233165   3.990   0.762   3.144 -0.7027  1.8721  0.7324
 7177SOL     OW33166   2.822   0.641   8.238  0.0108  0.2348 -0.0018
 7177SOL    HW133167   2.760   0.641   8.166 -0.1683 -0.7700  0.1525
 7177SOL    HW233168   2.810   0.550   8.265 -1.8948 -0.6518 -3.9030
 7178SOL     OW33169   2.769   3.873   8.058 -0.4450  0.6153 -0.4706
 7178SOL    HW133170   2.837   3.879   8.125 -1.6810 -2.4692  1.0494
 7178SOL    HW233171   2.774   3.965   8.032 -0.9968  1.1504  1.2780
 7179SOL     OW33172   0.545   3.627  13.089  0.2975  0.4386 -0.2242
 7179SOL    HW133173   0.566   3.545  13.134 -2.1192 -0.0384  0.0515
 7179SOL    HW233174   0.526   3.675  13.170  0.1545 -1.2533  0.7577
 7180SOL     OW33175   3.522   1.212   9.481 -0.0032  1.1899 -0.2042
 7180SOL    HW133176   3.609   1.191   9.448 -1.3144 -2.9252 -1.0602
 7180SOL    HW233177   3.513   1.300   9.443  1.1001  1.2395 -0.3534
 7181SOL     OW33178   3.101   1.142  15.634 -0.1537 -0.0450  0.2893
 7181SOL    HW133179   3.124   1.059  15.675  1.5199  0.3905  0.2125
 7181SOL    HW233180   3.085   1.188  15.717 -0.5065 -1.8816  1.2495
 7182SOL     OW33181   2.238   1.539   3.905 -0.0317  0.1257  0.0617
 7182SOL    HW133182   2.260   1.448   3.888  0.9076 -0.3325  3.7903
 7182SOL    HW233183   2.328   1.572   3.902  0.4143 -1.1633 -0.7063
 7183SOL     OW33184   0.967   2.800  13.000  0.2551  0.0202 -0.2592
 7183SOL    HW133185   0.926   2.841  13.076  0.3710  1.3915 -0.9226
 7183SOL    HW233186   0.999   2.882  12.961 -2.4956  0.5006 -1.4836
 7184SOL     OW33187   0.072   3.154   8.792 -0.2993 -0.1099  0.2863
 7184SOL    HW133188   0.130   3.124   8.721 -0.1545 -1.0855  0.8159
 7184SOL    HW233189   4.725   3.162   8.746  0.3273  2.8078 -0.3622
 7185SOL     OW33190   3.234   3.068  14.789 -0.3103 -0.2676 -0.4056
 7185SOL    HW133191   3.183   3.149  14.787  1.0665  0.5876 -0.5700
 7185SOL    HW233192   3.226   3.022  14.873 -0.8440 -0.5999 -0.6335
 7186SOL     OW33193   2.154   4.609   4.318  0.0410 -0.2158 -0.0939
 7186SOL    HW133194   2.171   4.596   4.411  0.0012 -1.8087 -0.3172
 7186SOL    HW233195   2.135   4.523   4.282 -0.6044 -0.2264  0.2768
 7187SOL     OW33196   0.093   3.058   6.428 -0.1303 -0.2122  0.1616
 7187SOL    HW133197   0.121   3.097   6.511  1.1004  1.4090 -1.0319
 7187SOL    HW233198   0.066   2.971   6.459  1.9207 -0.0106  2.4847
 7188SOL     OW33199   1.480   3.186   3.831  0.0169 -0.1514 -0.8051
 7188SOL    HW133200   1.472   3.227   3.917 -1.7718  0.1486 -1.1009
 7188SOL    HW233201   1.430   3.104   3.836  2.4903 -1.5148  1.3760
 7189SOL     OW33202   1.356   0.317   5.813  0.6150  0.6016 -0.0896
 7189SOL    HW133203   1.321   0.346   5.897  1.2930 -0.1103  0.4271
 7189SOL    HW233204   1.276   0.304   5.761  1.0744 -1.2298 -0.3052
 7190SOL     OW33205   0.396   3.382   9.527  0.5435  0.0732  0.0193
 7190SOL    HW133206   0.310   3.351   9.498  0.5990 -0.1034  0.0471
 7190SOL    HW233207   0.375   3.410   9.616 -0.6880 -2.1394  0.4320
 7191SOL     OW33208   3.590   1.674   1.870  0.1025  0.1674 -0.4540
 7191SOL    HW133209   3.500   1.658   1.898  0.9078 -1.6515  1.1253
 7191SOL    HW233210   3.620   1.586   1.891  1.9746  1.3751  2.0304
 7192SOL     OW33211   2.026   0.922  17.635 -0.1348 -0.5517 -0.0697
 7192SOL    HW133212   1.951   0.966  17.675 -0.7626 -1.8325  0.1449
 7192SOL    HW233213   2.049   0.872  17.713  2.0279  1.4832  0.6031
 7193SOL     OW33214   2.042   1.556   2.529  0.0481 -0.3920  0.3142
 7193SOL    HW133215   1.960   1.605   2.515  1.3310  2.3639  2.4581
 7193SOL    HW233216   2.003   1.469   2.536 -2.8263  0.7980 -0.7106
 7194SOL     OW33217   3.659   3.033   5.048 -0.1899  0.1829  0.4122
 7194SOL    HW133218   3.661   2.957   4.989 -1.0813  1.0606 -0.7569
 7194SOL    HW233219   3.706   3.104   5.005 -0.6865  0.1864 -0.1337
 7195SOL     OW33220   4.339   1.499  15.986 -0.2800  0.0075 -0.2589
 7195SOL    HW133221   4.333   1.441  15.910 -2.9435  0.2552 -0.2533
 7195SOL    HW233222   4.417   1.462  16.026  0.3816  0.1373 -1.4271
 7196SOL     OW33223   3.386   2.965   2.500 -0.1147  0.4601  0.2500
 7196SOL    HW133224   3.461   2.978   2.442  2.6380  0.7509  3.9178
 7196SOL    HW233225   3.352   2.889   2.453 -2.0314  1.1949  0.4355
 7197SOL     OW33226   1.127   2.772   3.568  0.3190 -0.7869  0.2934
 7197SOL    HW133227   1.176   2.703   3.523 -1.3705 -1.2713 -0.8461
 7197SOL    HW233228   1.178   2.844   3.530 -0.4702 -0.9295 -1.0315
 7198SOL     OW33229   2.833   1.978  17.045  0.5213  0.0498 -0.5502
 7198SOL    HW133230   2.738   1.978  17.035  0.5442 -1.7621 -0.7212
 7198SOL    HW233231   2.843   1.883  17.052  2.4530  0.3874  1.4315
 7199SOL     OW33232   2.983   2.629   8.597  0.3940  0.0208  0.3607
 7199SOL    HW133233   2.943   2.580   8.526  2.4502 -0.1682 -0.6621
 7199SOL    HW233234   3.042   2.693   8.557 -0.1899 -1.1227 -2.3242
 7200SOL     OW33235   3.255   3.068  11.725  0.5182 -0.3305  0.8141
 7200SOL    HW133236   3.186   3.048  11.661  1.8271 -1.3655 -0.2430
 7200SOL    HW233237   3.218   3.018  11.798 -0.7236 -2.3489 -1.2290
 7201SOL     OW33238   3.822   1.550   4.771  0.0277 -0.7565  0.1474
 7201SOL    HW133239   3.820   1.639   4.737  3.6407 -1.0793 -0.8636
 7201SOL    HW233240   3.905   1.543   4.817 -0.8457  0.1827  1.8874
 7202SOL     OW33241   0.687   1.270   5.837  0.1903 -0.0549  0.0835
 7202SOL    HW133242   0.668   1.275   5.931  0.3915  0.0179  0.1212
 7202SOL    HW233243   0.743   1.192   5.833 -1.0658 -0.9073 -0.8114
 7203SOL     OW33244   0.846   0.868  17.459 -0.7373  0.6050  0.2085
 7203SOL    HW133245   0.798   0.787  17.478  1.4964 -1.0404 -1.1177
 7203SOL    HW233246   0.937   0.838  17.467 -0.7974  0.3833  0.0701
 7204SOL     OW33247   3.951   1.186   4.110  0.3052 -0.5506 -0.7024
 7204SOL    HW133248   4.004   1.116   4.073  4.1092  1.5818  0.7699
 7204SOL    HW233249   3.990   1.198   4.197  0.9781  0.4173 -1.1411
 7205SOL     OW33250   1.502   3.221   5.012  0.4468  0.4165 -0.3744
 7205SOL    HW133251   1.544   3.301   4.980 -0.5952  0.3652 -1.8579
 7205SOL    HW233252   1.497   3.168   4.933  1.9486 -1.7998  1.0286
 7206SOL     OW33253   0.207   3.085   1.568  0.5964 -0.3631 -0.0902
 7206SOL    HW133254   0.297   3.090   1.600 -0.6735  1.0941  3.2667
 7206SOL    HW233255   0.209   3.153   1.501 -0.0858  0.0172  0.2725
 7207SOL     OW33256   2.594   2.318  12.474 -0.5900  0.1162  0.2767
 7207SOL    HW133257   2.686   2.327  12.449 -0.7008  0.0536 -0.1698
 7207SOL    HW233258   2.546   2.290  12.396  4.6184 -0.4665 -2.7160
 7208SOL     OW33259   1.794   2.148  10.597  0.6686  0.0278 -0.6332
 7208SOL    HW133260   1.853   2.085  10.555 -0.2653 -0.4858 -1.1738
 7208SOL    HW233261   1.716   2.094  10.610  0.7927 -0.7606 -3.0228
 7209SOL     OW33262   1.876   4.483   9.299 -0.0792  0.1326  0.1462
 7209SOL    HW133263   1.905   4.513   9.212 -0.9016 -0.1600 -0.2268
 7209SOL    HW233264   1.913   4.556   9.348 -1.4014  2.1202 -1.7984
 7210SOL     OW33265   1.950   3.740   8.536 -0.3283 -0.1082 -0.6105
 7210SOL    HW133266   1.945   3.692   8.619  1.8919  1.2023  0.2716
 7210SOL    HW233267   2.013   3.810   8.553 -0.5040  0.1020 -0.8247
 7211SOL     OW33268   0.390   1.635   6.558  0.1935  0.0296 -0.6715
 7211SOL    HW133269   0.370   1.558   6.505  2.0590 -0.2623 -0.9639
 7211SOL    HW233270   0.480   1.647   6.526  0.5964 -1.3864 -0.0377
 7212SOL     OW33271   1.264   3.847   7.234 -0.1797  0.3281  0.1367
 7212SOL    HW133272   1.203   3.776   7.218  1.1697 -1.1195  1.4968
 7212SOL    HW233273   1.344   3.808   7.198 -0.7282  0.4515 -1.2469
 7213SOL     OW33274   0.192   2.154   6.496 -0.3704  0.1463  0.4546
 7213SOL    HW133275   0.237   2.082   6.450 -1.1604  0.7129 -1.2179
 7213SOL    HW233276   0.101   2.132   6.475 -0.1992 -0.1082 -0.0240
 7214SOL     OW33277   0.222   3.843   9.637 -0.2420 -0.1058 -0.3501
 7214SOL    HW133278   0.304   3.793   9.626 -0.9878 -1.3134 -0.4203
 7214SOL    HW233279   0.259   3.931   9.645 -0.9883  0.1310  0.4079
 7215SOL     OW33280   1.739   1.543  14.413  0.2832  0.3841  0.2496
 7215SOL    HW133281   1.723   1.626  14.459  0.8030  0.4555  0.3011
 7215SOL    HW233282   1.654   1.499  14.411  0.4702  0.1029 -1.3996
 7216SOL     OW33283   4.439   4.612  16.866 -0.6351 -0.3570 -0.7437
 7216SOL    HW133284   4.415   4.682  16.927 -0.3771 -1.4907  0.6410
 7216SOL    HW233285   4.414   4.650  16.781  4.0329  0.2752 -1.8084
 7217SOL     OW33286   0.079   1.823   2.205  0.0994  0.1043 -0.5713
 7217SOL    HW133287   0.124   1.765   2.267  1.0601  1.3938 -0.0638
 7217SOL    HW233288   0.144   1.882   2.168 -1.2920  2.0315  0.0362
 7218SOL     OW33289   2.956   3.939  12.324  0.6420  0.4382 -0.0066
 7218SOL    HW133290   2.863   3.947  12.345 -0.1352 -0.1839 -3.2258
 7218SOL    HW233291   3.002   3.906  12.401 -0.4061 -0.5752  0.1912
 7219SOL     OW33292   1.707   1.438   5.703  0.3708  0.5512 -0.0251
 7219SOL    HW133293   1.701   1.347   5.730 -0.8400  0.0669 -1.9559
 7219SOL    HW233294   1.802   1.447   5.693  0.7199 -0.1285  2.5921
 7220SOL     OW33295   0.322   2.494  11.452  0.5778 -0.4203  0.1909
 7220SOL    HW133296   0.304   2.404  11.427 -0.5142 -0.9441  2.8470
 7220SOL    HW233297   0.278   2.503  11.537  2.6073  1.3404  1.0625
 7221SOL     OW33298   3.544   0.188   6.799  0.3300  0.1892 -0.1105
 7221SOL    HW133299   3.526   0.096   6.814  2.7299 -0.1766  0.4941
 7221SOL    HW233300   3.489   0.239   6.858  1.5068  3.2344 -1.6405
 7222SOL     OW33301   4.286   0.088   8.950 -0.1574  0.0397 -0.2252
 7222SOL    HW133302   4.323   0.073   8.863  1.0771 -2.0593  0.6701
 7222SOL    HW233303   4.199   0.050   8.936  0.4889 -0.8361 -1.8491
 7223SOL     OW33304   4.481   1.178   5.478 -0.2568  0.5425  0.5208
 7223SOL    HW133305   4.552   1.203   5.420 -0.0331  0.7733  0.8895
 7223SOL    HW233306   4.452   1.264   5.510  0.4524  0.4089  1.5294
 7224SOL     OW33307   0.255   1.959   8.967  0.5952 -0.6407 -0.0853
 7224SOL    HW133308   0.227   1.994   9.052  2.8255  3.0133 -0.8494
 7224SOL    HW233309   0.291   1.877   9.001  2.2239  0.4799  0.9425
 7225SOL     OW33310   2.325   2.112   1.645  0.2216  0.1057 -0.2007
 7225SOL    HW133311   2.253   2.107   1.583  1.4173 -2.0064 -1.4464
 7225SOL    HW233312   2.290   2.174   1.709  2.1558  0.9571  0.0343
 7226SOL     OW33313   2.464   2.515   7.113 -0.2349  0.3629 -0.5586
 7226SOL    HW133314   2.497   2.464   7.187  1.6734  1.0712 -0.9229
 7226SOL    HW233315   2.543   2.515   7.060  0.3029  0.3462  0.2474
 7227SOL     OW33316   3.441   0.259  15.631 -0.4640 -0.3056 -0.6819
 7227SOL    HW133317   3.388   0.287  15.705  1.4900 -0.3103  0.7363
 7227SOL    HW233318   3.386   0.197  15.585  3.6283 -3.2633 -1.5711
 7228SOL     OW33319   2.534   3.682   1.213  0.6653 -0.7503 -0.7232
 7228SOL    HW133320   2.516   3.745   1.282 -0.6410  1.0728 -2.7099
 7228SOL    HW233321   2.599   3.626   1.255  0.3573 -1.5095 -1.2452
 7229SOL     OW33322   0.852   2.018   0.225 -0.5064  0.3366  0.2993
 7229SOL    HW133323   0.873   2.005   0.317 -0.6872  1.5816  0.5106
 7229SOL    HW233324   0.921   2.071   0.187 -1.0569  0.9093  0.0931
 7230SOL     OW33325   2.429   4.593   2.678  0.4420  0.1047 -0.1421
 7230SOL    HW133326   2.406   4.684   2.659  4.1658  1.0354 -0.2101
 7230SOL    HW233327   2.340   4.557   2.676  0.8305 -0.8836  0.4670
 7231SOL     OW33328   1.128   3.554  14.995  0.0052 -0.1429 -0.2555
 7231SOL    HW133329   1.155   3.640  14.963 -3.0396  0.5189 -1.1100
 7231SOL    HW233330   1.034   3.565  14.977 -0.0099 -0.7890 -0.5696
 7232SOL     OW33331   2.003   3.887   2.134  0.0727  0.0254  0.2460
 7232SOL    HW133332   2.007   3.918   2.225 -1.2465  0.1116  0.2767
 7232SOL    HW233333   2.095   3.885   2.110 -0.1631 -1.5323 -0.5531
 7233SOL     OW33334   3.942   1.910   5.105 -0.0614 -0.0185  0.5268
 7233SOL    HW133335   3.868   1.887   5.162 -0.3937 -2.0831 -0.7322
 7233SOL    HW233336   3.910   1.886   5.018 -1.6265 -0.4231  1.2078
 7234SOL     OW33337   2.849   1.630  12.760  0.2666  0.5655 -0.3365
 7234SOL    HW133338   2.907   1.685  12.708 -0.1562 -0.7198 -2.1577
 7234SOL    HW233339   2.808   1.593  12.682  1.3601 -0.8962 -0.2229
 7235SOL     OW33340   2.377   3.678   2.068  0.0986 -0.0431 -0.5847
 7235SOL    HW133341   2.293   3.677   2.114  1.0252  0.8305  1.1387
 7235SOL    HW233342   2.358   3.739   1.997 -0.4460 -2.2356 -2.3138
 7236SOL     OW33343   3.609   0.902  16.148  0.0773 -0.0616  0.2601
 7236SOL    HW133344   3.601   0.962  16.222 -2.4439 -0.4203  0.2864
 7236SOL    HW233345   3.515   0.889  16.131  0.4182 -2.3303  0.0148
 7237SOL     OW33346   0.022   3.447   8.671 -0.5287 -0.4312  0.3379
 7237SOL    HW133347   0.015   3.482   8.581  1.2141 -1.1216 -0.0575
 7237SOL    HW233348   0.003   3.354   8.662  0.2670 -0.6104  0.5496
 7238SOL     OW33349   0.571   3.757  12.080 -0.3929  0.2790  0.3850
 7238SOL    HW133350   0.539   3.766  11.991 -1.0894  1.0189  0.7145
 7238SOL    HW233351   0.513   3.683  12.099  0.0512 -0.2372 -0.2553
 7239SOL     OW33352   2.040   0.666  13.523 -0.6813 -0.0978 -0.1092
 7239SOL    HW133353   2.119   0.718  13.508 -0.7734 -0.4398 -1.8662
 7239SOL    HW233354   2.078   0.583  13.495 -3.3780 -1.7519  1.1811
 7240SOL     OW33355   4.058   1.947   1.253 -0.5437  0.6017  0.1487
 7240SOL    HW133356   3.991   1.994   1.204  0.2887 -0.0199 -1.5696
 7240SOL    HW233357   3.997   1.892   1.302  0.1192 -0.2535  0.0101
 7241SOL     OW33358   3.868   3.099  12.846 -0.0912  1.0157 -0.2649
 7241SOL    HW133359   3.888   3.113  12.754  1.8441  1.4859  0.2302
 7241SOL    HW233360   3.788   3.046  12.843 -0.0342  0.8245  1.3974
 7242SOL     OW33361   0.178   2.350   7.765 -0.0144 -0.1247  0.1221
 7242SOL    HW133362   0.242   2.281   7.782  0.5639  1.2252  3.3859
 7242SOL    HW233363   0.228   2.426   7.796  0.9719 -0.2216 -1.2361
 7243SOL     OW33364   1.036   2.959   7.943  0.4643  0.3625  0.2574
 7243SOL    HW133365   1.099   2.964   7.871  1.3985 -1.0816  0.9728
 7243SOL    HW233366   1.099   2.982   8.012  1.2481  1.4009 -0.8164
 7244SOL     OW33367   3.388   1.840   0.741  0.9968  0.4653 -0.5965
 7244SOL    HW133368   3.459   1.803   0.688  2.5509  2.8520 -0.2147
 7244SOL    HW233369   3.323   1.864   0.676 -0.5647 -0.9276  0.4551
 7245SOL     OW33370   1.164   0.890  17.091  0.6905 -0.2100 -0.3148
 7245SOL    HW133371   1.260   0.891  17.093  0.6626  0.4248  0.7480
 7245SOL    HW233372   1.142   0.846  17.009 -0.9617  0.2970 -0.1453
 7246SOL     OW33373   0.755   2.557   2.343 -0.3083  0.3326  0.6100
 7246SOL    HW133374   0.846   2.587   2.331 -0.6757  1.0729 -0.3003
 7246SOL    HW233375   0.738   2.554   2.249 -1.3519 -0.1987  0.8268
 7247SOL     OW33376   0.232   1.428   7.391  0.5172  0.3046 -0.4795
 7247SOL    HW133377   0.141   1.399   7.402  0.7079 -0.6164 -1.3033
 7247SOL    HW233378   0.253   1.420   7.484 -0.8117 -0.6051 -0.2574
 7248SOL     OW33379   0.114   4.111   5.298 -0.1204  0.6606 -0.1300
 7248SOL    HW133380   0.076   4.176   5.239 -1.7739  0.2885  0.5432
 7248SOL    HW233381   0.168   4.067   5.232 -0.6475 -0.3425  0.1074
 7249SOL     OW33382   0.764   1.803   5.666 -0.1056 -0.3048 -0.0261
 7249SOL    HW133383   0.767   1.708   5.673  0.7631 -0.3052 -0.4246
 7249SOL    HW233384   0.708   1.814   5.744 -0.3843  2.3488 -0.5875
 7250SOL     OW33385   0.052   0.646   3.775  0.2182 -0.2666 -0.0786
 7250SOL    HW133386   0.089   0.716   3.720 -1.8191  0.2144 -0.8482
 7250SOL    HW233387   0.132   0.612   3.814 -0.8970 -1.4759  1.1518
 7251SOL     OW33388   4.560   1.038   8.138 -0.5136 -0.4539 -0.6628
 7251SOL    HW133389   4.573   1.119   8.188 -0.0314 -1.2812  0.5684
 7251SOL    HW233390   4.477   1.050   8.093 -0.8016 -0.1843 -0.0658
 7252SOL     OW33391   4.433   3.600   1.073  0.6737  0.1427 -0.1659
 7252SOL    HW133392   4.404   3.529   1.131  2.7006 -0.0544  0.6063
 7252SOL    HW233393   4.367   3.669   1.074  1.0691  0.5392 -1.4290
 7253SOL     OW33394   1.799   0.249  10.957 -0.3147  0.0475  0.2001
 7253SOL    HW133395   1.861   0.311  10.995  0.2723 -0.8943  0.7836
 7253SOL    HW233396   1.799   0.168  11.009 -1.0035  0.2342  0.4942
 7254SOL     OW33397   0.267   0.273   8.856 -0.0450  0.1962 -0.0712
 7254SOL    HW133398   0.254   0.230   8.940  2.4031  0.2676  0.3398
 7254SOL    HW233399   0.347   0.323   8.867  0.1948 -0.6070  1.8512
 7255SOL     OW33400   3.467   2.881   5.484 -0.4810 -0.0708  0.5394
 7255SOL    HW133401   3.432   2.799   5.520 -3.2936  0.5768 -0.6885
 7255SOL    HW233402   3.553   2.874   5.525 -0.4397 -3.0349 -0.0733
 7256SOL     OW33403   1.707   2.219   8.148 -0.1824 -0.6256 -0.0551
 7256SOL    HW133404   1.728   2.223   8.241 -0.6458 -0.2892  0.0310
 7256SOL    HW233405   1.776   2.156   8.124  0.3495 -0.1087  0.1069
 7257SOL     OW33406   4.628   1.353   1.208  0.3044 -0.2441 -0.1708
 7257SOL    HW133407   4.542   1.339   1.249  0.9668 -1.3408  0.8330
 7257SOL    HW233408   4.629   1.447   1.188 -0.7638 -0.0691  0.5723
 7258SOL     OW33409   3.321   2.452   2.353  0.0553  0.5230 -0.2934
 7258SOL    HW133410   3.400   2.432   2.403 -0.3948 -0.4231  0.0362
 7258SOL    HW233411   3.266   2.479   2.427  0.7455 -1.7298  1.0264
 7259SOL     OW33412   4.542   4.194   0.867  0.2961 -0.2774 -0.5167
 7259SOL    HW133413   4.633   4.184   0.838 -0.1080 -0.4235 -1.7582
 7259SOL    HW233414   4.549   4.275   0.917  0.8865 -1.9159  2.0202
 7260SOL     OW33415   3.543   0.542   3.317 -0.7357 -0.3035  0.0398
 7260SOL    HW133416   3.459   0.545   3.271  0.3122 -1.8034 -1.9067
 7260SOL    HW233417   3.562   0.459   3.275  1.3484 -0.3987  1.1839
 7261SOL     OW33418   3.180   2.075  12.342 -0.0120  0.0142 -0.5432
 7261SOL    HW133419   3.203   2.022  12.418 -0.7573 -1.0156 -1.0340
 7261SOL    HW233420   3.269   2.110  12.341 -1.0825  2.8741  2.0573
 7262SOL     OW33421   4.325   1.375   8.263 -0.3592 -0.3668  0.8090
 7262SOL    HW133422   4.404   1.329   8.293  0.6887  2.5191  2.4701
 7262SOL    HW233423   4.366   1.459   8.242  0.3457 -1.0990 -0.6783
 7263SOL     OW33424   0.926   3.858  10.227 -0.6782  0.3606  0.2043
 7263SOL    HW133425   1.008   3.907  10.238  0.4627 -1.6116  0.4804
 7263SOL    HW233426   0.861   3.924  10.249 -0.1602  0.8217  0.3594
 7264SOL     OW33427   0.415   3.608   5.975 -0.0034  0.0330  0.0419
 7264SOL    HW133428   0.351   3.562   5.921 -1.2930 -0.9069  2.3830
 7264SOL    HW233429   0.403   3.696   5.939  0.7732  0.3820  0.6331
 7265SOL     OW33430   4.280   1.269   6.592  0.5048  0.2501 -0.4785
 7265SOL    HW133431   4.311   1.356   6.617  0.4557 -0.1180  0.8667
 7265SOL    HW233432   4.358   1.229   6.554  0.9342  1.0576 -0.4526
 7266SOL     OW33433   2.891   1.888   7.463  0.3815  0.8081 -1.0309
 7266SOL    HW133434   2.883   1.819   7.528  1.7689  0.7689 -0.8961
 7266SOL    HW233435   2.910   1.832   7.388  0.8548 -0.9520  0.4219
 7267SOL     OW33436   2.177   0.949  12.435 -0.4115 -0.2220 -0.3750
 7267SOL    HW133437   2.205   0.896  12.360  0.4838 -0.9284  0.4444
 7267SOL    HW233438   2.149   1.028  12.390 -0.2722 -1.2345 -2.2699
 7268SOL     OW33439   1.692   3.508   9.992 -0.0353  0.0807 -0.0526
 7268SOL    HW133440   1.670   3.554  10.073  0.3432  2.5608 -1.3629
 7268SOL    HW233441   1.603   3.514   9.955 -0.1567 -2.3081 -0.1729
 7269SOL     OW33442   0.638   2.586   1.114 -0.7719 -0.8185  0.3524
 7269SOL    HW133443   0.591   2.538   1.047 -1.7732 -0.2648  0.6422
 7269SOL    HW233444   0.570   2.604   1.180 -0.6138 -0.3159  0.3840
 7270SOL     OW33445   4.154   4.323   0.149  0.1507  0.3566  0.5051
 7270SOL    HW133446   4.200   4.369   0.219  1.9121 -0.2141 -0.2659
 7270SOL    HW233447   4.078   4.276   0.184  0.1413  0.2322  0.3182
 7271SOL     OW33448   0.323   0.334   7.293 -0.1303 -0.4001 -0.1486
 7271SOL    HW133449   0.262   0.272   7.332 -0.9207  1.5462  1.7232
 7271SOL    HW233450   0.284   0.407   7.342 -0.0343 -1.1446  1.0213
 7272SOL     OW33451   2.142   3.726   0.022 -0.4154  0.4252  0.3193
 7272SOL    HW133452   2.080   3.796  17.743 -1.1470 -0.3067  0.0489
 7272SOL    HW233453   2.147   3.678  17.684 -1.2796 -2.7746  2.1353
 7273SOL     OW33454   0.358   1.336   2.730  0.2805 -0.3334 -0.0856
 7273SOL    HW133455   0.389   1.245   2.725  0.8077 -0.1485 -0.1501
 7273SOL    HW233456   0.382   1.361   2.641 -1.8589 -0.3127 -0.6659
 7274SOL     OW33457   0.804   4.549  11.225  0.5971  0.2142  0.0633
 7274SOL    HW133458   0.753   4.468  11.227 -0.3324  0.7865 -0.5332
 7274SOL    HW233459   0.812   4.559  11.320 -0.8728  0.0675  0.2078
 7275SOL     OW33460   4.578   0.205  11.938 -0.1731 -0.3851 -0.3815
 7275SOL    HW133461   4.562   0.132  11.997  2.1070  0.1958  0.9575
 7275SOL    HW233462   4.638   0.166  11.874  1.5693  1.4702  0.1293
 7276SOL     OW33463   1.122   2.175  15.070  0.2810  0.2820  0.0527
 7276SOL    HW133464   1.064   2.251  15.071 -3.1002 -2.3301 -0.0254
 7276SOL    HW233465   1.060   2.104  15.081  2.0808 -1.2065  0.5648
 7277SOL     OW33466   1.704   2.043   5.407 -0.0522  0.1438 -0.0175
 7277SOL    HW133467   1.668   2.072   5.323  0.1915  0.1943 -0.1036
 7277SOL    HW233468   1.764   1.980   5.368 -1.2479 -0.5304 -0.7702
 7278SOL     OW33469   2.502   0.628   4.090 -0.2406 -0.9738 -0.2112
 7278SOL    HW133470   2.571   0.568   4.119  1.9020  1.1477 -0.9587
 7278SOL    HW233471   2.526   0.637   3.998 -1.4037  1.7142 -0.2606
 7279SOL     OW33472   0.272   4.711   8.873 -0.5472 -0.3709 -0.3094
 7279SOL    HW133473   0.366   4.692   8.879 -0.4174  0.6567  0.7836
 7279SOL    HW233474   0.247   4.713   8.965  0.7993  1.0498  0.0047
 7280SOL     OW33475   0.620   0.336   6.379 -0.2820  0.6135  0.3599
 7280SOL    HW133476   0.548   0.328   6.442 -0.4894 -0.4853 -0.0213
 7280SOL    HW233477   0.690   0.357   6.441  0.0903 -0.1675  0.2004
 7281SOL     OW33478   0.245   3.016   0.457  0.4024  0.0072 -0.2963
 7281SOL    HW133479   0.191   2.937   0.460 -1.1715  1.1395  2.0499
 7281SOL    HW233480   0.251   3.032   0.552  3.5216  0.5388 -0.5906
 7282SOL     OW33481   1.443   1.667   4.330  0.0667  0.3908  0.1250
 7282SOL    HW133482   1.514   1.604   4.327  0.0857  0.4521 -0.5685
 7282SOL    HW233483   1.371   1.625   4.282  0.2451  0.2447 -0.0134
 7283SOL     OW33484   4.691   0.109  15.205 -0.0127 -0.2722  0.0511
 7283SOL    HW133485   4.683   0.198  15.173  0.0523 -0.2341  0.1397
 7283SOL    HW233486   4.606   0.073  15.179 -0.3396  1.9021 -1.8528
 7284SOL     OW33487   1.787   4.013   3.705  0.3635  0.1937  0.1840
 7284SOL    HW133488   1.789   3.992   3.612  0.5300 -2.1233  0.7003
 7284SOL    HW233489   1.733   4.091   3.708  0.5404  0.3042  0.5311
 7285SOL     OW33490   0.681   4.084   6.632  0.2498 -0.3371 -0.1844
 7285SOL    HW133491   0.715   4.022   6.697 -0.1634 -0.3341  0.0303
 7285SOL    HW233492   0.594   4.047   6.619  0.1477 -0.5547  1.0627
 7286SOL     OW33493   0.196   4.343   8.186 -0.2298 -0.0807  0.0174
 7286SOL    HW133494   0.260   4.364   8.118 -0.4739  0.4298 -0.0559
 7286SOL    HW233495   0.173   4.427   8.225  0.4640 -0.9972  2.4334
 7287SOL     OW33496   1.575   0.937   7.445 -0.7456  0.3149  0.2867
 7287SOL    HW133497   1.650   0.976   7.399 -1.3287  0.8917 -0.1800
 7287SOL    HW233498   1.539   1.013   7.491  0.6005  0.7171  0.6674
 7288SOL     OW33499   2.638   4.219   4.129 -0.0518 -0.5062 -0.3109
 7288SOL    HW133500   2.732   4.235   4.117  0.2212 -1.9375 -0.1461
 7288SOL    HW233501   2.632   4.196   4.222 -1.2860  3.9984  0.7060
 7289SOL     OW33502   3.578   0.853   6.802 -0.2001  0.0949 -0.0791
 7289SOL    HW133503   3.586   0.840   6.707  1.3671  0.6548 -0.0373
 7289SOL    HW233504   3.615   0.770   6.831  0.5461  0.1546 -0.8586
 7290SOL     OW33505   0.070   2.776   2.705  0.0724  0.4126  0.4036
 7290SOL    HW133506   0.138   2.839   2.729 -0.0109  0.5119  0.3807
 7290SOL    HW233507   0.043   2.762   2.796 -0.0583 -0.8556  0.1559
 7291SOL     OW33508   0.945   3.688   3.609  0.0393 -0.2010  0.1710
 7291SOL    HW133509   0.889   3.630   3.558 -2.5262  2.5303 -0.1260
 7291SOL    HW233510   0.943   3.643   3.693  1.1181  0.5384  0.5971
 7292SOL     OW33511   3.610   0.673  17.218  0.3682 -0.0550 -0.1101
 7292SOL    HW133512   3.563   0.592  17.238  0.1391 -0.2451 -1.4255
 7292SOL    HW233513   3.656   0.678  17.302 -0.5075 -1.0358  0.4361
 7293SOL     OW33514   3.661   0.706   9.780 -0.3584 -0.6639  0.3577
 7293SOL    HW133515   3.679   0.797   9.757 -2.5616 -0.0717  0.9247
 7293SOL    HW233516   3.585   0.712   9.839  0.1798 -0.7516  1.0660
 7294SOL     OW33517   2.847   3.721   6.598 -0.6479 -0.7582 -0.1681
 7294SOL    HW133518   2.802   3.736   6.681 -2.2331  0.7552 -1.3000
 7294SOL    HW233519   2.843   3.810   6.563  0.0661 -0.1655  1.2488
 7295SOL     OW33520   2.042   2.361   9.023  0.2077  0.8576 -0.0579
 7295SOL    HW133521   2.012   2.446   8.991 -0.6439  0.8873  0.7912
 7295SOL    HW233522   1.997   2.347   9.107  1.2159 -1.6491  0.0399
 7296SOL     OW33523   3.398   4.368  15.608 -0.2201  0.4072  0.1891
 7296SOL    HW133524   3.343   4.291  15.592 -0.5988  1.0828 -1.7963
 7296SOL    HW233525   3.461   4.330  15.670 -0.0225 -1.4064 -1.1054
 7297SOL     OW33526   0.045   2.583   9.220  0.3531 -0.1278  0.0411
 7297SOL    HW133527   0.096   2.663   9.234 -0.2312 -0.4656  3.8737
 7297SOL    HW233528   4.698   2.614   9.253  1.4587  0.0805  2.6054
 7298SOL     OW33529   3.336   1.072   7.601  0.2081 -0.1378  0.1997
 7298SOL    HW133530   3.412   1.064   7.543  2.1685  0.6997  2.6012
 7298SOL    HW233531   3.343   1.158   7.641  0.2379 -0.2968  0.5398
 7299SOL     OW33532   0.679   3.922   6.855  0.0819 -0.2099 -0.4246
 7299SOL    HW133533   0.645   3.857   6.916  0.6074 -1.4723 -1.4636
 7299SOL    HW233534   0.755   3.868   6.832  0.7299  0.6042 -0.1739
 7300SOL     OW33535   4.710   4.712   2.151 -0.2357  0.2865 -0.1001
 7300SOL    HW133536   0.027   4.693   2.228  2.2865  1.0305 -1.6594
 7300SOL    HW233537   0.019   4.659   2.086  1.7533  0.1047  1.4318
 7301SOL     OW33538   3.438   3.357   6.072 -0.1628 -0.9703 -0.4783
 7301SOL    HW133539   3.368   3.329   6.131 -0.0622  0.6561  0.4122
 7301SOL    HW233540   3.428   3.452   6.084 -2.2830 -1.3739  1.0611
 7302SOL     OW33541   1.672   1.541  14.784 -0.7603 -0.3081 -0.4855
 7302SOL    HW133542   1.749   1.584  14.749 -0.6194 -0.1003  0.0834
 7302SOL    HW233543   1.600   1.599  14.759 -1.4247 -1.2188 -0.6761
 7303SOL     OW33544   1.519   0.489   7.357 -0.3241 -0.1967  0.1569
 7303SOL    HW133545   1.518   0.413   7.298  2.7053  1.0391 -1.4910
 7303SOL    HW233546   1.607   0.471   7.389 -0.2903 -2.2467 -1.0442
 7304SOL     OW33547   0.793   3.344  14.944 -0.2171  0.2876  0.8118
 7304SOL    HW133548   0.791   3.440  14.942  0.8453  0.3038  0.6092
 7304SOL    HW233549   0.727   3.321  14.879  0.6073 -0.4560  0.2460
 7305SOL     OW33550   0.933   2.482   5.647  0.2137  0.0511 -0.2576
 7305SOL    HW133551   0.998   2.553   5.648  0.5247 -0.2264 -0.5784
 7305SOL    HW233552   0.956   2.428   5.572  0.1939  1.2241 -1.1075
 7306SOL     OW33553   4.191   4.195   2.931  0.4616 -0.9592  0.0225
 7306SOL    HW133554   4.260   4.185   2.997 -1.8786  1.3857  2.8067
 7306SOL    HW233555   4.115   4.206   2.988 -0.1443  1.9631 -1.3667
 7307SOL     OW33556   3.086   0.933   7.631 -1.3933 -0.2818 -0.4954
 7307SOL    HW133557   3.162   0.990   7.621 -1.3398  0.0261  1.7047
 7307SOL    HW233558   3.098   0.872   7.703 -2.2523 -1.5076 -1.3840
 7308SOL     OW33559   4.521   1.741   1.013 -0.2247 -0.8072  0.1171
 7308SOL    HW133560   4.594   1.772   0.960 -2.2846 -1.7684 -3.2525
 7308SOL    HW233561   4.570   1.668   1.049  1.2808 -0.9122 -2.1710
 7309SOL     OW33562   0.097   0.570   9.329 -0.2956 -0.3331  0.0984
 7309SOL    HW133563   0.155   0.562   9.253 -0.3119  1.8527 -0.1311
 7309SOL    HW233564   0.134   0.650   9.364 -0.4234  0.5640 -1.7859
 7310SOL     OW33565   2.536   4.137   5.514 -0.0624  0.3340  0.0100
 7310SOL    HW133566   2.499   4.079   5.581 -4.0323  1.3601 -1.3263
 7310SOL    HW233567   2.617   4.162   5.559  0.0812 -0.8815  0.4222
 7311SOL     OW33568   2.522   4.571   2.942 -0.1950 -0.0962  0.2829
 7311SOL    HW133569   2.486   4.570   2.853 -0.3125 -1.2308  0.3438
 7311SOL    HW233570   2.450   4.527   2.986  1.6762 -1.8904  1.5076
 7312SOL     OW33571   3.256   3.082   5.048  0.4408 -0.2673  0.3631
 7312SOL    HW133572   3.191   3.038   5.102  1.0788 -0.8836  0.6436
 7312SOL    HW233573   3.194   3.145   5.012 -0.3453  0.4115  2.9066
 7313SOL     OW33574   2.408   3.300   4.088  0.1572 -0.4050 -0.3106
 7313SOL    HW133575   2.391   3.207   4.071  2.5576 -0.4987 -2.2738
 7313SOL    HW233576   2.367   3.349   4.017  0.8205 -0.9104 -1.0452
 7314SOL     OW33577   1.182   2.160   9.417 -0.0091  0.8632 -0.4188
 7314SOL    HW133578   1.149   2.249   9.430  0.0506  0.6383  1.1816
 7314SOL    HW233579   1.096   2.119   9.422  0.5211 -0.4357 -1.6891
 7315SOL     OW33580   1.640   3.208   6.853 -0.6324 -0.0021 -0.1284
 7315SOL    HW133581   1.731   3.226   6.830 -0.4496 -1.0133 -0.2075
 7315SOL    HW233582   1.651   3.169   6.939  0.0872  0.2056 -0.1253
 7316SOL     OW33583   2.356   4.066  10.634 -0.4505  0.1060 -0.1882
 7316SOL    HW133584   2.289   4.105  10.690  0.3644 -0.2244  1.0004
 7316SOL    HW233585   2.302   3.998  10.593 -1.4069  1.2280 -0.8023
 7317SOL     OW33586   1.474   0.063   6.626 -0.0793  0.1093  0.1133
 7317SOL    HW133587   1.422   0.059   6.545 -1.0339 -0.1863  0.7407
 7317SOL    HW233588   1.415   0.014   6.683 -0.5299 -0.4958 -0.8705
 7318SOL     OW33589   3.277   1.589   4.524  0.2128  0.4227  0.0700
 7318SOL    HW133590   3.221   1.603   4.447 -0.0429  0.9681  0.3528
 7318SOL    HW233591   3.307   1.679   4.539 -0.8403  0.5360  1.4312
 7319SOL     OW33592   1.968   3.514  16.855  0.7444 -0.1992 -0.0906
 7319SOL    HW133593   1.954   3.424  16.883  0.2354  0.3088  1.2493
 7319SOL    HW233594   2.021   3.554  16.924  0.7349  1.3881 -1.0000
 7320SOL     OW33595   4.724   3.585  14.160  0.1202  0.4096 -0.7667
 7320SOL    HW133596   4.644   3.562  14.208  0.8912 -0.9705 -0.1348
 7320SOL    HW233597   4.686   3.652  14.103 -0.6748  1.1278  0.6241
 7321SOL     OW33598   3.451   0.462   9.131 -0.0907  0.0894  0.0214
 7321SOL    HW133599   3.403   0.466   9.213 -0.5951  0.7750 -0.3050
 7321SOL    HW233600   3.446   0.551   9.095 -2.3277  1.3376  3.4935
 7322SOL     OW33601   2.849   2.758  14.902  0.0826 -0.4341 -0.1301
 7322SOL    HW133602   2.887   2.844  14.918 -3.1581  1.7175 -4.0270
 7322SOL    HW233603   2.831   2.730  14.991 -0.0855  1.0709  0.3002
 7323SOL     OW33604   0.544   2.176   1.313  0.1620 -0.8829  0.6036
 7323SOL    HW133605   0.463   2.150   1.270  0.6192  1.2081 -1.5788
 7323SOL    HW233606   0.607   2.148   1.247  0.6648 -1.0295  1.1463
 7324SOL     OW33607   2.113   4.279  12.669  0.7306  0.3750 -0.3216
 7324SOL    HW133608   2.206   4.280  12.688  0.6943  0.1271 -0.1308
 7324SOL    HW233609   2.106   4.216  12.597 -1.0687 -0.8832  0.9420
 7325SOL     OW33610   4.122   0.948   8.048  0.2002 -0.0528  0.1345
 7325SOL    HW133611   4.130   0.966   8.141  1.3682 -1.3938  0.2948
 7325SOL    HW233612   4.181   1.018   8.021 -2.6862  2.3528  0.1190
 7326SOL     OW33613   1.497   1.896  11.574 -0.1371 -0.3999  0.2506
 7326SOL    HW133614   1.575   1.952  11.584  0.6644 -1.3297 -0.8835
 7326SOL    HW233615   1.529   1.810  11.549 -1.5406 -1.0056  0.5617
 7327SOL     OW33616   3.368   0.617  13.132 -0.3479 -0.1301 -0.1381
 7327SOL    HW133617   3.322   0.554  13.077  1.9088 -1.3250 -0.6598
 7327SOL    HW233618   3.335   0.684  13.072 -1.1375 -0.6056 -0.2292
 7328SOL     OW33619   2.932   3.454   4.981 -0.3313 -0.0098  0.7194
 7328SOL    HW133620   2.858   3.514   4.969 -0.1886 -0.0792 -0.5397
 7328SOL    HW233621   3.001   3.500   4.933 -0.8838  0.3725  0.2862
 7329SOL     OW33622   3.050   3.385  17.391 -0.0761 -0.0851 -0.2757
 7329SOL    HW133623   3.108   3.316  17.424  0.0863 -1.1057 -2.7087
 7329SOL    HW233624   3.038   3.448  17.463  0.7324 -1.5037  1.0881
 7330SOL     OW33625   4.460   0.374   2.301 -0.4052 -0.3313  0.2534
 7330SOL    HW133626   4.445   0.299   2.359  0.6551 -0.5357  0.2742
 7330SOL    HW233627   4.387   0.371   2.240  1.0319 -1.9166 -1.3479
 7331SOL     OW33628   1.521   3.857   5.621  0.0708 -0.2793  0.0208
 7331SOL    HW133629   1.461   3.885   5.552  0.2942  2.9928  1.1544
 7331SOL    HW233630   1.504   3.763   5.615 -0.4536 -0.0940 -1.2702
 7332SOL     OW33631   1.754   2.013  11.553  0.1901  0.7668  0.0049
 7332SOL    HW133632   1.768   1.991  11.645  2.3853 -1.8427 -0.9349
 7332SOL    HW233633   1.792   2.101  11.547 -0.5422  1.1494  0.8328
 7333SOL     OW33634   3.867   3.446   6.613  0.5977 -0.2402 -0.1056
 7333SOL    HW133635   3.783   3.410   6.641 -0.0431  0.1654 -1.5459
 7333SOL    HW233636   3.857   3.432   6.519  0.1487 -0.4653 -0.0260
 7334SOL     OW33637   0.433   0.088   9.328 -0.4324  1.1109 -0.7234
 7334SOL    HW133638   0.349   0.081   9.281 -1.2706 -0.3393  0.9893
 7334SOL    HW233639   0.420   0.162   9.387 -2.4607 -0.4280  0.7605
 7335SOL     OW33640   2.598   3.849   4.583 -0.5520  0.1502  0.2477
 7335SOL    HW133641   2.589   3.908   4.658  0.7475  0.2271  0.3332
 7335SOL    HW233642   2.630   3.772   4.631  2.0412  1.1005  0.0434
 7336SOL     OW33643   1.981   4.214   3.956 -0.3624  0.0899  0.2711
 7336SOL    HW133644   2.016   4.186   3.871 -4.3487 -2.9833 -0.2971
 7336SOL    HW233645   1.888   4.223   3.939 -0.4400 -2.5926 -0.6595
 7337SOL     OW33646   3.807   0.957   1.499  0.0386 -0.5895  0.6765
 7337SOL    HW133647   3.803   0.893   1.429  0.2796  0.6564 -0.4654
 7337SOL    HW233648   3.884   1.009   1.474 -1.6984  1.0829 -1.1282
 7338SOL     OW33649   4.361   3.316   6.603 -0.1270  0.3628 -0.5606
 7338SOL    HW133650   4.373   3.374   6.528  2.7837  0.7738  0.2392
 7338SOL    HW233651   4.275   3.343   6.635 -0.7560 -0.5582 -1.4675
 7339SOL     OW33652   4.506   2.331   4.036  0.2685 -0.4430  0.0265
 7339SOL    HW133653   4.514   2.366   3.948 -0.4895  1.1467  0.5855
 7339SOL    HW233654   4.598   2.352   4.057  0.0615 -0.7927  1.3115
 7340SOL     OW33655   1.543   3.298   4.392 -0.0790 -0.0502  0.2827
 7340SOL    HW133656   1.577   3.266   4.308 -1.2284 -0.4519 -0.0358
 7340SOL    HW233657   1.592   3.252   4.459 -0.3599 -2.3609 -1.1093
 7341SOL     OW33658   3.112   1.513   7.359  0.2006  0.7610 -0.1891
 7341SOL    HW133659   3.128   1.419   7.355  2.2590  1.0337  1.7131
 7341SOL    HW233660   3.201   1.544   7.347  0.7444 -1.1966 -1.2273
 7342SOL     OW33661   2.566   1.041   8.567  0.3463 -0.1696  0.2329
 7342SOL    HW133662   2.613   0.961   8.590 -3.2078 -2.1988  0.5769
 7342SOL    HW233663   2.499   1.002   8.510  1.3206  0.4744 -1.3391
 7343SOL     OW33664   0.716   3.922  16.129 -0.1359  0.5479  0.0593
 7343SOL    HW133665   0.786   3.987  16.139 -1.1612  1.6851 -0.2105
 7343SOL    HW233666   0.758   3.850  16.176  0.3848  1.9122  1.6841
 7344SOL     OW33667   0.620   0.822  12.296 -0.1502 -0.3087  0.4132
 7344SOL    HW133668   0.572   0.756  12.246  0.8967 -0.8680  0.1557
 7344SOL    HW233669   0.551   0.888  12.303  0.6067  0.6030 -0.7350
 7345SOL     OW33670   3.015   4.281   7.653 -0.1752 -0.0664 -0.4685
 7345SOL    HW133671   2.953   4.329   7.598 -0.6360  0.7163  0.7359
 7345SOL    HW233672   3.068   4.231   7.591 -1.4108 -0.8770 -0.8710
 7346SOL     OW33673   1.761   1.400   4.007 -0.4789 -0.5604  0.4273
 7346SOL    HW133674   1.846   1.415   4.047 -0.5798  1.1727 -0.0186
 7346SOL    HW233675   1.772   1.457   3.930  2.7044  0.0528  1.3644
 7347SOL     OW33676   3.812   3.126   9.110  0.2730 -0.1385 -0.1513
 7347SOL    HW133677   3.778   3.192   9.170 -0.3668 -0.3416 -0.2942
 7347SOL    HW233678   3.846   3.073   9.182 -1.9529 -0.8693  0.3590
 7348SOL     OW33679   3.479   1.465   5.412  0.4536 -0.1344 -0.0901
 7348SOL    HW133680   3.390   1.435   5.432  0.8378 -1.8952 -1.0642
 7348SOL    HW233681   3.454   1.540   5.358  0.5800 -0.4718 -0.6173
 7349SOL     OW33682   1.277   2.129   2.417 -0.0029 -0.5852 -0.1059
 7349SOL    HW133683   1.351   2.080   2.382 -1.8042 -1.4539 -2.6747
 7349SOL    HW233684   1.204   2.067   2.417  0.2407 -0.8698 -0.0062
 7350SOL     OW33685   2.933   3.718   3.888 -0.2623  0.3663 -0.4223
 7350SOL    HW133686   2.849   3.756   3.915  0.3378  1.6576 -0.3541
 7350SOL    HW233687   2.994   3.741   3.958  0.1945  0.6225 -0.9066
 7351SOL     OW33688   4.674   1.696   3.162 -0.3518 -0.4842 -0.0105
 7351SOL    HW133689   4.691   1.788   3.182 -0.5102  0.1129 -2.6099
 7351SOL    HW233690   0.019   1.655   3.189 -0.1806  1.4822  2.5036
 7352SOL     OW33691   0.477   3.846  14.699 -0.3886  0.0498  0.2379
 7352SOL    HW133692   0.541   3.775  14.707  1.6689  2.2035  2.6341
 7352SOL    HW233693   0.513   3.902  14.767  1.0552 -1.0798  0.4214
 7353SOL     OW33694   4.549   3.095  12.910  0.5814  0.6810  0.3887
 7353SOL    HW133695   4.502   3.027  12.958 -0.8720  1.2834 -0.1893
 7353SOL    HW233696   4.628   3.042  12.897  1.0438  1.2009  1.1497
 7354SOL     OW33697   3.641   3.572  11.509 -0.1027  0.3439  0.3684
 7354SOL    HW133698   3.709   3.626  11.469  2.0591 -1.1268  2.0478
 7354SOL    HW233699   3.637   3.609  11.598  0.6601  1.0066  0.1273
 7355SOL     OW33700   2.847   4.475   2.955  0.1414 -0.2441 -0.1340
 7355SOL    HW133701   2.760   4.515   2.963  1.0077  1.6316 -0.0802
 7355SOL    HW233702   2.848   4.464   2.860  0.1061 -0.3388 -0.1234
 7356SOL     OW33703   2.576   2.423   5.053 -0.0027 -0.2356  0.4024
 7356SOL    HW133704   2.537   2.459   4.973 -0.9436 -1.7620  0.1581
 7356SOL    HW233705   2.614   2.341   5.022  0.3258 -0.7828  2.2400
 7357SOL     OW33706   4.702   3.945   3.902 -0.0160  0.1852 -0.6851
 7357SOL    HW133707   0.052   3.935   3.862  0.3204 -1.0812  0.3691
 7357SOL    HW233708   4.721   4.013   3.967 -1.2622 -0.6913  0.5924
 7358SOL     OW33709   3.389   3.282   2.944  0.1794 -0.2839 -0.1183
 7358SOL    HW133710   3.422   3.204   2.898 -1.0461 -1.1980  0.5556
 7358SOL    HW233711   3.451   3.270   3.015 -0.8397 -2.1575  0.4566
 7359SOL     OW33712   3.157   3.103   2.511  0.0811 -0.3811 -0.0807
 7359SOL    HW133713   3.144   3.116   2.417 -3.0926 -0.2601  0.3417
 7359SOL    HW233714   3.240   3.058   2.505 -0.9349 -2.1483 -0.8246
 7360SOL     OW33715   2.862   4.267   8.665 -0.1869  0.2619 -0.1314
 7360SOL    HW133716   2.948   4.288   8.629  0.0924  0.0283  0.4013
 7360SOL    HW233717   2.891   4.242   8.753 -3.3772  0.2665  0.9479
 7361SOL     OW33718   0.579   3.280   2.706  0.0813  0.0976 -0.1341
 7361SOL    HW133719   0.503   3.332   2.682  0.5243  0.7177 -0.1859
 7361SOL    HW233720   0.542   3.192   2.706 -1.2951  0.6816  0.9247
 7362SOL     OW33721   2.351   3.241   9.644  0.4376  0.1690 -0.2840
 7362SOL    HW133722   2.363   3.336   9.639  0.5711  0.1584 -0.1543
 7362SOL    HW233723   2.412   3.201   9.583  1.0897 -0.4389  0.7678
 7363SOL     OW33724   0.028   2.961   3.507 -0.9470  0.5830  0.8415
 7363SOL    HW133725   0.123   2.974   3.516 -1.0246  0.3069  2.0378
 7363SOL    HW233726   0.006   3.027   3.441  0.8251 -2.4177 -2.7378
 7364SOL     OW33727   4.395   3.543  15.005 -0.1797  0.0627  0.8357
 7364SOL    HW133728   4.333   3.600  15.051 -0.3471 -0.0962  0.8095
 7364SOL    HW233729   4.476   3.563  15.051 -1.4276  0.7462  2.7688
 7365SOL     OW33730   4.597   4.041  14.454  0.6260 -0.0859  0.0061
 7365SOL    HW133731   4.688   4.057  14.479  0.6607 -1.8968  1.0170
 7365SOL    HW233732   4.604   4.085  14.369  0.0496 -1.9519 -0.9964
 7366SOL     OW33733   0.677   2.305   2.907  0.2381  0.4941 -0.1225
 7366SOL    HW133734   0.674   2.396   2.878  1.6499  0.1449 -1.3339
 7366SOL    HW233735   0.649   2.321   2.997 -0.0639 -1.3328  0.1146
 7367SOL     OW33736   3.189   0.669   2.281 -0.0287  0.1085  0.1571
 7367SOL    HW133737   3.277   0.679   2.317 -1.6620 -1.2195  4.4805
 7367SOL    HW233738   3.177   0.576   2.304 -0.4353 -0.0636 -0.7425
 7368SOL     OW33739   2.063   3.490  12.886  0.1112 -0.3158  0.5399
 7368SOL    HW133740   2.013   3.572  12.877  0.0097 -0.5986 -1.4865
 7368SOL    HW233741   2.101   3.508  12.972 -1.8482 -0.4059  1.4218
 7369SOL     OW33742   2.316   1.738   6.897  1.0612  0.0704  0.5094
 7369SOL    HW133743   2.303   1.748   6.803  2.9850 -0.8463  0.1332
 7369SOL    HW233744   2.244   1.791   6.930  0.7035  0.9733 -1.7212
 7370SOL     OW33745   3.460   0.419  17.598  0.6497 -0.0723 -0.1156
 7370SOL    HW133746   3.528   0.466  17.646 -0.1139  1.2731 -0.3602
 7370SOL    HW233747   3.442   0.359  17.670  0.5567 -1.6171 -1.4292
 7371SOL     OW33748   4.242   2.401   7.804  0.0219  0.1997 -0.1809
 7371SOL    HW133749   4.195   2.477   7.770  0.1653  0.7129  0.7528
 7371SOL    HW233750   4.330   2.404   7.766  1.5072  1.5786  3.3636
 7372SOL     OW33751   4.365   0.835  11.943 -0.3181 -0.2336  0.0656
 7372SOL    HW133752   4.363   0.807  11.851  0.0371 -2.6339  0.7859
 7372SOL    HW233753   4.439   0.895  11.946 -0.0118 -0.5639 -0.7929
 7373SOL     OW33754   4.326   2.014  15.094  0.0275 -0.4298  0.2428
 7373SOL    HW133755   4.394   1.947  15.105 -0.0652 -0.5932 -0.1807
 7373SOL    HW233756   4.349   2.077  15.163  1.4079 -1.9528  1.1793
 7374SOL     OW33757   2.482   1.553   4.622 -0.2398  0.2420 -0.2175
 7374SOL    HW133758   2.437   1.598   4.551 -2.8495 -1.1755  0.5635
 7374SOL    HW233759   2.420   1.579   4.690  1.1118 -0.1631  1.1577
 7375SOL     OW33760   3.900   2.143   7.939  0.0487 -0.3254 -0.1899
 7375SOL    HW133761   3.874   2.088   8.013 -0.5676  0.5861  0.2748
 7375SOL    HW233762   3.904   2.225   7.988  0.7153 -1.1102  1.0571
 7376SOL     OW33763   2.946   2.672   7.199  0.0524  0.0801 -0.4416
 7376SOL    HW133764   2.906   2.642   7.281  1.0065 -1.8312 -0.6784
 7376SOL    HW233765   3.009   2.604   7.178 -0.4805 -0.1800 -1.1873
 7377SOL     OW33766   1.681   4.543   6.468 -0.3835 -0.3506  0.0124
 7377SOL    HW133767   1.691   4.452   6.496  2.3400  0.2723  1.0577
 7377SOL    HW233768   1.586   4.537   6.480 -0.2081  1.0148  2.1177
 7378SOL     OW33769   4.090   2.184  16.308  0.8377 -0.1080 -0.0345
 7378SOL    HW133770   4.079   2.153  16.398  1.0962 -1.4993 -0.4889
 7378SOL    HW233771   4.178   2.149  16.295  1.7193  1.9698  0.2671
 7379SOL     OW33772   2.709   3.320   6.135 -0.1848 -0.1652 -0.4243
 7379SOL    HW133773   2.798   3.319   6.101 -0.4388 -1.1362 -1.0796
 7379SOL    HW233774   2.682   3.408   6.108  2.2988  0.8841  0.4921
 7380SOL     OW33775   0.725   1.940   4.053 -0.1432  0.2073 -0.5992
 7380SOL    HW133776   0.685   2.027   4.058  0.9488  0.6636  0.0288
 7380SOL    HW233777   0.707   1.920   3.961 -3.3949 -0.0007  0.0965
 7381SOL     OW33778   2.001   2.597   9.929 -0.0403  0.3555 -0.1855
 7381SOL    HW133779   1.988   2.688   9.903  0.9396  0.5418 -0.0207
 7381SOL    HW233780   2.056   2.603  10.007 -0.4542  0.3417  0.1085
 7382SOL     OW33781   3.719   2.141   0.574 -0.1964  0.1189 -0.3248
 7382SOL    HW133782   3.708   2.221   0.524  0.0576  0.4177  0.1026
 7382SOL    HW233783   3.651   2.153   0.640  0.7482  1.3702  0.4092
 7383SOL     OW33784   0.382   3.333   8.862 -0.4902 -0.2927 -0.2488
 7383SOL    HW133785   0.351   3.324   8.771 -1.5558  0.9781 -0.0059
 7383SOL    HW233786   0.442   3.262   8.881 -0.9147 -0.5787  0.0319
 7384SOL     OW33787   0.909   4.618  17.716  0.1654  0.2300 -0.0568
 7384SOL    HW133788   0.845   4.655   0.032  0.8453  0.1272  0.7246
 7384SOL    HW233789   0.871   4.657  17.637  0.1622  0.7879  0.2229
 7385SOL     OW33790   4.089   1.222   8.969 -0.3762  0.8321  0.2183
 7385SOL    HW133791   4.104   1.194   9.059  1.8091  0.4580 -0.2736
 7385SOL    HW233792   4.021   1.156   8.952  0.2986  0.3233 -0.4551
 7386SOL     OW33793   3.967   1.617  14.137 -0.1348  1.0059  0.2196
 7386SOL    HW133794   4.003   1.554  14.199 -0.5898  2.1369  1.6611
 7386SOL    HW233795   3.996   1.705  14.162 -0.0973  1.5639 -1.7565
 7387SOL     OW33796   3.872   2.082  11.919  0.2000  0.2470  0.4864
 7387SOL    HW133797   3.953   2.114  11.879 -1.1886  1.6568 -1.1809
 7387SOL    HW233798   3.837   2.161  11.960  0.3219  0.6208 -0.1334
 7388SOL     OW33799   4.478   0.556  15.286 -0.0313  0.1189 -0.0376
 7388SOL    HW133800   4.459   0.581  15.377 -0.2702 -1.3657  0.3164
 7388SOL    HW233801   4.391   0.559  15.246  0.1438  2.9656 -0.2308
 7389SOL     OW33802   4.715   1.307   5.743 -0.1216 -0.2473 -0.3014
 7389SOL    HW133803   0.030   1.295   5.822  2.0909 -0.8349 -1.8217
 7389SOL    HW233804   4.625   1.315   5.774 -0.0704  0.2115 -0.2732
 7390SOL     OW33805   2.630   3.019   5.941 -0.0546  0.1346  0.6142
 7390SOL    HW133806   2.667   3.086   5.999 -1.1625  0.2356  1.1941
 7390SOL    HW233807   2.677   3.042   5.860  0.1723  2.1045  1.3058
 7391SOL     OW33808   4.548   4.603   5.262 -0.1287  0.0335  0.0687
 7391SOL    HW133809   4.604   4.681   5.262  1.3295 -0.9953  0.8173
 7391SOL    HW233810   4.524   4.613   5.170 -1.4043 -0.4620  0.3486
 7392SOL     OW33811   4.419   3.903   3.351 -0.1286 -0.4321 -0.5902
 7392SOL    HW133812   4.331   3.928   3.379 -0.2239 -0.1876 -1.0998
 7392SOL    HW233813   4.461   3.933   3.432 -1.9324  0.1331  0.1197
 7393SOL     OW33814   1.517   2.767   4.198  0.1649  0.1703 -0.6909
 7393SOL    HW133815   1.567   2.695   4.237 -0.6884  1.1331  2.1273
 7393SOL    HW233816   1.547   2.758   4.107  1.8274  1.3379 -0.2630
 7394SOL     OW33817   4.233   2.136   7.723  0.2988  0.0881 -0.0743
 7394SOL    HW133818   4.288   2.137   7.644 -0.2012  1.6786 -0.3901
 7394SOL    HW233819   4.249   2.227   7.748 -1.8471  0.8154 -1.2998
 7395SOL     OW33820   0.564   1.632  16.197  0.2199 -0.4014  0.2222
 7395SOL    HW133821   0.624   1.586  16.255 -0.8101 -2.2816 -0.2085
 7395SOL    HW233822   0.615   1.710  16.178 -1.6266  0.8988  0.6407
 7396SOL     OW33823   1.399   0.928   3.921  0.1172  0.0007  0.3117
 7396SOL    HW133824   1.400   0.834   3.901 -2.1736  0.3591 -1.4566
 7396SOL    HW233825   1.362   0.935   4.009 -1.1929  0.6489 -0.2861
 7397SOL     OW33826   3.045   2.479  12.524  0.7869 -0.3229 -0.1903
 7397SOL    HW133827   3.067   2.420  12.452 -0.3007 -1.8139  0.7033
 7397SOL    HW233828   2.977   2.535  12.485 -1.0690 -1.7283  1.0088
 7398SOL     OW33829   0.867   3.215   2.615 -0.1399 -0.4356  0.2856
 7398SOL    HW133830   0.785   3.261   2.635 -0.8772 -0.9041 -1.6256
 7398SOL    HW233831   0.913   3.217   2.698 -1.3679 -1.3607  0.9912
 7399SOL     OW33832   4.608   4.498   3.060 -0.5217 -0.1061 -0.3265
 7399SOL    HW133833   4.628   4.579   3.013 -0.1469  1.2669  2.2169
 7399SOL    HW233834   4.685   4.448   3.035 -0.8798 -0.1776 -1.2845
 7400SOL     OW33835   0.513   3.017   2.673 -0.4817 -0.0091 -0.5838
 7400SOL    HW133836   0.448   3.035   2.605 -0.3195 -0.1280 -0.7696
 7400SOL    HW233837   0.592   3.004   2.621  0.6612  1.8348  0.6819
 7401SOL     OW33838   1.448   4.699   1.178 -0.0151 -0.0454  0.3972
 7401SOL    HW133839   1.419   4.630   1.119 -0.7174 -0.1223  0.8334
 7401SOL    HW233840   1.536   4.708   1.140  0.4005  3.0630  2.0482
 7402SOL     OW33841   0.697   1.097   6.320  0.0865 -0.3140 -0.1644
 7402SOL    HW133842   0.681   1.022   6.263 -1.3596  0.6909 -1.0988
 7402SOL    HW233843   0.628   1.089   6.386 -0.0531  0.2505 -0.2445
 7403SOL     OW33844   4.391   1.167  16.854 -0.0656 -0.5606 -0.1335
 7403SOL    HW133845   4.393   1.207  16.941  2.2515 -1.4664  0.2319
 7403SOL    HW233846   4.297   1.164  16.838  0.4033  0.0840 -3.0070
 7404SOL     OW33847   0.115   4.685   7.129  0.0760  0.0926  0.8051
 7404SOL    HW133848   0.049   4.615   7.134  0.0799  0.1388  1.4417
 7404SOL    HW233849   0.163   4.666   7.048 -2.6717  0.0544 -0.8293
 7405SOL     OW33850   0.123   2.232   4.326  0.0626  0.2575  0.0320
 7405SOL    HW133851   0.170   2.165   4.376  1.8651  0.7162 -1.0464
 7405SOL    HW233852   0.088   2.170   4.261  1.0149  1.2060 -1.3824
 7406SOL     OW33853   0.209   0.421   4.378  0.1283 -0.8747  0.4226
 7406SOL    HW133854   0.190   0.434   4.285  0.4084 -1.6162  0.2607
 7406SOL    HW233855   0.220   0.326   4.383  0.8572 -0.7890  0.4568
 7407SOL     OW33856   0.524   1.104   5.625 -0.6372  0.2321 -0.0732
 7407SOL    HW133857   0.527   1.162   5.701  0.5651  0.8439 -0.5791
 7407SOL    HW233858   0.491   1.021   5.659 -1.1279  0.6321  0.4196
 7408SOL     OW33859   4.307   3.166   8.352 -0.0013 -0.7595  0.4589
 7408SOL    HW133860   4.246   3.217   8.405  0.7040  0.9338 -0.3561
 7408SOL    HW233861   4.354   3.242   8.319 -0.0335 -1.6536 -1.6870
 7409SOL     OW33862   1.977   4.067   7.513  0.5460  0.1510  0.2239
 7409SOL    HW133863   1.894   4.022   7.529  0.1432  1.3298  1.4987
 7409SOL    HW233864   1.998   4.114   7.593  0.1518 -1.6395  1.3881
 7410SOL     OW33865   0.780   1.008   0.175  0.6255  0.2497  0.6304
 7410SOL    HW133866   0.860   1.012   0.226  0.8027  0.5443  0.3304
 7410SOL    HW233867   0.719   1.021   0.247 -0.7654 -0.3675 -0.4251
 7411SOL     OW33868   0.935   0.848   3.404 -0.5295 -0.1519 -0.3139
 7411SOL    HW133869   0.891   0.841   3.488  0.2377 -0.3012  0.0759
 7411SOL    HW233870   0.865   0.822   3.344  1.2855 -2.8520 -1.2628
 7412SOL     OW33871   4.637   0.235   0.273 -0.0556  0.1358 -0.4217
 7412SOL    HW133872   4.717   0.284   0.294 -0.7786  0.1243  2.3499
 7412SOL    HW233873   4.664   0.219   0.182  0.1113  1.2838 -0.5695
 7413SOL     OW33874   0.099   2.247   9.566 -0.5258  0.1005  0.1544
 7413SOL    HW133875   0.096   2.267   9.473 -1.8273  1.6531  0.5478
 7413SOL    HW233876   0.098   2.151   9.557 -0.0996  0.1721 -0.6580
 7414SOL     OW33877   2.087   0.717   3.738  0.3055 -0.1166  0.1222
 7414SOL    HW133878   1.993   0.727   3.722  0.6068  1.0101 -0.9127
 7414SOL    HW233879   2.089   0.646   3.802  2.0880 -1.3562 -1.3319
 7415SOL     OW33880   2.407   1.664   5.452  0.2615 -0.3919  0.3825
 7415SOL    HW133881   2.394   1.729   5.520  0.4985  1.5337 -1.3972
 7415SOL    HW233882   2.317   1.642   5.425  0.4751 -1.9082  0.9222
 7416SOL     OW33883   2.436   1.360   6.918 -0.9891  0.6432  0.3456
 7416SOL    HW133884   2.448   1.293   6.986 -0.5357 -0.8472 -1.1896
 7416SOL    HW233885   2.366   1.412   6.958  0.0232  1.8032  0.5822
 7417SOL     OW33886   0.629   1.034  15.546 -0.2776  0.5166  0.0576
 7417SOL    HW133887   0.704   1.016  15.603  0.3025  2.0939 -0.2028
 7417SOL    HW233888   0.567   0.969  15.577 -0.1925 -0.5821 -2.0433
 7418SOL     OW33889   4.635   3.441  15.834  0.0928 -0.3067  0.3491
 7418SOL    HW133890   4.729   3.425  15.846  0.6427  3.7441  1.2111
 7418SOL    HW233891   4.608   3.481  15.917  0.6429 -0.2723  0.5125
 7419SOL     OW33892   3.462   2.119  10.036  0.4056 -0.3347 -0.5031
 7419SOL    HW133893   3.525   2.047  10.044 -1.1740 -1.5681  0.8083
 7419SOL    HW233894   3.524   2.191  10.020 -0.3364  0.6881  1.2231
 7420SOL     OW33895   4.135   2.195   1.904  0.2007  0.6119 -0.0104
 7420SOL    HW133896   4.062   2.183   1.843  0.4958 -1.5403  0.0810
 7420SOL    HW233897   4.121   2.284   1.937 -1.6834 -0.1656  1.2610
 7421SOL     OW33898   0.478   2.268  11.702  0.3591 -0.8066 -0.4711
 7421SOL    HW133899   0.478   2.303  11.613 -0.2634 -0.2382 -0.2535
 7421SOL    HW233900   0.390   2.230  11.706 -0.1042  0.3220  0.3369
 7422SOL     OW33901   3.045   3.613  14.132 -0.1380 -0.4934 -0.5227
 7422SOL    HW133902   2.985   3.688  14.135 -0.6196 -0.8925  0.0961
 7422SOL    HW233903   3.075   3.615  14.223 -1.0368  2.3485 -0.2616
 7423SOL     OW33904   1.416   1.229   8.158 -0.6123 -0.6532  0.3437
 7423SOL    HW133905   1.456   1.277   8.230  0.8144 -1.5416  0.1383
 7423SOL    HW233906   1.381   1.308   8.115  0.2701  0.0901  0.9816
 7424SOL     OW33907   1.821   4.422  14.314 -0.0204 -0.0078 -0.0605
 7424SOL    HW133908   1.866   4.427  14.399 -1.7329  3.8606  0.6360
 7424SOL    HW233909   1.886   4.466  14.261  1.3960 -0.2972  1.4482
 7425SOL     OW33910   3.471   1.670   7.745 -0.0686 -0.4428  0.1296
 7425SOL    HW133911   3.476   1.636   7.835 -0.4106 -2.1737 -0.5061
 7425SOL    HW233912   3.378   1.670   7.722 -0.5187 -0.5465  1.9411
 7426SOL     OW33913   2.492   1.648   3.830  0.2625 -0.0424 -0.8732
 7426SOL    HW133914   2.441   1.704   3.772 -0.7225 -1.2858 -1.2288
 7426SOL    HW233915   2.572   1.655   3.779 -0.5847  4.0013 -1.5919
 7427SOL     OW33916   1.514   3.234  16.450  0.5704 -0.2638 -0.8741
 7427SOL    HW133917   1.459   3.276  16.385  1.5475 -0.0835 -1.5753
 7427SOL    HW233918   1.461   3.167  16.493  2.1129 -0.6143  0.4789
 7428SOL     OW33919   0.422   2.489  14.329  0.4676  0.3541 -0.0437
 7428SOL    HW133920   0.399   2.502  14.237  0.4786 -2.6297 -0.4697
 7428SOL    HW233921   0.504   2.538  14.331 -0.0075  1.1582 -0.5355
 7429SOL     OW33922   4.594   0.176   3.642  0.2842  0.0961 -0.7624
 7429SOL    HW133923   4.540   0.163   3.720  0.8665 -1.8214 -0.6837
 7429SOL    HW233924   4.607   0.271   3.645 -1.8799  0.3882 -0.4186
 7430SOL     OW33925   1.011   3.422   5.126  0.4662  0.1097  0.4426
 7430SOL    HW133926   1.006   3.515   5.144  0.6952  0.1332  0.3859
 7430SOL    HW233927   1.097   3.417   5.084 -1.2278 -0.2273 -3.0678
 7431SOL     OW33928   0.902   2.995   6.862 -0.1176  0.8521 -0.3173
 7431SOL    HW133929   0.993   3.022   6.876  0.1553 -0.9095  1.3652
 7431SOL    HW233930   0.859   3.046   6.931 -2.3343 -2.5145  0.8465
 7432SOL     OW33931   0.069   1.624  11.888  0.1421  0.4903  0.1974
 7432SOL    HW133932   0.131   1.676  11.938  0.9791  0.3648 -0.7165
 7432SOL    HW233933   0.046   1.685  11.818 -1.4214  1.9274  1.9674
 7433SOL     OW33934   0.183   4.463   4.650 -0.0006  0.3147  0.5579
 7433SOL    HW133935   0.263   4.511   4.672 -1.4966  2.8757  0.4006
 7433SOL    HW233936   0.168   4.421   4.734  0.3475  0.2590  0.5922
 7434SOL     OW33937   1.189   3.959   6.838 -0.0168 -0.0842  0.5029
 7434SOL    HW133938   1.175   4.014   6.915 -1.0400 -0.8926  0.8928
 7434SOL    HW233939   1.104   3.956   6.793 -0.2517  0.2918  0.9187
 7435SOL     OW33940   3.787   4.272   3.375 -0.6343  0.2560  0.0078
 7435SOL    HW133941   3.811   4.326   3.450 -1.9680  0.3488  0.3543
 7435SOL    HW233942   3.768   4.188   3.415  0.9855 -0.7106 -1.2234
 7436SOL     OW33943   0.873   3.705   5.520 -0.7150 -0.0262  0.5225
 7436SOL    HW133944   0.834   3.773   5.575 -0.4223  1.1190 -0.6665
 7436SOL    HW233945   0.918   3.646   5.580  0.0484  0.6328  0.6031
 7437SOL     OW33946   3.356   3.818   3.132 -0.0077 -0.0089 -0.0197
 7437SOL    HW133947   3.386   3.881   3.197 -0.4799  1.0897 -0.8798
 7437SOL    HW233948   3.428   3.755   3.134  0.0333  0.0088 -1.3256
 7438SOL     OW33949   1.151   3.178  17.685  0.1019 -0.0114  0.2065
 7438SOL    HW133950   1.067   3.132  17.695 -0.3770  0.6924 -0.4785
 7438SOL    HW233951   1.146   3.220   0.026  4.2462 -0.0849  0.4708
 7439SOL     OW33952   3.248   4.638   8.672 -0.3075 -0.4839 -0.0124
 7439SOL    HW133953   3.155   4.620   8.664 -0.5127  1.7917 -2.7330
 7439SOL    HW233954   3.239   4.710   8.735  0.0531  0.0755 -0.5961
 7440SOL     OW33955   2.341   0.312   8.837 -0.0007 -0.2547 -0.1231
 7440SOL    HW133956   2.397   0.353   8.771  0.4916  1.7850  1.5372
 7440SOL    HW233957   2.387   0.233   8.863 -0.8372  0.0685  2.3322
 7441SOL     OW33958   0.606   3.317  14.749 -0.1252 -0.8866 -0.5839
 7441SOL    HW133959   0.607   3.356  14.662  0.4229  2.0575  0.7543
 7441SOL    HW233960   0.519   3.339  14.781 -0.4222  0.2042 -2.2056
 7442SOL     OW33961   4.734   0.807   4.705  0.3623  0.4841  0.0120
 7442SOL    HW133962   0.012   0.901   4.694  1.1117  0.7385  3.3219
 7442SOL    HW233963   4.643   0.796   4.677  0.0149  0.5858  1.1335
 7443SOL     OW33964   4.597   4.414   4.663 -0.5313  0.0619 -0.4606
 7443SOL    HW133965   4.649   4.495   4.658 -0.0866 -0.3145 -2.0665
 7443SOL    HW233966   4.522   4.432   4.607  0.5807 -0.7629 -2.2333
 7444SOL     OW33967   3.858   2.900   7.467 -0.5943 -0.0274 -0.5022
 7444SOL    HW133968   3.826   2.922   7.554  0.2449 -1.5237  0.1848
 7444SOL    HW233969   3.891   2.986   7.440 -0.4439 -0.1727 -0.7840
 7445SOL     OW33970   0.788   0.104   3.054 -0.2565 -0.3698  0.1820
 7445SOL    HW133971   0.704   0.129   3.016  0.0022  1.5093  0.8420
 7445SOL    HW233972   0.794   0.020   3.007 -2.7686 -0.3176 -0.2245
 7446SOL     OW33973   0.922   3.042  17.654  0.0071 -0.2955 -0.4925
 7446SOL    HW133974   0.901   2.991  17.575  0.2876  0.3135 -0.9551
 7446SOL    HW233975   0.872   3.121  17.636  0.5775 -0.0652 -1.0395
 7447SOL     OW33976   0.191   2.554   1.287 -0.0843 -0.1329 -0.6694
 7447SOL    HW133977   0.125   2.604   1.238  1.6101  1.5664 -1.2108
 7447SOL    HW233978   0.140   2.515   1.358  0.1402  0.6145 -0.0917
 7448SOL     OW33979   4.541   3.121   1.329 -0.5400 -0.1402 -0.1910
 7448SOL    HW133980   4.579   3.130   1.416  0.6431 -0.9302 -0.6307
 7448SOL    HW233981   4.448   3.127   1.352 -0.9992  1.5948 -2.4985
 7449SOL     OW33982   1.872   0.117   3.258  0.2449 -0.0431  0.0755
 7449SOL    HW133983   1.780   0.138   3.245  0.0638  0.4555  2.0428
 7449SOL    HW233984   1.869   0.027   3.289 -1.2281 -0.0889 -0.2102
 7450SOL     OW33985   1.435   3.828  12.808  0.2491 -0.0385 -0.6842
 7450SOL    HW133986   1.391   3.760  12.757 -0.9620 -0.0209  0.3476
 7450SOL    HW233987   1.449   3.905  12.751  2.1801 -0.0082 -0.1725
 7451SOL     OW33988   0.691   1.062   4.069 -0.2875  0.1315  0.1426
 7451SOL    HW133989   0.599   1.038   4.058 -0.1213 -0.3507 -0.1803
 7451SOL    HW233990   0.739   1.017   3.999  2.9069  2.9878  0.4708
 7452SOL     OW33991   2.794   3.730   0.878  0.0928 -0.1798 -0.0548
 7452SOL    HW133992   2.820   3.761   0.792  3.0068 -0.0490  0.8706
 7452SOL    HW233993   2.713   3.777   0.897  1.9811  2.9995  0.1390
 7453SOL     OW33994   2.430   2.255  15.458 -0.5285  0.1184  0.3253
 7453SOL    HW133995   2.505   2.270  15.516  0.0142 -1.2638 -0.0123
 7453SOL    HW233996   2.449   2.174  15.409 -0.6142  1.1474 -1.4360
 7454SOL     OW33997   3.067   2.719   2.472 -0.0389  0.3136 -0.7538
 7454SOL    HW133998   3.080   2.812   2.452 -1.8110  0.4030 -1.5311
 7454SOL    HW233999   3.012   2.693   2.398  1.2021  2.6278 -2.5125
 7455SOL     OW34000   0.329   4.548   2.368  0.7881 -0.2226  0.0416
 7455SOL    HW134001   0.246   4.596   2.367 -0.1649 -1.8860 -0.2662
 7455SOL    HW234002   0.303   4.457   2.355 -2.2709  0.6570 -0.0071
 7456SOL     OW34003   3.801   1.488   7.452 -0.6777  0.5431  0.4146
 7456SOL    HW134004   3.774   1.406   7.410  1.2552 -0.6194  1.4565
 7456SOL    HW234005   3.723   1.510   7.503 -0.5703 -0.2521  0.9206
 7457SOL     OW34006   0.126   1.784  17.050 -0.0426  0.2872 -0.2666
 7457SOL    HW134007   0.119   1.778  16.955  1.8273  1.0614 -0.4630
 7457SOL    HW234008   0.079   1.704  17.074 -1.6825  0.9662 -1.1866
 7458SOL     OW34009   3.574   2.519   9.214 -0.6776 -0.3542 -0.1164
 7458SOL    HW134010   3.658   2.543   9.253  0.1460 -1.2702 -1.3251
 7458SOL    HW234011   3.511   2.505   9.285 -1.1695 -0.9060 -0.6623
 7459SOL     OW34012   3.147   4.415   5.134  0.3958  0.5243  0.1174
 7459SOL    HW134013   3.063   4.408   5.179  1.5241  0.9774  2.3263
 7459SOL    HW234014   3.164   4.509   5.137  0.7933  0.4316  0.9567
 7460SOL     OW34015   1.545   4.115   4.040  0.2561 -0.4977 -0.0859
 7460SOL    HW134016   1.490   4.164   3.978 -0.0301 -0.1928  0.4040
 7460SOL    HW234017   1.612   4.182   4.052 -0.5467  0.4300 -0.7395
 7461SOL     OW34018   4.226   1.469   0.381  0.3801  0.6625  0.2830
 7461SOL    HW134019   4.253   1.538   0.442 -1.1746  1.6692 -0.1616
 7461SOL    HW234020   4.287   1.399   0.404 -1.6489 -1.8418 -1.9084
 7462SOL     OW34021   1.481   2.154   8.936  0.7886 -0.0010 -0.1859
 7462SOL    HW134022   1.524   2.207   8.869  1.6672 -1.8680 -1.1031
 7462SOL    HW234023   1.531   2.072   8.931 -0.6282 -0.8250 -0.9031
 7463SOL     OW34024   4.498   1.144   6.470 -0.1064  0.4668 -0.1332
 7463SOL    HW134025   4.481   1.050   6.472  2.0308  0.1435  2.7532
 7463SOL    HW234026   4.539   1.155   6.556 -1.9637  1.2257  0.6581
 7464SOL     OW34027   4.221   1.985   1.550  0.3854 -0.1886  0.2465
 7464SOL    HW134028   4.194   1.980   1.459 -1.2822 -0.4479  0.7663
 7464SOL    HW234029   4.317   1.993   1.544  0.2432  2.1768  1.1146
 7465SOL     OW34030   2.682   2.595   1.309  0.2693  0.0587 -0.4342
 7465SOL    HW134031   2.700   2.540   1.233  0.2233 -0.1685 -0.2805
 7465SOL    HW234032   2.727   2.551   1.381 -0.1762  3.5542  1.9657
 7466SOL     OW34033   2.276   4.575   4.770  1.1711  0.0258 -0.1995
 7466SOL    HW134034   2.236   4.519   4.703  2.8024 -0.2142 -0.9892
 7466SOL    HW234035   2.294   4.652   4.717 -0.4579  0.5283 -0.0093
 7467SOL     OW34036   1.085   0.695   4.355 -0.2017 -0.3896 -0.2023
 7467SOL    HW134037   1.055   0.751   4.426  0.5392  0.0105 -0.2078
 7467SOL    HW234038   1.172   0.675   4.389  0.9556  1.4225 -2.1545
 7468SOL     OW34039   2.852   3.963   6.499  0.3756  0.0119  0.0572
 7468SOL    HW134040   2.925   3.987   6.556 -0.6074  1.4719  0.6951
 7468SOL    HW234041   2.898   3.956   6.415  1.2671  2.8215  0.3119
 7469SOL     OW34042   3.635   3.719   6.682  0.0027 -0.4771 -0.1059
 7469SOL    HW134043   3.542   3.701   6.669 -0.0558 -0.1245 -0.1956
 7469SOL    HW234044   3.631   3.814   6.665  1.6602 -0.0851  1.6848
 7470SOL     OW34045   4.259   2.290   7.290 -0.0661  0.2456  0.1584
 7470SOL    HW134046   4.243   2.204   7.326  1.3229  0.0971  0.4468
 7470SOL    HW234047   4.273   2.336   7.373 -0.3437 -0.2129  0.4538
 7471SOL     OW34048   2.287   1.825   4.528 -0.0254 -0.0910 -0.0501
 7471SOL    HW134049   2.262   1.914   4.503 -1.7920 -0.9015 -1.2011
 7471SOL    HW234050   2.273   1.829   4.623  1.6770 -0.0500  0.1931
 7472SOL     OW34051   4.540   3.415   4.811  0.6269 -0.2844  0.2172
 7472SOL    HW134052   4.571   3.327   4.832 -1.7158 -0.4873  2.7462
 7472SOL    HW234053   4.536   3.415   4.716 -2.9781 -2.9258  0.4050
 7473SOL     OW34054   3.679   3.592   3.372 -0.3582  0.1093 -0.7491
 7473SOL    HW134055   3.773   3.574   3.365 -0.4893 -0.9574  0.2124
 7473SOL    HW234056   3.663   3.616   3.280  2.0986 -1.7923 -1.6655
 7474SOL     OW34057   3.108   3.799   6.915  0.0591  0.2157 -0.4425
 7474SOL    HW134058   3.126   3.718   6.962 -0.3918  0.4487  0.1310
 7474SOL    HW234059   3.188   3.852   6.921 -0.1668  0.5083 -0.0123
 7475SOL     OW34060   1.608   3.743  13.007 -0.4028  0.3304 -0.3895
 7475SOL    HW134061   1.577   3.772  12.921 -1.8305  1.4912  0.5361
 7475SOL    HW234062   1.535   3.688  13.034  1.0450 -0.3254  2.2001
 7476SOL     OW34063   3.358   3.377   3.722  0.2904  0.3118 -0.2622
 7476SOL    HW134064   3.293   3.409   3.659 -0.5202 -0.1783  0.3248
 7476SOL    HW234065   3.438   3.393   3.672  0.0563  1.1370 -0.3733
 7477SOL     OW34066   4.311   0.843   3.072 -0.2025  0.0792  0.2513
 7477SOL    HW134067   4.260   0.906   3.124  0.4537  0.8823 -0.0682
 7477SOL    HW234068   4.257   0.765   3.074 -2.2141  1.4871  0.4640
 7478SOL     OW34069   4.428   3.318  12.130 -0.6573  0.4164 -0.5235
 7478SOL    HW134070   4.449   3.334  12.038 -2.7712  1.4453 -0.8197
 7478SOL    HW234071   4.362   3.386  12.140 -0.3469  1.0395 -2.7656
 7479SOL     OW34072   4.447   1.014   1.718  0.2784  0.3377 -0.1644
 7479SOL    HW134073   4.523   0.964   1.750 -1.8221 -2.4520  0.4187
 7479SOL    HW234074   4.380   0.972   1.772 -0.1369  0.4439 -0.5990
 7480SOL     OW34075   0.943   1.353   3.308  0.7575  0.3137 -1.1368
 7480SOL    HW134076   0.861   1.377   3.264 -1.3831 -1.2664  1.9240
 7480SOL    HW234077   0.998   1.326   3.235 -0.4129 -1.0432 -1.5116
 7481SOL     OW34078   0.546   1.644  14.871 -0.3459 -0.0914 -0.6531
 7481SOL    HW134079   0.600   1.565  14.866  0.5758  0.5378 -0.6355
 7481SOL    HW234080   0.457   1.608  14.865 -1.1174  1.8978 -1.2079
 7482SOL     OW34081   2.368   0.384   3.779  0.0919  0.0370 -0.4149
 7482SOL    HW134082   2.297   0.400   3.717  2.0655 -1.4050 -3.0290
 7482SOL    HW234083   2.412   0.313   3.733  1.7684  0.6723  0.2020
 7483SOL     OW34084   0.761   3.769  14.693  0.1926 -0.5217 -0.6330
 7483SOL    HW134085   0.806   3.842  14.735 -0.0808 -0.0516 -1.1604
 7483SOL    HW234086   0.744   3.798  14.604 -0.8171 -1.4249 -0.7307
 7484SOL     OW34087   2.595   0.282   1.860  0.0057  0.4395  0.4608
 7484SOL    HW134088   2.614   0.369   1.895 -0.6138  0.3922  0.9075
 7484SOL    HW234089   2.500   0.289   1.853 -0.0796 -0.9730  0.1938
 7485SOL     OW34090   1.679   2.550   8.664  0.3709  0.0523  0.3568
 7485SOL    HW134091   1.698   2.626   8.719 -1.0794  1.8782 -1.7052
 7485SOL    HW234092   1.763   2.547   8.618 -0.4695 -0.6353 -1.1126
 7486SOL     OW34093   4.548   4.545   7.679  0.0681  0.1441 -0.1839
 7486SOL    HW134094   4.467   4.545   7.730  1.2261 -0.7733  1.6598
 7486SOL    HW234095   4.561   4.639   7.667 -1.3259  0.0547 -2.4397
 7487SOL     OW34096   4.115   3.146   1.720  0.1748 -0.1925  0.1494
 7487SOL    HW134097   4.117   3.210   1.649 -1.7471  0.2428  0.4888
 7487SOL    HW234098   4.023   3.120   1.723 -0.1019  0.7456 -0.1920
 7488SOL     OW34099   0.130   3.167   5.937  0.6264  0.0822  0.5433
 7488SOL    HW134100   0.084   3.194   6.017  2.2379  0.5167  1.3222
 7488SOL    HW234101   0.073   3.187   5.863 -0.5059 -2.2013  0.7865
 7489SOL     OW34102   1.673   2.514   4.838 -0.2295 -0.8878 -0.4146
 7489SOL    HW134103   1.615   2.455   4.790 -0.0185 -0.2027 -1.5064
 7489SOL    HW234104   1.615   2.581   4.876 -1.2939 -0.7570 -2.2572
 7490SOL     OW34105   3.439   0.478  17.353  0.1653  0.2964 -0.3659
 7490SOL    HW134106   3.452   0.394  17.309  1.2340  1.0385 -1.4600
 7490SOL    HW234107   3.432   0.453  17.445 -1.1943  1.2812 -0.2119
 7491SOL     OW34108   1.418   2.910   6.678 -0.3395  0.6441 -0.4805
 7491SOL    HW134109   1.355   2.865   6.621 -0.7613 -2.7399  2.7162
 7491SOL    HW234110   1.374   2.911   6.762  0.5543 -0.4795 -0.0018
 7492SOL     OW34111   4.173   2.770   8.236 -0.2969  0.2372 -0.5144
 7492SOL    HW134112   4.257   2.739   8.268 -0.9957 -1.6572 -0.5050
 7492SOL    HW234113   4.166   2.855   8.280 -0.4805 -0.6501  1.1910
 7493SOL     OW34114   3.294   3.436   7.361 -0.1866  0.5585  0.0910
 7493SOL    HW134115   3.329   3.349   7.340  2.2468  1.4138  0.6135
 7493SOL    HW234116   3.212   3.419   7.406 -0.7987  0.7162 -0.9733
 7494SOL     OW34117   1.432   1.227   3.852 -0.8191 -0.4206  0.5605
 7494SOL    HW134118   1.422   1.141   3.893 -0.3048  0.3225  2.2380
 7494SOL    HW234119   1.464   1.268   3.932 -1.4943 -1.6498  1.4654
 7495SOL     OW34120   3.608   3.023   7.071  0.5443  0.2949  0.5821
 7495SOL    HW134121   3.521   2.984   7.058 -0.4601  1.2749  4.5575
 7495SOL    HW234122   3.648   2.992   6.989  1.2842 -0.4352  1.2219
 7496SOL     OW34123   0.423   3.434  11.710 -0.4079 -0.0394 -0.5332
 7496SOL    HW134124   0.358   3.376  11.750  0.5585 -1.1018 -0.4876
 7496SOL    HW234125   0.369   3.509  11.687 -0.5569  0.3995  1.2935
 7497SOL     OW34126   0.395   3.467   2.628 -0.5153 -0.8041 -0.2312
 7497SOL    HW134127   0.303   3.489   2.638 -0.0126  1.6385 -0.8005
 7497SOL    HW234128   0.431   3.539   2.575 -1.2060 -0.7017 -0.5628
 7498SOL     OW34129   1.879   1.995   6.243  0.4361 -0.5721 -0.1989
 7498SOL    HW134130   1.859   2.051   6.169 -2.7181  0.2639  1.2986
 7498SOL    HW234131   1.803   1.937   6.246  0.4075 -0.6158 -1.7418
 7499SOL     OW34132   0.559   0.732   6.455  0.1359  0.0569  0.1800
 7499SOL    HW134133   0.648   0.733   6.490 -0.1030  0.5821  0.7710
 7499SOL    HW234134   0.519   0.650   6.484 -2.2678  1.5709  1.0652
 7500SOL     OW34135   4.674   2.293   7.029  0.3994 -0.6630 -0.4592
 7500SOL    HW134136   0.006   2.354   7.001  0.6334 -0.0077  1.5904
 7500SOL    HW234137   4.620   2.347   7.086  0.2644 -0.6244 -0.6246
 7501SOL     OW34138   1.884   0.910   2.265  0.2009  0.6369  0.0202
 7501SOL    HW134139   1.879   0.999   2.231 -0.5194  0.4164 -0.4716
 7501SOL    HW234140   1.957   0.939   2.320  1.3401  0.2181 -1.2723
 7502SOL     OW34141   3.337   3.829  12.630  0.4792  0.5638  0.0043
 7502SOL    HW134142   3.274   3.855  12.563  0.4930 -1.2382 -0.7265
 7502SOL    HW234143   3.303   3.748  12.669 -0.9210  1.7126  1.1992
 7503SOL     OW34144   3.323   1.186   4.548  0.0492  0.0961  0.3036
 7503SOL    HW134145   3.382   1.118   4.579 -0.6215 -0.5915  0.0807
 7503SOL    HW234146   3.271   1.132   4.488  1.6155 -0.7957 -0.2568
 7504SOL     OW34147   1.518   2.271   0.454  0.4711 -0.5382  0.2335
 7504SOL    HW134148   1.516   2.256   0.360  1.4551  3.6525 -0.4696
 7504SOL    HW234149   1.440   2.226   0.487 -1.6617  3.0275  0.1128
 7505SOL     OW34150   4.049   2.532   2.542 -0.5075 -0.1074 -0.1867
 7505SOL    HW134151   4.070   2.574   2.625  0.7287  2.6113 -1.8975
 7505SOL    HW234152   4.121   2.469   2.530  0.7686  1.4356 -0.6318
 7506SOL     OW34153   0.728   1.939  11.826 -0.7302  0.9069  0.1675
 7506SOL    HW134154   0.730   1.994  11.904  0.7059 -0.1371  0.8813
 7506SOL    HW234155   0.639   1.945  11.793 -0.2380 -0.7297 -1.4860
 7507SOL     OW34156   2.713   1.382   2.714 -0.0086 -0.0926  0.2740
 7507SOL    HW134157   2.733   1.349   2.802 -2.1219  1.7361  1.4488
 7507SOL    HW234158   2.768   1.458   2.699 -0.1285  0.1091  0.8624
 7508SOL     OW34159   3.853   2.316  11.092 -0.2909  0.2586  0.1033
 7508SOL    HW134160   3.818   2.358  11.170  1.1191  1.1881  0.2366
 7508SOL    HW234161   3.891   2.394  11.052  0.2188 -0.4852 -0.8775
 7509SOL     OW34162   4.706   0.853  13.003  0.3965 -0.0512 -0.3304
 7509SOL    HW134163   4.644   0.920  13.033  0.0433 -0.6634  0.3006
 7509SOL    HW234164   0.036   0.867  13.070 -0.2693 -0.1376  0.3486
 7510SOL     OW34165   2.492   3.319   8.533  0.1544  0.6148  0.2749
 7510SOL    HW134166   2.500   3.409   8.566 -1.0351  1.1505 -0.9233
 7510SOL    HW234167   2.445   3.345   8.454 -2.0988  0.6461  1.6438
 7511SOL     OW34168   3.245   3.026  15.275 -0.5403  0.1808 -0.2420
 7511SOL    HW134169   3.335   3.004  15.298 -0.7142 -1.6977 -1.3073
 7511SOL    HW234170   3.197   3.006  15.355  0.1361 -1.7137 -0.3101
 7512SOL     OW34171   4.007   3.833   3.306  0.1282  0.1096  0.0467
 7512SOL    HW134172   3.982   3.744   3.331  0.5698 -0.0376 -0.0405
 7512SOL    HW234173   4.041   3.820   3.217 -1.1607  0.5437 -0.5071
 7513SOL     OW34174   4.037   4.171   0.416  0.1806  0.1208  0.8249
 7513SOL    HW134175   4.090   4.132   0.486  0.1710 -2.4227 -0.5966
 7513SOL    HW234176   3.945   4.162   0.439 -0.2495 -1.1287 -1.3718
 7514SOL     OW34177   3.567   4.357   2.517  0.0682  0.4462 -0.3849
 7514SOL    HW134178   3.620   4.411   2.576  0.8756  0.3751 -1.0521
 7514SOL    HW234179   3.560   4.418   2.444 -2.1972 -0.5138 -0.9796
 7515SOL     OW34180   1.768   2.171   5.631  0.9304  0.5563  0.5537
 7515SOL    HW134181   1.736   2.127   5.552  2.1931 -0.3229  0.5254
 7515SOL    HW234182   1.694   2.148   5.686  0.1520  1.3412 -0.1656
 7516SOL     OW34183   3.699   0.019   4.845  0.0399  0.1027 -0.1062
 7516SOL    HW134184   3.674   4.721   4.759 -0.6301  1.5454 -0.4784
 7516SOL    HW234185   3.616   0.036   4.888  0.7811  1.3287  0.8196
 7517SOL     OW34186   2.386   3.576   6.688  0.3283 -0.0512 -0.0772
 7517SOL    HW134187   2.444   3.504   6.665  0.1410  0.5370 -2.4356
 7517SOL    HW234188   2.418   3.609   6.772 -1.4485  0.7310  0.3026
 7518SOL     OW34189   0.284   1.686   9.511 -0.0822  0.1960  0.1836
 7518SOL    HW134190   0.309   1.763   9.563 -0.8344  0.7974 -0.3424
 7518SOL    HW234191   0.292   1.615   9.575 -1.2055 -2.1962 -2.3426
 7519SOL     OW34192   3.815   1.259  12.852  0.5305  0.8062  0.1573
 7519SOL    HW134193   3.897   1.260  12.903 -0.2678  0.0167  1.4619
 7519SOL    HW234194   3.750   1.211  12.903  1.0085 -0.5647 -0.5161
 7520SOL     OW34195   3.440   0.757   9.293  0.2786  0.1552  0.1270
 7520SOL    HW134196   3.500   0.728   9.362  0.5616  1.9332  0.6111
 7520SOL    HW234197   3.468   0.848   9.282  0.0392  0.1103 -0.8317
 7521SOL     OW34198   0.800   4.675   7.260  0.3173 -0.1464 -0.0515
 7521SOL    HW134199   0.829   4.717   7.179 -2.2179  1.4384 -0.1703
 7521SOL    HW234200   0.865   4.613   7.291 -0.1184 -0.7958 -0.4350
 7522SOL     OW34201   0.018   1.421   8.814 -0.2699 -0.4965 -0.0231
 7522SOL    HW134202   4.663   1.403   8.837 -0.6892  0.6191 -0.8677
 7522SOL    HW234203   0.014   1.516   8.808 -0.6299 -0.4865  0.3721
 7523SOL     OW34204   1.639   0.234   4.643 -0.0369 -0.2400 -0.4047
 7523SOL    HW134205   1.605   0.277   4.722  1.6036 -0.3025  0.3282
 7523SOL    HW234206   1.720   0.281   4.627 -0.3914  0.3885 -0.3684
 7524SOL     OW34207   1.474   3.932  14.153 -0.5257  0.0410  0.2760
 7524SOL    HW134208   1.445   3.918  14.062 -0.0267 -2.3797  0.4850
 7524SOL    HW234209   1.391   3.929  14.201 -0.3330  0.3332  0.6195
 7525SOL     OW34210   0.068   0.333   0.572 -0.0813  0.1143 -0.5976
 7525SOL    HW134211   0.064   0.389   0.494  0.6587  0.8950 -0.0795
 7525SOL    HW234212   0.020   0.387   0.634 -0.0333  0.6158 -0.9962
 7526SOL     OW34213   0.496   4.107  16.753  0.2569 -0.4142  0.1953
 7526SOL    HW134214   0.455   4.169  16.813 -1.5857 -0.2136 -1.2794
 7526SOL    HW234215   0.464   4.028  16.797 -1.6737 -0.6218 -1.5719
 7527SOL     OW34216   4.733   0.229  15.861 -0.3254 -0.2596 -0.3786
 7527SOL    HW134217   0.040   0.288  15.799 -2.3020  1.5027 -0.0754
 7527SOL    HW234218   0.058   0.221  15.935 -0.9816  1.2530  0.3264
 7528SOL     OW34219   0.202   2.948  11.308  0.4216 -0.0722 -0.1416
 7528SOL    HW134220   0.286   2.988  11.288  0.9948 -0.7567  0.8796
 7528SOL    HW234221   0.239   2.864  11.334 -0.2139 -0.3083  0.0143
 7529SOL     OW34222   0.032   4.660   6.635  0.6028 -0.6476  0.3251
 7529SOL    HW134223   0.100   4.723   6.660  0.8001 -0.4786 -0.6502
 7529SOL    HW234224   4.725   4.642   6.718 -1.9729  0.0001 -0.9159
 7530SOL     OW34225   0.050   3.791  17.452  0.1652 -0.6298  0.0528
 7530SOL    HW134226   0.084   3.792  17.362 -0.8225  0.7535 -0.2958
 7530SOL    HW234227   0.103   3.868  17.472  0.3348 -0.9677  0.9363
 7531SOL     OW34228   2.505   2.150   9.562 -0.0603  0.0285 -0.4753
 7531SOL    HW134229   2.527   2.081   9.501 -1.8253  1.1581 -2.3895
 7531SOL    HW234230   2.546   2.109   9.638 -1.0991  2.0194  1.1704
 7532SOL     OW34231   1.938   4.371   7.238 -0.1592  0.3880  0.6478
 7532SOL    HW134232   2.017   4.383   7.185 -0.2300 -2.7811 -0.1441
 7532SOL    HW234233   1.964   4.406   7.323  0.7187 -0.4974  0.7512
 7533SOL     OW34234   2.701   2.502   7.789 -0.1018  0.7015  0.1568
 7533SOL    HW134235   2.753   2.448   7.728 -0.0814  0.7128  0.1641
 7533SOL    HW234236   2.667   2.557   7.718  0.1212 -0.6221 -0.9821
 7534SOL     OW34237   3.415   0.093   7.210  0.9924  0.1523  0.2838
 7534SOL    HW134238   3.375   0.053   7.133  2.7418  0.1288 -0.6123
 7534SOL    HW234239   3.503   0.060   7.193  0.9026 -0.0007  0.1138
 7535SOL     OW34240   3.806   0.857   3.510 -0.2112  1.0783 -0.4841
 7535SOL    HW134241   3.828   0.799   3.583  1.0830  1.3175 -0.6828
 7535SOL    HW234242   3.801   0.936   3.564 -0.7221  0.4904  0.3287
 7536SOL     OW34243   2.568   2.917   8.801  0.0278  0.1972  0.3210
 7536SOL    HW134244   2.581   2.996   8.748  0.2173 -0.8622 -1.2284
 7536SOL    HW234245   2.506   2.953   8.864  0.6874  0.0409  1.0695
 7537SOL     OW34246   2.604   3.333   7.501 -0.5516 -0.2042 -0.1083
 7537SOL    HW134247   2.588   3.415   7.546 -3.6658 -0.7558 -0.2278
 7537SOL    HW234248   2.561   3.354   7.418 -1.3946 -2.1187 -0.1738
 7538SOL     OW34249   3.085   0.096   3.929 -0.4054 -0.4525 -0.2559
 7538SOL    HW134250   3.051   0.072   3.843 -1.5251 -1.3735  0.4401
 7538SOL    HW234251   3.008   0.113   3.984  0.4775  2.0875  0.1551
 7539SOL     OW34252   1.266   3.946  11.828  0.0867  0.5934  0.2523
 7539SOL    HW134253   1.193   4.009  11.829 -0.6897 -0.3038  0.3118
 7539SOL    HW234254   1.215   3.869  11.854  0.6237  0.3697  0.6380
 7540SOL     OW34255   3.537   1.730   4.312  0.1082 -0.4932  0.1733
 7540SOL    HW134256   3.542   1.743   4.217 -0.8505 -2.5920 -0.1633
 7540SOL    HW234257   3.506   1.640   4.313 -0.8140 -0.1716  0.7212
 7541SOL     OW34258   3.918   4.184  13.118 -0.0136  0.0529  0.3277
 7541SOL    HW134259   3.925   4.255  13.055 -0.1233 -1.2543 -1.1418
 7541SOL    HW234260   3.997   4.133  13.103 -1.1727 -1.6464 -0.0748
 7542SOL     OW34261   4.564   0.248   8.847 -0.2961 -0.0413 -0.0019
 7542SOL    HW134262   4.522   0.260   8.932 -1.7909  0.8688 -0.8700
 7542SOL    HW234263   4.560   0.336   8.808 -1.8310  0.4331  1.2396
 7543SOL     OW34264   0.027   0.096   8.701 -0.0458  0.1631 -0.2232
 7543SOL    HW134265   0.108   0.127   8.742 -1.4899  2.0424  1.2195
 7543SOL    HW234266   4.702   0.144   8.757  0.1368 -0.6611  0.6995
 7544SOL     OW34267   2.122   4.357   6.255 -0.3747 -0.1751 -0.6471
 7544SOL    HW134268   2.209   4.329   6.284  0.6689  0.4750 -3.1216
 7544SOL    HW234269   2.142   4.405   6.174 -2.2972 -1.3527 -1.8199
 7545SOL     OW34270   0.430   0.922  15.759  0.3503  0.8169 -1.2230
 7545SOL    HW134271   0.348   0.964  15.783  0.3487 -0.1601  0.5224
 7545SOL    HW234272   0.401   0.872  15.683  3.6272 -1.1917 -1.1869
 7546SOL     OW34273   4.078   3.629   0.972  0.4872  0.2303  0.3734
 7546SOL    HW134274   4.023   3.692   0.927 -0.5614 -0.2338  0.9977
 7546SOL    HW234275   4.124   3.684   1.036 -0.5000 -1.1376  2.2842
 7547SOL     OW34276   3.218   4.589   1.132  0.1537 -0.0068 -0.2240
 7547SOL    HW134277   3.159   4.661   1.109  0.3603  0.6778  1.4048
 7547SOL    HW234278   3.164   4.521   1.091 -2.6906  2.0556  0.1435
 7548SOL     OW34279   1.232   4.566  12.055 -0.1737  0.5233 -0.7354
 7548SOL    HW134280   1.179   4.490  12.031 -0.5950  1.0709 -1.5408
 7548SOL    HW234281   1.197   4.589  12.141  0.7636 -0.9043  0.0190
 7549SOL     OW34282   2.068   3.076   0.605  0.4880 -0.0566 -0.1800
 7549SOL    HW134283   2.097   3.020   0.533 -1.4477 -0.7677 -0.4086
 7549SOL    HW234284   1.987   3.105   0.564  1.7334  2.1580 -1.0507
 7550SOL     OW34285   4.413   1.638   8.212  0.1375 -0.1608  0.0204
 7550SOL    HW134286   4.476   1.662   8.279 -0.7977 -2.0106  1.5229
 7550SOL    HW234287   4.454   1.663   8.129  1.3087  1.4294  1.0717
 7551SOL     OW34288   0.262   2.927   5.944 -0.7221  0.4959 -0.2965
 7551SOL    HW134289   0.355   2.933   5.926 -0.5001  0.3542  0.8070
 7551SOL    HW234290   0.233   3.017   5.962  1.0760  1.0634 -0.2398
 7552SOL     OW34291   1.657   0.417   8.068 -0.4326 -0.2688  0.5780
 7552SOL    HW134292   1.665   0.347   8.133  0.2516  3.0577  4.0625
 7552SOL    HW234293   1.571   0.406   8.028 -0.0205 -1.4192  0.0009
 7553SOL     OW34294   2.569   0.954   7.012  0.5540 -0.1002  0.4913
 7553SOL    HW134295   2.632   1.002   6.959  0.3501 -2.6092 -2.0569
 7553SOL    HW234296   2.628   0.923   7.081 -0.7339  0.3292  1.7616
 7554SOL     OW34297   3.530   0.682   4.097 -0.2851 -0.3437 -0.5489
 7554SOL    HW134298   3.526   0.766   4.142 -1.5674  0.0368 -1.3849
 7554SOL    HW234299   3.568   0.704   4.011  0.6661  4.0237  0.9973
 7555SOL     OW34300   4.137   4.113  13.395  0.0642 -0.7152 -0.2818
 7555SOL    HW134301   4.209   4.131  13.334  0.3353 -0.1635  0.1902
 7555SOL    HW234302   4.169   4.029  13.427  0.0308 -0.4634  0.4288
 7556SOL     OW34303   3.984   2.240   5.649  0.6575  0.3201  0.4853
 7556SOL    HW134304   4.076   2.222   5.629  0.3973 -0.6632  0.1991
 7556SOL    HW234305   3.964   2.242   5.556 -0.1983  0.9404  0.6884
 7557SOL     OW34306   3.589   1.575   2.590 -0.1696 -0.6504  0.2426
 7557SOL    HW134307   3.548   1.504   2.640 -0.4804 -0.8071 -0.2371
 7557SOL    HW234308   3.580   1.534   2.504  0.3821  0.4590 -0.3369
 7558SOL     OW34309   2.886   0.253   9.333 -0.6808 -0.1958  0.1680
 7558SOL    HW134310   2.958   0.195   9.361  0.7953  0.7912 -1.5974
 7558SOL    HW234311   2.881   0.239   9.239  0.7052  0.2423  0.0211
 7559SOL     OW34312   3.774   1.922   6.676  0.1126  0.1574 -0.0379
 7559SOL    HW134313   3.715   1.881   6.740 -0.5719  0.4179 -0.5040
 7559SOL    HW234314   3.797   1.845   6.623 -1.1104 -0.6880  0.6582
 7560SOL     OW34315   4.734   0.561  12.687 -0.4409  0.3838 -0.1924
 7560SOL    HW134316   0.026   0.575  12.597 -1.8005  1.1723 -0.4907
 7560SOL    HW234317   0.030   0.645  12.719 -2.0251  0.8284  0.2412
 7561SOL     OW34318   1.447   3.101   0.932  0.0706  0.1054 -0.0351
 7561SOL    HW134319   1.476   3.160   1.001  0.1697 -2.0271  1.7689
 7561SOL    HW234320   1.511   3.031   0.943 -0.3495 -0.3200 -0.3080
 7562SOL     OW34321   1.627   4.317   9.070 -0.2086  0.6926  0.0650
 7562SOL    HW134322   1.632   4.230   9.110 -0.9206  1.6799  2.3161
 7562SOL    HW234323   1.531   4.324   9.068 -0.2629  0.5832  2.1286
 7563SOL     OW34324   3.860   0.222   1.300  0.4470  0.1392 -0.2080
 7563SOL    HW134325   3.810   0.164   1.243 -1.8112 -0.1683  2.0603
 7563SOL    HW234326   3.820   0.305   1.272 -1.8371 -1.1286 -0.6601
 7564SOL     OW34327   0.131   1.848   4.106  0.4301 -0.5421 -0.2087
 7564SOL    HW134328   0.056   1.789   4.108  1.5433 -2.0282 -1.3956
 7564SOL    HW234329   0.126   1.892   4.021 -1.8107 -2.6932 -1.1700
 7565SOL     OW34330   0.286   3.812   7.646 -0.4117 -0.0396  0.3663
 7565SOL    HW134331   0.217   3.782   7.587  1.1633  1.6455 -2.3565
 7565SOL    HW234332   0.247   3.894   7.677  1.3032  0.3650  1.4561
 7566SOL     OW34333   1.849   2.625   4.490 -0.4301 -0.6569  0.1000
 7566SOL    HW134334   1.892   2.702   4.453 -0.1486  0.0212  1.8161
 7566SOL    HW234335   1.861   2.645   4.583 -0.6305 -0.0862  0.0056
 7567SOL     OW34336   0.773   1.065   1.842 -0.3900 -0.4104 -0.0598
 7567SOL    HW134337   0.868   1.066   1.852 -0.2955 -0.3238 -0.9415
 7567SOL    HW234338   0.752   1.006   1.915 -0.5548  0.1129  0.3130
 7568SOL     OW34339   0.079   4.542   3.433  0.3917 -0.2596 -0.2194
 7568SOL    HW134340   0.134   4.475   3.393 -0.3202 -0.8547 -0.2205
 7568SOL    HW234341   0.134   4.557   3.510  0.3924  0.1296 -0.2962
 7569SOL     OW34342   0.443   1.908  14.793  0.2934 -0.0032 -0.2437
 7569SOL    HW134343   0.520   1.871  14.749  1.5221  1.6396  0.5238
 7569SOL    HW234344   0.456   1.859  14.873 -3.6864  0.6203  0.8155
 7570SOL     OW34345   4.266   4.590   0.840  0.1376 -0.0461  0.0424
 7570SOL    HW134346   4.320   4.607   0.763 -1.9469  1.3047 -1.1360
 7570SOL    HW234347   4.241   4.680   0.861  0.4921  0.5362 -2.0679
 7571SOL     OW34348   2.454   1.072  11.393 -0.0325  0.4827  0.6553
 7571SOL    HW134349   2.506   1.115  11.462 -0.2543 -1.2016  1.8730
 7571SOL    HW234350   2.433   0.986  11.429 -0.3223  0.5529  0.6544
 7572SOL     OW34351   4.506   2.905   3.392 -0.1544 -0.1771 -0.1695
 7572SOL    HW134352   4.459   2.943   3.466  1.4477  2.0783 -0.3041
 7572SOL    HW234353   4.527   2.986   3.344 -2.8907  0.9302  0.4893
 7573SOL     OW34354   4.342   3.981   2.761  0.1515 -0.2653  0.3640
 7573SOL    HW134355   4.261   3.977   2.710 -0.2914  0.8144  0.9787
 7573SOL    HW234356   4.309   3.969   2.850 -1.8931  0.8820 -0.2320
 7574SOL     OW34357   0.566   3.846   6.203  0.7472  0.7247  0.4442
 7574SOL    HW134358   0.628   3.870   6.135  1.2716 -0.3091  0.5604
 7574SOL    HW234359   0.529   3.933   6.214  1.9363  1.2580  0.2010
 7575SOL     OW34360   2.890   4.426   5.701  0.0835 -0.2073 -0.0960
 7575SOL    HW134361   2.950   4.481   5.651 -0.0188  0.0952  0.1140
 7575SOL    HW234362   2.868   4.477   5.779  0.8109  2.1952 -1.4491
 7576SOL     OW34363   0.465   3.658   4.182  0.0041 -0.8055 -0.0787
 7576SOL    HW134364   0.443   3.566   4.167  1.0107 -1.4666  2.5417
 7576SOL    HW234365   0.382   3.692   4.216  0.9103 -0.6327  1.9862
 7577SOL     OW34366   4.384   4.114   5.332  0.2664 -0.4719  0.5801
 7577SOL    HW134367   4.335   4.104   5.250 -0.9339 -0.9683  1.3545
 7577SOL    HW234368   4.455   4.173   5.306 -0.9957  0.7950  0.0017
 7578SOL     OW34369   2.824   0.213   1.661  0.0052 -0.2852 -0.5012
 7578SOL    HW134370   2.778   0.166   1.731  0.1391  2.0845  1.1563
 7578SOL    HW234371   2.751   0.257   1.617 -1.7118 -0.4974  2.1307
 7579SOL     OW34372   1.359   1.008   8.730  0.2864 -0.5027 -0.0636
 7579SOL    HW134373   1.316   1.004   8.644 -0.2125  0.6353  0.1348
 7579SOL    HW234374   1.407   0.926   8.719 -1.3955 -1.4261 -0.5664
 7580SOL     OW34375   0.559   0.945  16.209  0.0569  0.6829  0.5384
 7580SOL    HW134376   0.590   1.004  16.278 -0.6519  0.2808  1.1924
 7580SOL    HW234377   0.560   1.005  16.134  3.9819  1.3533  1.1181
 7581SOL     OW34378   3.823   0.405   2.709 -0.3655  0.3928 -0.0802
 7581SOL    HW134379   3.816   0.454   2.627 -0.5790 -0.2694 -0.4520
 7581SOL    HW234380   3.852   0.320   2.677 -0.6601  0.2390  0.0625
 7582SOL     OW34381   1.012   4.683  10.871  0.4633 -0.4743 -0.3093
 7582SOL    HW134382   0.944   4.730  10.919  0.4760 -0.6975 -0.0737
 7582SOL    HW234383   1.019   4.603  10.922  0.1882 -2.2776 -3.0769
 7583SOL     OW34384   3.624   2.619  14.194 -0.8342 -0.4601  0.3300
 7583SOL    HW134385   3.651   2.710  14.201  1.2882 -0.9340 -1.6676
 7583SOL    HW234386   3.546   2.623  14.249  0.4332  0.5818  2.0832
 7584SOL     OW34387   1.364   1.559   0.519  0.1091  0.1779  0.2915
 7584SOL    HW134388   1.426   1.504   0.470  1.2317  2.5577 -0.9555
 7584SOL    HW234389   1.413   1.637   0.548 -0.1992 -0.0575  1.4363
 7585SOL     OW34390   4.265   2.700   1.810 -0.1952  0.3739  0.2484
 7585SOL    HW134391   4.188   2.744   1.846 -0.2988  0.4998 -0.1227
 7585SOL    HW234392   4.327   2.773   1.813 -0.3122  0.5027 -0.5862
 7586SOL     OW34393   2.778   4.381  10.788 -0.3905  0.6525 -0.0711
 7586SOL    HW134394   2.802   4.326  10.863 -2.1330 -1.9872 -1.4486
 7586SOL    HW234395   2.749   4.317  10.723 -0.0896 -0.1330  0.5624
 7587SOL     OW34396   0.711   3.958  12.575  0.3169 -0.2107  0.3660
 7587SOL    HW134397   0.735   3.866  12.568 -0.6012 -0.2982 -1.5777
 7587SOL    HW234398   0.621   3.958  12.606 -0.3966 -1.2145 -1.7555
 7588SOL     OW34399   1.951   0.065   4.546  0.3055  0.5217 -0.4802
 7588SOL    HW134400   1.947   0.118   4.625  0.8004  1.3959 -1.0331
 7588SOL    HW234401   2.043   0.076   4.523 -0.2130  2.1605 -1.7667
 7589SOL     OW34402   0.954   0.524   0.900 -1.2213  0.6569  0.3274
 7589SOL    HW134403   1.007   0.578   0.843 -0.0053 -0.3640  0.4844
 7589SOL    HW234404   0.961   0.570   0.984  0.9248  0.4651  0.2402
 7590SOL     OW34405   1.220   0.788  11.219 -0.0405  0.4227  0.2225
 7590SOL    HW134406   1.154   0.730  11.257  0.8251 -1.9719 -1.9491
 7590SOL    HW234407   1.254   0.739  11.144 -0.8924  0.6300 -0.3047
 7591SOL     OW34408   1.474   4.109   7.445 -0.0546  0.0119 -0.3091
 7591SOL    HW134409   1.505   4.143   7.529 -0.0022  1.6258 -0.9879
 7591SOL    HW234410   1.540   4.150   7.390  1.7553 -0.0710  1.8292
 7592SOL     OW34411   2.335   3.661  13.255 -0.1941  0.0993  0.5083
 7592SOL    HW134412   2.305   3.747  13.283 -0.2156  0.1862  0.2221
 7592SOL    HW234413   2.399   3.634  13.321 -0.3941  2.1197  1.5329
 7593SOL     OW34414   1.591   1.095   7.994  0.3726 -0.3996  0.1202
 7593SOL    HW134415   1.683   1.086   8.018 -0.1345 -0.4491  2.0400
 7593SOL    HW234416   1.555   1.162   8.052  0.3233 -1.3809  1.2109
 7594SOL     OW34417   1.488   2.740   2.901  0.3217 -0.6041  0.0143
 7594SOL    HW134418   1.445   2.706   2.823  3.4836 -1.7907 -1.2306
 7594SOL    HW234419   1.505   2.828   2.868 -0.4417 -1.2527 -2.1563
 7595SOL     OW34420   3.100   1.579   8.043 -0.4397  0.2748  0.5505
 7595SOL    HW134421   3.122   1.534   8.125 -1.8668  0.3658  0.9785
 7595SOL    HW234422   3.121   1.668   8.073  0.8859  0.6223 -1.4552
 7596SOL     OW34423   2.985   0.843   2.347  0.2352  0.0837  0.3401
 7596SOL    HW134424   3.033   0.760   2.350 -0.9345 -0.5222  1.7527
 7596SOL    HW234425   3.007   0.892   2.426  1.1992 -1.2013  0.8593
 7597SOL     OW34426   4.297   2.434  10.742 -0.1929  0.8590 -0.0618
 7597SOL    HW134427   4.342   2.518  10.730  0.7132  0.8464  3.3044
 7597SOL    HW234428   4.208   2.466  10.730 -0.3780 -0.3949 -2.0590
 7598SOL     OW34429   4.405   0.224  11.637 -0.5490 -0.3425 -0.3224
 7598SOL    HW134430   4.461   0.156  11.674  1.0379  1.7208  1.0621
 7598SOL    HW234431   4.324   0.194  11.678 -1.0497  0.9616 -0.3407
 7599SOL     OW34432   2.962   1.384   4.491 -0.3546 -0.1975 -0.4741
 7599SOL    HW134433   2.974   1.380   4.396 -0.8919 -0.9366 -0.5086
 7599SOL    HW234434   2.894   1.452   4.492  2.3338  2.4643  0.8272
 7600SOL     OW34435   2.341   3.879   5.366  0.0991 -0.0545  0.0986
 7600SOL    HW134436   2.318   3.971   5.379 -2.0920 -0.8833  2.0397
 7600SOL    HW234437   2.262   3.842   5.326 -0.2257 -0.2528  0.9195
 7601SOL     OW34438   4.037   0.855   2.024  0.1124  0.3047 -0.5672
 7601SOL    HW134439   4.039   0.880   1.932  1.7851 -0.9811 -0.8880
 7601SOL    HW234440   3.944   0.846   2.043  0.4840 -0.3729  0.9293
 7602SOL     OW34441   1.094   2.348   8.657  0.4408  0.1171 -0.8425
 7602SOL    HW134442   1.145   2.326   8.735  0.8226  3.2305 -0.1940
 7602SOL    HW234443   1.163   2.381   8.599  1.3416 -1.4240 -0.6283
 7603SOL     OW34444   3.136   0.805   3.093  0.2492  1.0857  0.1372
 7603SOL    HW134445   3.049   0.773   3.072  0.4918  0.4114  0.1453
 7603SOL    HW234446   3.124   0.847   3.178 -0.3260  0.0530  0.5662
 7604SOL     OW34447   2.889   2.675   0.017  0.0157  0.4594  0.0033
 7604SOL    HW134448   2.941   2.703  17.685  0.4580  0.2097  0.2133
 7604SOL    HW234449   2.848   2.760   0.034  1.7618  1.4586 -0.7677
 7605SOL     OW34450   4.088   4.208  14.856  0.0097 -0.4051  0.5742
 7605SOL    HW134451   4.110   4.205  14.950  1.2853  1.8858  0.3331
 7605SOL    HW234452   4.142   4.134  14.830  3.3658  1.0488  3.3685
 7606SOL     OW34453   4.077   2.196   8.643  0.4991  0.3544  0.4293
 7606SOL    HW134454   4.017   2.241   8.584  1.9139 -1.2062 -2.2100
 7606SOL    HW234455   4.031   2.208   8.725  0.1997  3.2122 -0.1715
 7607SOL     OW34456   4.536   3.545   8.475  0.0854 -0.3296  0.2058
 7607SOL    HW134457   4.542   3.635   8.446  2.0774 -0.6465 -0.3690
 7607SOL    HW234458   4.489   3.550   8.558  1.8223  0.4822  1.1439
 7608SOL     OW34459   1.560   1.605   8.413 -0.2411  0.3515  0.3579
 7608SOL    HW134460   1.575   1.698   8.394 -0.3736  0.3823  0.4039
 7608SOL    HW234461   1.478   1.593   8.462  0.8684 -0.6492  1.9669
 7609SOL     OW34462   1.180   2.598  10.223 -0.3016  0.4679  0.6376
 7609SOL    HW134463   1.202   2.539  10.151  1.4621  1.3596  0.4359
 7609SOL    HW234464   1.245   2.666  10.204 -0.0952 -0.5118 -2.2640
 7610SOL     OW34465   4.725   3.390  16.115  0.4741  0.2418 -0.6359
 7610SOL    HW134466   0.043   3.424  16.185 -1.9085 -2.8379  2.7242
 7610SOL    HW234467   0.048   3.397  16.040  2.8641 -0.1349  1.2513
 7611SOL     OW34468   0.831   2.603   2.026  0.4960 -0.3167 -0.4338
 7611SOL    HW134469   0.823   2.692   2.061  2.6219 -0.1185 -0.4604
 7611SOL    HW234470   0.909   2.579   2.076  1.4295 -0.3008 -1.9021
 7612SOL     OW34471   4.034   1.425   6.116  0.1773  0.1080 -0.2994
 7612SOL    HW134472   4.001   1.512   6.093 -1.6811 -0.3315  0.6590
 7612SOL    HW234473   4.127   1.444   6.125  0.4833 -0.9313 -1.3134
 7613SOL     OW34474   0.994   1.485   5.641 -0.4621  0.6032 -0.3707
 7613SOL    HW134475   0.899   1.474   5.639 -0.2565 -1.5942  2.8014
 7613SOL    HW234476   1.028   1.415   5.697 -1.0814  0.9464  0.4422
 7614SOL     OW34477   2.713   2.653   4.564  0.1923 -0.0221  0.6441
 7614SOL    HW134478   2.743   2.685   4.650  0.9278  0.9667  0.0156
 7614SOL    HW234479   2.621   2.630   4.572  0.5683 -1.0017  2.2618
 7615SOL     OW34480   3.364   3.456   8.705 -0.0954  0.0045 -0.2891
 7615SOL    HW134481   3.385   3.374   8.749 -0.5904 -0.2357 -0.5002
 7615SOL    HW234482   3.403   3.440   8.619  0.5345 -2.9501  0.5533
 7616SOL     OW34483   2.625   1.123   6.367  0.0830  0.5188 -0.0089
 7616SOL    HW134484   2.699   1.169   6.406 -0.9734  0.3178  2.2203
 7616SOL    HW234485   2.597   1.069   6.441  0.3365  0.0469 -0.2568
 7617SOL     OW34486   1.367   0.032  16.890  0.1363 -0.3198  0.1116
 7617SOL    HW134487   1.360   0.070  16.803  1.4744 -0.7527 -0.1752
 7617SOL    HW234488   1.431   0.087  16.935 -1.1428  0.1506  1.3555
 7618SOL     OW34489   3.558   0.803   1.516 -0.2503  0.2874 -0.2423
 7618SOL    HW134490   3.487   0.786   1.454  0.4407 -2.5357 -0.2636
 7618SOL    HW234491   3.629   0.827   1.457 -0.5748 -0.6585 -1.0113
 7619SOL     OW34492   0.887   2.997   5.668 -0.3184  0.0433  0.3747
 7619SOL    HW134493   0.797   2.967   5.652 -0.0637  0.6868 -2.2390
 7619SOL    HW234494   0.932   2.968   5.589  1.8289 -0.0236  1.6307
 7620SOL     OW34495   3.725   4.675   5.671  0.0949  0.9260  0.3342
 7620SOL    HW134496   3.747   0.025   5.706  0.7270  0.4110  1.2119
 7620SOL    HW234497   3.630   4.667   5.678  0.1641  0.4388  0.7232
 7621SOL     OW34498   1.731   3.286   2.229  0.1411 -0.4405  0.2790
 7621SOL    HW134499   1.662   3.273   2.165  0.5092 -0.5159 -0.1070
 7621SOL    HW234500   1.741   3.193   2.249  1.9053 -0.1451  0.8052
 7622SOL     OW34501   2.970   1.318   5.403  0.3759  0.0176 -0.2077
 7622SOL    HW134502   2.935   1.235   5.436 -1.9325  0.0292 -2.5772
 7622SOL    HW234503   2.925   1.312   5.318 -1.0030 -0.5952  0.5609
 7623SOL     OW34504   2.923   1.947   1.788  0.5018 -0.4355  0.1061
 7623SOL    HW134505   2.942   2.008   1.716  2.4882  2.1094  2.8002
 7623SOL    HW234506   2.834   1.913   1.781  0.0423  0.3372  2.3960
 7624SOL     OW34507   1.419   4.460   7.127  0.0947 -0.2438 -0.0640
 7624SOL    HW134508   1.503   4.501   7.107  0.2535  0.4537  2.0380
 7624SOL    HW234509   1.452   4.373   7.148  0.1620  0.1131  1.2826
 7625SOL     OW34510   0.655   3.972  10.892  0.5376 -0.0587  0.0545
 7625SOL    HW134511   0.610   3.914  10.954  0.3028  0.4282  0.3318
 7625SOL    HW234512   0.707   4.027  10.950 -0.6966  0.4176  0.7271
 7626SOL     OW34513   3.612   1.559  14.402 -0.1642 -0.0776  0.1519
 7626SOL    HW134514   3.524   1.596  14.410 -0.4564 -0.4739 -1.3958
 7626SOL    HW234515   3.616   1.562  14.307  2.8522  0.3416  0.2746
 7627SOL     OW34516   4.322   2.008   9.796  0.1979  0.0904  0.1711
 7627SOL    HW134517   4.412   2.040   9.802  1.5509 -3.7064 -0.1189
 7627SOL    HW234518   4.319   1.943   9.725  1.5631  0.1168  0.0910
 7628SOL     OW34519   2.251   1.523   7.049 -0.2347 -0.1878  0.6046
 7628SOL    HW134520   2.235   1.554   7.138 -0.0613 -0.0119  0.5745
 7628SOL    HW234521   2.249   1.601   6.994  1.8342 -0.4832  0.0978
 7629SOL     OW34522   2.519   1.254   3.727  0.6189 -0.3050  0.4501
 7629SOL    HW134523   2.575   1.331   3.731  0.5337 -0.2557  0.7352
 7629SOL    HW234524   2.437   1.282   3.767  0.2444 -0.0495 -0.5008
 7630SOL     OW34525   0.153   4.477   1.412  0.3273 -0.4303 -0.8537
 7630SOL    HW134526   0.150   4.524   1.328  1.9374 -0.5950 -1.0007
 7630SOL    HW234527   0.105   4.395   1.399  1.5531 -1.2092 -0.4077
 7631SOL     OW34528   4.582   1.684   7.994 -0.2493  0.1468 -0.0941
 7631SOL    HW134529   4.529   1.678   7.915 -1.8596 -1.5334  1.0869
 7631SOL    HW234530   4.601   1.777   8.007 -2.1175  0.4513  0.5476
 7632SOL     OW34531   0.663   0.186   3.294  0.0297  0.4636 -0.4497
 7632SOL    HW134532   0.617   0.225   3.219 -0.5670  2.1304  0.7809
 7632SOL    HW234533   0.716   0.121   3.247 -1.9558 -0.7870 -0.9878
 7633SOL     OW34534   1.170   0.136   7.746  0.7665 -0.4686 -0.5068
 7633SOL    HW134535   1.220   0.100   7.820 -0.8788 -0.5568  0.5593
 7633SOL    HW234536   1.144   0.055   7.704 -1.9820  0.2425 -0.2109
 7634SOL     OW34537   3.284   4.073   1.855  0.4387  0.3330  0.2214
 7634SOL    HW134538   3.274   4.016   1.931 -0.4746 -3.0759 -2.5110
 7634SOL    HW234539   3.278   4.152   1.909 -0.7322 -0.2700  0.9728
 7635SOL     OW34540   1.304   2.710   4.672  0.2821 -0.2004 -0.3504
 7635SOL    HW134541   1.265   2.796   4.655  0.4119  0.3495  2.0313
 7635SOL    HW234542   1.395   2.735   4.685  0.3154 -0.2449 -0.5006
 7636SOL     OW34543   1.399   3.813   0.761  0.5074 -0.9037  0.7599
 7636SOL    HW134544   1.494   3.824   0.766  0.7588 -2.4009 -0.8178
 7636SOL    HW234545   1.388   3.816   0.856  2.0155  0.2910  0.8808
 7637SOL     OW34546   1.155   2.811  16.114  0.2487 -0.2602 -0.5265
 7637SOL    HW134547   1.112   2.875  16.171  1.6232  1.8420 -1.8015
 7637SOL    HW234548   1.235   2.864  16.111 -1.4769  2.4548  0.5220
 7638SOL     OW34549   3.363   2.949  17.091  0.0801 -0.3664 -0.0873
 7638SOL    HW134550   3.327   2.896  17.163  0.7704 -1.6561 -0.6908
 7638SOL    HW234551   3.445   2.975  17.134  0.5705 -1.4612 -0.3441
 7639SOL     OW34552   3.874   1.206   7.878  0.2857  0.5816  0.7859
 7639SOL    HW134553   3.808   1.222   7.810  0.1425 -0.5715  0.6529
 7639SOL    HW234554   3.839   1.269   7.940 -2.8998  3.2065 -3.6521
 7640SOL     OW34555   3.089   0.470   2.726 -0.6297 -0.7872 -0.1024
 7640SOL    HW134556   3.000   0.454   2.756 -0.3594 -1.7807  0.1615
 7640SOL    HW234557   3.075   0.560   2.696  4.5254  0.9398  2.5524
 7641SOL     OW34558   0.905   1.852   3.083  0.3920  0.2262  0.1033
 7641SOL    HW134559   0.899   1.939   3.044  2.2976  0.7072  0.8816
 7641SOL    HW234560   0.968   1.866   3.153  2.0063 -0.5925 -1.1855
 7642SOL     OW34561   4.623   3.271  17.724  0.0244 -0.4584 -0.2708
 7642SOL    HW134562   4.714   3.241  17.728 -0.3937 -1.6882  0.0032
 7642SOL    HW234563   4.586   3.218  17.654 -0.7394  1.2342 -1.1461
 7643SOL     OW34564   2.699   4.043   8.681  0.4482  0.6828 -0.7489
 7643SOL    HW134565   2.708   4.012   8.772  1.8441 -2.2166 -1.8676
 7643SOL    HW234566   2.742   4.128   8.688 -0.1482  0.7320  2.3803
 7644SOL     OW34567   4.506   2.810  16.630  0.3209 -0.1955  0.2051
 7644SOL    HW134568   4.493   2.866  16.553 -1.4722  1.0529  1.4218
 7644SOL    HW234569   4.510   2.880  16.695  0.0752 -1.3140  1.4267
 7645SOL     OW34570   1.101   3.014   2.205  0.0685 -0.2074  0.0906
 7645SOL    HW134571   1.174   3.057   2.250 -0.2341 -1.2120  1.5363
 7645SOL    HW234572   1.109   2.933   2.255 -0.3098  0.2884  0.9657
 7646SOL     OW34573   1.063   2.553  17.082  0.4421 -0.9792 -0.1903
 7646SOL    HW134574   1.055   2.552  17.177 -0.8194 -0.1456 -0.2812
 7646SOL    HW234575   1.118   2.630  17.075 -2.0098  0.7290 -0.6407
 7647SOL     OW34576   0.272   0.569   8.144  0.1125 -0.2361 -0.3759
 7647SOL    HW134577   0.348   0.531   8.187 -0.5360 -0.2796  0.7202
 7647SOL    HW234578   0.194   0.525   8.179  0.4901  0.4648  1.3294
 7648SOL     OW34579   1.219   1.970   4.187 -0.0358  0.3167 -0.5734
 7648SOL    HW134580   1.224   2.003   4.097  2.1437  0.4952 -0.3777
 7648SOL    HW234581   1.125   1.984   4.196  0.0047 -0.3759  0.9420
 7649SOL     OW34582   2.082   0.986   6.848  0.0916 -0.2862 -0.6885
 7649SOL    HW134583   1.990   0.963   6.856 -0.1210  0.8923  0.2030
 7649SOL    HW234584   2.107   0.953   6.934 -0.5309  0.8075 -0.0998
 7650SOL     OW34585   3.838   0.987  16.355 -0.4206  0.3689 -0.1109
 7650SOL    HW134586   3.799   0.977  16.442  2.4126 -0.6702  1.0210
 7650SOL    HW234587   3.932   0.976  16.369 -0.3727  0.4851 -0.3455
 7651SOL     OW34588   1.260   3.615   0.626 -0.5159  0.2478  0.1460
 7651SOL    HW134589   1.265   3.530   0.669  0.1461  0.0810 -0.2609
 7651SOL    HW234590   1.298   3.669   0.695 -0.2729  1.5918 -1.0380
 7652SOL     OW34591   3.605   2.136   1.858 -0.6223  0.5025 -0.5956
 7652SOL    HW134592   3.635   2.119   1.769 -1.5040  0.9615 -0.9811
 7652SOL    HW234593   3.511   2.155   1.853 -0.3383  2.3477  0.7598
 7653SOL     OW34594   3.206   3.801   6.142 -0.9259 -0.3719  0.4659
 7653SOL    HW134595   3.253   3.736   6.089  0.4345  0.6701  0.3995
 7653SOL    HW234596   3.207   3.865   6.071 -0.1957  2.2302  2.8415
 7654SOL     OW34597   0.516   4.087   5.175  0.2026 -0.1888  0.2221
 7654SOL    HW134598   0.567   4.014   5.137 -1.7601 -1.8580  0.7885
 7654SOL    HW234599   0.583   4.154   5.190 -0.7949  1.5502 -3.2947
 7655SOL     OW34600   2.288   3.190   7.690  0.2242 -0.8439  0.4314
 7655SOL    HW134601   2.199   3.222   7.671 -0.4723 -2.8126  0.4006
 7655SOL    HW234602   2.275   3.098   7.667  1.7268 -0.7352 -0.8971
 7656SOL     OW34603   4.082   0.514   8.561  0.1286  0.0206 -0.0567
 7656SOL    HW134604   4.154   0.486   8.617  0.5333  0.2677 -0.4615
 7656SOL    HW234605   4.107   0.477   8.477  1.7456 -0.7023  0.7597
 7657SOL     OW34606   3.759   1.341   1.402 -0.3592  0.4333  0.3808
 7657SOL    HW134607   3.694   1.367   1.467  0.5492  1.4867  0.8776
 7657SOL    HW234608   3.840   1.354   1.453  0.9898 -0.2866 -1.5850
 7658SOL     OW34609   0.634   1.261   1.579  0.2006 -0.6982  0.8833
 7658SOL    HW134610   0.556   1.220   1.618  0.2332 -1.0468  0.5915
 7658SOL    HW234611   0.701   1.193   1.576  0.0317 -0.8172 -0.5141
 7659SOL     OW34612   2.471   2.284   3.652 -0.2867 -0.1755  0.2551
 7659SOL    HW134613   2.389   2.264   3.606 -0.2179  0.7459 -0.2684
 7659SOL    HW234614   2.542   2.282   3.587  0.2618  1.4559  0.8075
 7660SOL     OW34615   2.835   1.108   1.861  0.2886  0.2698  0.2793
 7660SOL    HW134616   2.866   1.170   1.927 -0.2823  0.3281  0.4932
 7660SOL    HW234617   2.746   1.142   1.864  1.3687  2.9528  2.1101
 7661SOL     OW34618   3.236   3.305   4.356  0.3623  0.2507 -0.3611
 7661SOL    HW134619   3.214   3.258   4.276  1.1846 -1.0776  0.1914
 7661SOL    HW234620   3.299   3.366   4.317 -0.6370  0.1159 -2.1579
 7662SOL     OW34621   1.866   1.773   7.342 -0.3918 -0.5317  0.3458
 7662SOL    HW134622   1.834   1.718   7.270 -0.2117  0.9820 -0.8795
 7662SOL    HW234623   1.878   1.860   7.304 -2.2685 -0.7369 -0.7175
 7663SOL     OW34624   2.780   4.299   9.849  0.2337  0.0532  0.5527
 7663SOL    HW134625   2.765   4.381   9.895  1.9394  0.0067  1.2193
 7663SOL    HW234626   2.865   4.313   9.806  0.5497 -1.0537  0.7974
 7664SOL     OW34627   4.511   2.218   3.561  0.1894 -0.1862  0.3029
 7664SOL    HW134628   4.548   2.131   3.542 -0.1310  0.3458 -2.6337
 7664SOL    HW234629   4.558   2.284   3.510 -1.7878  0.8549 -0.1479
 7665SOL     OW34630   1.350   4.604   3.875 -0.0855 -0.2783 -0.4855
 7665SOL    HW134631   1.350   4.699   3.887  0.3470 -0.2826 -0.4334
 7665SOL    HW234632   1.298   4.589   3.796 -0.0935 -3.2235  0.1073
 7666SOL     OW34633   3.974   2.903  11.297 -0.2076  0.0696 -0.0081
 7666SOL    HW134634   3.998   2.811  11.304  1.5632  0.4158 -1.5747
 7666SOL    HW234635   3.889   2.900  11.253  1.2399  3.5160 -3.0366
 7667SOL     OW34636   3.144   1.363   5.054 -0.2156 -0.2765  0.3551
 7667SOL    HW134637   3.235   1.382   5.075 -0.1462 -0.4053  0.1681
 7667SOL    HW234638   3.157   1.282   5.005 -2.2453  0.2232 -0.9923
 7668SOL     OW34639   1.198   3.981  10.273  0.5233  0.0339  0.0313
 7668SOL    HW134640   1.258   3.919  10.313 -1.8185 -0.1286  3.2471
 7668SOL    HW234641   1.229   4.070  10.289 -0.8360  0.2110  1.6682
 7669SOL     OW34642   4.174   1.106   9.639 -0.1516 -0.5072 -0.3167
 7669SOL    HW134643   4.130   1.185   9.608 -1.9157 -0.1315  3.1671
 7669SOL    HW234644   4.099   1.048   9.624 -0.0271 -0.6834 -0.2569
 7670SOL     OW34645   4.134   0.777   8.521  0.2413  0.0337  0.7150
 7670SOL    HW134646   4.091   0.691   8.516  0.7881 -0.1678 -0.4963
 7670SOL    HW234647   4.112   0.815   8.606 -1.0467 -1.3367  0.9881
 7671SOL     OW34648   1.940   2.367   9.270  0.4075  0.4527  0.1935
 7671SOL    HW134649   1.940   2.352   9.364 -0.3393 -0.0247  0.1192
 7671SOL    HW234650   1.938   2.462   9.260  0.1189  0.4603  0.3244
 7672SOL     OW34651   0.731   4.490   2.125  0.7169  0.0283 -0.2472
 7672SOL    HW134652   0.654   4.538   2.095  0.2410  0.6717  2.0165
 7672SOL    HW234653   0.795   4.559   2.142  1.6681 -0.5625 -1.3425
 7673SOL     OW34654   0.124   2.593   8.777 -0.4706 -0.3285 -0.1904
 7673SOL    HW134655   0.161   2.566   8.861  0.2687  2.8576  0.5265
 7673SOL    HW234656   0.200   2.640   8.743  1.5916 -1.8559  2.3123
 7674SOL     OW34657   3.475   0.563   8.577  0.0027  0.4720  0.3438
 7674SOL    HW134658   3.541   0.560   8.647 -0.0820  0.8237  0.4350
 7674SOL    HW234659   3.435   0.476   8.574  0.4047  0.3557 -1.4111
 7675SOL     OW34660   1.163   3.885  14.541  0.6659  0.0010 -0.2865
 7675SOL    HW134661   1.080   3.864  14.498 -0.3254  0.2396  1.5002
 7675SOL    HW234662   1.196   3.799  14.564  1.5185  0.1617 -0.8907
 7676SOL     OW34663   1.637   3.741  14.270  1.1150 -0.0772  0.4688
 7676SOL    HW134664   1.591   3.813  14.227 -0.0211 -1.8445 -1.2831
 7676SOL    HW234665   1.565   3.681  14.289  0.5841  0.0843 -1.0275
 7677SOL     OW34666   2.158   2.660   6.423  0.2300 -0.1508 -0.3132
 7677SOL    HW134667   2.149   2.577   6.469  2.2396  0.9568  2.0927
 7677SOL    HW234668   2.253   2.661   6.408  0.1782  1.1859 -0.6028
 7678SOL     OW34669   3.083   3.170   2.236  0.7842 -0.2644  0.9710
 7678SOL    HW134670   3.176   3.160   2.217  0.3245  0.5750 -1.7527
 7678SOL    HW234671   3.052   3.253   2.198  0.5906 -1.3997 -1.3575
 7679SOL     OW34672   0.931   4.533   1.379 -0.2539  0.3161 -0.2099
 7679SOL    HW134673   0.893   4.497   1.458 -0.7925  2.0433  0.3092
 7679SOL    HW234674   0.946   4.461   1.318  1.6034  0.3386  0.2224
 7680SOL     OW34675   2.584   3.708   6.868 -0.3480  0.6430 -0.3348
 7680SOL    HW134676   2.658   3.768   6.877  0.2401  0.0591 -1.2491
 7680SOL    HW234677   2.620   3.634   6.917 -1.5117 -0.1114 -0.6275
 7681SOL     OW34678   3.890   4.167   4.267  0.0924  0.1231 -0.3789
 7681SOL    HW134679   3.843   4.127   4.340 -0.5496  0.5468 -0.5549
 7681SOL    HW234680   3.837   4.155   4.188  0.0830  0.7651 -0.4717
 7682SOL     OW34681   0.134   1.656   2.413  0.7244  0.2720 -0.3654
 7682SOL    HW134682   0.093   1.569   2.412  1.3679 -0.0675  1.4304
 7682SOL    HW234683   0.064   1.700   2.462 -0.2620 -0.5439 -1.0351
 7683SOL     OW34684   1.689   1.937   3.378 -0.2258 -0.2929  0.4565
 7683SOL    HW134685   1.635   2.006   3.416  0.4785  0.2231  0.5282
 7683SOL    HW234686   1.739   1.982   3.310  0.7089  0.6172  1.7497
 7684SOL     OW34687   0.673   1.564  11.438 -0.1531 -0.3636  0.2191
 7684SOL    HW134688   0.651   1.591  11.527  0.8017 -0.4749  0.4879
 7684SOL    HW234689   0.715   1.645  11.408 -0.5500 -0.7980 -1.4725
 7685SOL     OW34690   3.784   2.031   2.753 -0.0302 -0.1532 -0.0320
 7685SOL    HW134691   3.780   1.941   2.720 -1.0868  0.0443 -0.4546
 7685SOL    HW234692   3.856   2.060   2.696 -0.8517 -2.0271 -2.0507
 7686SOL     OW34693   2.952   3.362   6.024 -0.0717 -0.2210  0.3377
 7686SOL    HW134694   2.978   3.302   5.954  0.1575 -0.3338  0.5186
 7686SOL    HW234695   3.011   3.432   5.995  0.6635 -1.0570 -0.1536
 7687SOL     OW34696   0.773   0.789   6.040  0.3416  0.3057  0.5841
 7687SOL    HW134697   0.704   0.824   6.096 -1.8606 -1.1262 -1.2345
 7687SOL    HW234698   0.778   0.701   6.078  2.0314  0.4979  0.7811
 7688SOL     OW34699   4.428   2.855   2.798  0.3954  0.2718 -0.4123
 7688SOL    HW134700   4.390   2.887   2.880 -0.8224 -2.7975  0.2022
 7688SOL    HW234701   4.388   2.916   2.737 -1.3354  0.7238  1.1678
 7689SOL     OW34702   1.941   1.950   4.388  0.4517  0.2543  0.3456
 7689SOL    HW134703   1.979   1.881   4.333  1.8772  0.6532  0.8384
 7689SOL    HW234704   1.849   1.937   4.365 -0.3002 -0.3112  3.6550
 7690SOL     OW34705   2.584   3.790   2.245 -0.4243  0.2085  0.1073
 7690SOL    HW134706   2.587   3.763   2.337  0.6587 -1.3961 -0.3878
 7690SOL    HW234707   2.517   3.726   2.223 -0.5217  0.6421 -0.8309
 7691SOL     OW34708   0.037   1.348   2.080  0.4259 -0.2871  0.3167
 7691SOL    HW134709   4.689   1.386   2.106  0.7433  0.0668  0.8172
 7691SOL    HW234710   0.010   1.291   2.008  0.7656  0.2710 -0.2465
 7692SOL     OW34711   3.253   1.118   1.566  0.0594 -0.1383  0.1374
 7692SOL    HW134712   3.253   1.115   1.661  1.7323  0.9740  0.1651
 7692SOL    HW234713   3.341   1.087   1.546 -0.0628 -0.2048 -0.2980
 7693SOL     OW34714   0.689   4.284  11.272  0.0598 -0.2864 -0.1578
 7693SOL    HW134715   0.707   4.217  11.338  1.0682  0.1299 -0.0101
 7693SOL    HW234716   0.596   4.264  11.258  0.2607 -1.8722  0.6932
 7694SOL     OW34717   1.478   3.309   7.762 -0.7114  0.1572 -0.1091
 7694SOL    HW134718   1.428   3.294   7.842 -3.3475  0.8483 -1.6321
 7694SOL    HW234719   1.550   3.365   7.793  0.8447 -1.4714 -0.8076
 7695SOL     OW34720   0.726   2.879   1.948  0.2027 -0.2904  0.2683
 7695SOL    HW134721   0.657   2.832   1.994 -0.9778  2.4154  1.2409
 7695SOL    HW234722   0.707   2.970   1.971  1.5468 -0.7563  3.1655
 7696SOL     OW34723   3.955   0.936   1.771  0.2582  1.4292 -0.0177
 7696SOL    HW134724   3.874   0.926   1.821  0.5261 -0.9234 -0.0818
 7696SOL    HW234725   3.940   0.876   1.698  1.9782 -1.0222  1.6394
 7697SOL     OW34726   3.771   2.842   8.793  0.2849  0.1622  0.1866
 7697SOL    HW134727   3.806   2.794   8.718 -2.3362 -2.1138  0.4358
 7697SOL    HW234728   3.676   2.829   8.784  0.2212  0.6469  0.1369
 7698SOL     OW34729   2.730   0.026   2.921  0.2695  0.2395  0.2173
 7698SOL    HW134730   2.786   0.006   2.846 -0.4846 -0.5923 -0.1274
 7698SOL    HW234731   2.650   4.711   2.920 -0.8726  2.0810 -1.3637
 7699SOL     OW34732   2.036   4.274   9.662  0.4809 -0.1083  0.1617
 7699SOL    HW134733   2.087   4.228   9.728 -1.3195 -1.7257  0.3954
 7699SOL    HW234734   1.970   4.208   9.641  0.7360 -0.5565  0.7641
 7700SOL     OW34735   0.540   0.433   2.050  0.4853 -0.4097  0.1147
 7700SOL    HW134736   0.492   0.505   2.091  0.4716 -0.1252 -0.3912
 7700SOL    HW234737   0.463   0.384   2.023 -0.7347  2.2060 -1.1034
 7701SOL     OW34738   2.823   0.280  15.925  0.1836 -0.3431 -0.6235
 7701SOL    HW134739   2.739   0.286  15.970  1.5034 -0.4048  1.8218
 7701SOL    HW234740   2.877   0.252  15.999  1.0900  0.0984 -1.1134
 7702SOL     OW34741   2.146   1.574   9.645  0.1869  0.5031 -0.6684
 7702SOL    HW134742   2.194   1.642   9.598 -0.7543  0.0033 -2.3657
 7702SOL    HW234743   2.149   1.507   9.576 -0.5194 -0.0559 -0.1552
 7703SOL     OW34744   2.107   1.985   8.240  0.2801 -0.2066  0.0238
 7703SOL    HW134745   2.147   1.910   8.285  1.5770  0.1761 -0.4971
 7703SOL    HW234746   2.175   2.009   8.178  1.5230 -0.5205  1.2500
 7704SOL     OW34747   3.013   1.221   2.725  0.3139  0.0570 -0.2556
 7704SOL    HW134748   2.964   1.236   2.806 -0.8131  0.4387 -0.9975
 7704SOL    HW234749   3.042   1.311   2.709  3.7362 -0.9581  0.3229
 7705SOL     OW34750   4.733   0.375   5.389  0.2093  0.0702  0.5854
 7705SOL    HW134751   0.025   0.286   5.408  0.8868  0.3629  0.9690
 7705SOL    HW234752   0.011   0.383   5.295  1.6714  2.0042  0.9585
 7706SOL     OW34753   1.787   1.083   1.933  0.4048 -1.1655  0.6387
 7706SOL    HW134754   1.791   0.995   1.970 -0.8715 -1.0251  1.1108
 7706SOL    HW234755   1.835   1.078   1.850 -0.5091  0.0367  0.0432
 7707SOL     OW34756   3.456   3.754  15.234 -0.2242 -0.0358  0.2124
 7707SOL    HW134757   3.528   3.740  15.296 -1.0379  0.9956  1.4018
 7707SOL    HW234758   3.482   3.818  15.167 -1.2155  1.4612  1.2425
 7708SOL     OW34759   3.935   2.977   9.327  0.6051  0.0540  0.4128
 7708SOL    HW134760   3.976   3.051   9.372 -0.4343  0.2795  0.9841
 7708SOL    HW234761   3.948   2.904   9.388 -1.2447  0.1231  0.8813
 7709SOL     OW34762   1.128   2.982   2.633 -0.3495  0.1377  0.3658
 7709SOL    HW134763   1.185   2.953   2.561 -0.3131 -0.5960  0.6826
 7709SOL    HW234764   1.182   2.991   2.712 -0.2551 -2.0384  0.5652
 7710SOL     OW34765   4.506   0.799   7.638  0.6908  0.2640 -0.1857
 7710SOL    HW134766   4.468   0.733   7.580  2.3787  0.4955 -1.5373
 7710SOL    HW234767   4.568   0.735   7.674 -2.5415 -2.9591 -0.3195
 7711SOL     OW34768   2.512   0.390   7.974  0.0804 -0.5046 -0.2495
 7711SOL    HW134769   2.596   0.352   7.999  0.2611  0.0001 -0.0905
 7711SOL    HW234770   2.482   0.336   7.900 -0.7238 -0.9076  0.3777
 7712SOL     OW34771   3.059   0.988   0.920 -0.2755 -0.4908  0.2020
 7712SOL    HW134772   2.992   0.981   0.852  0.2723 -3.1372 -0.0588
 7712SOL    HW234773   3.003   1.034   0.983  0.5683  0.9365 -0.1000
 7713SOL     OW34774   0.298   4.265   2.322  0.4431  0.6399 -0.1221
 7713SOL    HW134775   0.270   4.234   2.409 -0.9390  1.6237 -0.2221
 7713SOL    HW234776   0.245   4.206   2.268 -0.0813 -0.2377  1.3233
 7714SOL     OW34777   2.395   1.853  16.153 -0.2717 -0.3235 -0.1716
 7714SOL    HW134778   2.319   1.846  16.211 -0.0833 -0.0671  0.1057
 7714SOL    HW234779   2.469   1.826  16.207 -0.5229 -1.0705 -0.1922
 7715SOL     OW34780   2.146   1.464   1.113  0.2588 -0.0370  0.1241
 7715SOL    HW134781   2.075   1.437   1.055  0.4957 -0.0816 -0.1478
 7715SOL    HW234782   2.196   1.517   1.050 -0.3113  1.0421  0.5777
 7716SOL     OW34783   4.603   4.025   3.172 -0.8842  0.7750 -0.6897
 7716SOL    HW134784   4.660   4.072   3.233  1.2628 -4.5186  1.3760
 7716SOL    HW234785   4.556   3.972   3.236 -1.4376 -0.1997 -1.9047
 7717SOL     OW34786   1.644   3.270   6.142 -0.2564 -0.0510  0.8254
 7717SOL    HW134787   1.593   3.235   6.068  0.2169  3.2109 -1.0569
 7717SOL    HW234788   1.734   3.243   6.122 -0.2434  1.1823 -0.8565
 7718SOL     OW34789   1.852   1.443   6.538  0.7338 -0.1018  0.1155
 7718SOL    HW134790   1.782   1.379   6.551  0.4531  0.3641  0.8886
 7718SOL    HW234791   1.908   1.413   6.610  1.1505 -1.5622 -0.8123
 7719SOL     OW34792   0.117   3.079   4.093  0.3790  0.1135 -0.3470
 7719SOL    HW134793   0.057   3.150   4.116  1.7437  1.0487  0.3240
 7719SOL    HW234794   0.096   3.022   4.168  0.8494  1.2609  0.6613
 7720SOL     OW34795   3.874   4.619   8.344  0.1948  0.6767 -0.8982
 7720SOL    HW134796   3.839   4.532   8.362  0.5400  0.8866  0.8085
 7720SOL    HW234797   3.942   4.627   8.411 -1.2832  2.0639  0.4457
 7721SOL     OW34798   3.143   1.650   4.273 -0.7180 -0.5377 -0.0135
 7721SOL    HW134799   3.052   1.667   4.295 -0.3866  0.4481  0.6052
 7721SOL    HW234800   3.162   1.712   4.202  0.4578 -2.2457 -1.2063
 7722SOL     OW34801   0.044   1.057   3.622 -0.0960  0.2065  0.5507
 7722SOL    HW134802   4.706   1.108   3.591 -1.3668 -1.3588  1.0547
 7722SOL    HW234803   0.008   1.029   3.706  1.3168 -2.6282  0.2134
 7723SOL     OW34804   2.293   3.438   0.466 -0.2093  0.4061 -0.5995
 7723SOL    HW134805   2.219   3.413   0.522 -0.1308  0.1263 -0.6220
 7723SOL    HW234806   2.249   3.464   0.385 -0.2960  0.4550 -0.5373
 7724SOL     OW34807   2.127   3.851  11.936  0.0103 -0.0600 -0.2679
 7724SOL    HW134808   2.168   3.780  11.887 -1.3309 -0.5456 -0.6837
 7724SOL    HW234809   2.091   3.899  11.861 -0.2013  0.0353 -0.1049
 7725SOL     OW34810   3.936   3.282   2.884 -0.1772 -0.4634  0.2433
 7725SOL    HW134811   3.858   3.253   2.836 -0.5371  1.1649 -0.1543
 7725SOL    HW234812   3.967   3.350   2.823  2.0948  0.2572  2.2153
 7726SOL     OW34813   3.070   4.113   7.198  0.5121 -0.2478 -0.2296
 7726SOL    HW134814   3.082   4.123   7.104  0.6367 -1.8153 -0.3658
 7726SOL    HW234815   3.007   4.180   7.226 -1.2230 -1.4236 -1.3421
 7727SOL     OW34816   3.071   4.600   0.834 -0.0490 -0.0850  0.2124
 7727SOL    HW134817   3.141   4.551   0.791  1.9846  2.3480  0.7276
 7727SOL    HW234818   3.074   4.548   0.914  0.5122 -0.5363 -0.1097
 7728SOL     OW34819   4.429   4.017   1.500 -0.2596  0.9119  0.1256
 7728SOL    HW134820   4.513   3.983   1.531 -0.5355 -0.5986 -0.7615
 7728SOL    HW234821   4.378   4.022   1.581  1.8957  2.6225  1.3918
 7729SOL     OW34822   1.467   3.350   8.242  0.4209  0.4208 -0.4735
 7729SOL    HW134823   1.420   3.268   8.225  3.7332 -1.7562  0.8417
 7729SOL    HW234824   1.532   3.314   8.303  1.1196  0.5453 -1.1366
 7730SOL     OW34825   1.095   2.617   6.245 -0.1072  0.0343 -0.7655
 7730SOL    HW134826   1.070   2.536   6.290  1.3167  0.1666  0.2545
 7730SOL    HW234827   1.021   2.665   6.281  1.7702  1.7038  0.9009
 7731SOL     OW34828   1.763   0.730   9.996  0.0802 -0.0592  0.3110
 7731SOL    HW134829   1.784   0.796  10.063  0.2841  0.9160 -0.7157
 7731SOL    HW234830   1.691   0.687  10.041 -1.9502  2.1915 -0.7868
 7732SOL     OW34831   3.349   0.771  14.059  0.7453 -0.1349  0.4838
 7732SOL    HW134832   3.411   0.699  14.076 -0.4255 -1.3067 -0.2429
 7732SOL    HW234833   3.314   0.733  13.979  2.4791  0.1236 -0.3941
 7733SOL     OW34834   0.247   1.925   3.343  0.7864  0.0516 -0.4837
 7733SOL    HW134835   0.242   1.955   3.252  1.6331 -0.4924 -0.7057
 7733SOL    HW234836   0.217   1.835   3.328 -2.4518  0.8924  0.9133
 7734SOL     OW34837   1.923   4.508   7.936  0.2637 -0.1521  0.1900
 7734SOL    HW134838   1.881   4.485   8.019  1.3534 -0.1220  0.7426
 7734SOL    HW234839   2.005   4.544   7.970  1.2327 -1.2932 -0.9383
 7735SOL     OW34840   4.278   4.527   0.399 -0.3549  0.4209  0.6562
 7735SOL    HW134841   4.372   4.510   0.398 -0.6510 -1.1985 -0.6794
 7735SOL    HW234842   4.236   4.474   0.468  0.0596 -0.3698  0.3055
 7736SOL     OW34843   3.618   2.977   8.065 -0.3863  0.1875 -0.2833
 7736SOL    HW134844   3.566   3.015   7.993 -1.2951  0.3663  0.4751
 7736SOL    HW234845   3.649   3.058   8.106  0.3897 -0.9563  1.3905
 7737SOL     OW34846   0.271   3.095   4.872  0.2845  0.0035 -0.8742
 7737SOL    HW134847   0.183   3.075   4.841 -0.3407  3.0281 -1.0085
 7737SOL    HW234848   0.252   3.121   4.962 -2.0618  1.4836 -1.8031
 7738SOL     OW34849   4.663   3.167   1.591 -0.2156 -0.3436 -0.4707
 7738SOL    HW134850   0.001   3.112   1.568 -0.0215 -0.2486 -0.0527
 7738SOL    HW234851   4.721   3.239   1.615 -1.9436  0.0272  2.6205
 7739SOL     OW34852   2.165   2.790   7.755 -0.2154 -0.4846  0.0935
 7739SOL    HW134853   2.116   2.843   7.692  1.9481  0.7849 -0.5318
 7739SOL    HW234854   2.126   2.704   7.735  0.3198 -1.0575  1.5024
 7740SOL     OW34855   1.189   0.274  10.453 -0.6036 -0.2604  0.0813
 7740SOL    HW134856   1.130   0.276  10.528 -0.3418 -0.7252  0.2997
 7740SOL    HW234857   1.158   0.347  10.400  1.1098  0.4195  0.0052
 7741SOL     OW34858   4.225   1.920   0.828 -0.6281 -0.4217 -0.1748
 7741SOL    HW134859   4.170   1.890   0.900 -0.6883 -0.8892 -0.4124
 7741SOL    HW234860   4.310   1.936   0.869 -0.6989  0.8267 -0.5015
 7742SOL     OW34861   1.458   2.559   6.979  0.0964  0.3762  0.9394
 7742SOL    HW134862   1.500   2.514   6.905  0.1547  0.1521  1.1086
 7742SOL    HW234863   1.528   2.549   7.043 -1.0208 -2.2765  1.7305
 7743SOL     OW34864   3.537   1.226  14.370 -0.1374  0.3678 -0.3353
 7743SOL    HW134865   3.456   1.270  14.398 -0.1535  1.0126 -1.3945
 7743SOL    HW234866   3.558   1.277  14.291 -2.6634  1.9194 -0.0112
 7744SOL     OW34867   2.286   3.019   1.981  0.8408 -0.4813  0.1702
 7744SOL    HW134868   2.240   3.089   2.028  0.2375  0.1038 -1.3095
 7744SOL    HW234869   2.379   3.040   1.994  1.4884 -2.5038 -1.1900
 7745SOL     OW34870   1.607   0.201   7.523 -0.1465 -0.5859 -0.1761
 7745SOL    HW134871   1.627   0.250   7.602  1.7544  1.4185 -1.8949
 7745SOL    HW234872   1.659   0.257   7.466 -1.0152  1.2338  0.8446
 7746SOL     OW34873   2.422   2.556   2.558 -0.0318 -0.3795  0.0776
 7746SOL    HW134874   2.481   2.582   2.488  0.8989 -0.5040  0.8102
 7746SOL    HW234875   2.474   2.582   2.634  2.9865 -1.1089 -1.7837
 7747SOL     OW34876   0.246   3.921   8.517  0.5525 -0.3946  0.0265
 7747SOL    HW134877   0.328   3.970   8.512  0.7182 -0.6656  0.0570
 7747SOL    HW234878   0.236   3.899   8.610  2.3675  0.7725  0.4937
 7748SOL     OW34879   3.589   2.550   3.923  0.3506 -0.3942  0.4897
 7748SOL    HW134880   3.634   2.578   3.844 -2.3979 -1.9178 -1.6157
 7748SOL    HW234881   3.633   2.467   3.943  3.2728  1.1604  0.5353
 7749SOL     OW34882   4.550   4.597   4.967  0.0345  0.2361  0.3000
 7749SOL    HW134883   4.589   4.537   4.903  1.2121  1.3343 -0.0151
 7749SOL    HW234884   4.467   4.621   4.928 -1.8717 -1.9115  2.9755
 7750SOL     OW34885   0.163   1.160   6.168 -0.3424 -0.3182  0.3365
 7750SOL    HW134886   0.150   1.070   6.198  0.5778 -0.0023  1.6514
 7750SOL    HW234887   0.085   1.187   6.217  0.0639  1.5733 -0.0507
 7751SOL     OW34888   4.376   3.379  11.125 -0.1263  0.6142 -0.1189
 7751SOL    HW134889   4.448   3.405  11.183 -0.3688  0.7667  0.1150
 7751SOL    HW234890   4.300   3.395  11.180 -0.8746  0.8501 -1.2144
 7752SOL     OW34891   2.028   1.988   2.318  0.3392  0.2159  0.4690
 7752SOL    HW134892   1.965   2.023   2.254 -0.9783 -3.1568 -0.0501
 7752SOL    HW234893   1.996   2.021   2.402 -1.9342 -1.8233  0.4151
 7753SOL     OW34894   0.359   3.190   2.508 -0.0016 -0.4843  0.5993
 7753SOL    HW134895   0.353   3.281   2.537  0.8852 -0.1460 -0.3002
 7753SOL    HW234896   0.274   3.162   2.543 -0.6882  0.2853 -0.4591
 7754SOL     OW34897   4.410   2.854  15.536 -0.1361 -0.2388 -0.3439
 7754SOL    HW134898   4.402   2.949  15.532  0.0498 -0.2717 -1.4618
 7754SOL    HW234899   4.360   2.836  15.616  0.4051 -2.4503 -0.5037
 7755SOL     OW34900   1.746   4.524  15.868 -0.5297 -0.3945 -0.1537
 7755SOL    HW134901   1.784   4.547  15.783 -0.7307 -0.4942 -0.2708
 7755SOL    HW234902   1.662   4.490  15.838  0.5671 -2.7788 -0.5459
 7756SOL     OW34903   3.999   2.212  13.876  0.0291 -0.3536 -0.3832
 7756SOL    HW134904   4.093   2.227  13.867  0.1496  0.5115  2.4079
 7756SOL    HW234905   3.967   2.280  13.817 -0.6383 -0.6458 -0.3570
 7757SOL     OW34906   1.330   2.081   7.963  0.6395 -0.3012  0.6193
 7757SOL    HW134907   1.370   1.993   7.958  0.9711 -0.0754 -0.7696
 7757SOL    HW234908   1.336   2.110   7.872 -0.6572 -0.3951  0.5127
 7758SOL     OW34909   4.396   4.165   1.284 -0.0647  0.3471  0.4327
 7758SOL    HW134910   4.432   4.101   1.222 -1.3315  0.1907 -0.1234
 7758SOL    HW234911   4.428   4.143   1.372  2.2784 -1.0422 -0.7581
 7759SOL     OW34912   3.920   3.518   9.721 -0.0464 -0.4528 -0.0205
 7759SOL    HW134913   3.843   3.538   9.774 -0.3235 -0.5892 -0.3655
 7759SOL    HW234914   3.964   3.602   9.711 -2.9399  1.2735  2.0239
 7760SOL     OW34915   2.701   3.215   6.529 -0.3875  0.0288  0.6684
 7760SOL    HW134916   2.650   3.239   6.451  1.6355 -2.3130 -1.4082
 7760SOL    HW234917   2.651   3.262   6.595 -0.6425  2.8526 -1.5250
 7761SOL     OW34918   0.626   1.577  14.586  0.6904  0.0342 -0.4480
 7761SOL    HW134919   0.584   1.523  14.520 -0.4549 -0.5992  0.8146
 7761SOL    HW234920   0.624   1.667  14.553  2.8644  1.2843  2.8517
 7762SOL     OW34921   3.068   1.178   4.093  0.2358 -0.2389 -0.1698
 7762SOL    HW134922   3.137   1.229   4.051  0.2926  0.5489  0.8808
 7762SOL    HW234923   3.034   1.129   4.018  1.2914  0.4486 -1.1060
 7763SOL     OW34924   3.724   1.736   9.876 -0.1156  0.1705 -0.1758
 7763SOL    HW134925   3.681   1.818   9.852 -2.0467 -1.1318 -1.2167
 7763SOL    HW234926   3.677   1.697   9.949  1.5100 -1.0564  0.2096
 7764SOL     OW34927   0.394   4.030   3.373  0.1881  0.0072  0.0795
 7764SOL    HW134928   0.351   4.023   3.458  1.7430 -0.4785  0.8124
 7764SOL    HW234929   0.437   3.946   3.356  0.9956  0.8476 -2.0116
 7765SOL     OW34930   3.125   2.127   2.781 -0.0595  0.4787 -0.4132
 7765SOL    HW134931   3.190   2.195   2.794  0.2501  0.0935  0.0499
 7765SOL    HW234932   3.173   2.085   2.709  0.6542 -1.8129  1.3793
 7766SOL     OW34933   1.370   1.977   9.915  0.1730 -0.1291 -0.0491
 7766SOL    HW134934   1.411   1.914   9.856 -0.6929  0.6062 -1.4118
 7766SOL    HW234935   1.277   1.963   9.896  0.3801 -2.0499  0.3581
 7767SOL     OW34936   1.208   0.797   2.003  0.3995 -0.0761 -0.2286
 7767SOL    HW134937   1.259   0.747   2.067  0.8644 -0.6520 -1.0401
 7767SOL    HW234938   1.260   0.877   2.008  0.9342 -0.4046 -0.4052
 7768SOL     OW34939   2.499   3.303   6.708 -0.2829 -0.3801 -0.2778
 7768SOL    HW134940   2.415   3.256   6.704 -0.4253 -0.0162 -1.6652
 7768SOL    HW234941   2.498   3.347   6.793  1.0838  0.6074 -0.7792
 7769SOL     OW34942   0.979   0.149  11.267 -0.2478 -0.4789  0.2594
 7769SOL    HW134943   0.970   0.177  11.176  1.9927 -2.9652 -0.7055
 7769SOL    HW234944   1.064   0.187  11.290  0.5638 -2.0353 -0.1814
 7770SOL     OW34945   0.653   0.509  16.834  0.0054 -0.5000 -0.5235
 7770SOL    HW134946   0.569   0.542  16.803  0.0956 -1.6982 -2.0259
 7770SOL    HW234947   0.624   0.446  16.900  1.9241  0.9301  1.6833
 7771SOL     OW34948   3.812   0.280   9.270 -0.8151 -0.0745  0.0161
 7771SOL    HW134949   3.736   0.273   9.328 -1.3855  0.7822 -0.6313
 7771SOL    HW234950   3.760   0.284   9.189  1.0018 -1.9630 -1.2410
 7772SOL     OW34951   1.046   3.064   1.412  0.3453 -0.0690  0.7046
 7772SOL    HW134952   1.018   2.986   1.460  0.5691  0.0390  1.0093
 7772SOL    HW234953   1.062   3.029   1.324  1.0175  0.7385  0.4994
 7773SOL     OW34954   1.683   2.378   2.005 -0.0327 -0.8956  0.0566
 7773SOL    HW134955   1.665   2.316   2.076  2.5204  0.2429  1.7263
 7773SOL    HW234956   1.766   2.340   1.974  0.6155  0.2305  0.4328
 7774SOL     OW34957   3.844   0.297   7.800  0.5725  0.0157 -0.0340
 7774SOL    HW134958   3.919   0.292   7.860  0.4408  0.4779  0.1657
 7774SOL    HW234959   3.785   0.230   7.834  0.5651 -0.1348 -0.3449
 7775SOL     OW34960   3.931   4.590   9.380 -0.4497  1.0967 -0.6895
 7775SOL    HW134961   3.953   4.626   9.294 -1.1503  0.9018 -0.9555
 7775SOL    HW234962   3.923   4.671   9.430 -3.9815  0.4553 -0.1648
 7776SOL     OW34963   0.947   1.736  14.607  0.3287 -0.0944 -0.7476
 7776SOL    HW134964   0.938   1.669  14.675  2.7956  0.5902  0.2717
 7776SOL    HW234965   0.943   1.677  14.531 -2.4793 -0.0222 -0.6291
 7777SOL     OW34966   2.243   3.527   3.369 -0.1037 -0.0367  0.0294
 7777SOL    HW134967   2.321   3.547   3.317  1.2603  1.1088  2.4961
 7777SOL    HW234968   2.189   3.488   3.300 -1.3060  1.8764 -0.0998
 7778SOL     OW34969   3.254   2.954   8.671 -0.3406 -0.1020 -0.3376
 7778SOL    HW134970   3.260   2.919   8.760  1.5215  2.9473  0.7310
 7778SOL    HW234971   3.317   3.027   8.668 -1.9179  1.2989  0.8961
 7779SOL     OW34972   3.339   2.224   4.806  0.4208 -0.0797 -0.7905
 7779SOL    HW134973   3.363   2.157   4.742  0.6404  0.3065 -1.1111
 7779SOL    HW234974   3.246   2.231   4.785  0.1267 -2.0960 -0.1009
 7780SOL     OW34975   3.377   0.801  17.110 -0.1909  0.1033  0.5726
 7780SOL    HW134976   3.396   0.869  17.046  0.2829 -0.1616  0.4318
 7780SOL    HW234977   3.457   0.780  17.158  1.2545 -0.4267 -2.0393
 7781SOL     OW34978   4.299   3.898   3.055  0.0437  0.7605  0.4999
 7781SOL    HW134979   4.384   3.875   3.093 -0.9446 -0.5903  1.9090
 7781SOL    HW234980   4.269   3.966   3.115  0.6537 -1.9198  3.8956
 7782SOL     OW34981   1.564   1.837  12.674 -0.1809  0.2157 -0.2615
 7782SOL    HW134982   1.640   1.882  12.638 -0.0183  0.1438 -0.0130
 7782SOL    HW234983   1.560   1.875  12.762 -0.4640  1.0860 -0.6611
 7783SOL     OW34984   4.220   2.678   4.546  0.1343  0.2995  0.1277
 7783SOL    HW134985   4.150   2.614   4.561 -2.8685  3.0729 -2.0242
 7783SOL    HW234986   4.198   2.744   4.612 -0.7611 -0.5423  0.6689
 7784SOL     OW34987   1.591   0.695  10.202 -0.2516  0.4189 -0.7230
 7784SOL    HW134988   1.585   0.785  10.233 -2.5735 -1.0125  2.9360
 7784SOL    HW234989   1.636   0.647  10.272 -1.4065  1.6482  0.8563
 7785SOL     OW34990   1.757   0.236   1.670  0.5588 -0.4855  0.0915
 7785SOL    HW134991   1.717   0.218   1.755 -0.6467  0.4965 -0.2722
 7785SOL    HW234992   1.719   0.320   1.645  0.6575  0.2546  2.4195
 7786SOL     OW34993   1.945   3.715   4.903  0.0365 -0.5338 -0.0095
 7786SOL    HW134994   1.880   3.734   4.835  0.2155  0.1258  0.0021
 7786SOL    HW234995   1.998   3.794   4.894 -0.3558 -0.0474  2.0687
 7787SOL     OW34996   1.764   2.473  14.849 -0.7485  0.8437 -0.5842
 7787SOL    HW134997   1.793   2.508  14.933 -1.2617  0.4455 -0.2393
 7787SOL    HW234998   1.685   2.424  14.872  0.7020 -0.9150  0.6560
 7788SOL     OW34999   0.466   0.114  13.279  0.6928  0.2384  0.2758
 7788SOL    HW135000   0.384   0.150  13.244 -0.4267 -2.3655  0.1708
 7788SOL    HW235001   0.499   0.057  13.209  0.2225  0.3562 -0.0460
 7789SOL     OW35002   4.434   2.934   9.081  0.3241  0.6296  0.8900
 7789SOL    HW135003   4.402   2.860   9.030  1.0820 -0.1002  1.4680
 7789SOL    HW235004   4.358   2.947   9.139  0.2499 -0.4111  1.0403
 7790SOL     OW35005   2.298   1.154   7.326 -0.3716  0.1011  0.4712
 7790SOL    HW135006   2.292   1.167   7.231  2.1623 -0.2456  0.2804
 7790SOL    HW235007   2.235   1.214   7.365 -2.5026 -1.3433 -0.6682
 7791SOL     OW35008   2.964   4.402   0.274  0.0414 -0.4363 -0.5289
 7791SOL    HW135009   3.011   4.485   0.276  0.4451 -0.6889  0.6256
 7791SOL    HW235010   2.967   4.362   0.361  1.5620 -1.4262 -1.0339
 7792SOL     OW35011   3.439   2.322   9.513  0.1374  0.1922  0.6750
 7792SOL    HW135012   3.463   2.370   9.592 -1.0655  3.4696 -0.9769
 7792SOL    HW235013   3.421   2.399   9.459 -0.2572  0.3154  0.9797
 7793SOL     OW35014   2.207   0.107   0.281 -0.0967 -0.5485  0.1703
 7793SOL    HW135015   2.277   0.173   0.284 -1.9693  1.3612  1.7386
 7793SOL    HW235016   2.224   0.067   0.196  0.9087  2.9279 -1.2829
 7794SOL     OW35017   2.776   4.683   6.102  0.0238  0.1516 -0.9456
 7794SOL    HW135018   2.762   0.033   6.141 -0.6633  0.2271 -1.3596
 7794SOL    HW235019   2.841   4.688   6.032  0.9433  0.0998 -0.0961
 7795SOL     OW35020   2.654   0.852   8.299 -0.3594  0.5014  0.1110
 7795SOL    HW135021   2.688   0.915   8.235 -0.2009  0.4813  0.1741
 7795SOL    HW235022   2.731   0.795   8.296  0.0714  1.0396  0.7158
 7796SOL     OW35023   3.378   0.751   8.216  0.4552 -0.0266  0.0134
 7796SOL    HW135024   3.367   0.813   8.289  0.2968 -0.9712  0.8018
 7796SOL    HW235025   3.442   0.689   8.252 -0.3191 -0.6895  0.2428
 7797SOL     OW35026   4.407   3.880   8.829  0.2081 -0.1207  0.2769
 7797SOL    HW135027   4.418   3.912   8.740  0.4545  1.1065  0.7523
 7797SOL    HW235028   4.448   3.954   8.873 -0.8326 -1.3097  3.2845
 7798SOL     OW35029   4.712   1.152   5.358 -0.2478 -0.5702  0.0966
 7798SOL    HW135030   4.694   1.058   5.354 -1.8927 -0.2599  0.1406
 7798SOL    HW235031   0.008   1.157   5.448  1.8926  2.2276 -0.8189
 7799SOL     OW35032   0.246   0.286  16.496 -0.4291  0.0548  0.3645
 7799SOL    HW135033   0.286   0.208  16.458 -1.5865 -0.0168 -0.6857
 7799SOL    HW235034   0.268   0.350  16.428  2.5244 -1.1440  0.1727
 7800SOL     OW35035   3.443   1.404   4.364  0.2750 -0.1072 -0.3298
 7800SOL    HW135036   3.481   1.317   4.370  2.5756  1.0202  1.6780
 7800SOL    HW235037   3.393   1.411   4.446  1.3228  1.5710  0.1719
 7801SOL     OW35038   4.344   2.943  13.693  0.1983  0.2028 -0.4616
 7801SOL    HW135039   4.380   3.026  13.662 -0.7469  0.7393 -0.1138
 7801SOL    HW235040   4.418   2.923  13.751  0.8256  1.4747 -0.8419
 7802SOL     OW35041   0.908   2.877  15.384 -0.1510  0.2561  0.4470
 7802SOL    HW135042   0.863   2.909  15.462 -1.0665 -0.4233  0.1877
 7802SOL    HW235043   0.996   2.914  15.392 -0.6457  1.1480  1.7462
 7803SOL     OW35044   3.527   1.413   2.392  0.0845  0.3799  0.2839
 7803SOL    HW135045   3.585   1.392   2.318 -1.5204  0.7624 -1.0838
 7803SOL    HW235046   3.495   1.325   2.410 -0.3681  0.4401 -0.2343
 7804SOL     OW35047   1.398   3.720   4.518 -0.2948 -0.3079 -0.2687
 7804SOL    HW135048   1.457   3.675   4.457  1.7012  0.1638  1.3205
 7804SOL    HW235049   1.366   3.792   4.464  0.6332  0.5803  0.3631
 7805SOL     OW35050   3.095   2.464   2.167  0.2505 -0.0527 -0.4028
 7805SOL    HW135051   3.177   2.446   2.213  0.0661 -0.7006 -0.3244
 7805SOL    HW235052   3.055   2.377   2.159 -1.4452  0.7718 -0.9085
 7806SOL     OW35053   3.223   4.677  12.418  0.2598 -0.1956 -0.2263
 7806SOL    HW135054   3.154   0.002  12.440  0.5011 -0.5582  1.5511
 7806SOL    HW235055   3.301   4.733  12.421 -1.3491  2.1462 -1.7334
 7807SOL     OW35056   3.376   3.913   6.932  0.1777  0.4668  0.2443
 7807SOL    HW135057   3.472   3.912   6.940  0.1841 -0.7486 -0.1207
 7807SOL    HW235058   3.367   4.005   6.959  0.1737  0.0535  1.6489
 7808SOL     OW35059   0.410   3.784  13.292  0.1604  0.5055  0.3331
 7808SOL    HW135060   0.423   3.732  13.372  1.4619  2.5585  1.4581
 7808SOL    HW235061   0.338   3.748  13.240  0.4566  0.8278 -0.2986
 7809SOL     OW35062   0.064   1.894   6.277  0.1613 -0.0049 -0.2165
 7809SOL    HW135063   0.002   1.933   6.339 -0.4528  0.8935 -1.3812
 7809SOL    HW235064   0.011   1.821   6.246 -3.2100  2.3465  0.0094
 7810SOL     OW35065   2.458   4.143   7.243  0.4212  0.1553  0.8562
 7810SOL    HW135066   2.388   4.181   7.190  0.4373 -0.7516  0.1681
 7810SOL    HW235067   2.532   4.186   7.201  2.1388 -2.2061  1.4139
 7811SOL     OW35068   3.525   0.614   1.215  0.3163  0.1988  0.4566
 7811SOL    HW135069   3.466   0.558   1.164  1.9385  0.3915 -1.6526
 7811SOL    HW235070   3.467   0.645   1.284 -0.7204 -0.2231 -0.2118
 7812SOL     OW35071   1.867   0.749   9.299  0.7454  1.0217 -0.2171
 7812SOL    HW135072   1.801   0.770   9.365  0.0073 -1.7229 -0.0849
 7812SOL    HW235073   1.943   0.722   9.350  0.5526  0.4907 -0.2181
 7813SOL     OW35074   4.412   4.015   6.754 -0.4222  0.0573 -0.0929
 7813SOL    HW135075   4.470   4.010   6.830  0.0061  1.3815 -0.3304
 7813SOL    HW235076   4.420   4.105   6.723  1.1832  0.1385  0.5786
 7814SOL     OW35077   4.375   1.928   2.667  0.3767 -0.7383 -0.4345
 7814SOL    HW135078   4.356   1.859   2.731  2.1449 -0.3651  0.4915
 7814SOL    HW235079   4.441   1.970   2.723  1.4687 -0.5255 -1.8899
 7815SOL     OW35080   0.373   1.809   6.098 -0.5864  0.8327 -0.1868
 7815SOL    HW135081   0.320   1.887   6.080 -0.1596  0.6427 -2.1801
 7815SOL    HW235082   0.312   1.736   6.086  1.1269 -0.0055 -3.6874
 7816SOL     OW35083   1.242   2.786   1.518  0.4216  0.2546 -0.3798
 7816SOL    HW135084   1.167   2.818   1.468 -0.7822 -1.2680  0.4857
 7816SOL    HW235085   1.265   2.708   1.468 -1.3103 -1.1331  0.9959
 7817SOL     OW35086   0.285   0.346   5.657 -0.1457 -0.5283 -0.4294
 7817SOL    HW135087   0.348   0.409   5.622 -2.6781  2.4278  0.3332
 7817SOL    HW235088   0.291   0.342   5.752  0.8403 -0.1495 -0.4805
 7818SOL     OW35089   4.272   2.305  14.415 -0.0193  0.2443  0.2388
 7818SOL    HW135090   4.265   2.351  14.331  0.7182  0.4675  0.2978
 7818SOL    HW235091   4.363   2.276  14.424 -0.1009 -0.2476 -0.5230
 7819SOL     OW35092   2.944   4.590   7.211  0.2619  0.1517 -0.4723
 7819SOL    HW135093   2.924   4.596   7.117 -0.2647  0.1230 -0.3625
 7819SOL    HW235094   2.865   4.622   7.254 -1.0292 -2.4555 -0.8967
 7820SOL     OW35095   4.240   4.034   5.564 -0.2247 -0.7120  0.1015
 7820SOL    HW135096   4.299   4.071   5.498 -0.0015  0.1073  0.7645
 7820SOL    HW235097   4.252   3.941   5.544  0.4336 -0.5858 -0.1157
 7821SOL     OW35098   1.884   0.030   5.522 -0.1273  0.0981  0.7825
 7821SOL    HW135099   1.854   4.704   5.588 -0.9425 -1.0477 -0.6681
 7821SOL    HW235100   1.802   0.073   5.495 -0.8566 -3.1646 -2.1917
 7822SOL     OW35101   1.101   3.976   3.141  0.3734  0.1510 -0.1400
 7822SOL    HW135102   1.014   3.938   3.134  0.2547 -0.1398  2.7846
 7822SOL    HW235103   1.159   3.910   3.178 -2.4595 -1.5863  1.2377
 7823SOL     OW35104   2.537   2.710   5.936  0.3011 -0.4327  0.3136
 7823SOL    HW135105   2.509   2.695   6.026  3.0498 -1.3815  1.0097
 7823SOL    HW235106   2.510   2.626   5.898 -2.9979  0.3606  0.9605
 7824SOL     OW35107   4.402   1.011   8.542  0.0212 -0.1814 -0.6576
 7824SOL    HW135108   4.447   0.936   8.504  0.0249  0.0448 -1.0931
 7824SOL    HW235109   4.321   1.001   8.492  0.2935 -0.6910 -0.9946
 7825SOL     OW35110   2.049   4.248   3.546 -0.2159 -0.1043 -0.0591
 7825SOL    HW135111   2.063   4.187   3.618 -3.1974 -0.0912  0.5345
 7825SOL    HW235112   2.122   4.311   3.548 -1.2778  1.2045 -1.4436
 7826SOL     OW35113   4.461   4.562   7.350  0.1162 -0.1233 -0.2485
 7826SOL    HW135114   4.513   4.636   7.382 -0.3215 -0.8299  2.0849
 7826SOL    HW235115   4.497   4.490   7.403  1.3715  1.5874  1.2492
 7827SOL     OW35116   4.203   0.139   7.804  0.0700 -0.4182  0.9062
 7827SOL    HW135117   4.283   0.164   7.757 -0.4953 -1.0678 -0.4155
 7827SOL    HW235118   4.157   0.089   7.736 -0.8076 -1.2771  2.1407
 7828SOL     OW35119   1.160   0.010   7.336 -0.3521 -0.0813 -0.1208
 7828SOL    HW135120   1.124   4.669   7.380  0.9345 -0.0682  0.9453
 7828SOL    HW235121   1.225   4.706   7.279  1.2589  1.0123  0.9732
 7829SOL     OW35122   3.837   4.005  17.732  0.0263 -0.2794  0.0360
 7829SOL    HW135123   3.915   4.027   0.038  0.4201  0.6857 -1.0062
 7829SOL    HW235124   3.775   4.059   0.039  0.5552  1.0937 -0.7829
 7830SOL     OW35125   2.990   0.080   4.830 -0.0042 -0.4664  0.7170
 7830SOL    HW135126   2.995   0.061   4.737  1.4060 -1.5243  1.0018
 7830SOL    HW235127   2.929   0.154   4.836  0.2745 -0.1579 -0.3818
 7831SOL     OW35128   1.339   2.811   6.946 -0.3120  0.1269  0.2359
 7831SOL    HW135129   1.250   2.785   6.927 -0.2650  0.7563 -0.8562
 7831SOL    HW235130   1.394   2.735   6.929 -1.9022 -0.8744 -0.3267
 7832SOL     OW35131   3.785   3.162   3.446  0.2669  0.1881  0.2302
 7832SOL    HW135132   3.720   3.231   3.432  1.0071  0.8111 -0.1465
 7832SOL    HW235133   3.723   3.089   3.449  0.7955 -0.2468  0.7359
 7833SOL     OW35134   2.098   3.007   9.077  0.3573  0.3839 -0.0804
 7833SOL    HW135135   2.094   2.958   9.159  0.3110 -1.7966 -1.3806
 7833SOL    HW235136   2.010   2.991   9.045  1.2075 -0.9493 -1.7476
 7834SOL     OW35137   0.975   3.296   7.016  0.1513 -0.5312 -0.0295
 7834SOL    HW135138   1.052   3.245   6.990 -0.0783 -0.4169 -0.9160
 7834SOL    HW235139   1.006   3.387   7.022  0.2768 -0.5442 -0.5088
 7835SOL     OW35140   2.076   0.902   8.869 -0.4657 -0.1956 -0.4025
 7835SOL    HW135141   2.100   0.926   8.959 -2.7071 -1.8795  0.6435
 7835SOL    HW235142   2.161   0.870   8.838 -0.4137  0.1463 -0.6021
 7836SOL     OW35143   2.326   3.773   6.930 -0.5815  0.0488 -0.2803
 7836SOL    HW135144   2.315   3.830   7.006 -0.6762 -0.5201  0.1332
 7836SOL    HW235145   2.418   3.751   6.936 -0.4413  1.1570  1.5405
 7837SOL     OW35146   2.409   2.826   6.580 -0.2508 -0.6419  0.1417
 7837SOL    HW135147   2.439   2.752   6.528  0.5945  0.8325 -1.4466
 7837SOL    HW235148   2.372   2.878   6.509 -0.0763  2.3292  2.2115
 7838SOL     OW35149   3.927   0.432   4.292  0.2987  0.4287 -0.3014
 7838SOL    HW135150   3.937   0.408   4.384  1.2749  0.5792 -0.3637
 7838SOL    HW235151   3.835   0.411   4.276  0.8611 -2.7569  0.6907
 7839SOL     OW35152   1.073   3.489   1.872  0.6456  0.0942  0.7768
 7839SOL    HW135153   1.107   3.579   1.875 -0.0524  0.3881 -0.0527
 7839SOL    HW235154   1.123   3.447   1.942  0.6644 -2.7445 -0.9471
 7840SOL     OW35155   2.772   0.212   5.213 -0.7847 -0.2291 -0.6748
 7840SOL    HW135156   2.706   0.154   5.251  0.6891 -1.9558 -0.7489
 7840SOL    HW235157   2.723   0.260   5.146 -1.7732 -0.8804 -0.4119
 7841SOL     OW35158   2.608   3.414  15.357 -0.4315  0.4082  0.3323
 7841SOL    HW135159   2.704   3.417  15.358 -0.4427 -0.3571  3.7630
 7841SOL    HW235160   2.578   3.410  15.448 -0.5169  1.8295  0.3703
 7842SOL     OW35161   1.105   4.066   1.339  0.2125  0.6346  0.0063
 7842SOL    HW135162   1.187   4.061   1.387 -1.0729  0.0676  2.1562
 7842SOL    HW235163   1.142   4.080   1.252 -0.7661  1.9284 -0.2089
 7843SOL     OW35164   3.205   3.624   7.150  0.0664  0.3740  0.4887
 7843SOL    HW135165   3.228   3.709   7.188  1.8994  0.3749 -0.6518
 7843SOL    HW235166   3.249   3.568   7.214  3.3591  0.5168 -1.7154
 7844SOL     OW35167   4.115   4.495   3.162 -0.1134  0.4681 -0.3752
 7844SOL    HW135168   4.114   4.409   3.120  1.0647  0.1387  0.2601
 7844SOL    HW235169   4.181   4.533   3.103  1.3101 -0.9080  0.3194
 7845SOL     OW35170   4.334   3.018   6.574  0.3742 -0.8573  0.2624
 7845SOL    HW135171   4.410   3.000   6.629  0.1718 -0.0135  0.8092
 7845SOL    HW235172   4.343   3.113   6.568 -3.3370 -0.4322  1.8401
 7846SOL     OW35173   3.958   2.269  14.794 -0.5469  0.0135 -0.3890
 7846SOL    HW135174   3.911   2.200  14.841  0.9205  0.1180  1.2613
 7846SOL    HW235175   3.893   2.312  14.738 -0.7555  0.8142  0.4601
 7847SOL     OW35176   0.689   3.145   7.527  0.4559  0.2432 -0.3427
 7847SOL    HW135177   0.721   3.094   7.601  0.7577 -1.1722 -1.4523
 7847SOL    HW235178   0.759   3.205   7.503  0.2968  1.2938  1.8783
 7848SOL     OW35179   0.613   0.828  15.320  0.3164 -0.0306 -0.1670
 7848SOL    HW135180   0.666   0.908  15.323  0.8444 -0.3839 -0.0643
 7848SOL    HW235181   0.570   0.832  15.405  2.3600  1.2683  0.8051
 7849SOL     OW35182   3.720   3.063   5.338  0.0057  0.5809 -0.3715
 7849SOL    HW135183   3.721   3.033   5.247  0.6892 -2.6001  0.6586
 7849SOL    HW235184   3.636   3.034   5.373  0.8561 -1.4313  0.0302
 7850SOL     OW35185   1.068   1.513  12.412  0.1489 -0.0232  0.1411
 7850SOL    HW135186   1.142   1.458  12.436  0.0428 -0.4372 -0.4799
 7850SOL    HW235187   1.121   1.571  12.357 -2.0283  0.8189 -1.0840
 7851SOL     OW35188   0.739   0.610   8.284 -0.0376 -0.6715 -0.3077
 7851SOL    HW135189   0.820   0.657   8.269  1.4026 -2.5960  1.4051
 7851SOL    HW235190   0.739   0.552   8.208  0.9405  2.5028 -2.7205
 7852SOL     OW35191   3.020   2.986   6.665  0.5500  0.0645  0.6060
 7852SOL    HW135192   3.103   3.020   6.698  1.2293 -1.8630  0.8582
 7852SOL    HW235193   3.008   3.035   6.584  1.0517  0.7053  0.9164
 7853SOL     OW35194   2.432   0.764   3.197 -0.8269  0.0543 -0.1711
 7853SOL    HW135195   2.525   0.743   3.196 -0.9527 -0.4554 -2.3735
 7853SOL    HW235196   2.433   0.831   3.266  1.7493  0.3459 -0.4931
 7854SOL     OW35197   3.975   2.392   2.011 -0.3327 -0.3125  0.3346
 7854SOL    HW135198   4.022   2.417   2.090  0.5056 -0.0398 -0.2380
 7854SOL    HW235199   3.894   2.443   2.013  0.0300  0.3190 -1.1881
 7855SOL     OW35200   1.221   4.371   6.702  0.1132  0.0960  0.2793
 7855SOL    HW135201   1.132   4.397   6.681  0.2485  1.1650  1.0869
 7855SOL    HW235202   1.235   4.313   6.626  0.1821  2.4143 -1.4742
 7856SOL     OW35203   0.899   1.337   6.974  0.0479 -0.6143 -0.3523
 7856SOL    HW135204   0.890   1.418   7.024 -0.2037 -1.4415  0.9427
 7856SOL    HW235205   0.951   1.285   7.035  0.4564  0.5771  0.3331
 7857SOL     OW35206   1.923   2.590   8.112  0.0724  0.7173  0.4660
 7857SOL    HW135207   1.888   2.528   8.176  0.2051  1.1268  0.9356
 7857SOL    HW235208   1.895   2.675   8.148  0.6980  0.9196  0.4672
 7858SOL     OW35209   3.224   2.050   7.318 -0.0620 -0.3645 -0.1466
 7858SOL    HW135210   3.283   2.085   7.384 -0.4651  1.9981 -1.0414
 7858SOL    HW235211   3.238   2.111   7.246 -0.8241 -1.2473 -1.0493
 7859SOL     OW35212   0.472   2.254   6.323  0.2593 -0.2406 -0.3439
 7859SOL    HW135213   0.460   2.162   6.343  2.5188 -0.1743  1.3891
 7859SOL    HW235214   0.474   2.294   6.410 -2.5163  0.6622 -0.7027
 7860SOL     OW35215   0.915   0.841   8.483  0.2615 -0.0945 -0.2910
 7860SOL    HW135216   0.966   0.800   8.553  1.4180  1.7374 -0.0488
 7860SOL    HW235217   0.848   0.873   8.544  0.3846 -1.3737  0.5201
 7861SOL     OW35218   3.118   0.394  13.626 -0.3204 -0.0062 -0.4624
 7861SOL    HW135219   3.114   0.405  13.721 -3.0085  2.1152 -0.8130
 7861SOL    HW235220   3.063   0.470  13.608 -0.8059 -0.1746  0.2889
 7862SOL     OW35221   2.998   1.234   9.772 -0.4235 -0.2750 -0.4604
 7862SOL    HW135222   3.042   1.261   9.852  1.3492 -2.4896 -0.7145
 7862SOL    HW235223   2.939   1.303   9.741  0.9060  0.8052 -0.6042
 7863SOL     OW35224   1.303   4.100   7.164  0.0073 -0.2712 -0.5023
 7863SOL    HW135225   1.377   4.106   7.225 -1.0433 -2.3076  1.0034
 7863SOL    HW235226   1.269   4.013   7.185  1.2581 -1.0213 -1.6223
 7864SOL     OW35227   3.003   4.219   6.254 -0.2710 -0.2922 -0.1274
 7864SOL    HW135228   2.925   4.262   6.289 -0.4609 -0.4595 -0.3467
 7864SOL    HW235229   3.050   4.280   6.196  0.4779 -1.7322 -1.0251
 7865SOL     OW35230   1.508   4.425   4.955  0.1696  0.2496 -0.3545
 7865SOL    HW135231   1.535   4.336   4.975  0.7420  0.4773 -0.1079
 7865SOL    HW235232   1.526   4.424   4.861 -0.6794  1.3106 -0.5363
 7866SOL     OW35233   0.560   0.096   3.544  0.7070  0.1812  0.1956
 7866SOL    HW135234   0.468   0.124   3.546  0.6845  0.2221 -1.6172
 7866SOL    HW235235   0.582   0.094   3.451 -1.1924 -0.6964 -0.2439
 7867SOL     OW35236   1.140   4.457   5.315  0.3259  0.2672  0.2018
 7867SOL    HW135237   1.220   4.412   5.290 -0.2042 -0.3291 -0.4309
 7867SOL    HW235238   1.092   4.460   5.232  0.1017 -3.9066  0.2272
 7868SOL     OW35239   1.765   0.870   3.323 -0.0083 -0.4604 -0.2646
 7868SOL    HW135240   1.691   0.812   3.303 -0.6670  0.4712 -0.5035
 7868SOL    HW235241   1.836   0.812   3.297  0.7841  0.6450 -0.5438
 7869SOL     OW35242   1.033   3.986   7.320  0.3828  1.0252  0.1868
 7869SOL    HW135243   1.122   3.952   7.313 -0.3116 -1.0761  1.4706
 7869SOL    HW235244   0.992   3.947   7.243  0.4364  3.3815 -1.0091
 7870SOL     OW35245   0.491   1.516  13.290 -0.2431  0.0636  0.0780
 7870SOL    HW135246   0.438   1.563  13.355 -0.2724 -0.1409  0.1990
 7870SOL    HW235247   0.531   1.448  13.343  0.0520  0.3282  0.1961
 7871SOL     OW35248   2.612   3.285   8.254  0.4382  0.2247 -0.1191
 7871SOL    HW135249   2.519   3.298   8.236 -0.2456 -2.3870  1.6403
 7871SOL    HW235250   2.658   3.317   8.176 -2.8271  0.7799 -1.8429
 7872SOL     OW35251   1.807   4.519   4.280 -0.3921  0.0536  0.1147
 7872SOL    HW135252   1.868   4.593   4.282  0.7026 -0.7886 -1.8812
 7872SOL    HW235253   1.721   4.560   4.275 -1.6200 -2.4220  1.7476
 7873SOL     OW35254   3.244   4.622   5.615  0.0941 -0.1929 -0.3463
 7873SOL    HW135255   3.157   4.632   5.577  0.1359  0.5307 -0.2573
 7873SOL    HW235256   3.211   4.562   5.682 -1.3128 -1.7596 -2.4585
 7874SOL     OW35257   3.244   3.730   8.390  0.3207  0.2690 -0.1281
 7874SOL    HW135258   3.332   3.701   8.414  0.1704  0.2796  0.4542
 7874SOL    HW235259   3.233   3.680   8.310  2.2180  0.4211 -0.4800
 7875SOL     OW35260   4.654   4.431   6.506  0.3172  0.3643 -0.4215
 7875SOL    HW135261   4.689   4.497   6.566 -3.1767 -0.4702  2.4726
 7875SOL    HW235262   4.561   4.434   6.524  0.8001  1.6523  1.8229
 7876SOL     OW35263   4.090   4.494   5.690 -0.0478  0.2111  0.3249
 7876SOL    HW135264   4.184   4.512   5.695  0.2236 -0.4864 -2.1222
 7876SOL    HW235265   4.089   4.415   5.636  1.8875 -0.1795  0.8651
 7877SOL     OW35266   0.338   4.286  16.569  0.1475 -0.0480 -0.0150
 7877SOL    HW135267   0.383   4.222  16.625 -1.3409 -0.6933  0.4326
 7877SOL    HW235268   0.329   4.358  16.633  0.6129 -1.5369  1.7254
 7878SOL     OW35269   0.281   3.962   2.558 -0.4813  0.0315  0.0270
 7878SOL    HW135270   0.203   4.011   2.532 -1.6972 -0.9989  1.7311
 7878SOL    HW235271   0.241   3.904   2.624 -0.3431 -1.3400 -1.0975
 7879SOL     OW35272   3.360   3.924   9.798  0.0150  0.6585  0.0376
 7879SOL    HW135273   3.357   4.003   9.745 -0.3520 -0.0070 -0.9260
 7879SOL    HW235274   3.286   3.867   9.776  0.0096 -0.0910  1.9746
 7880SOL     OW35275   2.948   2.344   1.693 -0.5868  0.1525  0.1897
 7880SOL    HW135276   2.860   2.349   1.730 -0.2634 -0.1119  0.9800
 7880SOL    HW235277   2.925   2.360   1.601 -0.3281  1.5237  0.3665
 7881SOL     OW35278   4.050   4.599   1.478 -0.0855  0.2728  0.1307
 7881SOL    HW135279   4.134   4.580   1.520  1.6856  0.0734 -3.4448
 7881SOL    HW235280   4.012   4.672   1.526 -1.7327  1.2766 -2.6457
 7882SOL     OW35281   3.024   2.692  15.740 -0.3125  0.0489 -0.0087
 7882SOL    HW135282   3.104   2.743  15.730  0.1223 -0.7211 -0.3739
 7882SOL    HW235283   3.065   2.607  15.725  3.5926  1.4917  2.3231
 7883SOL     OW35284   2.625   0.676   6.469 -0.5427  0.4693 -0.2706
 7883SOL    HW135285   2.542   0.633   6.492  0.4000 -1.6705 -0.9058
 7883SOL    HW235286   2.603   0.732   6.395 -1.4779  0.2469 -0.1565
 7884SOL     OW35287   1.900   1.948   4.666 -0.2407 -0.3713  0.1977
 7884SOL    HW135288   1.943   2.027   4.698 -0.6449 -0.8092  1.8633
 7884SOL    HW235289   1.935   1.932   4.578  0.1665  1.3812  0.0492
 7885SOL     OW35290   4.266   2.606   8.622 -0.4254  0.1249  0.6682
 7885SOL    HW135291   4.270   2.640   8.532  0.1999 -0.2319  0.5658
 7885SOL    HW235292   4.202   2.664   8.664  0.7399  0.8818  1.4077
 7886SOL     OW35293   2.416   2.427  16.967 -0.1336  0.0774 -0.1316
 7886SOL    HW135294   2.473   2.357  16.998 -1.3889 -0.4673  0.9267
 7886SOL    HW235295   2.469   2.505  16.982 -0.1952  0.0409  0.2813
 7887SOL     OW35296   0.496   2.089   3.103  0.2028  0.7134  0.0863
 7887SOL    HW135297   0.532   2.006   3.072 -0.5718 -0.6265  2.7443
 7887SOL    HW235298   0.414   2.076   3.056 -0.3924  0.4230  1.1956
 7888SOL     OW35299   1.189   1.960   3.021 -0.1069 -0.3371  0.3617
 7888SOL    HW135300   1.112   1.957   2.964 -0.7371  0.8279  1.1500
 7888SOL    HW235301   1.161   1.952   3.112 -1.2135 -0.3952  0.0266
 7889SOL     OW35302   3.201   3.960   4.765  0.7498 -0.2302 -0.2999
 7889SOL    HW135303   3.173   4.050   4.748  1.6980 -0.0722 -1.0037
 7889SOL    HW235304   3.140   3.911   4.709 -1.6850  1.0463  1.2410
 7890SOL     OW35305   3.596   3.832   4.227  0.1244  0.2484 -0.1500
 7890SOL    HW135306   3.604   3.739   4.208 -1.4687  0.1041 -0.1525
 7890SOL    HW235307   3.683   3.863   4.203 -0.1522 -0.5863 -2.2367
 7891SOL     OW35308   0.909   4.434   8.999  0.6373  0.4831  0.1078
 7891SOL    HW135309   0.994   4.444   9.042  0.4440  0.8219  0.4071
 7891SOL    HW235310   0.904   4.518   8.953 -2.9746  0.7082  0.9386
 7892SOL     OW35311   4.271   2.901   7.282  1.1125  0.3342 -0.4765
 7892SOL    HW135312   4.192   2.952   7.264  0.8940 -0.0331 -0.5665
 7892SOL    HW235313   4.250   2.829   7.341  0.4702 -0.0083 -1.1237
 7893SOL     OW35314   1.846   1.840  11.378 -0.0788 -0.3501 -0.3053
 7893SOL    HW135315   1.931   1.823  11.418 -0.6569 -3.0696 -0.2170
 7893SOL    HW235316   1.805   1.885  11.452 -0.4974  0.0331 -0.7731
 7894SOL     OW35317   4.578   0.463   2.772  0.2802  0.1378 -0.2552
 7894SOL    HW135318   4.653   0.510   2.809 -0.2612  1.5155 -0.9292
 7894SOL    HW235319   4.529   0.450   2.853  0.2837 -0.8813 -0.4096
 7895SOL     OW35320   1.280   0.267   2.995 -0.0816 -0.5103 -0.2064
 7895SOL    HW135321   1.351   0.308   2.945 -0.6011  1.0475  0.3458
 7895SOL    HW235322   1.214   0.331   2.969 -0.1288 -0.2885  0.4540
 7896SOL     OW35323   0.057   3.747  14.839 -0.0825 -0.1214 -0.0244
 7896SOL    HW135324   0.140   3.766  14.796 -0.4855  3.3994  0.6977
 7896SOL    HW235325   4.732   3.767  14.769 -0.3633  0.8874  0.5146
 7897SOL     OW35326   0.108   0.234  10.295  0.1345 -0.7351 -0.5601
 7897SOL    HW135327   0.126   0.284  10.375  0.3911 -2.3115  0.3538
 7897SOL    HW235328   0.015   0.213  10.292 -0.6525  2.5177  0.4194
 7898SOL     OW35329   1.144   4.307  12.007  0.5816  0.1093 -0.1208
 7898SOL    HW135330   1.152   4.267  11.920  1.4093 -0.8020  0.3694
 7898SOL    HW235331   1.087   4.241  12.047  0.6603 -0.4125 -0.8815
 7899SOL     OW35332   0.328   2.530  16.047 -0.4124 -0.2296  0.0617
 7899SOL    HW135333   0.339   2.537  16.142  0.2107 -0.7707  0.0286
 7899SOL    HW235334   0.394   2.467  16.020 -0.0052  0.0581  0.3915
 7900SOL     OW35335   0.042   4.714   6.053  0.3472 -0.4086 -0.3721
 7900SOL    HW135336   0.055   0.054   6.109  1.9743  0.5108 -2.0255
 7900SOL    HW235337   0.007   4.656   6.121 -0.0584  0.3676  0.0731
 7901SOL     OW35338   4.261   2.759  11.060  0.4310 -0.4902  0.1012
 7901SOL    HW135339   4.320   2.699  11.106 -2.6668 -2.8213  1.0219
 7901SOL    HW235340   4.282   2.842  11.104 -1.2342 -0.6224  1.1531
 7902SOL     OW35341   2.263   4.525   9.013 -0.4145  0.2529 -0.2180
 7902SOL    HW135342   2.357   4.546   9.012  0.5123 -3.6751  1.6725
 7902SOL    HW235343   2.276   4.436   9.045 -2.8046  1.2765  3.4848
 7903SOL     OW35344   2.440   2.553   4.571  0.0873  0.4312 -0.5215
 7903SOL    HW135345   2.443   2.484   4.504  2.8508 -0.4599  0.5364
 7903SOL    HW235346   2.355   2.590   4.545  0.0792  0.1238 -0.9350
 7904SOL     OW35347   4.623   3.534   2.643  0.5349  0.2275 -0.5568
 7904SOL    HW135348   4.614   3.518   2.549 -1.9328 -0.8880 -0.1350
 7904SOL    HW235349   4.561   3.471   2.680  0.7944 -0.0652 -0.6222
 7905SOL     OW35350   3.919   0.392  15.422  0.0280 -0.1386  0.3602
 7905SOL    HW135351   3.860   0.455  15.381  0.9550 -0.2624 -1.1360
 7905SOL    HW235352   3.849   0.342  15.464 -0.2171 -1.7160 -1.9589
 7906SOL     OW35353   4.277   0.122   2.013 -0.1890 -0.1092  0.1991
 7906SOL    HW135354   4.319   0.036   2.010  0.7519  0.3327  0.7575
 7906SOL    HW235355   4.333   0.175   1.956  1.1563  0.1656  1.7715
 7907SOL     OW35356   1.482   2.861   8.969  0.4323  0.1055 -0.1274
 7907SOL    HW135357   1.510   2.915   9.042  1.1033 -2.3142  1.3894
 7907SOL    HW235358   1.558   2.814   8.935  1.5490  1.0644  1.0729
 7908SOL     OW35359   0.380   1.382   4.792  0.4127 -0.1672  0.0656
 7908SOL    HW135360   0.380   1.477   4.805 -2.2882  0.0077 -1.1306
 7908SOL    HW235361   0.453   1.359   4.735 -1.2751 -1.0134 -1.7583
 7909SOL     OW35362   1.381   3.749   2.852  0.1312  0.2482  0.4752
 7909SOL    HW135363   1.357   3.689   2.923  0.1696  1.6117  1.6308
 7909SOL    HW235364   1.401   3.675   2.795 -1.5746 -1.6186  2.2681
 7910SOL     OW35365   3.701   2.922   5.836 -0.4896  0.1386  0.5118
 7910SOL    HW135366   3.692   2.986   5.765 -1.2762  0.9235  1.3376
 7910SOL    HW235367   3.742   2.849   5.788  1.7095  1.4485  0.3880
 7911SOL     OW35368   4.321   4.362   4.274 -0.3234  0.0938 -0.2720
 7911SOL    HW135369   4.329   4.269   4.255  1.0032 -0.5193  3.2996
 7911SOL    HW235370   4.226   4.365   4.265 -0.3829  0.7347  0.6605
 7912SOL     OW35371   2.205   3.111   8.350 -0.1134  0.1938 -0.4008
 7912SOL    HW135372   2.191   3.017   8.337  2.1189 -0.2345  0.2251
 7912SOL    HW235373   2.180   3.125   8.441 -0.8158 -1.1281 -0.3940
 7913SOL     OW35374   3.251   1.466  15.165 -0.2018 -0.3257  0.5423
 7913SOL    HW135375   3.219   1.385  15.204 -0.9324 -0.8078 -1.0834
 7913SOL    HW235376   3.168   1.497  15.130 -0.6638 -1.5064  0.5811
 7914SOL     OW35377   4.578   3.033   5.069 -0.1565  0.6489  0.3281
 7914SOL    HW135378   4.515   3.092   5.109 -0.4535  0.7370 -0.2723
 7914SOL    HW235379   4.628   2.997   5.142 -0.9816  0.7110  0.9267
 7915SOL     OW35380   4.500   0.389   3.316  0.6542 -0.4766 -0.0936
 7915SOL    HW135381   4.407   0.396   3.337  0.9694 -1.6506  1.6779
 7915SOL    HW235382   4.514   0.480   3.340 -5.1113  0.6703 -1.0566
 7916SOL     OW35383   1.238   2.588   7.140 -0.1841 -1.0160  0.3338
 7916SOL    HW135384   1.188   2.506   7.145 -1.9974 -0.0311 -1.6846
 7916SOL    HW235385   1.311   2.578   7.080 -0.8009 -1.8516 -0.2839
 7917SOL     OW35386   2.122   3.085   9.522 -0.0389  0.5174 -0.3112
 7917SOL    HW135387   2.177   3.163   9.532  0.4961  0.2109 -0.9259
 7917SOL    HW235388   2.049   3.113   9.577 -0.4627 -1.1606 -0.0122
 7918SOL     OW35389   3.003   4.641   0.464 -0.2309  0.4641  0.3032
 7918SOL    HW135390   3.056   4.702   0.516  0.1445 -1.8452  2.6206
 7918SOL    HW235391   3.051   4.558   0.468 -0.4468  0.3643  0.9526
 7919SOL     OW35392   0.227   0.653   4.722  0.1345 -0.2722 -0.5595
 7919SOL    HW135393   0.148   0.708   4.711 -0.1478 -1.0607 -2.4994
 7919SOL    HW235394   0.183   0.571   4.743 -2.0284  1.4249  1.6425
 7920SOL     OW35395   3.001   0.695   7.159  0.0433  0.8725  0.2398
 7920SOL    HW135396   2.908   0.691   7.179  0.0365  0.7404  0.1829
 7920SOL    HW235397   3.043   0.685   7.244  3.1709  1.6142 -1.2301
 7921SOL     OW35398   4.133   2.970   0.250  0.2762  0.0749  0.1535
 7921SOL    HW135399   4.161   3.052   0.292 -0.9380  0.8945 -0.6570
 7921SOL    HW235400   4.125   3.011   0.164 -1.7830 -0.9857 -0.1404
 7922SOL     OW35401   0.117   0.686   7.874  0.4303 -0.3815  0.1912
 7922SOL    HW135402   0.026   0.666   7.897  0.8570 -0.0295  2.1208
 7922SOL    HW235403   0.161   0.641   7.945  1.9685 -0.5577 -0.8708
 7923SOL     OW35404   1.517   1.695  16.381  0.6909 -0.0982 -0.3445
 7923SOL    HW135405   1.509   1.765  16.316  1.1336 -0.9247 -1.2940
 7923SOL    HW235406   1.511   1.753  16.456  2.0807 -1.1076  0.5345
 7924SOL     OW35407   3.580   3.946  10.303 -0.3916 -0.0153  0.3858
 7924SOL    HW135408   3.506   3.949  10.242  0.3229 -1.0699 -0.5345
 7924SOL    HW235409   3.546   3.931  10.392 -0.1427 -0.8922  0.3307
 7925SOL     OW35410   3.745   3.789  10.003  0.0227 -0.2305 -0.2131
 7925SOL    HW135411   3.710   3.758  10.087 -1.3954 -1.7245 -1.3596
 7925SOL    HW235412   3.838   3.798  10.024  0.4961  0.9750 -2.8801
 7926SOL     OW35413   4.423   3.478  10.862 -0.5720  0.1377 -0.0122
 7926SOL    HW135414   4.406   3.438  10.948 -3.0592  3.5722  1.0879
 7926SOL    HW235415   4.353   3.544  10.867  1.5821  2.3925  0.3783
 7927SOL     OW35416   4.303   0.218  15.138  0.2293 -0.4782  0.5774
 7927SOL    HW135417   4.244   0.144  15.155  0.9063 -0.8407  1.3107
 7927SOL    HW235418   4.334   0.199  15.050  0.1923 -2.3273  0.9594
 7928SOL     OW35419   3.893   2.936   6.214  0.2383  0.0243 -0.5239
 7928SOL    HW135420   3.957   2.870   6.189  1.3388  1.0730 -0.4468
 7928SOL    HW235421   3.819   2.876   6.219  1.5586 -1.7180 -1.9513
 7929SOL     OW35422   1.260   0.613   6.125  0.0670 -0.3045  0.4262
 7929SOL    HW135423   1.206   0.676   6.076 -0.7704 -2.1176 -0.9623
 7929SOL    HW235424   1.344   0.640   6.089  0.1393  0.0895  0.8853
 7930SOL     OW35425   3.554   4.437   5.014 -0.2552  0.0330  0.3716
 7930SOL    HW135426   3.505   4.364   4.976  1.5058 -1.6894  1.3722
 7930SOL    HW235427   3.598   4.389   5.085  1.6446 -0.0813 -0.9070
 7931SOL     OW35428   2.840   4.558   3.350 -0.2851 -0.5269 -0.0377
 7931SOL    HW135429   2.830   4.504   3.272  1.3144 -0.2943 -0.4038
 7931SOL    HW235430   2.833   4.639   3.298 -3.9317 -0.8119  0.0099
 7932SOL     OW35431   2.025   2.405   9.752 -0.4825 -0.1473  0.3833
 7932SOL    HW135432   2.037   2.471   9.821 -0.4508  0.0666  0.1727
 7932SOL    HW235433   1.948   2.361   9.788 -0.5347 -1.6873 -1.6710
 7933SOL     OW35434   3.808   4.081   4.723 -0.6144  0.5969 -0.0767
 7933SOL    HW135435   3.754   4.041   4.656  1.1129 -1.1312 -0.4290
 7933SOL    HW235436   3.852   4.158   4.686 -2.4212  1.6135 -0.0902
 7934SOL     OW35437   0.371   1.854  11.423 -0.2169  0.2118  0.2189
 7934SOL    HW135438   0.355   1.805  11.504 -2.3577  2.1784  0.9684
 7934SOL    HW235439   0.304   1.922  11.416 -0.6792 -0.1083  1.5233
 7935SOL     OW35440   1.260   2.174   8.407  0.0205 -0.2803 -0.2056
 7935SOL    HW135441   1.173   2.207   8.384 -1.0337 -1.8562  1.4636
 7935SOL    HW235442   1.311   2.163   8.327  1.2477  0.1026  0.5227
 7936SOL     OW35443   1.736   4.625   4.938  0.5931  0.0605  0.1489
 7936SOL    HW135444   1.684   4.701   4.961 -1.2858 -0.9963 -0.6642
 7936SOL    HW235445   1.666   4.564   4.960  0.4333  0.0476 -0.3939
 7937SOL     OW35446   2.657   0.166   1.066 -0.1228  0.4511  0.4659
 7937SOL    HW135447   2.678   0.118   0.986 -4.2976 -1.1555  0.3456
 7937SOL    HW235448   2.713   0.244   1.062 -0.7320  0.6797 -3.8933
 7938SOL     OW35449   3.424   0.110  12.460 -0.0309  0.2376  0.0579
 7938SOL    HW135450   3.477   0.155  12.526  1.7905  1.3030 -2.1245
 7938SOL    HW235451   3.448   0.169  12.388  0.9479 -1.7688 -1.2708
 7939SOL     OW35452   1.068   3.616  10.302 -0.2163  0.3730 -0.8831
 7939SOL    HW135453   1.046   3.709  10.302  1.6922  0.8230 -1.7237
 7939SOL    HW235454   1.144   3.617  10.244  0.6224 -1.6777  0.1796
 7940SOL     OW35455   4.404   4.095   2.205 -0.1434 -0.2940  0.7076
 7940SOL    HW135456   4.395   3.999   2.203 -1.9292 -0.1054 -0.4162
 7940SOL    HW235457   4.407   4.107   2.110 -0.3453  0.3815  0.7899
 7941SOL     OW35458   4.565   4.238   7.803  0.4887  0.3262  0.6311
 7941SOL    HW135459   4.579   4.161   7.749  0.3493 -0.9483  2.4352
 7941SOL    HW235460   4.473   4.235   7.831  0.3883 -0.9485  0.1536
 7942SOL     OW35461   1.841   2.559   7.516 -0.3080 -0.5071  0.0210
 7942SOL    HW135462   1.902   2.539   7.587  1.0637  2.7052 -0.2528
 7942SOL    HW235463   1.902   2.554   7.443 -1.6215 -0.2795 -1.0866
 7943SOL     OW35464   2.423   0.678   7.234  0.3464 -0.5437 -0.0448
 7943SOL    HW135465   2.376   0.761   7.228 -2.2101 -1.8679  1.3650
 7943SOL    HW235466   2.432   0.667   7.329 -1.1622  0.2514  0.1886
 7944SOL     OW35467   3.112   0.152   8.416 -0.4646 -0.4428 -0.5101
 7944SOL    HW135468   3.148   0.225   8.366  1.0288  0.0208  1.2521
 7944SOL    HW235469   3.115   0.071   8.365 -0.4121  0.2987 -1.6804
 7945SOL     OW35470   3.885   0.940  14.038  0.2546  0.0580 -0.4057
 7945SOL    HW135471   3.795   0.924  14.067 -0.7668  3.0540 -1.9476
 7945SOL    HW235472   3.929   0.959  14.120  0.4056 -2.7570  0.1713
 7946SOL     OW35473   4.166   2.377   3.575  0.0406 -0.1391  0.3865
 7946SOL    HW135474   4.244   2.428   3.552  0.4169 -0.8441  0.1120
 7946SOL    HW235475   4.117   2.443   3.625 -1.1231 -1.0069  0.3902
 7947SOL     OW35476   2.411   3.910  17.214 -0.4664  0.3788 -0.5210
 7947SOL    HW135477   2.432   3.896  17.122  0.9552 -0.9191 -0.0097
 7947SOL    HW235478   2.325   3.952  17.208 -0.3161  0.4939 -1.8706
 7948SOL     OW35479   0.216   1.865  10.803 -0.2418  0.5176 -0.4590
 7948SOL    HW135480   0.277   1.851  10.875  0.6855  1.5251 -1.0472
 7948SOL    HW235481   0.142   1.812  10.834 -0.6075  0.4717 -1.4278
 7949SOL     OW35482   1.901   3.870   7.066 -0.0968  1.0274  0.1367
 7949SOL    HW135483   1.865   3.815   7.136  0.2186  2.8565  1.7505
 7949SOL    HW235484   1.937   3.943   7.117  1.1357  1.1917 -0.9896
 7950SOL     OW35485   0.570   2.611   2.544 -0.5260  0.5375  0.5660
 7950SOL    HW135486   0.638   2.578   2.485 -1.8662 -0.1025 -0.5986
 7950SOL    HW235487   0.517   2.534   2.563 -1.2947  0.8357 -0.3977
 7951SOL     OW35488   0.094   1.296   4.711 -0.0101  0.4621 -0.2520
 7951SOL    HW135489   0.103   1.301   4.616  0.0054 -2.3596 -0.4052
 7951SOL    HW235490   0.186   1.303   4.739  0.4939 -2.1027 -1.2544
 7952SOL     OW35491   0.931   3.205   2.123  0.5050  0.2391 -0.0075
 7952SOL    HW135492   0.984   3.134   2.158  1.0797 -0.6798 -2.7418
 7952SOL    HW235493   0.992   3.222   2.052 -0.3327  0.9537 -0.5667
 7953SOL     OW35494   1.001   2.868   4.336  0.4580  0.8257  0.2233
 7953SOL    HW135495   1.038   2.938   4.389  0.4147 -0.4416  1.9065
 7953SOL    HW235496   1.079   2.813   4.328 -0.0171  0.4725 -2.1686
 7954SOL     OW35497   0.994   4.686  15.933  0.0117 -0.2460  0.5744
 7954SOL    HW135498   1.016   0.013  15.865  0.1397 -2.6102 -1.6004
 7954SOL    HW235499   0.904   4.708  15.958 -0.3023 -0.2837 -0.5162
 7955SOL     OW35500   1.856   1.929   2.634  0.4343 -0.4728 -0.2149
 7955SOL    HW135501   1.770   1.952   2.670  0.2659  0.5312 -1.2897
 7955SOL    HW235502   1.880   2.010   2.589  1.1206 -0.4338  0.2308
 7956SOL     OW35503   4.580   1.110  11.998 -0.0598  0.3014 -0.1187
 7956SOL    HW135504   4.544   1.061  12.071 -0.1729  0.5208 -0.0295
 7956SOL    HW235505   4.612   1.039  11.941 -0.7693  0.2512 -0.4489
 7957SOL     OW35506   3.780   2.825   3.919 -0.3044  0.6239  0.4765
 7957SOL    HW135507   3.802   2.907   3.875 -1.0442  1.9300  2.5093
 7957SOL    HW235508   3.788   2.770   3.841 -1.4205  2.7351 -1.1341
 7958SOL     OW35509   0.767   3.497   1.971 -0.0576  0.1067  0.2608
 7958SOL    HW135510   0.736   3.472   1.884  1.8356 -1.6716  0.1010
 7958SOL    HW235511   0.844   3.551   1.950  1.0114 -1.6257 -0.2850
 7959SOL     OW35512   0.136   4.552   8.346  0.0529 -0.0928 -0.5919
 7959SOL    HW135513   0.131   4.542   8.441  1.2682  0.3648 -0.4767
 7959SOL    HW235514   0.185   4.633   8.328  0.8644 -0.4708 -0.0755
 7960SOL     OW35515   0.413   2.141   7.847 -0.1010 -0.1383  0.3561
 7960SOL    HW135516   0.450   2.159   7.760  1.6989  2.0399  1.5623
 7960SOL    HW235517   0.380   2.052   7.834 -1.3604  0.4800 -0.6856
 7961SOL     OW35518   0.587   1.859   8.899  0.7957 -0.1725  0.6348
 7961SOL    HW135519   0.557   1.775   8.865  1.2133 -0.7244  1.6601
 7961SOL    HW235520   0.650   1.823   8.960 -0.7163 -1.7608  1.2637
 7962SOL     OW35521   0.107   4.217   2.820 -0.0010  0.1117  0.3659
 7962SOL    HW135522   0.016   4.229   2.793 -0.5682 -0.1622  2.1396
 7962SOL    HW235523   0.152   4.201   2.737 -0.3241  2.5682 -0.2914
 7963SOL     OW35524   1.556   2.213   9.642  0.0880  0.4385  0.1920
 7963SOL    HW135525   1.551   2.283   9.577  2.7707  1.0578  0.6822
 7963SOL    HW235526   1.471   2.171   9.624  0.4182 -0.5351  0.9082
 7964SOL     OW35527   4.028   2.365   6.097  0.0438  0.8736 -0.7221
 7964SOL    HW135528   3.982   2.371   6.013 -2.0207 -2.4002  0.1521
 7964SOL    HW235529   4.110   2.324   6.068 -0.6858 -1.1751  0.0990
 7965SOL     OW35530   0.848   0.430   2.474  0.0739 -0.0145  0.0651
 7965SOL    HW135531   0.772   0.425   2.416  1.5059 -1.0215 -1.7208
 7965SOL    HW235532   0.914   0.443   2.406 -0.7492 -0.6397 -0.8365
 7966SOL     OW35533   3.528   4.267  11.312  0.1972 -0.3687 -0.1484
 7966SOL    HW135534   3.450   4.212  11.301  0.6045 -0.3797 -2.9702
 7966SOL    HW235535   3.511   4.303  11.399 -2.8449 -0.1051 -0.8395
 7967SOL     OW35536   0.749   0.729   3.253  0.6353  0.0473  0.4659
 7967SOL    HW135537   0.713   0.641   3.244 -0.5412  0.4536  1.1651
 7967SOL    HW235538   0.701   0.777   3.185  0.7418  0.5366  0.7359
 7968SOL     OW35539   3.982   0.471   2.959 -0.0544  0.2016 -0.1531
 7968SOL    HW135540   3.933   0.551   2.978 -1.8865 -0.8273 -0.4931
 7968SOL    HW235541   3.955   0.445   2.871  0.7769  0.1295 -0.3859
 7969SOL     OW35542   0.839   2.480   1.298 -0.1567  0.1695  0.3351
 7969SOL    HW135543   0.789   2.545   1.248  1.1102  1.0176  0.1513
 7969SOL    HW235544   0.828   2.412   1.232 -1.0490  0.9426 -0.3168
 7970SOL     OW35545   1.002   3.638   4.807 -0.6470  0.5582  0.3381
 7970SOL    HW135546   0.991   3.722   4.761  1.0161  0.7860  0.3592
 7970SOL    HW235547   0.961   3.659   4.891  0.4212  0.8455  0.7832
 7971SOL     OW35548   0.044   3.336   5.255  0.1171 -0.4854 -0.0844
 7971SOL    HW135549   0.014   3.427   5.245 -0.3353 -0.5622  0.6077
 7971SOL    HW235550   0.116   3.355   5.315 -0.3790  1.8362 -0.2029
 7972SOL     OW35551   0.703   3.882   5.989  0.2057  0.1371 -0.3706
 7972SOL    HW135552   0.677   3.871   5.898 -0.3103  2.1410 -0.4812
 7972SOL    HW235553   0.777   3.942   5.980 -0.5293  1.1564  0.3327
 7973SOL     OW35554   1.756   0.915   3.026  0.3361  0.2619  0.0273
 7973SOL    HW135555   1.737   0.985   3.088  0.6065 -0.2142  0.6503
 7973SOL    HW235556   1.723   0.835   3.067 -1.0108 -0.7666 -3.0602
 7974SOL     OW35557   4.174   4.004   8.133 -0.3187  0.4353 -0.0315
 7974SOL    HW135558   4.118   4.081   8.132  0.6405  1.1244 -1.6485
 7974SOL    HW235559   4.104   3.943   8.157 -0.0013 -0.2348 -0.7758
 7975SOL     OW35560   2.769   1.568   4.561  0.2354  0.2533 -0.6381
 7975SOL    HW135561   2.674   1.573   4.551  0.0707  0.2201  0.9135
 7975SOL    HW235562   2.770   1.570   4.657 -1.6310  0.9192 -0.6332
 7976SOL     OW35563   3.360   2.953  17.441 -0.0615 -0.4052 -0.5519
 7976SOL    HW135564   3.449   2.922  17.426  0.0732  0.0346 -0.6854
 7976SOL    HW235565   3.320   2.889  17.383 -1.0346 -1.7503  1.6188
 7977SOL     OW35566   1.604   2.533   9.115  0.9274  0.2913 -0.2579
 7977SOL    HW135567   1.677   2.490   9.071  0.8992  0.3793 -0.3876
 7977SOL    HW235568   1.651   2.600   9.165  1.5863  1.3151 -2.2611
 7978SOL     OW35569   0.354   1.927   0.315  0.0468 -0.2781  0.6440
 7978SOL    HW135570   0.428   1.982   0.341  1.0317 -1.0042 -0.5965
 7978SOL    HW235571   0.276   1.978   0.337  0.3303  1.4750 -2.4010
 7979SOL     OW35572   2.063   0.461   9.609 -0.2766 -0.4289 -0.2000
 7979SOL    HW135573   2.151   0.486   9.580 -0.0971 -1.4230 -0.4890
 7979SOL    HW235574   2.079   0.398   9.680 -1.1616 -0.0089  0.3749
 7980SOL     OW35575   2.335   4.677   2.340 -0.0083 -0.0448  0.0752
 7980SOL    HW135576   2.271   0.001   2.301  2.8947  1.2645 -2.5980
 7980SOL    HW235577   2.327   4.699   2.433 -1.6332  0.6983 -0.2295
 7981SOL     OW35578   1.929   0.030   4.246  0.1300  0.1751 -0.4043
 7981SOL    HW135579   1.931   0.126   4.243 -1.6756  0.1897 -1.0271
 7981SOL    HW235580   2.013   0.019   4.289 -0.0245  2.7742  0.5877
 7982SOL     OW35581   0.745   1.179   5.498  0.1870  0.2834 -0.2411
 7982SOL    HW135582   0.662   1.145   5.532 -0.1406  0.8211 -0.4861
 7982SOL    HW235583   0.712   1.183   5.408 -0.1964 -0.0419 -0.1161
 7983SOL     OW35584   2.909   3.738   8.484 -0.0064 -0.0165 -0.0430
 7983SOL    HW135585   2.871   3.817   8.522 -0.5167  0.3023 -1.2194
 7983SOL    HW235586   2.939   3.695   8.565 -3.4788 -0.5206  0.9618
 7984SOL     OW35587   4.677   3.773   8.032 -0.1588 -0.2376  0.2072
 7984SOL    HW135588   4.727   3.855   8.036 -0.9642  0.2292  0.5544
 7984SOL    HW235589   4.733   3.709   8.077  1.6354  1.7426  0.8023
 7985SOL     OW35590   3.746   2.086   4.140  0.1063 -0.0552  0.1472
 7985SOL    HW135591   3.810   2.088   4.212 -2.1371 -2.7675  2.2168
 7985SOL    HW235592   3.672   2.134   4.179  0.9894  0.3900  1.2864
 7986SOL     OW35593   1.538   4.673  10.860  0.2441 -0.4269  0.3298
 7986SOL    HW135594   1.480   4.634  10.794 -1.3740  0.3406  1.2966
 7986SOL    HW235595   1.486   0.006  10.902  0.9766  0.2169  0.1660
 7987SOL     OW35596   3.280   1.292   5.478  0.4290 -0.2431 -0.0175
 7987SOL    HW135597   3.264   1.202   5.449 -0.1349  0.2238 -1.1412
 7987SOL    HW235598   3.208   1.333   5.430 -0.5848  0.0575  1.7387
 7988SOL     OW35599   2.235   4.003   6.615 -0.3066  0.5281  0.7046
 7988SOL    HW135600   2.300   3.935   6.603  0.4762  1.6839 -1.5523
 7988SOL    HW235601   2.232   4.043   6.528  2.5235 -0.0035  0.3657
 7989SOL     OW35602   2.031   2.705   6.665 -0.0917 -0.4580 -0.3063
 7989SOL    HW135603   1.953   2.661   6.630  0.0142  1.1829 -2.5914
 7989SOL    HW235604   2.092   2.697   6.592  1.1966  0.0266  0.7106
 7990SOL     OW35605   3.084   0.903   0.007 -0.4600  0.3947  0.1138
 7990SOL    HW135606   3.011   0.928   0.063  1.6043  2.4182  1.8947
 7990SOL    HW235607   3.047   0.828  17.705  0.8333 -0.2949  0.2055
 7991SOL     OW35608   4.463   1.613   3.738  0.1008 -0.4367 -0.6271
 7991SOL    HW135609   4.500   1.535   3.780 -1.0733 -0.2446  0.7774
 7991SOL    HW235610   4.370   1.615   3.761  0.4200 -0.3895  0.6962
 7992SOL     OW35611   1.587   3.944   8.923 -0.0449 -0.2155 -0.2610
 7992SOL    HW135612   1.500   3.940   8.962 -0.3675 -1.6473 -1.1306
 7992SOL    HW235613   1.632   3.982   8.998  0.7814 -0.9250 -0.3934
 7993SOL     OW35614   3.025   1.094   4.842 -0.2652  0.3645 -0.1221
 7993SOL    HW135615   3.071   1.163   4.793  0.3823 -0.1668 -0.2825
 7993SOL    HW235616   2.947   1.094   4.787 -1.1469  1.9017  1.1483
 7994SOL     OW35617   4.489   2.667   7.445  0.0001 -0.5863  0.4237
 7994SOL    HW135618   4.428   2.597   7.420  0.9383 -0.2000 -2.8488
 7994SOL    HW235619   4.540   2.628   7.516  1.9685 -0.6105 -1.0208
 7995SOL     OW35620   0.441   3.647   2.444  0.0701 -0.3545  0.4123
 7995SOL    HW135621   0.510   3.713   2.434  1.4449 -2.0325 -1.1081
 7995SOL    HW235622   0.468   3.573   2.389  0.1539  1.5029 -2.0665
 7996SOL     OW35623   0.030   1.055   2.913  0.1692 -0.1354 -0.1367
 7996SOL    HW135624   0.063   1.119   2.976  0.9932 -0.3706 -0.3262
 7996SOL    HW235625   4.686   1.023   2.954  0.7209 -1.2955  0.0461
 7997SOL     OW35626   0.637   0.359   7.559 -0.5576 -0.4850  0.5183
 7997SOL    HW135627   0.719   0.404   7.576 -0.5376 -0.7075  1.0197
 7997SOL    HW235628   0.652   0.340   7.466  0.5688 -1.8188  0.9707
 7998SOL     OW35629   0.139   2.088   3.643 -0.5024 -0.5701  0.2325
 7998SOL    HW135630   0.152   2.170   3.595 -0.9422 -0.6786 -0.0779
 7998SOL    HW235631   0.207   2.034   3.604  0.3096  0.9229 -0.4230
 7999SOL     OW35632   0.310   4.431  15.547  0.0663  0.4555 -0.2234
 7999SOL    HW135633   0.389   4.485  15.540 -0.1155  0.2767 -3.3975
 7999SOL    HW235634   0.248   4.490  15.589  0.7753  1.5054 -0.6700
 8000SOL     OW35635   4.155   1.873   2.465 -0.3562 -0.3545  0.4021
 8000SOL    HW135636   4.189   1.869   2.554  0.4058  0.3498  0.1402
 8000SOL    HW235637   4.238   1.862   2.419 -0.5366 -0.1879  0.0348
 8001SOL     OW35638   3.543   4.433   2.137 -0.1920  0.5529 -0.2547
 8001SOL    HW135639   3.575   4.472   2.218 -0.6552 -1.0441  0.7129
 8001SOL    HW235640   3.570   4.501   2.075  1.4004 -0.1190 -0.2986
 8002SOL     OW35641   0.336   2.987  10.479 -0.0748  0.1921 -0.4122
 8002SOL    HW135642   0.292   3.064  10.444 -0.0971 -0.1106 -1.0391
 8002SOL    HW235643   0.378   2.954  10.399  3.1352 -0.5086  1.5388
 8003SOL     OW35644   2.107   3.348  12.038 -0.1069  0.3455 -0.2374
 8003SOL    HW135645   2.199   3.376  12.033 -0.2874  0.9074 -0.3780
 8003SOL    HW235646   2.068   3.415  12.093  0.9204  0.6963  0.0751
 8004SOL     OW35647   2.096   2.411   2.895  0.2648 -0.0031  0.1396
 8004SOL    HW135648   2.129   2.431   2.982 -1.9085  0.9374  0.7734
 8004SOL    HW235649   2.125   2.493   2.855  0.5989 -0.2892 -0.1972
 8005SOL     OW35650   3.851   0.306   4.555  0.0166 -0.2523 -0.3324
 8005SOL    HW135651   3.827   0.264   4.638 -2.0514  1.9908  0.2144
 8005SOL    HW235652   3.893   0.231   4.514 -0.1054  0.6187 -2.0410
 8006SOL     OW35653   1.212   2.427  14.382 -0.5617 -0.3506  0.3223
 8006SOL    HW135654   1.186   2.367  14.452  1.1789 -1.5903 -0.0986
 8006SOL    HW235655   1.268   2.369  14.331 -1.0484 -1.5563  1.1733
 8007SOL     OW35656   3.208   3.063   8.148  0.4330 -0.4895  0.1696
 8007SOL    HW135657   3.193   3.091   8.239  1.1862 -0.7943  0.3879
 8007SOL    HW235658   3.238   2.973   8.154  0.6208 -0.3972  0.6901
 8008SOL     OW35659   4.628   4.481  17.260 -0.0444 -0.5744 -0.1158
 8008SOL    HW135660   4.624   4.405  17.318 -2.1532  0.6197  1.2610
 8008SOL    HW235661   4.723   4.491  17.256 -0.2454  0.8504 -1.3169
 8009SOL     OW35662   2.866   0.126   2.021 -0.2377  0.4703  0.0108
 8009SOL    HW135663   2.874   0.189   1.950  2.3086 -0.0428 -0.1609
 8009SOL    HW235664   2.787   0.157   2.065 -1.4629 -2.0132 -0.4345
 8010SOL     OW35665   0.292   1.092  10.702  0.3149  0.6271  0.5528
 8010SOL    HW135666   0.227   1.024  10.723  0.4900  0.6676  1.2425
 8010SOL    HW235667   0.379   1.069  10.734  0.9795  0.0405 -1.6888
 8011SOL     OW35668   4.436   0.842   3.516  0.2216 -0.2318 -0.2289
 8011SOL    HW135669   4.373   0.913   3.528 -0.2318 -0.4124 -1.5192
 8011SOL    HW235670   4.468   0.833   3.606 -0.0107  1.3308  0.0256
 8012SOL     OW35671   4.345   1.000   7.741  0.0336 -0.3004  0.0591
 8012SOL    HW135672   4.283   0.933   7.770 -1.1177  0.5890 -0.3571
 8012SOL    HW235673   4.407   0.944   7.694  2.4866  1.0106  1.7481
 8013SOL     OW35674   0.709   3.154   1.966  0.6045  0.4599  0.4695
 8013SOL    HW135675   0.785   3.166   1.909  1.3693 -1.7723  1.0080
 8013SOL    HW235676   0.745   3.187   2.048 -0.5532  1.7038  0.4779
 8014SOL     OW35677   3.654   1.318  12.575  0.1639  0.0786 -0.0419
 8014SOL    HW135678   3.590   1.253  12.605  0.0836  0.0462 -0.2805
 8014SOL    HW235679   3.713   1.320  12.650 -1.4405 -1.8915  1.2878
 8015SOL     OW35680   2.120   3.748  16.455 -0.1576  0.2939 -0.6708
 8015SOL    HW135681   2.199   3.762  16.507 -2.0861 -0.8225  2.5572
 8015SOL    HW235682   2.151   3.742  16.365 -0.6180  0.1351 -0.8175
 8016SOL     OW35683   1.303   2.537   4.469 -0.1874 -0.5904 -0.0192
 8016SOL    HW135684   1.299   2.622   4.512  2.3821 -0.9828  1.0086
 8016SOL    HW235685   1.378   2.493   4.509  0.4005  1.5580  1.2201
 8017SOL     OW35686   3.480   4.617   6.845  0.8748 -0.2455  0.3418
 8017SOL    HW135687   3.389   4.610   6.817  1.4393 -1.8395 -1.0987
 8017SOL    HW235688   3.486   4.528   6.880  0.2797 -0.4057  0.0366
 8018SOL     OW35689   3.785   3.122  13.105 -0.0452 -0.2325  0.5847
 8018SOL    HW135690   3.690   3.136  13.099 -0.0404  0.2339  1.6433
 8018SOL    HW235691   3.821   3.134  13.017 -1.2966  0.3278  0.1566
 8019SOL     OW35692   2.243   2.706   9.437  0.7836 -1.3150  0.1714
 8019SOL    HW135693   2.324   2.695   9.487  0.9789 -3.3046 -0.6108
 8019SOL    HW235694   2.176   2.646   9.470 -0.6788 -0.4401 -1.1500
 8020SOL     OW35695   1.834   3.879   3.465 -0.1122 -0.3709  0.2924
 8020SOL    HW135696   1.904   3.924   3.417 -0.5119  0.2667  0.2940
 8020SOL    HW235697   1.779   3.840   3.397 -1.8184  1.5646  0.5705
 8021SOL     OW35698   2.760   2.059  10.121  0.4276 -0.5228  0.0724
 8021SOL    HW135699   2.669   2.051  10.094  0.0257 -0.3962  1.3935
 8021SOL    HW235700   2.796   1.971  10.112  0.6119 -0.6772  2.4834
 8022SOL     OW35701   3.156   0.789   8.868 -0.5136 -0.6095  0.6146
 8022SOL    HW135702   3.177   0.701   8.837  1.2587  0.0979 -0.2197
 8022SOL    HW235703   3.071   0.810   8.829  1.0810  5.4483  0.3834
 8023SOL     OW35704   2.613   2.827   7.339 -0.0071 -0.5033 -0.5879
 8023SOL    HW135705   2.645   2.914   7.363  2.0122 -2.0290  2.1849
 8023SOL    HW235706   2.570   2.852   7.257  2.6141  2.3437 -1.0725
 8024SOL     OW35707   1.543   3.173  15.941 -0.1162  0.4822 -0.1197
 8024SOL    HW135708   1.638   3.182  15.940 -0.1204  0.2791 -1.8060
 8024SOL    HW235709   1.530   3.268  15.952 -0.1521  0.1780  2.6479
 8025SOL     OW35710   1.117   3.498   9.000 -0.3360  0.2797 -0.0518
 8025SOL    HW135711   1.134   3.408   9.026 -0.3452 -0.4451 -2.4706
 8025SOL    HW235712   1.038   3.487   8.946  0.7210  1.5271 -1.8500
 8026SOL     OW35713   1.954   1.191   7.127  0.0874  0.0653 -0.2085
 8026SOL    HW135714   1.902   1.231   7.058 -1.0864 -1.9017 -0.4484
 8026SOL    HW235715   1.892   1.200   7.200 -2.4289 -2.6899 -2.0458
 8027SOL     OW35716   3.688   0.756   6.303 -0.7440 -0.3526 -0.2173
 8027SOL    HW135717   3.683   0.709   6.219  0.7427 -1.5224  0.3514
 8027SOL    HW235718   3.738   0.833   6.276 -1.1184 -0.2244 -0.5433
 8028SOL     OW35719   4.099   4.132   3.849  0.8247  0.1990 -0.0768
 8028SOL    HW135720   4.136   4.072   3.914  0.5251  0.8417  0.6951
 8028SOL    HW235721   4.130   4.211   3.893  0.5424 -0.5251  1.4442
 8029SOL     OW35722   3.546   4.581   0.818 -0.5059  0.5703  0.1557
 8029SOL    HW135723   3.600   4.558   0.893  0.2640 -0.8461 -0.8380
 8029SOL    HW235724   3.612   4.580   0.749  1.2530 -1.3680  1.8998
 8030SOL     OW35725   4.042   1.448   5.503  0.5580  0.0349  0.5134
 8030SOL    HW135726   4.130   1.430   5.470  0.5034 -0.6165  0.7233
 8030SOL    HW235727   4.037   1.538   5.472  2.0010  0.3209  1.0758
 8031SOL     OW35728   0.621   1.318   7.667 -0.0987 -0.7634 -0.2946
 8031SOL    HW135729   0.661   1.378   7.730  0.1203  0.3030 -1.4587
 8031SOL    HW235730   0.601   1.373   7.591 -1.1891  0.3516  0.7915
 8032SOL     OW35731   4.651   3.119   0.617 -0.2475 -0.4678  0.0452
 8032SOL    HW135732   4.596   3.194   0.596 -1.4295 -1.4753 -0.4634
 8032SOL    HW235733   4.704   3.144   0.692 -0.9874 -0.4395  0.5574
 8033SOL     OW35734   1.157   3.949  16.048  0.2215 -0.3468 -0.1391
 8033SOL    HW135735   1.088   3.990  15.997  2.0005  2.6352 -0.1413
 8033SOL    HW235736   1.120   3.962  16.135  1.2013 -0.2489  0.2718
 8034SOL     OW35737   1.034   0.914   1.385  0.1265  0.4867  0.5019
 8034SOL    HW135738   0.971   0.928   1.314  0.6285  0.6238  0.0867
 8034SOL    HW235739   0.996   0.835   1.424 -1.2917  0.9589  0.0769
 8035SOL     OW35740   1.238   3.268   8.896  0.4117  0.1300  0.4054
 8035SOL    HW135741   1.177   3.195   8.907  1.0742 -0.5467 -0.3903
 8035SOL    HW235742   1.259   3.275   8.803  0.0576 -0.4882  0.2752
 8036SOL     OW35743   1.328   4.075  14.638 -0.3423  0.4202 -0.1723
 8036SOL    HW135744   1.273   3.998  14.623  0.8356 -0.6254  0.9095
 8036SOL    HW235745   1.324   4.108  14.548  0.5363 -1.2999 -0.8328
 8037SOL     OW35746   3.721   0.888   1.964 -0.3932  0.6580 -0.3524
 8037SOL    HW135747   3.691   0.872   2.053  0.8283 -0.9220 -0.2234
 8037SOL    HW235748   3.646   0.852   1.917  0.3318 -0.7818 -0.4029
 8038SOL     OW35749   3.828   0.513   5.866  0.1985 -0.3855 -0.3164
 8038SOL    HW135750   3.848   0.606   5.869 -1.1327 -0.0854 -0.8616
 8038SOL    HW235751   3.918   0.479   5.866  0.0488 -0.8037  0.6616
 8039SOL     OW35752   4.356   2.927  16.380 -0.0088 -0.7541 -0.3692
 8039SOL    HW135753   4.281   2.928  16.320  0.7185  0.4404 -1.2545
 8039SOL    HW235754   4.421   2.975  16.328 -1.7396 -0.6055 -2.4326
 8040SOL     OW35755   0.031   2.960   4.888 -0.2834 -0.5079  0.3469
 8040SOL    HW135756   4.716   2.895   4.840 -0.2495  0.4189 -0.9470
 8040SOL    HW235757   4.706   2.993   4.952  0.0931 -0.0302  0.4594
 8041SOL     OW35758   1.402   4.604   6.133 -0.1162  0.1817 -0.5741
 8041SOL    HW135759   1.349   4.628   6.056 -0.1753  0.9336 -0.3030
 8041SOL    HW235760   1.433   4.517   6.110  0.6605  0.3685 -0.2019
 8042SOL     OW35761   3.692   3.434   7.754 -0.0918 -0.4337 -0.6299
 8042SOL    HW135762   3.732   3.374   7.816  1.0859  0.8521 -0.1450
 8042SOL    HW235763   3.648   3.370   7.698  0.7389 -0.3221 -1.4176
 8043SOL     OW35764   4.504   4.209   3.017 -0.4380 -0.1721  0.4973
 8043SOL    HW135765   4.541   4.127   3.050  1.1697 -0.3774 -1.8403
 8043SOL    HW235766   4.560   4.275   3.059 -2.0815  0.6505  1.4006
 8044SOL     OW35767   3.776   4.338  10.910 -0.4950  0.2887  0.1458
 8044SOL    HW135768   3.699   4.395  10.909 -0.1471  0.7351 -0.9720
 8044SOL    HW235769   3.776   4.307  11.001 -0.1210  1.1315  0.4312
 8045SOL     OW35770   3.962   4.433   5.283  0.0374  0.1258 -0.5365
 8045SOL    HW135771   3.987   4.486   5.207 -0.6065 -0.7094 -1.3422
 8045SOL    HW235772   3.975   4.495   5.354  1.9066 -2.1257  1.0706
 8046SOL     OW35773   0.313   3.606   8.029 -0.1419  0.0580  0.0948
 8046SOL    HW135774   0.385   3.576   8.084 -0.4158  0.2629  0.5674
 8046SOL    HW235775   0.239   3.581   8.083  0.0737 -0.0032  0.3641
 8047SOL     OW35776   4.500   1.521   3.028 -0.0873 -0.1406  0.5409
 8047SOL    HW135777   4.440   1.536   3.102  0.8228  2.7562  0.7109
 8047SOL    HW235778   4.563   1.591   3.044 -1.3613  0.6145  2.1908
 8048SOL     OW35779   2.897   2.169   3.244  0.3115 -0.4705 -0.2056
 8048SOL    HW135780   2.962   2.107   3.277  1.8616  1.2457 -0.0424
 8048SOL    HW235781   2.956   2.231   3.201 -0.0945  0.0874  0.0395
 8049SOL     OW35782   0.828   2.270  11.200 -0.4600 -0.1310 -0.0732
 8049SOL    HW135783   0.756   2.270  11.136 -0.9264  2.4050  0.4584
 8049SOL    HW235784   0.817   2.350  11.251 -1.7954  0.5223 -1.3770
 8050SOL     OW35785   4.315   1.761   2.869  0.2212 -0.4892  0.7531
 8050SOL    HW135786   4.220   1.750   2.861  0.1915  0.8846 -0.9686
 8050SOL    HW235787   4.320   1.767   2.965 -0.0038  0.8690  0.6913
 8051SOL     OW35788   1.889   2.029   1.007 -0.0938 -0.1591 -0.3573
 8051SOL    HW135789   1.823   2.091   0.977  0.7623  1.0616  0.2802
 8051SOL    HW235790   1.891   2.045   1.102 -0.3380 -0.1408 -0.3547
 8052SOL     OW35791   2.079   4.301   3.038  0.3336  0.4030 -0.7129
 8052SOL    HW135792   1.990   4.316   3.008 -0.4030  1.0139  1.7458
 8052SOL    HW235793   2.079   4.205   3.035  0.6441  0.3996 -0.5480
 8053SOL     OW35794   2.024   1.119  16.446 -0.3193 -0.1105  0.8410
 8053SOL    HW135795   1.945   1.173  16.440  1.1523  1.8806 -0.4792
 8053SOL    HW235796   2.077   1.177  16.499 -1.2963 -0.0940  1.7955
 8054SOL     OW35797   3.445   1.687   1.292 -0.2837  0.3095 -0.0147
 8054SOL    HW135798   3.530   1.732   1.294  1.1700 -2.4401  1.4881
 8054SOL    HW235799   3.437   1.646   1.378 -1.5744  2.1487  0.7317
 8055SOL     OW35800   0.257   2.021   0.072 -0.1646  0.0424 -0.2259
 8055SOL    HW135801   0.326   2.008   0.137  0.7871 -1.1311 -1.4740
 8055SOL    HW235802   0.306   2.061   0.001  0.2104  1.6201  0.9295
 8056SOL     OW35803   4.017   2.714   6.117 -0.1732  0.1903 -0.6721
 8056SOL    HW135804   4.060   2.630   6.133  0.4310  0.2797 -1.8279
 8056SOL    HW235805   4.065   2.744   6.040 -2.3945  1.5924 -1.4936
 8057SOL     OW35806   3.472   1.356   2.721  0.1740 -0.3767  0.7512
 8057SOL    HW135807   3.410   1.301   2.769  2.3268 -2.0459  1.5756
 8057SOL    HW235808   3.481   1.304   2.641  1.6327  1.3338 -0.1837
 8058SOL     OW35809   1.461   1.631  12.480 -0.0664 -0.0598  0.2267
 8058SOL    HW135810   1.475   1.693  12.551  1.0961 -0.7215  0.5647
 8058SOL    HW235811   1.494   1.555  12.527  1.3804  1.4762  1.7215
 8059SOL     OW35812   0.494   3.758   3.661 -0.3457 -0.1621 -0.0926
 8059SOL    HW135813   0.539   3.842   3.670  0.4217 -0.4368 -1.2474
 8059SOL    HW235814   0.509   3.730   3.751  0.8093  1.0157  0.0909
 8060SOL     OW35815   1.449   1.565   5.306  0.5441  0.2466  0.0330
 8060SOL    HW135816   1.444   1.521   5.391  1.0287 -2.2376 -1.2265
 8060SOL    HW235817   1.356   1.587   5.302  1.0149  2.6971  2.4210
 8061SOL     OW35818   4.193   2.271   5.007 -0.4515 -0.3049 -0.4435
 8061SOL    HW135819   4.176   2.365   4.996  0.9913 -0.2682 -2.3739
 8061SOL    HW235820   4.278   2.255   4.966 -0.1223  0.9595 -0.2615
 8062SOL     OW35821   1.976   1.936   1.291 -0.4376 -0.1787  0.1803
 8062SOL    HW135822   1.890   1.953   1.328  0.0931 -0.6130  1.6181
 8062SOL    HW235823   1.952   1.848   1.262 -0.7687  0.6398 -2.0242
 8063SOL     OW35824   0.400   4.126   3.759  0.5928 -0.1667 -0.5180
 8063SOL    HW135825   0.411   4.079   3.842  1.0998  1.6189  0.4165
 8063SOL    HW235826   0.366   4.212   3.784  1.3662  0.3819 -1.3640
 8064SOL     OW35827   3.090   3.995  11.649  0.0304  0.0642 -0.3768
 8064SOL    HW135828   3.063   3.911  11.686 -2.1328  0.7373 -0.3951
 8064SOL    HW235829   3.081   4.048  11.728  0.0575  1.3445 -1.2347
 8065SOL     OW35830   4.473   1.340   5.243 -0.0966  0.1671 -0.7209
 8065SOL    HW135831   4.431   1.294   5.171 -0.7634 -2.0185  1.0822
 8065SOL    HW235832   4.567   1.344   5.223  0.1903  1.3291  0.8600
 8066SOL     OW35833   2.996   1.178   6.752  0.0702  0.1821 -0.3332
 8066SOL    HW135834   3.056   1.246   6.721 -1.4825  1.2532 -0.9790
 8066SOL    HW235835   2.949   1.224   6.822  0.7391  0.4234 -0.0426
 8067SOL     OW35836   1.219   3.179   8.620  0.0559 -0.2419  0.1865
 8067SOL    HW135837   1.188   3.256   8.571 -1.7187 -0.8259  0.3764
 8067SOL    HW235838   1.176   3.108   8.572 -0.5319  0.7563 -0.7942
 8068SOL     OW35839   3.443   0.018   8.479 -0.0426 -0.4628  0.1208
 8068SOL    HW135840   3.440   0.031   8.384 -2.0200  2.7477  0.6207
 8068SOL    HW235841   3.366   4.700   8.495 -0.4710 -0.8727 -3.1294
 8069SOL     OW35842   4.021   2.456  14.401  0.5137  0.0442 -0.0534
 8069SOL    HW135843   4.093   2.393  14.392  1.6807  1.3699  0.0022
 8069SOL    HW235844   3.945   2.404  14.427  0.4355  0.3617  0.3386
 8070SOL     OW35845   3.234   1.729  12.812  0.1412 -0.4064 -0.4437
 8070SOL    HW135846   3.158   1.740  12.756  0.6341  0.2977 -0.9652
 8070SOL    HW235847   3.257   1.822  12.816 -0.5239 -0.1970 -1.6399
 8071SOL     OW35848   3.741   1.555  12.895  0.0732 -0.0334 -0.0084
 8071SOL    HW135849   3.673   1.539  12.961  0.5381 -0.4285  0.3784
 8071SOL    HW235850   3.751   1.467  12.858 -1.1317  0.6842 -2.0215
 8072SOL     OW35851   4.263   2.960  17.423 -0.4838 -0.3852 -0.0513
 8072SOL    HW135852   4.249   2.882  17.477 -0.8722 -1.4036 -1.6276
 8072SOL    HW235853   4.170   2.979  17.413 -0.7195 -1.7035 -0.3188
 8073SOL     OW35854   0.698   4.669   5.849 -0.5942  0.3169  0.2085
 8073SOL    HW135855   0.677   4.669   5.756 -2.2307 -1.6163  0.5773
 8073SOL    HW235856   0.624   4.724   5.875 -0.0378 -0.3272  3.2189
 8074SOL     OW35857   1.907   2.261   7.357  0.2306  0.1814  0.2368
 8074SOL    HW135858   1.882   2.299   7.272  0.2182 -1.2767 -0.4106
 8074SOL    HW235859   1.866   2.320   7.421 -0.0475  1.3417 -0.9996
 8075SOL     OW35860   0.826   2.471  17.127 -0.3050  0.5824 -0.4308
 8075SOL    HW135861   0.917   2.484  17.099  0.0892  0.8712  0.9284
 8075SOL    HW235862   0.843   2.448  17.219  4.0754 -2.6324 -2.0669
 8076SOL     OW35863   3.258   0.257   6.447 -0.5182 -0.2402  0.5311
 8076SOL    HW135864   3.282   0.229   6.358 -2.2960  4.1585 -1.3390
 8076SOL    HW235865   3.200   0.332   6.429  0.4856 -0.0602 -1.9557
 8077SOL     OW35866   0.794   2.619  10.056  0.4429  0.6924 -0.0941
 8077SOL    HW135867   0.772   2.649   9.968 -1.3187  1.9090  0.7688
 8077SOL    HW235868   0.856   2.552  10.026 -1.4824 -0.6776 -0.9944
 8078SOL     OW35869   2.441   0.869  13.221  0.0121  0.0226  0.6373
 8078SOL    HW135870   2.530   0.897  13.200  0.4094 -2.8954 -1.5886
 8078SOL    HW235871   2.409   0.938  13.280  0.3663  2.4725 -2.0616
 8079SOL     OW35872   4.183   0.421  16.239 -0.4156 -0.2016 -0.2791
 8079SOL    HW135873   4.156   0.498  16.190  0.4473 -0.4244 -1.1019
 8079SOL    HW235874   4.110   0.362  16.223 -0.1559 -0.3668 -0.8758
 8080SOL     OW35875   3.680   0.856   0.960 -0.0916 -0.6729 -0.4238
 8080SOL    HW135876   3.605   0.796   0.955 -1.0456  0.6543 -2.2826
 8080SOL    HW235877   3.700   0.861   0.867 -1.1981 -0.1615 -0.6340
 8081SOL     OW35878   3.119   1.285   2.232 -0.3220  0.2695  0.0636
 8081SOL    HW135879   3.070   1.338   2.295  2.4108  1.0903  1.5137
 8081SOL    HW235880   3.049   1.229   2.198  0.6156 -0.1281 -1.1986
 8082SOL     OW35881   4.202   0.603   2.614 -0.2089  0.0116 -0.4233
 8082SOL    HW135882   4.279   0.603   2.557  0.5285 -2.5803  0.5597
 8082SOL    HW235883   4.234   0.556   2.690  2.6742 -1.6945 -2.6978
 8083SOL     OW35884   3.067   2.098   3.841 -0.0088 -0.2325  0.4051
 8083SOL    HW135885   3.078   2.176   3.896 -0.9931 -1.1362  1.9075
 8083SOL    HW235886   2.986   2.061   3.878  0.5074 -1.5365  0.2224
 8084SOL     OW35887   1.046   3.327  12.638 -0.5158  0.6546  0.5307
 8084SOL    HW135888   1.057   3.420  12.657 -1.4628  0.5182  1.7589
 8084SOL    HW235889   1.015   3.293  12.722  1.3799 -1.0936  0.5110
 8085SOL     OW35890   1.537   2.655   3.544  0.2508  0.6582 -0.0735
 8085SOL    HW135891   1.594   2.651   3.621 -0.5774 -0.8269  0.4617
 8085SOL    HW235892   1.554   2.746   3.518  0.6344  0.2645 -1.1820
 8086SOL     OW35893   0.340   3.293   6.726 -1.3408  0.1038  0.3037
 8086SOL    HW135894   0.289   3.223   6.767  0.2688 -0.2438  1.7035
 8086SOL    HW235895   0.408   3.307   6.791 -1.5634  0.7506  0.4009
 8087SOL     OW35896   2.587   0.706   2.414 -0.0927 -0.0022  0.4624
 8087SOL    HW135897   2.537   0.673   2.338  0.6442 -1.2228  0.5065
 8087SOL    HW235898   2.629   0.622   2.436  0.0680  0.2311  1.0355
 8088SOL     OW35899   0.995   4.386  10.961 -0.7081  0.1362 -1.0462
 8088SOL    HW135900   1.026   4.296  10.951  0.9129  0.6074 -0.2105
 8088SOL    HW235901   0.902   4.385  10.938 -0.6457 -2.5230 -1.1456
 8089SOL     OW35902   0.118   1.166   7.171  0.4660  0.1155  0.1334
 8089SOL    HW135903   0.210   1.191   7.179  0.3297 -0.2822  3.0616
 8089SOL    HW235904   0.082   1.166   7.260 -1.3600 -0.0921 -0.5938
 8090SOL     OW35905   2.225   2.623   7.466 -0.2219 -0.1013 -0.0188
 8090SOL    HW135906   2.232   2.717   7.483 -0.6389  0.1629 -1.2653
 8090SOL    HW235907   2.284   2.592   7.535  0.1995  0.1266 -0.2771
 8091SOL     OW35908   1.585   4.337  15.765  0.2257 -0.1736  0.2650
 8091SOL    HW135909   1.537   4.258  15.790 -3.6115  1.7189 -1.2050
 8091SOL    HW235910   1.572   4.338  15.670 -0.2614  1.6825  0.3606
 8092SOL     OW35911   0.563   0.735   4.370  0.0976  0.8741 -0.5887
 8092SOL    HW135912   0.481   0.702   4.407 -0.0395  2.8582  0.8307
 8092SOL    HW235913   0.588   0.801   4.434 -1.4611 -0.5352  1.4583
 8093SOL     OW35914   0.059   1.781   5.877 -0.2045  0.1253  0.3178
 8093SOL    HW135915   0.004   1.717   5.832 -0.6569  0.3611  0.5337
 8093SOL    HW235916   0.124   1.786   5.807 -0.4851 -2.2264 -0.0949
 8094SOL     OW35917   2.234   3.239   2.102  0.2215  0.2727 -0.7216
 8094SOL    HW135918   2.167   3.308   2.093  0.3738  0.4562 -0.4351
 8094SOL    HW235919   2.317   3.280   2.126  0.2406 -0.4046  0.3344
 8095SOL     OW35920   2.006   3.449  17.396 -0.7176  0.3816 -0.8551
 8095SOL    HW135921   1.978   3.464  17.487  0.7385  0.4400 -0.4219
 8095SOL    HW235922   1.932   3.396  17.365 -2.1613 -0.0948  3.2508
 8096SOL     OW35923   1.354   3.111   5.225  0.2692  0.5671 -0.6027
 8096SOL    HW135924   1.277   3.062   5.198 -2.6037  3.3217  2.4721
 8096SOL    HW235925   1.389   3.164   5.153  0.1547  1.5125  0.0222
 8097SOL     OW35926   0.603   1.026  15.930  0.3437  0.5410  0.5091
 8097SOL    HW135927   0.535   1.010  15.865  0.5388  0.4132  0.3384
 8097SOL    HW235928   0.650   1.095  15.885 -2.1619  1.9751  0.0721
 8098SOL     OW35929   3.124   0.880   3.400 -0.0018 -0.0109 -0.6307
 8098SOL    HW135930   3.044   0.839   3.432  0.0579 -0.9872 -1.7260
 8098SOL    HW235931   3.138   0.942   3.471 -1.2834  1.2150 -1.4506
 8099SOL     OW35932   3.815   0.090  11.841 -0.1188  0.1539  0.6680
 8099SOL    HW135933   3.891   0.043  11.806 -1.3650 -1.2930 -0.0546
 8099SOL    HW235934   3.746   0.059  11.783  0.3584  1.7909 -0.7828
 8100SOL     OW35935   2.844   4.196  10.997 -0.7168  0.3542  0.0747
 8100SOL    HW135936   2.828   4.129  11.064  0.1434  1.8961  1.8155
 8100SOL    HW235937   2.845   4.277  11.047 -0.0552  0.9933 -0.9830
 8101SOL     OW35938   4.106   2.441   9.473  0.0560 -0.4838 -0.5788
 8101SOL    HW135939   4.190   2.398   9.488  0.2401 -0.2980 -1.0662
 8101SOL    HW235940   4.054   2.407   9.545 -2.1755  0.4414 -1.7617
 8102SOL     OW35941   2.127   2.461   6.033  0.2889  0.2494  0.1800
 8102SOL    HW135942   2.045   2.476   6.080 -0.7313 -1.7611 -0.9891
 8102SOL    HW235943   2.140   2.550   5.999 -0.7720  0.1700 -0.4565
 8103SOL     OW35944   0.193   2.562   3.971 -0.0288 -0.5002  0.2928
 8103SOL    HW135945   0.202   2.657   3.979  1.6246 -0.6985  0.9041
 8103SOL    HW235946   0.286   2.540   3.981 -0.4534 -2.6079 -0.3206
 8104SOL     OW35947   4.384   1.147   0.041 -0.4537  0.5314  0.8220
 8104SOL    HW135948   4.379   1.093  17.706 -1.8207  0.3669  1.0147
 8104SOL    HW235949   4.448   1.108   0.100  1.9095  0.1708 -2.0018
 8105SOL     OW35950   4.437   0.158   6.169 -0.0040  0.2121  0.5523
 8105SOL    HW135951   4.406   0.068   6.163  2.1549 -0.4658 -0.3857
 8105SOL    HW235952   4.450   0.159   6.264 -1.3395 -0.1326  0.7382
 8106SOL     OW35953   2.226   4.200   2.279  0.1588  0.2018  0.3015
 8106SOL    HW135954   2.204   4.215   2.187  0.5679 -0.6381  0.0702
 8106SOL    HW235955   2.171   4.124   2.295 -1.5342  0.9514 -1.8965
 8107SOL     OW35956   1.582   0.679   9.167  0.0107  0.1241 -0.6009
 8107SOL    HW135957   1.601   0.769   9.195 -0.4343  0.4717 -1.4210
 8107SOL    HW235958   1.528   0.645   9.238 -0.8492  1.8714 -0.3995
 8108SOL     OW35959   1.551   4.156   8.732  0.8280  0.2266 -0.3122
 8108SOL    HW135960   1.552   4.236   8.785  3.2055  0.7262 -1.1138
 8108SOL    HW235961   1.549   4.087   8.799  0.3359  0.0281 -0.5339
 8109SOL     OW35962   1.951   3.626  12.126 -0.0787 -0.3802 -0.2523
 8109SOL    HW135963   1.891   3.645  12.053  0.4638 -0.5030 -0.7277
 8109SOL    HW235964   1.955   3.711  12.171 -1.7892 -0.5559  0.2297
 8110SOL     OW35965   3.110   4.308   9.279  0.0435 -0.2505  0.2278
 8110SOL    HW135966   3.083   4.297   9.371 -0.2089 -0.2928  0.1492
 8110SOL    HW235967   3.168   4.382   9.298  0.2465 -0.3050 -0.2012
 8111SOL     OW35968   0.285   3.311   0.604 -0.5827  0.1405 -0.5480
 8111SOL    HW135969   0.376   3.280   0.610 -0.0393  1.8635  0.1898
 8111SOL    HW235970   0.253   3.228   0.640 -0.4923  0.1543 -0.4351
 8112SOL     OW35971   0.072   1.540  17.233 -0.1961  0.1775 -0.3421
 8112SOL    HW135972   0.091   1.457  17.188 -0.3313 -0.3049  0.4944
 8112SOL    HW235973   0.161   1.561  17.260 -0.0905  0.3502 -0.8191
 8113SOL     OW35974   3.571   1.989  10.337 -0.5729  0.1199 -0.1043
 8113SOL    HW135975   3.527   2.067  10.303 -0.0589  0.1488 -0.7218
 8113SOL    HW235976   3.658   1.989  10.296 -0.8845 -0.7089 -0.7473
 8114SOL     OW35977   0.060   0.763   3.185 -0.4514 -0.2180  0.3435
 8114SOL    HW135978   0.068   0.680   3.231  2.2391  0.0777  0.4321
 8114SOL    HW235979   0.020   0.821   3.250  0.4510  1.0721 -0.2430
 8115SOL     OW35980   0.476   1.484  11.272 -0.2864  0.1571  0.0427
 8115SOL    HW135981   0.407   1.450  11.331 -1.1778 -0.0215 -1.1080
 8115SOL    HW235982   0.547   1.492  11.335 -0.7210  0.3088  0.5184
 8116SOL     OW35983   1.887   3.501   7.037  0.3147  0.1989 -0.4361
 8116SOL    HW135984   1.891   3.411   7.003  0.4483  0.1876 -0.3922
 8116SOL    HW235985   1.947   3.547   6.979  2.1270  0.3669  1.5564
 8117SOL     OW35986   0.123   1.287   4.444  0.1605 -0.2533 -0.2209
 8117SOL    HW135987   0.046   1.294   4.388  0.2777  0.4955 -0.2877
 8117SOL    HW235988   0.152   1.200   4.416  0.0797 -0.5348  0.5774
 8118SOL     OW35989   3.654   2.448   5.629  0.2469  0.1370  0.5840
 8118SOL    HW135990   3.721   2.448   5.697  1.5105  0.7944 -0.6630
 8118SOL    HW235991   3.598   2.373   5.650  0.0923 -0.0613 -0.5158
 8119SOL     OW35992   2.510   3.284   5.066  0.0867 -0.2100 -0.0101
 8119SOL    HW135993   2.605   3.291   5.055  0.0603  0.6400  0.3226
 8119SOL    HW235994   2.508   3.329   5.150 -1.0134 -0.4528  0.0942
 8120SOL     OW35995   1.211   0.311  11.346 -0.0327  0.0975 -0.4707
 8120SOL    HW135996   1.165   0.390  11.319 -0.8837 -0.2618 -0.0581
 8120SOL    HW235997   1.156   0.286  11.420 -0.6566 -0.0910 -1.0010
 8121SOL     OW35998   0.310   3.401  12.010  0.0749  0.4146  0.2244
 8121SOL    HW135999   0.304   3.348  11.931  1.2428  1.8882 -0.8527
 8121SOL    HW236000   0.220   3.423  12.035 -0.0718 -1.4654  1.3358
 8122SOL     OW36001   3.894   0.885   2.752  0.0717  0.2894  0.1605
 8122SOL    HW136002   3.958   0.927   2.810  0.0249  1.1369 -0.4127
 8122SOL    HW236003   3.925   0.795   2.742 -0.5154  0.1217 -0.1604
 8123SOL     OW36004   3.717   3.168   1.155  0.1339  0.0793 -0.0555
 8123SOL    HW136005   3.745   3.259   1.144  2.3921 -0.2388  3.0638
 8123SOL    HW236006   3.791   3.112   1.134 -1.0619 -1.5876  0.1342
 8124SOL     OW36007   0.473   0.215   6.118 -0.8110 -0.0159 -0.4187
 8124SOL    HW136008   0.459   0.123   6.139  0.6381 -0.4074 -1.2134
 8124SOL    HW236009   0.532   0.233   6.191 -0.6947  0.3816 -0.6116
 8125SOL     OW36010   3.156   3.086  13.246  0.1368  0.0546 -0.0112
 8125SOL    HW136011   3.235   3.035  13.266  0.0309  0.2354  0.9032
 8125SOL    HW236012   3.176   3.105  13.154 -1.6348  1.2024 -0.1682
 8126SOL     OW36013   1.140   4.232  15.010  0.7125 -0.2450  0.6181
 8126SOL    HW136014   1.178   4.213  14.924  0.8880 -1.3042  0.9350
 8126SOL    HW236015   1.216   4.267  15.057  1.1917 -0.6902  0.1826
 8127SOL     OW36016   4.489   3.343   0.634 -0.0453  0.5052  0.0760
 8127SOL    HW136017   4.496   3.402   0.710 -1.4003  1.8662 -0.8425
 8127SOL    HW236018   4.435   3.400   0.579 -0.9305  1.7365  2.1974
 8128SOL     OW36019   4.556   1.119   8.967 -0.1019  0.3111 -0.2539
 8128SOL    HW136020   4.492   1.186   8.942  4.2716  3.3878 -2.9934
 8128SOL    HW236021   4.601   1.090   8.888 -0.4867  1.9829 -1.0812
 8129SOL     OW36022   1.025   0.469   0.542 -0.0598 -0.1161  0.2950
 8129SOL    HW136023   1.011   0.405   0.611 -0.3076 -0.6313 -0.2247
 8129SOL    HW236024   0.938   0.506   0.527 -0.4160 -1.4717 -1.1228
 8130SOL     OW36025   2.846   3.322   8.383  0.1510  0.2431 -0.1405
 8130SOL    HW136026   2.764   3.356   8.348  0.8212  0.3190 -1.6339
 8130SOL    HW236027   2.886   3.398   8.424 -1.7261  1.2419 -0.1951
 8131SOL     OW36028   1.114   0.731   1.659 -0.8609 -0.0206  0.1433
 8131SOL    HW136029   1.089   0.737   1.751 -0.4437 -0.3508  0.2806
 8131SOL    HW236030   1.161   0.814   1.651  0.4395 -0.8960 -1.4552
 8132SOL     OW36031   0.664   2.557   6.163 -0.0912  0.4291  0.5804
 8132SOL    HW136032   0.693   2.623   6.100  0.8342  0.8728  1.4522
 8132SOL    HW236033   0.574   2.539   6.140  0.2920 -0.5755 -0.0854
 8133SOL     OW36034   3.034   0.495   8.565 -0.4212 -0.0292  0.5425
 8133SOL    HW136035   3.076   0.503   8.650 -0.6557  0.4127  0.6151
 8133SOL    HW236036   3.080   0.556   8.508  1.1967 -2.2371 -0.5196
 8134SOL     OW36037   0.547   3.018   2.951 -0.4936  0.0517 -0.5203
 8134SOL    HW136038   0.496   3.096   2.975 -2.6889 -1.9031  1.1338
 8134SOL    HW236039   0.541   3.025   2.856  0.1977 -0.4176 -0.5924
 8135SOL     OW36040   2.534   4.336   3.204  0.1888 -0.3311 -0.2248
 8135SOL    HW136041   2.543   4.281   3.126  1.8351 -0.3659 -0.0123
 8135SOL    HW236042   2.468   4.293   3.258  0.2318  2.5588  2.1145
 8136SOL     OW36043   2.993   4.573   8.604 -0.2851  0.3186 -0.0720
 8136SOL    HW136044   2.907   4.590   8.567  1.4250 -0.1687 -4.3057
 8136SOL    HW236045   3.020   4.487   8.573  3.8285  0.9004  1.8652
 8137SOL     OW36046   1.226   4.449   4.222 -0.4017  0.1919  0.1856
 8137SOL    HW136047   1.293   4.515   4.205 -1.1429  1.0748  0.6684
 8137SOL    HW236048   1.189   4.429   4.137  0.0041  0.9502 -0.1689
 8138SOL     OW36049   3.111   0.208  16.401  0.0192  0.0352  0.3662
 8138SOL    HW136050   3.153   0.188  16.484  2.4543  4.5308  0.2023
 8138SOL    HW236051   3.167   0.281  16.373 -0.9610  1.2445  1.5561
 8139SOL     OW36052   4.179   1.669  10.664  0.4466 -0.0382  0.0008
 8139SOL    HW136053   4.149   1.631  10.747 -0.9894  0.5658 -0.2351
 8139SOL    HW236054   4.213   1.752  10.696  1.9632 -0.8478  0.4799
 8140SOL     OW36055   1.112   0.335  10.696  0.0573  0.7308 -0.4579
 8140SOL    HW136056   1.173   0.269  10.729 -1.7287 -1.1485 -0.9299
 8140SOL    HW236057   1.059   0.340  10.775  1.3902  0.0556  0.4717
 8141SOL     OW36058   2.869   2.100   2.697  0.1533 -0.3413 -0.4119
 8141SOL    HW136059   2.881   2.054   2.614  1.8131  0.5324 -0.6578
 8141SOL    HW236060   2.949   2.149   2.717  1.8862 -1.8854 -3.5927
 8142SOL     OW36061   1.503   3.474   5.524  0.1146  0.4794 -0.1495
 8142SOL    HW136062   1.435   3.541   5.535 -0.5779 -0.0776 -1.0472
 8142SOL    HW236063   1.454   3.396   5.501 -2.0242  1.9797 -0.6637
 8143SOL     OW36064   0.128   1.973   2.532 -0.5978  0.0607  0.2351
 8143SOL    HW136065   0.091   2.052   2.572 -0.0204  1.6717 -2.4440
 8143SOL    HW236066   0.051   1.923   2.507 -1.3439  0.4573  1.7134
 8144SOL     OW36067   0.787   4.403   6.181 -1.1301  0.1727  0.5196
 8144SOL    HW136068   0.754   4.350   6.253  0.8970 -3.6622 -1.3891
 8144SOL    HW236069   0.726   4.373   6.114 -0.7724 -0.3576  0.4382
 8145SOL     OW36070   0.868   3.561   6.209  0.2488  0.2939 -0.5258
 8145SOL    HW136071   0.877   3.549   6.304  2.1094  0.7495 -0.6589
 8145SOL    HW236072   0.774   3.579   6.206  0.4927  0.9890 -4.1043
 8146SOL     OW36073   3.180   0.455  16.759  0.6363  0.0885 -0.1780
 8146SOL    HW136074   3.217   0.520  16.699 -1.2416  1.3980  0.0954
 8146SOL    HW236075   3.252   0.445  16.822  1.4066  1.6621 -0.8131
 8147SOL     OW36076   0.492   2.746   7.111 -0.2270  0.0507  0.6079
 8147SOL    HW136077   0.423   2.806   7.085  0.0907  0.2378  0.2077
 8147SOL    HW236078   0.575   2.792   7.107 -1.6556  2.4334 -1.2505
 8148SOL     OW36079   2.819   0.868   6.520  0.2396 -0.2075 -0.1696
 8148SOL    HW136080   2.788   0.778   6.508 -0.2350  0.4044 -3.6777
 8148SOL    HW236081   2.746   0.910   6.566  0.1810  1.4673 -1.7852
 8149SOL     OW36082   4.175   4.717  13.319  0.7205 -0.3422 -0.0820
 8149SOL    HW136083   4.100   0.014  13.369  0.6446 -1.0775  0.2939
 8149SOL    HW236084   4.222   0.064  13.312 -2.7784  1.5711 -0.6525
 8150SOL     OW36085   4.003   0.984  17.663  0.2487 -0.8110 -0.4944
 8150SOL    HW136086   3.971   0.995   0.009  0.1211  0.4731 -0.6933
 8150SOL    HW236087   4.098   0.995  17.672 -0.0072  0.3097  0.9076
 8151SOL     OW36088   1.849   1.461   2.278 -0.0616  0.4005  0.1520
 8151SOL    HW136089   1.837   1.470   2.373  0.8180 -2.1719  0.5119
 8151SOL    HW236090   1.848   1.552   2.248 -0.0865  0.5916  0.7407
 8152SOL     OW36091   0.580   0.003   6.783 -0.2848  0.0553  0.0186
 8152SOL    HW136092   0.646   4.697   6.838 -2.2517 -1.6163  1.1122
 8152SOL    HW236093   0.628   0.080   6.754 -0.4138 -0.1522 -0.7409
 8153SOL     OW36094   3.556   2.701   6.327 -0.0381  0.6237  0.3013
 8153SOL    HW136095   3.584   2.761   6.257 -2.0026  2.0023  0.7051
 8153SOL    HW236096   3.477   2.659   6.294  0.8385 -1.6196  1.0403
 8154SOL     OW36097   0.037   1.399   2.522  0.4798 -0.0503 -0.0518
 8154SOL    HW136098   0.053   1.322   2.469  1.8024 -1.4997  2.4324
 8154SOL    HW236099   4.731   1.361   2.599  0.4851  0.6983  0.3231
 8155SOL     OW36100   2.739   2.017  14.920 -0.3803  0.4432  0.0332
 8155SOL    HW136101   2.758   2.088  14.981  0.0907  1.6509 -1.4998
 8155SOL    HW236102   2.683   2.058  14.854  1.4396  1.3630 -0.9468
 8156SOL     OW36103   2.979   0.022   2.328  0.2058 -0.3769  0.0775
 8156SOL    HW136104   2.968   0.039   2.234 -0.8955  1.5649  0.5635
 8156SOL    HW236105   3.074   0.032   2.334  0.1526  0.0915  0.1154
 8157SOL     OW36106   0.087   3.374   3.905 -0.0300  0.1605  0.4927
 8157SOL    HW136107   0.059   3.461   3.877  0.7658  0.3951  0.4452
 8157SOL    HW236108   0.052   3.360   3.993 -2.2279 -1.1851 -0.5914
 8158SOL     OW36109   1.684   2.375   5.170  0.5609  0.3320 -0.0233
 8158SOL    HW136110   1.592   2.362   5.191  0.6843 -0.3343  0.1201
 8158SOL    HW236111   1.704   2.411   5.256 -3.6749  0.2882  0.9523
 8159SOL     OW36112   2.302   0.718   8.874 -0.0623 -0.0495  0.1685
 8159SOL    HW136113   2.397   0.707   8.870  0.1314  1.7551 -0.4790
 8159SOL    HW236114   2.286   0.669   8.955  0.3124 -0.6096 -0.1024
 8160SOL     OW36115   2.399   2.728  15.952 -0.0238 -0.1534 -0.0524
 8160SOL    HW136116   2.334   2.769  15.896 -0.1276  2.2888  1.8813
 8160SOL    HW236117   2.352   2.704  16.033  0.1674 -0.5102 -0.0471
 8161SOL     OW36118   0.439   2.428   6.958  0.3781  0.1294  0.1701
 8161SOL    HW136119   0.443   2.362   6.889  1.5917  1.9204 -1.4720
 8161SOL    HW236120   0.383   2.490   6.911  0.5211  0.1882  0.0774
 8162SOL     OW36121   0.483   1.568  11.646  0.0808  0.2178 -0.5725
 8162SOL    HW136122   0.414   1.634  11.654  0.5644  1.0050 -2.9232
 8162SOL    HW236123   0.553   1.619  11.686 -0.1009 -0.3229  0.4472
 8163SOL     OW36124   2.770   1.066   7.662  0.2540  0.0028  0.3585
 8163SOL    HW136125   2.744   0.983   7.701  1.3285 -0.1332  0.7738
 8163SOL    HW236126   2.695   1.079   7.604  0.8133 -1.2332 -0.6412
 8164SOL     OW36127   3.784   4.235  11.162 -0.3208  0.3307 -0.2770
 8164SOL    HW136128   3.700   4.231  11.209 -0.2724  2.2351 -0.0033
 8164SOL    HW236129   3.825   4.258  11.246 -1.7144  3.3769 -0.4113
 8165SOL     OW36130   1.631   3.114  14.998 -0.1037  0.0728 -0.0373
 8165SOL    HW136131   1.656   3.207  14.997 -1.9812  0.5768 -1.9472
 8165SOL    HW236132   1.538   3.113  15.023  0.3619 -0.7466  1.6060
 8166SOL     OW36133   0.705   4.191   8.573 -0.0507 -0.2564 -0.0950
 8166SOL    HW136134   0.733   4.196   8.664 -1.5437 -0.7282  0.3991
 8166SOL    HW236135   0.787   4.174   8.526 -0.0946 -1.2834  0.1987
 8167SOL     OW36136   2.360   3.747   4.973 -0.4341 -0.0083 -0.4093
 8167SOL    HW136137   2.294   3.816   4.974 -0.2390  0.1632  0.5232
 8167SOL    HW236138   2.367   3.722   4.881 -1.5305 -0.3067 -0.4109
 8168SOL     OW36139   0.470   4.320   8.327  0.6391 -0.0732  0.4136
 8168SOL    HW136140   0.477   4.414   8.338 -2.6381  0.3652 -1.5118
 8168SOL    HW236141   0.401   4.307   8.262  0.9219 -1.4655  0.3712
 8169SOL     OW36142   0.990   3.578   1.397 -0.0529 -0.1543  0.1898
 8169SOL    HW136143   0.924   3.632   1.440 -2.1497 -2.5499 -0.0323
 8169SOL    HW236144   0.948   3.492   1.407  0.9625 -0.8764 -1.8342
 8170SOL     OW36145   0.301   3.832   4.956  0.1424  0.2586 -1.1871
 8170SOL    HW136146   0.291   3.901   4.890 -1.1594  2.1613  1.0099
 8170SOL    HW236147   0.396   3.827   4.958  0.1541  0.9801  0.5715
 8171SOL     OW36148   0.418   4.464  14.171  0.1821  0.3699  0.0342
 8171SOL    HW136149   0.513   4.477  14.174  0.0858  1.2176 -0.4662
 8171SOL    HW236150   0.393   4.513  14.092  0.4111  0.3444 -0.0538
 8172SOL     OW36151   1.767   0.663  13.487  0.0595  0.5594  0.1456
 8172SOL    HW136152   1.861   0.671  13.505  0.0083 -1.2089  1.2303
 8172SOL    HW236153   1.755   0.690  13.396  0.4244 -1.1541 -0.4310
 8173SOL     OW36154   1.983   3.575   2.809  0.8240  0.0199  0.1550
 8173SOL    HW136155   1.915   3.537   2.753  0.0523 -1.9686  2.3974
 8173SOL    HW236156   1.947   3.534   2.888 -1.0988 -0.1639 -0.8022
 8174SOL     OW36157   1.372   2.843   9.330 -0.1323  0.2577  0.0675
 8174SOL    HW136158   1.372   2.889   9.414  2.3334 -0.2649  0.3589
 8174SOL    HW236159   1.410   2.912   9.276  1.5866 -1.9848 -1.5940
 8175SOL     OW36160   4.617   2.038   6.429 -0.1090 -0.0940 -0.0809
 8175SOL    HW136161   4.608   2.134   6.431 -0.1645 -0.1345  1.7257
 8175SOL    HW236162   4.525   2.015   6.419  0.0354  0.5539 -2.8121
 8176SOL     OW36163   3.075   4.214   2.774  0.2257  0.0472  0.3213
 8176SOL    HW136164   3.166   4.231   2.748  0.5690 -1.4112  0.5679
 8176SOL    HW236165   3.024   4.264   2.710 -0.3409 -0.9254  0.0099
 8177SOL     OW36166   3.814   1.555  17.378  0.2779  0.3453 -0.0390
 8177SOL    HW136167   3.798   1.464  17.402  0.2446  0.5725  0.7835
 8177SOL    HW236168   3.905   1.573  17.402  0.7349  1.3402 -2.5091
 8178SOL     OW36169   3.221   4.585   8.312  0.7042  0.4622  0.1817
 8178SOL    HW136170   3.226   4.500   8.268  1.2711  0.9474 -0.7110
 8178SOL    HW236171   3.162   4.565   8.385 -0.4945 -1.7100 -1.3817
 8179SOL     OW36172   1.717   2.802   5.616 -0.5418  0.2010  0.5750
 8179SOL    HW136173   1.753   2.877   5.570 -0.0232 -1.0958 -1.1173
 8179SOL    HW236174   1.656   2.768   5.551  2.6247  0.4992 -2.5746
 8180SOL     OW36175   2.530   1.547   2.332  0.7664 -0.3305 -0.3494
 8180SOL    HW136176   2.521   1.543   2.237  2.0546 -2.3464 -0.3778
 8180SOL    HW236177   2.472   1.479   2.367  0.1759  1.1977  1.6604
 8181SOL     OW36178   0.041   3.254   7.045 -0.5582  0.2757  0.2819
 8181SOL    HW136179   4.736   3.334   7.079  0.5370  0.6882  0.6532
 8181SOL    HW236180   0.003   3.184   7.098  0.2553  0.4566  1.1013
 8182SOL     OW36181   2.144   3.015   2.774 -0.6792 -0.2589  0.5252
 8182SOL    HW136182   2.150   2.979   2.862 -1.1285 -1.4225  0.0788
 8182SOL    HW236183   2.094   3.094   2.795  0.2456  0.8112 -1.2166
 8183SOL     OW36184   3.796   2.491  12.576 -0.2993 -0.4705  0.3562
 8183SOL    HW136185   3.832   2.571  12.615 -0.1316 -0.3860  0.0287
 8183SOL    HW236186   3.718   2.523  12.531  0.6968  0.3641 -0.7682
 8184SOL     OW36187   2.699   4.019  15.796 -0.8166 -0.3431  0.8413
 8184SOL    HW136188   2.665   4.096  15.751  0.3270  0.4247  1.3039
 8184SOL    HW236189   2.773   4.002  15.738 -1.4092  3.3297 -0.9697
 8185SOL     OW36190   2.901   1.583   5.459  0.0936 -0.7060  0.1124
 8185SOL    HW136191   2.951   1.501   5.462  0.6756 -0.3333  0.5692
 8185SOL    HW236192   2.810   1.559   5.474  0.3874 -0.3246  2.4766
 8186SOL     OW36193   3.114   1.020   7.279 -0.3740  0.6155 -0.4661
 8186SOL    HW136194   3.113   0.990   7.188  0.2332 -1.0920  0.0784
 8186SOL    HW236195   3.115   0.938   7.329  1.1957 -0.5858 -2.4629
 8187SOL     OW36196   0.569   2.274   0.131  0.6006 -0.2159  0.0903
 8187SOL    HW136197   0.483   2.299   0.099 -0.3757 -2.8675  0.6040
 8187SOL    HW236198   0.618   2.309   0.057 -0.6426  1.7886  0.2305
 8188SOL     OW36199   1.681   3.885   3.947  0.3287  0.4675  0.3142
 8188SOL    HW136200   1.639   3.953   4.000 -1.2414  1.0214 -1.6770
 8188SOL    HW236201   1.710   3.925   3.866 -1.3582 -2.0107 -1.5381
 8189SOL     OW36202   0.241   2.284   8.149 -0.3674 -0.5233  0.2536
 8189SOL    HW136203   0.325   2.328   8.140 -0.9766  0.5002 -0.5413
 8189SOL    HW236204   0.195   2.354   8.195 -1.0384 -2.8278  3.0585
 8190SOL     OW36205   0.895   4.693   2.264 -0.3235 -0.3537 -0.0828
 8190SOL    HW136206   0.943   0.028   2.223 -0.0287 -0.9802 -0.8313
 8190SOL    HW236207   0.863   0.004   2.341  2.0529 -0.3407  0.9090
 8191SOL     OW36208   2.294   0.484  16.332 -0.1603  0.1170  0.1603
 8191SOL    HW136209   2.212   0.449  16.365  0.7940 -2.2978 -0.0618
 8191SOL    HW236210   2.329   0.406  16.288 -0.8977  0.4643 -1.0585
 8192SOL     OW36211   3.831   0.236   5.090 -0.3833 -0.2618  0.0120
 8192SOL    HW136212   3.753   0.288   5.110  1.9465  2.7247  1.2446
 8192SOL    HW236213   3.830   0.169   5.158 -0.3245  1.0508  1.2888
 8193SOL     OW36214   3.437   2.022   4.632 -0.0790  0.0806 -0.0602
 8193SOL    HW136215   3.441   2.028   4.536  0.6377 -0.6318 -0.0745
 8193SOL    HW236216   3.456   1.932   4.658 -1.1035 -0.1041  0.0832
 8194SOL     OW36217   1.081   0.800  11.550  0.3616  0.2866 -0.0929
 8194SOL    HW136218   1.139   0.876  11.550  1.3532 -0.4831  1.5753
 8194SOL    HW236219   1.119   0.751  11.478  1.4167 -0.2506  0.8397
 8195SOL     OW36220   0.675   0.961   8.100 -0.3594 -0.4649 -0.0963
 8195SOL    HW136221   0.695   1.044   8.057  0.8584 -0.5583  0.2748
 8195SOL    HW236222   0.589   0.955   8.059 -0.0075 -0.1193 -0.8936
 8196SOL     OW36223   2.115   1.101   9.168  0.1532 -0.1545 -0.2541
 8196SOL    HW136224   2.156   1.039   9.228 -0.8312 -0.6669 -0.1057
 8196SOL    HW236225   2.022   1.078   9.174 -0.3473  0.6627 -4.7318
 8197SOL     OW36226   0.327   2.129   1.120  0.0709 -0.4135  0.2537
 8197SOL    HW136227   0.262   2.143   1.189 -2.5674 -3.4141 -1.5886
 8197SOL    HW236228   0.300   2.195   1.057  1.0821  0.2474  0.5300
 8198SOL     OW36229   3.067   2.318  12.316  0.3090 -1.0868 -0.1661
 8198SOL    HW136230   2.977   2.299  12.291 -0.3097  1.3748  0.2158
 8198SOL    HW236231   3.104   2.230  12.318 -1.1685 -1.7479 -1.6935
 8199SOL     OW36232   0.588   1.892   7.878  0.3629  0.1645 -0.1426
 8199SOL    HW136233   0.525   1.949   7.922 -1.1815  0.4884 -2.7789
 8199SOL    HW236234   0.581   1.811   7.929  1.9275  0.5455  0.6867
 8200SOL     OW36235   1.618   4.441   2.367 -0.3791 -0.0479 -0.6458
 8200SOL    HW136236   1.587   4.531   2.364 -1.6760 -0.4160  1.1767
 8200SOL    HW236237   1.599   4.423   2.460  2.2487 -1.4722 -0.3820
 8201SOL     OW36238   0.628   0.259  11.491  0.6196  0.1238 -0.1302
 8201SOL    HW136239   0.692   0.193  11.519  0.7501  0.4316  0.3204
 8201SOL    HW236240   0.607   0.312  11.568  0.3976 -0.1372 -0.0131
 8202SOL     OW36241   2.942   0.771  17.155 -0.4752  0.0536 -0.1499
 8202SOL    HW136242   2.975   0.831  17.222  2.6565 -0.9627 -0.7756
 8202SOL    HW236243   2.897   0.708  17.210  2.3344 -1.6604  0.1831
 8203SOL     OW36244   3.798   1.500   9.317 -0.0064  0.2783 -0.2662
 8203SOL    HW136245   3.795   1.528   9.409  0.5141 -0.2419 -0.0874
 8203SOL    HW236246   3.730   1.554   9.278 -0.0651  1.5707  1.6274
 8204SOL     OW36247   3.392   1.688   2.835 -0.0612 -0.4387 -0.6389
 8204SOL    HW136248   3.418   1.608   2.882 -0.2815 -0.2239 -0.1488
 8204SOL    HW236249   3.453   1.752   2.873  0.2159 -0.6225 -0.7736
 8205SOL     OW36250   2.903   2.930   2.350  0.1751  0.2554  0.1586
 8205SOL    HW136251   2.893   2.849   2.299 -0.5111 -0.8351  2.0219
 8205SOL    HW236252   2.955   2.981   2.288 -1.5147 -1.0657 -2.3638
 8206SOL     OW36253   1.604   3.203   0.730  0.5667  0.1578 -0.2475
 8206SOL    HW136254   1.570   3.168   0.812 -0.0674 -1.6494 -1.2816
 8206SOL    HW236255   1.673   3.141   0.706  2.0145  0.7745  2.3534
 8207SOL     OW36256   0.356   1.465  11.867  0.0455 -0.3460  0.4397
 8207SOL    HW136257   0.395   1.480  11.781 -1.7445  0.2649 -0.2734
 8207SOL    HW236258   0.433   1.483  11.920 -0.6231  1.9642  0.6479
 8208SOL     OW36259   0.684   4.182  14.743  0.0978 -0.0593  0.5339
 8208SOL    HW136260   0.612   4.145  14.794 -1.2704  0.0057 -1.3524
 8208SOL    HW236261   0.681   4.270  14.780  0.4381  0.5392 -0.8375
 8209SOL     OW36262   3.696   3.358   1.881  0.7977  0.3206  0.1607
 8209SOL    HW136263   3.622   3.302   1.900  0.0892  1.0908 -0.3413
 8209SOL    HW236264   3.656   3.443   1.865 -0.5322 -0.1455  1.0411
 8210SOL     OW36265   0.965   1.270   0.147  0.4244  0.0245  0.4929
 8210SOL    HW136266   0.942   1.361   0.162 -0.5384 -0.3808  1.4541
 8210SOL    HW236267   0.883   1.221   0.143 -0.2389  1.1246  0.6279
 8211SOL     OW36268   3.800   2.009   7.431  0.3355 -0.5745 -0.4406
 8211SOL    HW136269   3.821   2.096   7.397  2.4628 -1.2991 -0.9541
 8211SOL    HW236270   3.789   2.034   7.523  0.4921 -1.1444 -0.2706
 8212SOL     OW36271   3.247   2.278  15.532  0.1427  0.0788  0.0639
 8212SOL    HW136272   3.264   2.188  15.560  0.3812 -0.1905 -0.9440
 8212SOL    HW236273   3.333   2.320  15.529 -0.5042  1.2903 -1.6307
 8213SOL     OW36274   4.210   0.999   3.583  0.6856 -0.3631 -0.2016
 8213SOL    HW136275   4.225   1.066   3.650 -0.9483 -1.3546  1.1289
 8213SOL    HW236276   4.136   1.036   3.535  1.2153  0.3431 -0.4906
 8214SOL     OW36277   1.268   0.827   9.353 -0.3412  0.1677  0.1754
 8214SOL    HW136278   1.315   0.745   9.365  1.3715  1.7227  4.3290
 8214SOL    HW236279   1.280   0.868   9.439 -0.3826 -0.5202  0.5110
 8215SOL     OW36280   1.060   0.442   2.844 -0.0668  0.4177  0.3522
 8215SOL    HW136281   1.018   0.428   2.929  0.1503 -1.4274  0.1604
 8215SOL    HW236282   1.015   0.519   2.809 -0.8693 -0.8874 -1.5139
 8216SOL     OW36283   0.880   2.108   4.240 -0.3234 -0.3902 -0.0058
 8216SOL    HW136284   0.893   2.132   4.149  0.5699  1.7651  0.7006
 8216SOL    HW236285   0.821   2.032   4.240 -1.9334  0.8401  1.3743
 8217SOL     OW36286   2.595   1.242   3.416 -0.0128  0.1945  0.0616
 8217SOL    HW136287   2.689   1.252   3.433 -0.1663 -0.8590  1.5349
 8217SOL    HW236288   2.574   1.223   3.508  1.3548 -0.2832  0.2888
 8218SOL     OW36289   1.089   3.661   7.171 -0.1179  0.0779 -0.1953
 8218SOL    HW136290   1.023   3.730   7.167 -1.3883 -1.1313 -0.1285
 8218SOL    HW236291   1.060   3.601   7.240 -1.8791  1.4459  0.2570
 8219SOL     OW36292   1.390   3.188   6.805  0.2315 -0.1045  0.7527
 8219SOL    HW136293   1.485   3.176   6.807  0.6382  3.2038  2.3179
 8219SOL    HW236294   1.374   3.127   6.734  0.3779  0.6450  0.0809
 8220SOL     OW36295   0.165   1.797   3.779  0.3402 -0.7136  0.3467
 8220SOL    HW136296   0.140   1.727   3.839 -2.7272  1.0561  1.1325
 8220SOL    HW236297   0.113   1.767   3.704  1.5665  2.6122 -1.8295
 8221SOL     OW36298   3.220   4.635   7.298 -0.1626 -0.8279  0.2023
 8221SOL    HW136299   3.144   4.624   7.240  1.0031 -1.6827 -1.1625
 8221SOL    HW236300   3.198   4.721   7.334  1.0612  0.6182 -2.5538
 8222SOL     OW36301   3.093   2.432   8.293  0.3638  0.3839  0.0417
 8222SOL    HW136302   3.112   2.338   8.299  2.9001  0.9634  1.0126
 8222SOL    HW236303   3.076   2.436   8.199  0.7499 -1.3590 -0.1041
 8223SOL     OW36304   2.176   3.841  14.478 -0.2151  0.4011 -0.0811
 8223SOL    HW136305   2.137   3.897  14.544 -1.3641 -1.5876  0.9140
 8223SOL    HW236306   2.195   3.910  14.415 -0.1412  1.7953  1.4810
 8224SOL     OW36307   3.053   2.878   3.870 -0.6617 -0.0944 -0.2989
 8224SOL    HW136308   3.012   2.902   3.953  0.5472  0.5199  0.1152
 8224SOL    HW236309   3.083   2.788   3.882  1.5986  0.8238  0.7827
 8225SOL     OW36310   0.546   4.235   8.026 -0.3999 -0.0979  0.7363
 8225SOL    HW136311   0.616   4.189   8.073 -1.8396 -2.8559  0.1410
 8225SOL    HW236312   0.530   4.174   7.955 -0.1654  1.7900 -0.9598
 8226SOL     OW36313   4.467   3.110   4.803 -0.2355 -0.3138 -0.4269
 8226SOL    HW136314   4.518   3.048   4.855 -0.9159 -0.0090  0.6063
 8226SOL    HW236315   4.380   3.070   4.803  0.4779 -1.8625  2.3423
 8227SOL     OW36316   4.188   0.116   0.897  0.3559  0.9911 -0.1955
 8227SOL    HW136317   4.110   0.168   0.876 -0.5174 -0.2339  0.0065
 8227SOL    HW236318   4.172   0.096   0.989  0.9245 -3.7801 -1.1521
 8228SOL     OW36319   4.573   1.949   3.267  0.3696 -0.1466 -0.2304
 8228SOL    HW136320   4.509   1.903   3.323  0.4638 -0.7223 -0.5934
 8228SOL    HW236321   4.636   1.951   3.339  0.2348  0.4155 -0.1287
 8229SOL     OW36322   2.592   2.540   3.194  0.5134  0.0499  0.6365
 8229SOL    HW136323   2.667   2.521   3.250 -0.2000 -0.7823  1.3110
 8229SOL    HW236324   2.618   2.611   3.136 -1.8300  1.1935  0.9931
 8230SOL     OW36325   3.147   2.957  15.038 -0.1270 -0.1360 -0.1579
 8230SOL    HW136326   3.190   2.994  15.115 -1.1440 -0.3088  0.4931
 8230SOL    HW236327   3.182   2.868  15.037  2.2008  0.8019 -1.4951
 8231SOL     OW36328   0.216   1.215   2.217  0.9721  0.0267 -0.0564
 8231SOL    HW136329   0.145   1.262   2.175 -1.0641 -1.6292  1.5231
 8231SOL    HW236330   0.160   1.159   2.271  1.1016 -0.0768 -0.0273
 8232SOL     OW36331   1.563   3.899   8.516 -0.1013 -0.0910 -0.4970
 8232SOL    HW136332   1.591   3.832   8.454 -1.7233 -0.1869 -1.1259
 8232SOL    HW236333   1.472   3.916   8.489 -0.5051  0.0568  0.9624
 8233SOL     OW36334   0.163   4.529  17.204 -0.2039 -1.0870 -0.4338
 8233SOL    HW136335   0.244   4.495  17.167  1.2709  1.5285  0.4139
 8233SOL    HW236336   0.193   4.617  17.225 -2.0712 -0.6160  0.2574
 8234SOL     OW36337   3.557   3.362   1.450  0.1000 -0.6016  0.5042
 8234SOL    HW136338   3.576   3.453   1.475  0.8301 -0.2220 -1.4614
 8234SOL    HW236339   3.505   3.382   1.372  2.1573  0.3971 -0.6243
 8235SOL     OW36340   3.543   0.532   5.634  0.2272 -0.4627 -0.9239
 8235SOL    HW136341   3.606   0.466   5.663 -0.2276 -0.7559 -0.5984
 8235SOL    HW236342   3.599   0.607   5.618  0.6385 -1.0456 -2.2308
 8236SOL     OW36343   1.249   2.856  13.800 -0.1476 -0.4897 -0.1340
 8236SOL    HW136344   1.273   2.772  13.762  1.4395  0.0336 -0.2890
 8236SOL    HW236345   1.158   2.862  13.771 -0.2506  0.6022  0.4101
 8237SOL     OW36346   2.811   3.505  16.371 -0.1656  0.1973 -0.1170
 8237SOL    HW136347   2.766   3.488  16.453 -0.2989 -4.4255 -1.1624
 8237SOL    HW236348   2.897   3.491  16.411  0.2092  1.2038 -0.5564
 8238SOL     OW36349   2.531   3.523   7.690 -0.1926 -0.1365  0.4842
 8238SOL    HW136350   2.451   3.572   7.708  0.6885 -0.0717  4.0653
 8238SOL    HW236351   2.590   3.592   7.720 -1.0133  1.0908 -0.7529
 8239SOL     OW36352   2.717   3.087  16.585 -0.1669 -0.0964 -0.0112
 8239SOL    HW136353   2.678   3.029  16.520 -2.1876  0.4159  0.7514
 8239SOL    HW236354   2.645   3.117  16.639  0.8445  3.0377 -0.3853
 8240SOL     OW36355   3.228   3.582   6.340 -0.0247  0.0051  0.0529
 8240SOL    HW136356   3.261   3.622   6.260  1.6076  0.2162  0.8333
 8240SOL    HW236357   3.167   3.638   6.388 -1.5905 -0.0776 -1.8136
 8241SOL     OW36358   1.440   0.196   2.470  0.3448  0.0721  0.1876
 8241SOL    HW136359   1.502   0.240   2.412  0.5261  1.6684  1.6043
 8241SOL    HW236360   1.363   0.252   2.460 -0.1425 -0.7008 -0.3587
 8242SOL     OW36361   3.684   1.085   7.689  0.1244  0.0962 -0.2733
 8242SOL    HW136362   3.629   1.087   7.611  2.5750  0.8002 -1.9903
 8242SOL    HW236363   3.773   1.070   7.656 -0.0529  0.0787 -0.7423
 8243SOL     OW36364   0.992   1.460   1.813 -0.3898  0.1921 -0.0046
 8243SOL    HW136365   0.973   1.367   1.799  1.5173  0.0612 -1.7444
 8243SOL    HW236366   0.938   1.476   1.890 -1.7024 -0.2950 -0.8286
 8244SOL     OW36367   1.266   0.532   5.184 -0.2138  0.3862 -0.3635
 8244SOL    HW136368   1.237   0.492   5.266  0.2192 -0.2970 -0.5417
 8244SOL    HW236369   1.315   0.457   5.150 -0.2347 -0.5732  1.7191
 8245SOL     OW36370   4.416   3.097  13.324 -0.1505  0.1190 -0.0427
 8245SOL    HW136371   4.380   3.026  13.270 -0.5916 -0.3767  0.8975
 8245SOL    HW236372   4.489   3.047  13.360 -0.6760 -0.4083  0.2919
 8246SOL     OW36373   1.471   1.349   2.672  0.3998 -0.2237 -0.4945
 8246SOL    HW136374   1.559   1.342   2.636  0.1297  0.3282 -1.2751
 8246SOL    HW236375   1.476   1.445   2.669  0.6884 -0.2413 -0.5940
 8247SOL     OW36376   1.962   2.010   7.277  0.4057  0.2008 -0.1385
 8247SOL    HW136377   1.936   2.087   7.328  4.6053  0.1406  2.0817
 8247SOL    HW236378   1.944   2.048   7.191 -0.3295  0.3398  0.0781
 8248SOL     OW36379   4.211   0.494   9.695  0.5284  0.7438  0.1006
 8248SOL    HW136380   4.221   0.402   9.718  1.5111  0.2871 -2.0935
 8248SOL    HW236381   4.122   0.511   9.727 -0.7049  0.7548 -3.3452
 8249SOL     OW36382   4.091   4.641   8.892 -0.0452 -0.4845 -0.5996
 8249SOL    HW136383   4.083   4.613   8.801 -1.3417  0.8370 -0.9009
 8249SOL    HW236384   4.017   4.597   8.933 -1.3529  2.6257  0.4267
 8250SOL     OW36385   1.317   1.733   4.775 -0.2428 -0.0517  0.3362
 8250SOL    HW136386   1.375   1.661   4.751  1.8040  1.0541  1.9965
 8250SOL    HW236387   1.317   1.787   4.695 -0.5623  1.3248  1.2666
 8251SOL     OW36388   3.622   4.146   4.889 -0.5530 -0.3442 -0.2088
 8251SOL    HW136389   3.699   4.116   4.841  0.6963  0.2439  1.4286
 8251SOL    HW236390   3.569   4.181   4.818 -2.0897 -2.6795 -0.2016
 8252SOL     OW36391   1.727   1.919   2.160 -0.1663  0.5077  0.2293
 8252SOL    HW136392   1.797   1.855   2.171  1.2980  2.0728  0.0940
 8252SOL    HW236393   1.683   1.895   2.078  2.6978 -0.2199 -1.0725
 8253SOL     OW36394   4.636   0.562   8.317  0.0095  0.5720  0.0208
 8253SOL    HW136395   4.554   0.518   8.338 -0.1531  0.1622 -1.4330
 8253SOL    HW236396   4.635   0.632   8.383  1.9080 -0.4041  1.0682
 8254SOL     OW36397   0.945   3.247   2.870  0.1035  0.0557  0.0578
 8254SOL    HW136398   1.021   3.189   2.874  0.8329  1.1491  2.2467
 8254SOL    HW236399   0.889   3.208   2.938  0.2095  2.8333  1.7562
 8255SOL     OW36400   0.825   3.312   1.363 -0.4965  0.8048  0.7208
 8255SOL    HW136401   0.813   3.227   1.319  1.9530  1.9261 -2.1946
 8255SOL    HW236402   0.851   3.273   1.446  0.2920  0.8098  0.4807
 8256SOL     OW36403   0.975   3.991  16.310 -0.4053 -0.0711  0.1539
 8256SOL    HW136404   0.944   4.075  16.275  0.8002  1.1062  1.9108
 8256SOL    HW236405   1.007   4.010  16.398  1.8883  0.2544 -0.7536
 8257SOL     OW36406   1.066   3.701   2.303  0.7394 -0.0898  0.2736
 8257SOL    HW136407   1.056   3.761   2.377 -2.2909  3.6199 -3.1479
 8257SOL    HW236408   1.131   3.751   2.253  0.5321 -0.4775 -0.3964
 8258SOL     OW36409   3.340   0.599   5.791  0.2689  0.0936 -0.1601
 8258SOL    HW136410   3.309   0.509   5.795 -0.7327  0.3340 -2.7034
 8258SOL    HW236411   3.407   0.588   5.724  0.7777  2.1445 -0.0096
 8259SOL     OW36412   2.919   3.757   7.417 -0.5971  0.0958  0.6388
 8259SOL    HW136413   2.936   3.797   7.503  1.3820  1.8214 -0.5312
 8259SOL    HW236414   2.863   3.819   7.370  1.2364  1.5223  0.2945
 8260SOL     OW36415   1.565   0.671   4.833  0.1075  0.0522  0.1087
 8260SOL    HW136416   1.475   0.673   4.800  0.1984  0.0153 -0.1442
 8260SOL    HW236417   1.561   0.731   4.907  0.0778  1.5381 -1.0862
 8261SOL     OW36418   0.325   2.154   5.147 -0.2986  0.1874  0.2335
 8261SOL    HW136419   0.258   2.205   5.193  1.2125  1.4579  1.0245
 8261SOL    HW236420   0.406   2.173   5.194 -1.2158  3.4234  0.5437
 8262SOL     OW36421   0.111   2.448   3.741 -0.1573  0.0941 -0.0773
 8262SOL    HW136422   0.197   2.409   3.754 -0.2331 -0.2108 -0.4942
 8262SOL    HW236423   0.110   2.503   3.820  1.3764  1.5497 -1.0724
 8263SOL     OW36424   0.010   1.355   5.159 -0.4809  0.4149 -0.0150
 8263SOL    HW136425   0.021   1.283   5.221 -1.6712  0.9194  0.7840
 8263SOL    HW236426   0.101   1.379   5.141 -0.8152  1.3440 -0.4739
 8264SOL     OW36427   3.469   0.140   2.470  0.6291  0.2618 -0.3226
 8264SOL    HW136428   3.492   0.108   2.383  1.0044  3.2114 -1.3068
 8264SOL    HW236429   3.374   0.149   2.465  0.7652  1.5885 -0.4905
 8265SOL     OW36430   3.967   1.390   6.451 -0.2350 -0.2460 -0.3411
 8265SOL    HW136431   4.023   1.326   6.408  2.0658  0.8355  1.0212
 8265SOL    HW236432   3.890   1.386   6.395  0.4689  1.2671 -1.4146
 8266SOL     OW36433   3.584   1.642   6.142 -0.4754 -0.3364 -0.3099
 8266SOL    HW136434   3.611   1.713   6.084 -2.7526  0.7639 -0.0247
 8266SOL    HW236435   3.507   1.682   6.183  0.5966  0.3786  1.0231
 8267SOL     OW36436   3.797   3.136   7.233 -0.0122  0.0619 -0.0856
 8267SOL    HW136437   3.720   3.085   7.205 -0.4724 -1.0029  3.0609
 8267SOL    HW236438   3.772   3.158   7.323  0.6240  2.0528 -0.4070
 8268SOL     OW36439   3.424   4.396   4.311  0.6467  0.2887 -0.5723
 8268SOL    HW136440   3.373   4.437   4.241 -1.7300  0.0298  1.0182
 8268SOL    HW236441   3.390   4.448   4.384 -0.0918  0.6528 -1.1779
 8269SOL     OW36442   1.866   1.508   5.307 -0.0047 -0.0298  0.1548
 8269SOL    HW136443   1.825   1.514   5.393 -1.9287  0.1306 -0.7755
 8269SOL    HW236444   1.816   1.575   5.260  0.3257  0.0823 -0.0337
 8270SOL     OW36445   3.422   4.639   4.454  0.1528 -0.0701 -0.4079
 8270SOL    HW136446   3.462   4.622   4.539  0.5640 -2.0781 -1.0167
 8270SOL    HW236447   3.419   4.735   4.461  1.5821 -0.2362  2.5174
 8271SOL     OW36448   0.127   1.607   6.093 -0.3141 -0.0074  0.6363
 8271SOL    HW136449   0.068   1.534   6.073 -0.5925 -0.0456  1.6133
 8271SOL    HW236450   0.089   1.681   6.045  1.7251  0.8361  0.3218
 8272SOL     OW36451   4.493   2.881  10.114  0.6869 -0.5887 -0.1218
 8272SOL    HW136452   4.499   2.861  10.207  0.2897 -2.4060 -0.4906
 8272SOL    HW236453   4.585   2.888  10.089  1.2167  1.6254  2.4242
 8273SOL     OW36454   1.037   4.342  14.723  0.6089 -0.0568  0.3705
 8273SOL    HW136455   0.997   4.385  14.798 -0.6025 -1.3933  0.4753
 8273SOL    HW236456   1.079   4.425  14.698 -0.2457  0.6040  1.1559
 8274SOL     OW36457   2.973   3.265  13.915 -0.2361 -0.2560 -0.0444
 8274SOL    HW136458   2.933   3.344  13.880  0.2010  0.0059  0.0533
 8274SOL    HW236459   3.022   3.245  13.835  1.0242  0.8267  0.4625
 8275SOL     OW36460   0.607   2.609   9.260 -0.3003 -0.8771  0.1319
 8275SOL    HW136461   0.568   2.530   9.299 -1.3196 -0.4674 -0.0613
 8275SOL    HW236462   0.574   2.615   9.171 -0.1342 -1.6066  0.0173
 8276SOL     OW36463   1.159   4.547   8.937 -0.0978 -0.8373  0.4072
 8276SOL    HW136464   1.138   4.624   8.884 -1.3335 -1.1900  0.3789
 8276SOL    HW236465   1.201   4.480   8.882 -0.4934 -0.5191 -0.2868
 8277SOL     OW36466   0.396   4.636   4.628 -0.1417 -0.6395  0.5990
 8277SOL    HW136467   0.406   4.728   4.656  0.1209  0.1536 -2.1628
 8277SOL    HW236468   0.489   4.616   4.643  0.7539  2.0438 -1.3950
 8278SOL     OW36469   1.576   4.078  13.812 -0.4559  0.3444  0.2634
 8278SOL    HW136470   1.618   4.095  13.728  2.2502  0.5195  1.6206
 8278SOL    HW236471   1.641   4.124  13.866  1.3249 -1.3479 -0.4397
 8279SOL     OW36472   4.226   0.655   8.951  0.2322 -0.4948 -0.1912
 8279SOL    HW136473   4.223   0.571   8.905  0.9689 -0.2830 -0.6177
 8279SOL    HW236474   4.278   0.625   9.026  1.7820  2.1967 -0.2131
 8280SOL     OW36475   4.308   0.951   2.331 -0.1077  0.4379 -0.1687
 8280SOL    HW136476   4.353   1.034   2.348  0.8198  0.1152 -1.0157
 8280SOL    HW236477   4.257   0.934   2.410  0.6754 -1.8434 -0.1433
 8281SOL     OW36478   3.350   2.930   7.070 -0.1216 -0.5320 -0.0694
 8281SOL    HW136479   3.345   2.889   6.983 -0.3450  1.1197 -0.8405
 8281SOL    HW236480   3.262   2.967   7.078  0.2261 -0.0242  1.3605
 8282SOL     OW36481   4.379   2.914   5.991  0.2050 -0.0179  0.0018
 8282SOL    HW136482   4.400   2.832   6.035  0.6273  0.6160  0.9847
 8282SOL    HW236483   4.329   2.880   5.917  2.1184 -1.4884 -0.5951
 8283SOL     OW36484   2.880   3.320   4.413 -0.5072 -0.2369  0.8666
 8283SOL    HW136485   2.839   3.288   4.332  0.3576 -0.1184  0.3723
 8283SOL    HW236486   2.904   3.234   4.449  0.9671 -0.0178  0.4171
 8284SOL     OW36487   2.399   3.798   7.530 -0.3703 -0.0419 -0.0107
 8284SOL    HW136488   2.341   3.844   7.469 -1.6268 -1.9673 -0.2915
 8284SOL    HW236489   2.462   3.869   7.535 -2.5779  2.0186 -1.5122
 8285SOL     OW36490   4.030   3.488  15.981 -0.0816 -0.0560  0.8389
 8285SOL    HW136491   3.991   3.574  15.964 -0.3090 -0.6309 -1.5798
 8285SOL    HW236492   4.105   3.494  16.039  0.4640  0.4703  0.0789
 8286SOL     OW36493   2.521   1.752   6.093  0.5967  0.8362  1.0492
 8286SOL    HW136494   2.456   1.767   6.161  1.0799  2.3230  1.1820
 8286SOL    HW236495   2.482   1.788   6.013 -1.7287  1.8385  2.6631
 8287SOL     OW36496   2.510   0.276   6.357 -0.1143  0.3142 -0.0418
 8287SOL    HW136497   2.470   0.302   6.274 -0.5588 -1.4716 -0.3901
 8287SOL    HW236498   2.436   0.268   6.417  0.8965  2.2929  1.4776
 8288SOL     OW36499   2.059   0.603   7.830  0.0680 -0.3166 -0.2443
 8288SOL    HW136500   2.013   0.584   7.748 -1.8970 -1.4594  1.1017
 8288SOL    HW236501   2.002   0.562   7.895  1.1592 -1.3584  0.0529
 8289SOL     OW36502   3.266   0.909   4.087  0.0134 -0.0789 -0.0763
 8289SOL    HW136503   3.218   0.829   4.066 -0.2117 -0.2067  0.9336
 8289SOL    HW236504   3.290   0.931   3.996 -0.9934  0.5192 -0.2041
 8290SOL     OW36505   1.902   3.260   7.952  0.1874 -0.1896  0.6332
 8290SOL    HW136506   1.974   3.316   7.922  0.8637 -1.1214  0.5032
 8290SOL    HW236507   1.856   3.254   7.869  1.7467 -0.8040 -0.2012
 8291SOL     OW36508   3.419   1.076   2.151 -0.0888  0.5736 -0.3003
 8291SOL    HW136509   3.355   1.057   2.219  2.8234 -0.1179  2.2470
 8291SOL    HW236510   3.476   1.000   2.153 -0.3314  0.3671 -1.1026
 8292SOL     OW36511   1.369   4.662   8.680 -0.0721  0.2362  0.0397
 8292SOL    HW136512   1.318   0.007   8.676  1.1095  0.9086 -1.0674
 8292SOL    HW236513   1.454   4.700   8.702  0.2516  0.7757 -2.1469
 8293SOL     OW36514   2.195   0.003  15.265 -0.3875  0.2477  0.2811
 8293SOL    HW136515   2.118   4.689  15.238  0.0683  0.0699 -0.6892
 8293SOL    HW236516   2.146   0.078  15.298 -0.1972 -0.4405  2.1455
 8294SOL     OW36517   3.924   2.640   5.859  0.5151 -0.2597  0.0017
 8294SOL    HW136518   4.014   2.653   5.830  0.2061  1.7964 -0.0870
 8294SOL    HW236519   3.912   2.549   5.834 -0.1451 -0.7315  1.9825
 8295SOL     OW36520   1.010   0.342   6.621 -0.2495  0.6036  0.1290
 8295SOL    HW136521   1.091   0.384   6.651  1.1282 -1.9620 -0.0485
 8295SOL    HW236522   1.053   0.272   6.573 -1.5960 -1.3867  1.8604
 8296SOL     OW36523   0.209   0.058  16.943 -0.2016 -0.1214  0.2497
 8296SOL    HW136524   0.137   4.734  16.923 -0.6283  0.4597  0.0360
 8296SOL    HW236525   0.168   0.127  16.995  0.0008  1.3264 -1.5237
 8297SOL     OW36526   1.770   1.099   5.610  0.0618 -0.1273  0.2549
 8297SOL    HW136527   1.775   1.014   5.654  0.7891 -0.7532 -1.0509
 8297SOL    HW236528   1.674   1.108   5.607  0.5255  3.7808 -2.0183
 8298SOL     OW36529   2.178   4.060  14.296 -0.1708  0.3288 -0.8676
 8298SOL    HW136530   2.179   4.147  14.255  0.4788  0.1049 -1.3264
 8298SOL    HW236531   2.162   4.005  14.219 -2.2383  1.0597 -0.9409
 8299SOL     OW36532   1.245   3.087  11.479  0.4459  0.0460 -0.2230
 8299SOL    HW136533   1.214   3.178  11.475 -1.6428 -0.5737  2.4239
 8299SOL    HW236534   1.322   3.102  11.424 -0.1073  0.4348 -0.8999
 8300SOL     OW36535   0.235   4.596   6.422  0.6909 -0.5520  0.3084
 8300SOL    HW136536   0.272   4.622   6.506  3.3366  0.9220 -1.3148
 8300SOL    HW236537   0.145   4.570   6.440  0.8146 -1.2005 -0.0312
 8301SOL     OW36538   2.833   2.772   5.859 -0.1200 -0.4163  0.0465
 8301SOL    HW136539   2.798   2.687   5.885  1.3591 -1.1284 -0.3172
 8301SOL    HW236540   2.782   2.824   5.922 -3.4479 -1.1410 -2.0521
 8302SOL     OW36541   3.987   4.602   4.460  0.1107  0.7793 -0.5397
 8302SOL    HW136542   3.934   4.535   4.503  0.1984  0.5797 -0.7402
 8302SOL    HW236543   3.961   4.591   4.368  1.0866 -0.3491 -0.6786
 8303SOL     OW36544   4.455   1.053   9.570 -0.1840  0.6321 -0.7115
 8303SOL    HW136545   4.381   1.033   9.627  2.4511 -0.8529  2.1951
 8303SOL    HW236546   4.432   0.997   9.496 -0.7134  1.4404 -1.1669
 8304SOL     OW36547   2.523   3.718  15.352 -0.0165  0.0564  0.8386
 8304SOL    HW136548   2.508   3.648  15.416  0.3397  1.3763  2.3857
 8304SOL    HW236549   2.520   3.795  15.409  2.1600 -0.1580  1.2347
 8305SOL     OW36550   3.191   3.037   5.654 -0.0041 -0.2267 -0.4374
 8305SOL    HW136551   3.218   3.028   5.563 -0.9243  1.2608 -0.8561
 8305SOL    HW236552   3.123   2.969   5.652 -0.8815  0.6235 -0.0139
 8306SOL     OW36553   3.438   4.238   7.779  0.2225  0.0175  0.0555
 8306SOL    HW136554   3.389   4.314   7.810  1.4464  1.2407 -0.9959
 8306SOL    HW236555   3.437   4.265   7.687  1.8211 -0.0085  0.0408
 8307SOL     OW36556   4.191   3.691   6.566  0.0725  0.2601 -0.1332
 8307SOL    HW136557   4.122   3.662   6.507 -1.7003  0.5866  1.7810
 8307SOL    HW236558   4.196   3.785   6.551 -2.0757 -0.1754 -3.3778
 8308SOL     OW36559   2.184   3.071   1.750  0.0625 -0.2604 -0.1072
 8308SOL    HW136560   2.098   3.030   1.758 -0.7785  1.5203 -0.0785
 8308SOL    HW236561   2.223   3.039   1.831  0.4363 -0.6830 -0.4563
 8309SOL     OW36562   0.185   2.251   1.311 -0.4079 -0.0755 -0.4656
 8309SOL    HW136563   0.096   2.283   1.298 -0.0307  1.2585  0.2237
 8309SOL    HW236564   0.185   2.262   1.406  1.8458  2.2249 -0.7383
 8310SOL     OW36565   0.026   0.367   5.932  0.3430 -0.5064  0.3927
 8310SOL    HW136566   4.723   0.332   5.852  0.5777  0.5398 -0.1779
 8310SOL    HW236567   4.729   0.308   6.000 -0.1382 -0.5677  0.1062
 8311SOL     OW36568   4.510   1.834  15.156  0.3068  0.2379  0.3648
 8311SOL    HW136569   4.547   1.809  15.241 -1.5577 -1.3909  0.6939
 8311SOL    HW236570   4.435   1.775  15.152 -0.3300  1.1141 -0.3469
 8312SOL     OW36571   0.725   3.272   4.831  0.5944 -0.2977  0.4829
 8312SOL    HW136572   0.812   3.287   4.794  2.3268 -1.4010  4.0988
 8312SOL    HW236573   0.668   3.285   4.754  1.6281  0.2085 -0.1930
 8313SOL     OW36574   4.171   4.353  16.547  0.0781 -0.1255  0.5650
 8313SOL    HW136575   4.240   4.312  16.601 -1.0263 -0.6424  1.5912
 8313SOL    HW236576   4.108   4.282  16.559  1.0368 -1.0178  0.3802
 8314SOL     OW36577   2.209   1.226   7.085 -0.6233  0.1210 -0.3987
 8314SOL    HW136578   2.207   1.297   7.021 -2.7343  0.8503  0.4821
 8314SOL    HW236579   2.117   1.209   7.109 -1.4026  2.6987 -1.5578
 8315SOL     OW36580   2.036   3.027   4.685 -0.2111  0.2187  0.4125
 8315SOL    HW136581   2.094   2.995   4.753  1.4051  0.6196 -0.7825
 8315SOL    HW236582   2.104   3.068   4.631 -1.3702  1.6226  0.0187
 8316SOL     OW36583   2.394   4.437   5.794  0.2448 -0.6048  0.0140
 8316SOL    HW136584   2.468   4.378   5.783  0.9386  0.2729  0.0103
 8316SOL    HW236585   2.330   4.372   5.823  1.8060 -1.6840  1.0232
 8317SOL     OW36586   1.143   2.955   5.750  0.1111 -0.0132  0.4208
 8317SOL    HW136587   1.184   2.900   5.683 -1.7085  0.5829 -1.1635
 8317SOL    HW236588   1.053   2.978   5.726 -0.2458  0.6213  2.3820
 8318SOL     OW36589   4.058   3.720   5.260  0.5431 -0.1943 -0.1490
 8318SOL    HW136590   4.121   3.652   5.236  0.4788 -0.1729 -0.3735
 8318SOL    HW236591   3.998   3.668   5.314 -0.0425  0.4975 -0.1481
 8319SOL     OW36592   1.448   1.154   9.226 -0.0849  0.2620 -0.2681
 8319SOL    HW136593   1.396   1.181   9.151  0.3091 -0.1628 -0.6880
 8319SOL    HW236594   1.490   1.238   9.248 -1.7292  0.6476  1.4291
 8320SOL     OW36595   3.365   3.599  16.845 -0.0378  0.1447 -0.0621
 8320SOL    HW136596   3.272   3.582  16.860  0.3831  2.3107  4.6924
 8320SOL    HW236597   3.389   3.681  16.888 -2.8571  0.7680  0.2961
 8321SOL     OW36598   3.421   4.114   8.219  0.0977 -0.1468 -0.9576
 8321SOL    HW136599   3.364   4.118   8.142 -0.3460  0.6866 -0.5865
 8321SOL    HW236600   3.504   4.106   8.173  0.4233  0.4146 -0.4650
 8322SOL     OW36601   4.250   2.706  17.522 -0.2641  0.1708  0.3866
 8322SOL    HW136602   4.220   2.637  17.463 -0.3809 -0.3835  1.0995
 8322SOL    HW236603   4.215   2.680  17.607  1.6889 -3.1577  0.1646
 8323SOL     OW36604   0.473   0.084   7.006 -0.0734 -0.2157  0.2898
 8323SOL    HW136605   0.562   0.120   7.011  0.7711 -2.3759  0.7729
 8323SOL    HW236606   0.485   0.045   6.919 -2.5689  0.2521 -0.2690
 8324SOL     OW36607   0.728   2.872   7.157 -0.5646 -1.1770 -0.3870
 8324SOL    HW136608   0.751   2.954   7.113  1.8585  0.0949  3.2304
 8324SOL    HW236609   0.796   2.864   7.223  0.4492  0.6522 -1.1949
 8325SOL     OW36610   0.404   2.373   5.649 -0.3739 -0.0497 -0.3190
 8325SOL    HW136611   0.359   2.341   5.727  1.4012 -0.1362  0.6717
 8325SOL    HW236612   0.399   2.300   5.587  1.8597  0.3859 -1.0095
 8326SOL     OW36613   3.407   1.540   5.794 -0.0717  0.5920 -0.2398
 8326SOL    HW136614   3.421   1.635   5.803  1.3455  0.2789  0.9317
 8326SOL    HW236615   3.460   1.519   5.718  1.4903  0.0622  0.9962
 8327SOL     OW36616   3.968   1.199  10.614 -0.4283 -0.2474  0.1384
 8327SOL    HW136617   4.025   1.272  10.589  0.5800 -1.2287 -0.4525
 8327SOL    HW236618   4.028   1.124  10.610  0.4151  0.4302  0.1729
 8328SOL     OW36619   0.775   2.828   4.173  0.0161  0.1252 -0.3354
 8328SOL    HW136620   0.859   2.837   4.217  1.0479  1.9193 -2.6823
 8328SOL    HW236621   0.711   2.843   4.243  1.6499  2.9203  0.5366
 8329SOL     OW36622   1.734   0.470  11.235 -0.5851  1.0414  0.0594
 8329SOL    HW136623   1.754   0.429  11.150 -2.3725  0.2706  0.0207
 8329SOL    HW236624   1.714   0.391  11.285  0.5143  2.2249  2.3895
 8330SOL     OW36625   4.259   2.174   5.656  0.1375 -0.4038 -0.1395
 8330SOL    HW136626   4.337   2.143   5.702  1.3069  1.4103 -0.8778
 8330SOL    HW236627   4.258   2.119   5.578  0.8708  0.1946 -0.5751
 8331SOL     OW36628   1.413   4.322   3.887  0.2053 -0.6125 -0.1612
 8331SOL    HW136629   1.377   4.303   3.800 -2.4950  1.0065  0.6093
 8331SOL    HW236630   1.379   4.410   3.900 -0.5267 -0.8104 -0.7126
 8332SOL     OW36631   4.665   3.092   2.780 -0.4167 -0.6512  0.2968
 8332SOL    HW136632   4.591   3.042   2.747 -0.3951 -0.8734  0.5831
 8332SOL    HW236633   4.631   3.180   2.766  2.1121  0.6666  2.3993
 8333SOL     OW36634   4.429   1.879   3.871  0.0625  0.5903  0.0296
 8333SOL    HW136635   4.457   1.792   3.846  1.2336  1.3168 -1.1905
 8333SOL    HW236636   4.497   1.930   3.827  0.3850  2.2401  2.4073
 8334SOL     OW36637   4.398   3.206   0.118  0.0287 -0.2356 -0.1919
 8334SOL    HW136638   4.478   3.243   0.080 -0.7523 -0.7653 -2.3503
 8334SOL    HW236639   4.436   3.194   0.205  1.3701 -2.4330 -1.0723
 8335SOL     OW36640   2.122   0.119  16.404 -0.1139  0.2777 -0.5799
 8335SOL    HW136641   2.196   0.059  16.396 -1.0640 -0.8702 -0.7195
 8335SOL    HW236642   2.088   0.097  16.317  3.7534 -1.0537 -1.7748
 8336SOL     OW36643   3.490   0.746   5.998  0.4414  0.2843 -0.0159
 8336SOL    HW136644   3.544   0.669   6.017  0.0827  0.4334  1.5894
 8336SOL    HW236645   3.429   0.710   5.933 -0.2594  0.3740  0.5960
 8337SOL     OW36646   0.491   0.639   4.122  0.4013  0.2947  0.2057
 8337SOL    HW136647   0.575   0.631   4.075  1.5362 -1.1532  2.4651
 8337SOL    HW236648   0.526   0.680   4.201 -1.3272  1.2248  0.4762
 8338SOL     OW36649   0.012   1.951   6.666  0.3811  0.6694 -0.4566
 8338SOL    HW136650   4.709   2.034   6.691  0.8562  0.2436  1.6689
 8338SOL    HW236651   4.712   1.949   6.577  0.6329 -1.1882 -0.5241
 8339SOL     OW36652   1.558   2.492   8.366 -0.3082 -0.1029 -0.6918
 8339SOL    HW136653   1.653   2.482   8.368 -0.2233  0.6768 -1.0417
 8339SOL    HW236654   1.544   2.553   8.294  1.0754  0.9443 -0.0640
 8340SOL     OW36655   0.260   4.118   1.167  0.2633  0.2754 -0.0490
 8340SOL    HW136656   0.181   4.068   1.185 -2.0257  3.4101 -1.3447
 8340SOL    HW236657   0.309   4.057   1.112 -1.8954 -0.4256 -1.2048
 8341SOL     OW36658   2.222   1.516   4.940 -0.7920 -0.4932 -0.4220
 8341SOL    HW136659   2.189   1.505   5.029  2.1299 -1.8172  0.4976
 8341SOL    HW236660   2.302   1.471   4.966  0.1081  1.0524 -0.5492
 8342SOL     OW36661   4.449   2.935   6.922 -0.0809  0.1882 -0.0600
 8342SOL    HW136662   4.453   3.010   6.863  2.5759  1.4221  1.7170
 8342SOL    HW236663   4.358   2.947   6.951 -0.4902 -1.9582 -0.4294
 8343SOL     OW36664   1.514   0.546  16.861 -0.1448  0.5544  0.6508
 8343SOL    HW136665   1.427   0.561  16.899  0.5641  0.6280  2.2419
 8343SOL    HW236666   1.566   0.491  16.920  0.0661 -1.2100 -1.1740
 8344SOL     OW36667   4.166   2.711   2.710 -0.1759  0.1468  0.4064
 8344SOL    HW136668   4.166   2.680   2.801 -0.4174  2.0690  1.0550
 8344SOL    HW236669   4.249   2.758   2.707  2.1355 -3.9471  0.4049
 8345SOL     OW36670   3.877   0.814   5.878  0.3197  0.5770  0.3201
 8345SOL    HW136671   3.923   0.888   5.839 -0.9360  0.3382 -1.6121
 8345SOL    HW236672   3.792   0.833   5.838 -0.3115 -0.5378  1.1304
 8346SOL     OW36673   0.476   0.602   4.982 -0.5903  0.1336  0.9747
 8346SOL    HW136674   0.510   0.691   4.994 -1.0706  0.5444 -0.7045
 8346SOL    HW236675   0.381   0.617   4.983 -0.3974  1.4721 -0.3990
 8347SOL     OW36676   4.032   3.934   6.397  0.1780  0.6636 -0.1155
 8347SOL    HW136677   3.981   3.956   6.474 -0.7407  0.3031 -0.6291
 8347SOL    HW236678   4.025   3.839   6.391  0.3607  0.4140  3.4771
 8348SOL     OW36679   1.803   4.728  10.769 -0.3987 -0.0002  0.2756
 8348SOL    HW136680   1.710   4.719  10.788 -0.0268  1.3559  2.6914
 8348SOL    HW236681   1.842   4.725  10.857 -0.5105 -0.5537  0.3054
 8349SOL     OW36682   3.990   1.670   9.793 -0.1412 -0.0794 -0.8425
 8349SOL    HW136683   4.043   1.742   9.826 -0.4216 -0.0808 -0.3817
 8349SOL    HW236684   3.905   1.692   9.831 -0.4032  0.7665 -1.9102
 8350SOL     OW36685   0.231   0.861   2.864  0.4265 -0.0375  0.4434
 8350SOL    HW136686   0.163   0.925   2.885 -0.3200 -0.4311 -0.8464
 8350SOL    HW236687   0.299   0.920   2.830  0.0040 -0.7852 -1.6610
 8351SOL     OW36688   1.868   1.521   4.415 -0.2154 -0.4110  0.4117
 8351SOL    HW136689   1.840   1.506   4.325 -1.2132  1.8684  0.3482
 8351SOL    HW236690   1.941   1.582   4.401 -0.9859 -0.2271 -2.6822
 8352SOL     OW36691   0.842   3.054  17.195  0.0241 -0.2138  0.4351
 8352SOL    HW136692   0.785   3.128  17.175 -1.6304 -1.6874 -0.3304
 8352SOL    HW236693   0.922   3.098  17.167  0.8297 -0.4921  2.3483
 8353SOL     OW36694   2.924   1.288   7.017 -0.0146 -0.2850  0.1639
 8353SOL    HW136695   2.880   1.223   7.071 -0.3496 -1.5214 -1.6197
 8353SOL    HW236696   2.878   1.362   7.056  1.3800  1.2985 -1.1540
 8354SOL     OW36697   1.679   0.245  11.367  1.0931  0.4854 -0.5118
 8354SOL    HW136698   1.701   0.161  11.407  2.2404  0.3042 -1.5099
 8354SOL    HW236699   1.604   0.215  11.316  0.8605 -2.0793  1.3329
 8355SOL     OW36700   3.605   3.560  17.169  0.0374 -0.1429 -0.2167
 8355SOL    HW136701   3.598   3.635  17.110  0.1863  0.9926  1.2158
 8355SOL    HW236702   3.692   3.530  17.141  0.6773  0.9895  0.5532
 8356SOL     OW36703   4.212   3.431  16.193 -0.4629 -0.2513 -0.6803
 8356SOL    HW136704   4.204   3.481  16.274  1.4218 -0.9718 -0.0599
 8356SOL    HW236705   4.305   3.414  16.177 -0.4089 -0.2512 -0.3622
 8357SOL     OW36706   0.287   2.772   0.705 -0.3679 -0.0985 -0.4955
 8357SOL    HW136707   0.207   2.745   0.660 -0.7504  0.2874 -0.0446
 8357SOL    HW236708   0.358   2.717   0.672  1.6245  1.5708  1.0220
 8358SOL     OW36709   1.424   4.691   7.276  0.0304 -0.0748  0.3511
 8358SOL    HW136710   1.438   4.604   7.238 -0.6156  0.4207 -1.0293
 8358SOL    HW236711   1.498   4.686   7.337 -1.2757  1.2781  2.0317
 8359SOL     OW36712   1.379   3.050   2.819 -0.5243  0.0477 -0.2494
 8359SOL    HW136713   1.471   3.070   2.802 -0.3643 -0.0119  0.5252
 8359SOL    HW236714   1.351   3.137   2.789 -0.8472 -0.6490 -1.9317
 8360SOL     OW36715   2.641   0.542   7.741 -0.0491  0.0123 -0.4691
 8360SOL    HW136716   2.568   0.560   7.800  2.9894  2.3274  2.5118
 8360SOL    HW236717   2.713   0.544   7.804  0.9112  0.8372 -1.5952
 8361SOL     OW36718   0.242   2.625  12.406  0.3048 -0.1441  0.2024
 8361SOL    HW136719   0.195   2.674  12.473 -0.5901  2.1264 -2.0791
 8361SOL    HW236720   0.334   2.650  12.417  0.1419  0.1942  0.7871
 8362SOL     OW36721   2.625   3.560   6.028 -0.2557 -0.4751  0.7357
 8362SOL    HW136722   2.545   3.589   6.071  0.4400  3.5200 -0.6134
 8362SOL    HW236723   2.589   3.513   5.953  0.0342 -0.3109  0.4874
 8363SOL     OW36724   2.026   2.692   2.078  0.4020 -0.0730  0.4658
 8363SOL    HW136725   1.955   2.649   2.030  1.3549 -0.9013 -0.1924
 8363SOL    HW236726   2.095   2.688   2.011  0.3881 -0.0306  0.4486
 8364SOL     OW36727   1.530   3.698  17.239  0.0475 -0.3626  0.3655
 8364SOL    HW136728   1.568   3.726  17.323 -1.6384 -1.7646  1.6049
 8364SOL    HW236729   1.557   3.766  17.178 -0.7067 -2.1040 -1.9042
 8365SOL     OW36730   3.094   2.910   9.118 -0.5586  0.6689  0.4273
 8365SOL    HW136731   3.018   2.864   9.155 -0.0221  0.0083  0.7055
 8365SOL    HW236732   3.077   2.996   9.158  0.8711  0.9492  0.4208
 8366SOL     OW36733   4.626   3.824  14.630  0.6875  0.0958  0.7049
 8366SOL    HW136734   4.531   3.817  14.642  0.7971 -0.5657  1.1448
 8366SOL    HW236735   4.628   3.907  14.581  0.8667  0.2144  0.9160
 8367SOL     OW36736   2.327   4.466   1.295 -0.0226 -0.7088  0.0251
 8367SOL    HW136737   2.365   4.414   1.365  2.1159  0.3868 -0.2974
 8367SOL    HW236738   2.386   4.441   1.224 -0.5579  0.1547 -0.7292
 8368SOL     OW36739   1.854   4.551  15.623  0.3376  0.3292 -0.1295
 8368SOL    HW136740   1.944   4.566  15.596  0.3743  0.7558  0.2325
 8368SOL    HW236741   1.816   4.599  15.549  0.8941  1.0950  0.0863
 8369SOL     OW36742   1.784   0.703  12.527 -0.6960 -0.2756 -0.8112
 8369SOL    HW136743   1.828   0.780  12.560 -1.9455  0.1340 -0.0953
 8369SOL    HW236744   1.696   0.708  12.565 -1.0263  1.2409 -1.7668
 8370SOL     OW36745   2.566   2.112  14.727 -0.2743 -0.1066 -0.0323
 8370SOL    HW136746   2.561   2.191  14.674 -0.0054 -0.3240 -0.3831
 8370SOL    HW236747   2.509   2.051  14.679  1.9414  0.3422 -3.2234
 8371SOL     OW36748   1.768   2.418  16.850 -0.2059 -0.1489  0.4593
 8371SOL    HW136749   1.716   2.338  16.859  2.4364 -1.8130  0.7441
 8371SOL    HW236750   1.762   2.456  16.938  3.3600  0.5792  0.3553
 8372SOL     OW36751   4.244   3.196   9.996  0.1355  0.1183 -0.0426
 8372SOL    HW136752   4.334   3.208  10.028  1.3965  0.6004 -3.8145
 8372SOL    HW236753   4.240   3.123   9.934 -1.0481  0.2426 -0.1007
 8373SOL     OW36754   1.822   0.103   1.277 -0.6164  0.5110  0.5661
 8373SOL    HW136755   1.902   0.056   1.302  0.5524  1.2705 -1.7052
 8373SOL    HW236756   1.800   0.058   1.196 -2.0581 -1.7026  2.2044
 8374SOL     OW36757   2.445   0.059   8.877  0.0654 -0.2818 -0.8064
 8374SOL    HW136758   2.464   4.712   8.834 -1.7709 -0.3955 -1.4158
 8374SOL    HW236759   2.528   0.075   8.922 -0.3441  2.6986 -1.0926
 8375SOL     OW36760   4.625   0.834   5.351 -0.2713  0.1163  0.4806
 8375SOL    HW136761   4.568   0.810   5.425  0.8611 -0.9819  1.0044
 8375SOL    HW236762   4.673   0.753   5.333  0.0384 -0.0932  2.3068
 8376SOL     OW36763   3.909   0.924   8.226  0.0349 -0.0198 -0.7434
 8376SOL    HW136764   3.935   0.928   8.134  1.8305 -0.7410 -0.2573
 8376SOL    HW236765   3.845   0.994   8.237 -0.3062 -0.5170  0.3756
 8377SOL     OW36766   1.879   0.223  15.956  0.0028 -0.1252 -0.0137
 8377SOL    HW136767   1.884   0.266  15.871 -1.3506 -2.0121 -1.0685
 8377SOL    HW236768   1.964   0.180  15.962  1.0130  1.8562 -0.0142
 8378SOL     OW36769   1.887   0.995   6.159 -0.4919  0.3453 -0.2042
 8378SOL    HW136770   1.959   0.976   6.219  0.5525 -0.5244 -1.7132
 8378SOL    HW236771   1.946   0.988   6.083 -0.5204  0.8872 -0.2749
 8379SOL     OW36772   2.471   1.726  14.026  0.1004  0.5750 -0.4610
 8379SOL    HW136773   2.531   1.791  14.064  0.6807 -0.2648  0.0591
 8379SOL    HW236774   2.439   1.788  13.960 -2.3917  0.1808  0.4073
 8380SOL     OW36775   2.354   3.656   8.861 -0.0254  0.0087  0.3347
 8380SOL    HW136776   2.424   3.648   8.926 -1.2888  0.2885  1.7381
 8380SOL    HW236777   2.334   3.568   8.830  0.1726  0.4243 -0.9508
 8381SOL     OW36778   2.173   0.664   3.465  0.6963  0.1207  0.2153
 8381SOL    HW136779   2.221   0.738   3.429 -0.9193  0.2243 -1.7244
 8381SOL    HW236780   2.185   0.673   3.560  0.8450 -1.9151  0.4062
 8382SOL     OW36781   1.518   2.692   2.393 -0.1988  0.5796  0.0952
 8382SOL    HW136782   1.534   2.644   2.312  0.5791 -0.0328  0.6242
 8382SOL    HW236783   1.537   2.634   2.466 -1.5407 -0.8584 -0.6934
 8383SOL     OW36784   0.852   1.714   7.576 -1.0401 -0.3235  0.2835
 8383SOL    HW136785   0.926   1.668   7.536  0.1589 -1.2956  3.6307
 8383SOL    HW236786   0.812   1.762   7.504  0.7808 -0.3050 -0.7188
 8384SOL     OW36787   3.930   4.622   5.516 -0.3356 -0.7674 -0.2033
 8384SOL    HW136788   3.996   4.579   5.570  1.1164 -0.1127 -1.4865
 8384SOL    HW236789   3.856   4.619   5.578 -0.8842 -0.3279 -0.8345
 8385SOL     OW36790   0.208   3.809   6.625 -0.1459 -0.5671 -0.0525
 8385SOL    HW136791   0.218   3.717   6.650  0.4005 -0.0193  1.7111
 8385SOL    HW236792   0.272   3.802   6.554 -0.5631 -2.2403 -0.2751
 8386SOL     OW36793   0.499   4.134   3.002 -0.2746 -0.4166 -0.2351
 8386SOL    HW136794   0.536   4.051   3.032 -0.6807 -0.3144  0.5391
 8386SOL    HW236795   0.575   4.164   2.952 -1.1514  0.1253 -1.2569
 8387SOL     OW36796   2.330   2.365   9.565  0.0623  0.0326  0.0002
 8387SOL    HW136797   2.347   2.436   9.626  2.1344 -0.5512  0.0984
 8387SOL    HW236798   2.397   2.302   9.591 -0.2305  0.7696  2.5174
 8388SOL     OW36799   0.559   2.262   2.281  0.2078 -0.1841 -0.2728
 8388SOL    HW136800   0.590   2.213   2.357 -1.1449 -0.4230  0.1415
 8388SOL    HW236801   0.646   2.283   2.249  0.2679  0.5808  0.3760
 8389SOL     OW36802   3.402   1.500   7.313  0.3473 -0.0841 -0.1101
 8389SOL    HW136803   3.444   1.510   7.228 -0.0276  2.5122  0.0282
 8389SOL    HW236804   3.406   1.405   7.330 -0.8963  0.0805  1.0210
 8390SOL     OW36805   1.283   1.038   8.448  0.1824  0.0046 -0.0698
 8390SOL    HW136806   1.192   1.056   8.425 -0.0727 -0.1668  0.7811
 8390SOL    HW236807   1.324   1.012   8.366 -0.5563  0.5704 -0.6191
 8391SOL     OW36808   2.861   0.360   1.040  0.3617  0.1205 -0.3788
 8391SOL    HW136809   2.881   0.453   1.048  0.4404 -0.0309  1.1956
 8391SOL    HW236810   2.947   0.323   1.019  0.3408 -0.9834  1.4110
 8392SOL     OW36811   3.461   3.110   1.637  0.0661  0.2616 -0.1124
 8392SOL    HW136812   3.508   3.191   1.619 -2.3163  1.3670 -1.3225
 8392SOL    HW236813   3.503   3.049   1.576 -0.2824  0.8319 -0.9177
 8393SOL     OW36814   1.587   1.707   2.708  0.5219  0.0711  0.1970
 8393SOL    HW136815   1.497   1.737   2.721  0.1804 -1.1371  0.7091
 8393SOL    HW236816   1.625   1.768   2.771  2.4549 -2.3249  1.3394
 8394SOL     OW36817   3.143   2.744  10.932  0.2692  0.1411 -0.0874
 8394SOL    HW136818   3.203   2.775  11.000  0.0654 -1.9898  1.0326
 8394SOL    HW236819   3.082   2.692  10.983 -2.4111  1.4976 -1.8902
 8395SOL     OW36820   2.179   0.699   2.575  0.1494  0.3432  0.0427
 8395SOL    HW136821   2.214   0.784   2.603 -1.7990  1.1137  0.1304
 8395SOL    HW236822   2.087   0.715   2.597 -1.0974 -2.6415 -3.0023
 8396SOL     OW36823   0.147   4.081   7.188 -0.0559  0.8068 -0.3067
 8396SOL    HW136824   0.240   4.082   7.167  0.2255  0.5026  0.8751
 8396SOL    HW236825   0.136   3.993   7.225  0.7841  0.6365 -0.4612
 8397SOL     OW36826   3.497   4.022  12.536  0.2467 -0.0107  0.0084
 8397SOL    HW136827   3.458   3.955  12.592  2.1439 -0.5964  0.6496
 8397SOL    HW236828   3.576   3.981  12.501  2.7124  4.8419 -0.2142
 8398SOL     OW36829   1.724   0.477   2.631  0.5909 -0.1676  0.5592
 8398SOL    HW136830   1.778   0.439   2.700  0.1330 -1.0147  0.4554
 8398SOL    HW236831   1.681   0.549   2.677 -0.8571 -1.4588  1.2002
 8399SOL     OW36832   4.332   1.491   6.246 -0.4981  0.1921  0.3763
 8399SOL    HW136833   4.342   1.582   6.219  0.2802 -0.1695 -0.5545
 8399SOL    HW236834   4.263   1.506   6.311  0.8123 -2.1982  2.3421
 8400SOL     OW36835   1.362   0.493   4.273 -0.1084 -0.4493  0.5609
 8400SOL    HW136836   1.318   0.548   4.338 -1.4229  0.0548 -0.7810
 8400SOL    HW236837   1.446   0.483   4.318 -0.8156 -0.7176  1.8278
 8401SOL     OW36838   2.980   4.692  12.614 -0.7878 -0.1929  0.3267
 8401SOL    HW136839   2.923   4.616  12.604 -0.7738 -0.2313  0.5264
 8401SOL    HW236840   2.917   0.026  12.625 -0.1465  0.5289 -0.5621
 8402SOL     OW36841   3.670   4.010   0.693  0.6455 -0.1291  0.1345
 8402SOL    HW136842   3.714   4.047   0.769 -0.6820  0.6059  0.5521
 8402SOL    HW236843   3.622   3.938   0.734 -0.8271 -0.0360 -1.4159
 8403SOL     OW36844   1.854   1.185   2.193 -0.5460  0.6437  0.4344
 8403SOL    HW136845   1.872   1.270   2.232  1.3988  0.2142  0.4994
 8403SOL    HW236846   1.873   1.208   2.102  0.9219 -1.5621  0.1727
 8404SOL     OW36847   2.301   1.748  15.590  0.4476 -0.0054  0.1210
 8404SOL    HW136848   2.282   1.771  15.681  1.3816 -0.4942  0.4408
 8404SOL    HW236849   2.254   1.665  15.582 -0.9707  1.0708 -2.6669
 8405SOL     OW36850   4.403   4.220   3.432  0.0034  0.0314  0.1004
 8405SOL    HW136851   4.475   4.281   3.452 -0.4543  0.1011  1.5634
 8405SOL    HW236852   4.428   4.150   3.493 -0.5355 -0.3434 -0.1174
 8406SOL     OW36853   2.871   3.685   5.959 -1.1778 -0.0326  0.8485
 8406SOL    HW136854   2.803   3.623   5.983 -1.0245 -0.0063  1.3519
 8406SOL    HW236855   2.828   3.750   5.903  0.7944  0.6287  0.0813
 8407SOL     OW36856   3.194   1.699  11.901 -0.0014 -0.5865 -0.3893
 8407SOL    HW136857   3.268   1.760  11.894 -1.0616  1.1248  3.5731
 8407SOL    HW236858   3.194   1.669  11.810 -0.6078 -1.0049 -0.2469
 8408SOL     OW36859   2.635   0.787   8.579  0.1181  0.3238  0.4329
 8408SOL    HW136860   2.664   0.780   8.488  1.4990 -0.7886  0.9627
 8408SOL    HW236861   2.678   0.710   8.617  0.5585 -0.0850 -0.9175
 8409SOL     OW36862   2.947   4.053   9.691 -0.2070 -0.6228  0.5133
 8409SOL    HW136863   2.969   4.051   9.784  1.0713  0.7703  0.2533
 8409SOL    HW236864   2.858   4.019   9.698 -1.2463  2.2958  1.0563
 8410SOL     OW36865   0.043   4.353   0.826  0.1841 -0.5389 -0.2280
 8410SOL    HW136866   4.728   4.434   0.831 -1.6012 -1.7612  1.2042
 8410SOL    HW236867   0.072   4.339   0.916  0.5231  1.5566 -0.0074
 8411SOL     OW36868   0.096   1.145   0.962  0.0472 -0.1668 -0.0142
 8411SOL    HW136869   0.009   1.182   0.981 -0.5176 -1.2836 -0.4376
 8411SOL    HW236870   0.113   1.078   1.027 -2.5734 -2.4879 -1.7023
 8412SOL     OW36871   0.570   4.006  14.901  0.0215  0.1125  0.2373
 8412SOL    HW136872   0.644   4.016  14.960  1.6108  0.2408 -1.7649
 8412SOL    HW236873   0.513   3.989  14.976 -1.7805 -2.2441 -1.6584
 8413SOL     OW36874   2.920   3.488   4.095  0.5377  0.0206  0.4033
 8413SOL    HW136875   2.833   3.455   4.118 -0.1408 -0.4385 -2.8592
 8413SOL    HW236876   2.934   3.569   4.145 -0.9793  0.6368 -0.1726
 8414SOL     OW36877   0.289   1.637  16.248 -0.1562  0.4111 -0.5598
 8414SOL    HW136878   0.373   1.613  16.209 -1.7502 -0.9036 -3.2321
 8414SOL    HW236879   0.299   1.732  16.254 -2.0912  0.5364  0.9066
 8415SOL     OW36880   2.074   0.783   2.939 -0.1474 -0.4106  0.2646
 8415SOL    HW136881   2.010   0.727   2.894 -0.5082 -0.1574  0.4627
 8415SOL    HW236882   2.105   0.731   3.014  2.4137  0.7473 -0.0078
 8416SOL     OW36883   0.431   1.991   4.722 -0.4314 -0.2310 -0.1401
 8416SOL    HW136884   0.471   2.031   4.799  1.1764 -1.7958 -0.1612
 8416SOL    HW236885   0.492   1.925   4.690  0.3121  0.7722 -0.7920
 8417SOL     OW36886   1.916   4.465   5.117  0.0324  0.2481  0.2300
 8417SOL    HW136887   1.898   4.538   5.058  1.5923 -1.4678 -2.3580
 8417SOL    HW236888   2.012   4.468   5.121  0.1085 -0.5978 -1.1270
 8418SOL     OW36889   3.512   4.380   9.115  0.2141  0.1831 -0.2482
 8418SOL    HW136890   3.563   4.305   9.145 -0.2636 -0.6114 -1.4614
 8418SOL    HW236891   3.578   4.426   9.063 -2.3248  3.6145 -0.4480
 8419SOL     OW36892   2.071   4.053   3.759  0.4280 -1.0894  0.1331
 8419SOL    HW136893   2.130   3.996   3.808  1.2819  1.2697  1.8342
 8419SOL    HW236894   1.988   4.007   3.745  0.1546  0.4695 -3.3888
 8420SOL     OW36895   0.284   0.705   3.067  0.3221 -0.0137 -0.5225
 8420SOL    HW136896   0.278   0.770   2.997  2.4794 -1.9420 -2.4920
 8420SOL    HW236897   0.205   0.727   3.117  1.1354 -0.3509  0.8968
 8421SOL     OW36898   3.652   3.911   9.797  0.2175 -0.1413 -0.6714
 8421SOL    HW136899   3.567   3.908   9.842  1.3192  2.0410  1.5929
 8421SOL    HW236900   3.700   3.877   9.873  0.4431  0.5690 -0.4851
 8422SOL     OW36901   4.102   0.555   3.805 -0.5814 -0.3431  0.6317
 8422SOL    HW136902   4.179   0.511   3.770  1.2699  2.6295  0.9676
 8422SOL    HW236903   4.029   0.502   3.772  1.2947 -0.6694 -2.9690
 8423SOL     OW36904   0.331   3.058   6.226 -0.2336  0.4318  0.9309
 8423SOL    HW136905   0.316   3.004   6.149  0.2777  3.0498 -0.9823
 8423SOL    HW236906   0.250   3.038   6.272 -1.1306  2.0129  0.0399
 8424SOL     OW36907   4.152   3.212   4.007 -0.1532  0.5702  0.3090
 8424SOL    HW136908   4.106   3.205   4.091  0.9303 -0.4374  0.8132
 8424SOL    HW236909   4.231   3.161   4.024  0.3184  1.7430  1.7218
 8425SOL     OW36910   3.293   1.456  13.574  0.0050 -0.2134 -0.7816
 8425SOL    HW136911   3.223   1.406  13.616  0.1934 -1.0117 -1.4146
 8425SOL    HW236912   3.257   1.545  13.573 -0.8579 -0.5304  2.7760
 8426SOL     OW36913   0.195   2.325  10.908  0.0529  0.1642  0.8716
 8426SOL    HW136914   0.138   2.252  10.883 -0.0784  0.1230  1.3039
 8426SOL    HW236915   0.132   2.392  10.933  2.3763  2.6661 -0.0430
 8427SOL     OW36916   0.022   2.146   2.037  0.4960  0.5504 -0.4385
 8427SOL    HW136917   0.100   2.121   1.987  1.7272  1.3772  1.0641
 8427SOL    HW236918   4.706   2.069   2.014 -0.8757  0.9451  1.3971
 8428SOL     OW36919   4.376   4.634   6.221 -0.5034 -0.3600 -0.3594
 8428SOL    HW136920   4.289   4.647   6.182 -0.1192 -1.2895 -1.5237
 8428SOL    HW236921   4.379   4.539   6.230 -0.5411 -0.1660  1.7995
 8429SOL     OW36922   0.614   3.946   2.734  0.1069  0.1829  0.3345
 8429SOL    HW136923   0.667   3.994   2.671  0.4075  0.2944  0.6701
 8429SOL    HW236924   0.645   3.856   2.730 -2.3002 -0.4978 -2.5023
 8430SOL     OW36925   2.233   4.674   3.526 -0.1134  0.2729  0.0034
 8430SOL    HW136926   2.316   4.705   3.490 -2.4401  3.6934 -2.2843
 8430SOL    HW236927   2.221   0.006   3.592 -0.1487  0.4090 -0.1441
 8431SOL     OW36928   0.586   3.436   2.948  0.7719 -0.2778  0.1203
 8431SOL    HW136929   0.504   3.485   2.942  0.7594 -0.3026  0.0823
 8431SOL    HW236930   0.592   3.363   2.885  0.6047  0.2872 -0.5534
 8432SOL     OW36931   0.441   1.687   2.053  0.0869 -0.0509 -0.1199
 8432SOL    HW136932   0.513   1.647   2.004 -1.7753 -3.7789  0.1401
 8432SOL    HW236933   0.371   1.629   2.024  1.3267 -0.5682 -2.0927
 8433SOL     OW36934   2.621   3.019   4.408 -0.4180  0.4845 -0.3006
 8433SOL    HW136935   2.661   3.075   4.341  0.3078 -0.7337 -0.8798
 8433SOL    HW236936   2.646   2.934   4.372 -2.2327 -1.2187  2.4933
 8434SOL     OW36937   1.217   3.939   6.011  0.0410 -0.4104 -0.0771
 8434SOL    HW136938   1.257   3.853   6.025  2.7284  1.2045  2.1520
 8434SOL    HW236939   1.280   3.970   5.947  1.6868 -1.3883  1.0789
 8435SOL     OW36940   2.542   1.687  12.945 -0.2447 -0.1652  0.0366
 8435SOL    HW136941   2.545   1.738  13.026  0.5510  0.2460 -0.2472
 8435SOL    HW236942   2.488   1.738  12.884  0.2482  1.0499  0.6105
 8436SOL     OW36943   1.986   3.692   7.292 -0.2046 -0.4582 -0.1079
 8436SOL    HW136944   1.965   3.621   7.231  0.8424  0.5660 -1.6660
 8436SOL    HW236945   1.944   3.667   7.374  0.6337  2.1156  1.0973
 8437SOL     OW36946   2.295   2.120  12.975 -0.3173 -0.1518 -0.0793
 8437SOL    HW136947   2.215   2.118  13.027 -0.7586 -1.0760 -0.8042
 8437SOL    HW236948   2.360   2.129  13.045 -0.3622  1.4927 -0.2624
 8438SOL     OW36949   1.203   3.458   2.309  0.4256  0.3188  0.5084
 8438SOL    HW136950   1.160   3.531   2.352  0.0166  0.6154 -0.3967
 8438SOL    HW236951   1.217   3.495   2.222  1.2244 -0.1756  0.4297
 8439SOL     OW36952   2.141   3.878   4.794  0.0703  0.7709 -0.2878
 8439SOL    HW136953   2.182   3.952   4.839 -0.6433  2.0506 -1.7310
 8439SOL    HW236954   2.182   3.876   4.708  0.8305 -0.5434  0.1206
 8440SOL     OW36955   2.718   0.238   8.141  0.4682 -0.4622  0.0213
 8440SOL    HW136956   2.731   0.152   8.101  1.4284 -1.6360  2.8802
 8440SOL    HW236957   2.809   0.257   8.164 -0.5287  2.8652  1.3032
 8441SOL     OW36958   2.678   4.279   7.091  0.4513 -0.1791  0.4804
 8441SOL    HW136959   2.766   4.309   7.115  0.5934  0.5834 -1.0367
 8441SOL    HW236960   2.618   4.351   7.104 -0.6023 -0.8696 -0.5744
 8442SOL     OW36961   3.309   4.127  11.225 -0.2118 -0.6295 -0.0850
 8442SOL    HW136962   3.327   4.033  11.235 -1.2700 -0.7935  0.2039
 8442SOL    HW236963   3.224   4.139  11.266 -0.0469  1.5017 -0.3744
 8443SOL     OW36964   3.765   4.272   6.337  0.2069 -0.0441  0.2852
 8443SOL    HW136965   3.744   4.357   6.298 -1.3431 -0.8800 -0.6821
 8443SOL    HW236966   3.763   4.290   6.431 -2.1551 -0.6771  0.3505
 8444SOL     OW36967   0.306   0.417   9.189 -0.3723  0.0864  0.0312
 8444SOL    HW136968   0.283   0.328   9.161  0.5003 -0.0064 -0.4167
 8444SOL    HW236969   0.292   0.464   9.107 -0.0963  0.6478  0.3061
 8445SOL     OW36970   2.749   3.049  12.183 -0.0780 -0.8744  0.4927
 8445SOL    HW136971   2.752   3.123  12.123 -0.2257 -1.1545  0.1418
 8445SOL    HW236972   2.715   3.085  12.265  1.9832 -0.8287  1.3433
 8446SOL     OW36973   1.648   1.223   4.592 -0.0229 -0.0719  0.3850
 8446SOL    HW136974   1.623   1.219   4.684 -1.2303 -0.7353  0.0250
 8446SOL    HW236975   1.716   1.288   4.609 -1.3135  1.3159  0.2235
 8447SOL     OW36976   1.189   2.748  15.689  0.4082 -0.0376 -0.0117
 8447SOL    HW136977   1.175   2.714  15.601 -0.6095  0.3083  0.0164
 8447SOL    HW236978   1.212   2.666  15.733  0.8785  0.1451  0.0870
 8448SOL     OW36979   2.858   1.631   6.020  0.3049  0.6218 -0.8102
 8448SOL    HW136980   2.867   1.570   6.093  0.2714 -2.6385 -3.5403
 8448SOL    HW236981   2.838   1.714   6.063 -2.3158 -0.4827  0.1076
 8449SOL     OW36982   1.907   4.207   6.198 -0.3086  0.1853  0.0519
 8449SOL    HW136983   1.987   4.253   6.225  0.3029 -0.3719 -0.8125
 8449SOL    HW236984   1.868   4.272   6.140  0.6796 -0.0749 -0.8921
 8450SOL     OW36985   1.287   1.808   7.004 -0.2358  0.2735 -0.1585
 8450SOL    HW136986   1.245   1.892   7.019 -2.6917 -0.9575 -0.0716
 8450SOL    HW236987   1.223   1.759   6.951 -2.0400  2.3849  0.0637
 8451SOL     OW36988   1.289   0.278   7.545  0.3918  0.9927  0.4895
 8451SOL    HW136989   1.232   0.227   7.604  1.1525 -0.2767  0.1379
 8451SOL    HW236990   1.368   0.223   7.542 -1.0131 -1.0525  0.5222
 8452SOL     OW36991   4.553   1.254   1.886 -0.4734  0.1449 -0.0505
 8452SOL    HW136992   4.526   1.203   1.809 -2.0239 -0.1853  0.7209
 8452SOL    HW236993   4.471   1.247   1.935 -1.0281  0.4998 -0.9262
 8453SOL     OW36994   3.556   1.084   1.556 -0.3544 -1.0667  0.1646
 8453SOL    HW136995   3.590   1.172   1.572  0.2895 -1.6303  1.8874
 8453SOL    HW236996   3.642   1.043   1.546 -1.4670 -2.3963 -4.2043
 8454SOL     OW36997   0.160   2.474   2.009  0.4182 -0.8883 -0.2077
 8454SOL    HW136998   0.127   2.559   2.039 -0.1999 -1.5336  0.9575
 8454SOL    HW236999   0.164   2.413   2.083  0.6658  0.9568  1.2994
 8455SOL     OW37000   3.729   2.875   3.104  0.4262 -0.3428 -0.2049
 8455SOL    HW137001   3.780   2.803   3.065  1.5577 -0.0576  0.7478
 8455SOL    HW237002   3.717   2.838   3.191  2.5755 -0.9199 -0.1394
 8456SOL     OW37003   1.608   3.189   9.658 -0.2036  0.4455 -0.0622
 8456SOL    HW137004   1.564   3.168   9.740 -2.5186 -1.0505 -1.6686
 8456SOL    HW237005   1.696   3.160   9.684 -0.6518 -2.2090 -1.4631
 8457SOL     OW37006   0.295   1.334   6.480  0.6477  0.3358  0.2035
 8457SOL    HW137007   0.213   1.334   6.530 -0.5572 -0.6877 -1.8061
 8457SOL    HW237008   0.326   1.254   6.522 -1.4357 -1.1616 -1.0804
 8458SOL     OW37009   3.665   0.886  14.192  0.0549 -0.7664  0.3604
 8458SOL    HW137010   3.655   0.790  14.195  0.8545 -0.8496  0.4149
 8458SOL    HW237011   3.599   0.904  14.259 -0.1488 -1.0742  0.2430
 8459SOL     OW37012   0.558   2.754   2.109  0.1050  0.3128  0.2711
 8459SOL    HW137013   0.498   2.808   2.160 -0.8400 -2.5136  2.1157
 8459SOL    HW237014   0.542   2.668   2.147  0.5467  0.3698  0.5911
 8460SOL     OW37015   3.602   0.177   9.845  0.0244 -0.7438 -0.0023
 8460SOL    HW137016   3.659   0.101   9.860  0.3076  0.0607  3.0085
 8460SOL    HW237017   3.522   0.164   9.897  0.1125 -1.8563 -0.1473
 8461SOL     OW37018   2.667   4.417   4.610  0.3576 -0.3589  0.3811
 8461SOL    HW137019   2.587   4.402   4.561  2.5430  1.9506 -3.8769
 8461SOL    HW237020   2.625   4.421   4.696  0.1572 -0.1637  0.2748
 8462SOL     OW37021   1.478   0.635   8.403  0.1573 -0.0027 -0.3078
 8462SOL    HW137022   1.571   0.614   8.410 -0.0292 -1.1412 -1.2626
 8462SOL    HW237023   1.487   0.716   8.354 -3.4451  2.4065  2.9904
 8463SOL     OW37024   3.081   2.307  14.376  0.6268 -0.1216  0.0143
 8463SOL    HW137025   3.013   2.338  14.435  2.2413  0.7368  1.4062
 8463SOL    HW237026   3.073   2.365  14.300 -1.3901  0.5297  0.7398
 8464SOL     OW37027   3.468   4.619   0.348 -0.4275  0.2788  0.0456
 8464SOL    HW137028   3.383   4.650   0.377 -0.0471  0.5347  0.9181
 8464SOL    HW237029   3.469   4.674   0.271  1.9750  0.0274 -0.1128
 8465SOL     OW37030   1.412   0.252   8.253  0.4769  0.0583  0.0097
 8465SOL    HW137031   1.395   0.158   8.259  0.2393  0.0875 -0.2083
 8465SOL    HW237032   1.471   0.259   8.329 -1.2151 -1.6264  1.4622
 8466SOL     OW37033   3.211   3.207   4.609 -0.9668  0.0752  0.3228
 8466SOL    HW137034   3.122   3.241   4.597  0.0494  3.4512  2.2270
 8466SOL    HW237035   3.239   3.258   4.533 -1.5287  1.3033  0.9313
 8467SOL     OW37036   1.579   4.624   2.630  0.1077  0.0455 -0.2706
 8467SOL    HW137037   1.524   4.547   2.614  0.9324 -0.2761 -1.5999
 8467SOL    HW237038   1.516   4.682   2.673  1.2107  0.7340  0.4160
 8468SOL     OW37039   1.018   1.994   8.733  0.6767  0.0501 -0.0694
 8468SOL    HW137040   1.062   2.074   8.703  0.6668 -0.2908 -0.9966
 8468SOL    HW237041   1.066   1.972   8.813 -1.9552 -0.0961  1.4420
 8469SOL     OW37042   3.696   2.413   7.888 -0.1060  0.2194 -0.4633
 8469SOL    HW137043   3.782   2.370   7.893  0.5770  1.7080  0.5129
 8469SOL    HW237044   3.656   2.402   7.802 -0.1482 -2.3512 -0.1125
 8470SOL     OW37045   0.969   2.313   7.403  0.0243  0.2810 -0.0254
 8470SOL    HW137046   0.976   2.363   7.321  1.3515  0.7805  0.3960
 8470SOL    HW237047   1.058   2.305   7.436 -1.8413 -2.1671  4.3286
 8471SOL     OW37048   2.701   3.762  11.766 -0.6410  0.5992  0.1138
 8471SOL    HW137049   2.624   3.818  11.768 -0.7326  0.4728  0.0854
 8471SOL    HW237050   2.733   3.758  11.676 -0.4555  1.8368  0.1252
 8472SOL     OW37051   0.750   4.351   5.721  0.3171  0.5633  0.5673
 8472SOL    HW137052   0.747   4.428   5.664 -3.4791  0.2466  0.3598
 8472SOL    HW237053   0.730   4.286   5.654 -0.6318 -0.0337  1.4353
 8473SOL     OW37054   2.550   0.596   3.506  0.5070  0.2408 -0.3776
 8473SOL    HW137055   2.489   0.525   3.487  0.0609 -0.2031  2.6445
 8473SOL    HW237056   2.629   0.552   3.476  0.5296  0.4538 -0.6301
 8474SOL     OW37057   2.484   3.231   0.435  0.0964 -0.1910  0.4722
 8474SOL    HW137058   2.424   3.166   0.397  0.7190 -0.6897  0.3427
 8474SOL    HW237059   2.439   3.313   0.415  2.5149  1.0628  0.1464
 8475SOL     OW37060   4.631   4.187   7.129  0.1119 -0.0415  0.2017
 8475SOL    HW137061   4.616   4.185   7.224 -2.1398 -1.9750 -0.1999
 8475SOL    HW237062   4.723   4.162   7.138 -0.2965 -0.9333  1.9777
 8476SOL     OW37063   1.741   0.101   6.569  0.2023  0.2790  0.0119
 8476SOL    HW137064   1.646   0.109   6.580  0.0528  0.4865 -1.3901
 8476SOL    HW237065   1.735   0.008   6.549 -0.5838  1.0135 -3.1873
 8477SOL     OW37066   0.347   2.737   0.251 -0.0697 -0.5549 -0.1332
 8477SOL    HW137067   0.296   2.805   0.207  0.9676  0.5722  0.3929
 8477SOL    HW237068   0.316   2.659   0.206  0.9108 -1.7041  1.1594
 8478SOL     OW37069   4.158   3.551  17.185 -0.3940 -0.2273  0.0962
 8478SOL    HW137070   4.141   3.494  17.260  1.6752 -0.0170  0.6984
 8478SOL    HW237071   4.147   3.483  17.118  2.1789  1.5263 -2.1103
 8479SOL     OW37072   2.041   3.826  17.153 -0.1413 -0.5166 -0.3983
 8479SOL    HW137073   1.977   3.897  17.155 -1.0705 -1.3430 -0.6464
 8479SOL    HW237074   2.024   3.775  17.232 -2.2909 -0.9578 -1.1587
 8480SOL     OW37075   3.025   3.211  16.388  0.9016  0.7537  0.1188
 8480SOL    HW137076   3.060   3.300  16.388  1.4555  0.5378 -1.6870
 8480SOL    HW237077   3.101   3.163  16.354 -0.5098 -0.8039 -0.8561
 8481SOL     OW37078   2.334   0.356  10.869  0.2125  0.0941 -1.0555
 8481SOL    HW137079   2.380   0.385  10.791 -0.0236  0.4447 -1.0671
 8481SOL    HW237080   2.333   0.436  10.922 -1.5533  0.4764 -1.6571
 8482SOL     OW37081   1.960   3.293   2.007  0.0528 -0.1906 -1.0014
 8482SOL    HW137082   1.897   3.267   1.940  1.5602 -1.0727 -2.0726
 8482SOL    HW237083   1.898   3.337   2.065 -0.6481 -0.1543 -1.7876
 8483SOL     OW37084   3.685   0.668  14.825 -0.1130  0.2218  0.4250
 8483SOL    HW137085   3.694   0.745  14.769  0.7490 -1.3749 -1.5971
 8483SOL    HW237086   3.771   0.668  14.869 -0.8846 -2.3194  1.9585
 8484SOL     OW37087   0.164   2.594  11.707  0.3578 -0.0832  0.0893
 8484SOL    HW137088   0.217   2.652  11.762  0.7027  0.1871 -0.5406
 8484SOL    HW237089   0.156   2.511  11.755  0.1717 -0.3435 -0.3946
 8485SOL     OW37090   1.677   0.308  17.337 -0.0176 -0.1003  0.2342
 8485SOL    HW137091   1.766   0.324  17.305  0.8957 -1.7345  1.9739
 8485SOL    HW237092   1.634   0.272  17.259  1.3412 -2.8138  0.7583
 8486SOL     OW37093   1.176   0.254   7.287  0.4558  0.0534  0.2105
 8486SOL    HW137094   1.178   0.158   7.282 -1.8237  0.0717 -1.1561
 8486SOL    HW237095   1.240   0.271   7.356  1.4363  0.7444 -0.8752
 8487SOL     OW37096   0.574   3.566   6.196 -0.0848 -0.0155 -0.3405
 8487SOL    HW137097   0.563   3.659   6.216 -0.8023 -0.1286 -0.2108
 8487SOL    HW237098   0.505   3.562   6.130  0.0717  0.9707 -0.5606
 8488SOL     OW37099   3.474   3.813   2.030  0.1364 -0.9453 -0.4244
 8488SOL    HW137100   3.424   3.888   2.061 -0.4976 -1.4084 -0.3195
 8488SOL    HW237101   3.512   3.796   2.116 -2.6502 -2.6713  0.4801
 8489SOL     OW37102   4.346   2.303   2.730  0.2889  0.0329  0.0886
 8489SOL    HW137103   4.440   2.320   2.725  0.2027  0.0262 -1.5419
 8489SOL    HW237104   4.342   2.251   2.810  2.0650  0.9105  0.7516
 8490SOL     OW37105   0.945   1.274   3.950 -0.1510  0.2450  0.1703
 8490SOL    HW137106   0.934   1.354   3.898  1.9734  0.1623 -0.4135
 8490SOL    HW237107   0.978   1.310   4.032  0.9141  2.5785 -1.2870
 8491SOL     OW37108   4.632   3.196  15.337  0.0052  0.6900  0.7967
 8491SOL    HW137109   4.656   3.216  15.427  1.9525 -1.4656  0.7687
 8491SOL    HW237110   4.720   3.171  15.309 -1.9226 -2.7350 -2.2712
 8492SOL     OW37111   4.352   2.724   6.199 -0.0759 -0.1299  0.3577
 8492SOL    HW137112   4.357   2.635   6.235  0.9272  0.7155  2.2917
 8492SOL    HW237113   4.307   2.766   6.272  0.3184  1.4689 -0.3320
 8493SOL     OW37114   2.301   1.826   6.612  0.6965  0.0635 -0.5205
 8493SOL    HW137115   2.323   1.918   6.604  0.5324  0.2313  1.0154
 8493SOL    HW237116   2.382   1.775   6.615  1.4710  1.3122 -0.5414
 8494SOL     OW37117   0.318   2.895   6.922 -0.0705 -0.2546  0.3868
 8494SOL    HW137118   0.326   2.990   6.929  1.3076 -0.4722  1.7492
 8494SOL    HW237119   0.395   2.887   6.866 -0.8200 -0.4677 -0.6216
 8495SOL     OW37120   1.770   3.579   1.864  0.1383  0.9407 -0.7897
 8495SOL    HW137121   1.824   3.556   1.940 -0.1942 -0.2009 -0.9093
 8495SOL    HW237122   1.781   3.674   1.875 -1.5321  0.7885  2.4348
 8496SOL     OW37123   4.143   0.803   1.506  0.4296 -0.2855 -0.1950
 8496SOL    HW137124   4.132   0.814   1.412 -2.6915 -0.6464  0.1489
 8496SOL    HW237125   4.165   0.894   1.526  0.6105 -0.4317  0.2855
 8497SOL     OW37126   4.359   0.416   6.069 -0.1279  0.0251  1.1055
 8497SOL    HW137127   4.404   0.424   5.985  0.9867 -0.4139  1.6617
 8497SOL    HW237128   4.347   0.322   6.082  1.0420 -0.3121 -0.3391
 8498SOL     OW37129   3.124   4.416   9.022  0.3211  0.0999 -0.0409
 8498SOL    HW137130   3.105   4.355   9.093 -0.9009  0.0257 -0.4319
 8498SOL    HW237131   3.186   4.475   9.066  4.0002 -2.0764 -2.2983
 8499SOL     OW37132   1.325   0.986   8.171 -0.5316  0.2554 -0.5274
 8499SOL    HW137133   1.340   1.072   8.133 -0.5249  0.0659 -0.9562
 8499SOL    HW237134   1.239   0.981   8.128  0.2349  0.3933 -2.0655
 8500SOL     OW37135   3.910   4.494   9.037 -0.1232  0.9121 -0.2200
 8500SOL    HW137136   3.936   4.413   9.080 -1.0755 -0.7631 -2.7744
 8500SOL    HW237137   3.879   4.555   9.104  1.2030 -1.1869  2.3211
 8501SOL     OW37138   2.729   3.162   3.549  0.2989 -0.5044 -0.4775
 8501SOL    HW137139   2.807   3.119   3.586  0.0379  0.4296  1.1325
 8501SOL    HW237140   2.764   3.247   3.522  0.6061 -0.5178 -0.1262
 8502SOL     OW37141   3.364   0.190   2.048  0.0564 -0.0424  0.0437
 8502SOL    HW137142   3.366   0.275   2.004 -0.1396  0.0885  0.2842
 8502SOL    HW237143   3.411   0.127   1.993  0.2102  0.6410 -0.6138
 8503SOL     OW37144   3.500   2.891  14.550  0.5381  0.1541 -0.3180
 8503SOL    HW137145   3.417   2.930  14.523 -0.1185 -2.7141 -2.4813
 8503SOL    HW237146   3.539   2.970  14.589 -0.2386  1.3312 -1.9108
 8504SOL     OW37147   2.343   2.792   3.996  0.2226  0.8352  0.3860
 8504SOL    HW137148   2.401   2.716   3.994  0.2244  0.8210  1.3676
 8504SOL    HW237149   2.260   2.749   4.013  0.7168 -1.0923 -2.0493
 8505SOL     OW37150   3.850   3.688   5.504  0.2838 -0.3871  0.1999
 8505SOL    HW137151   3.894   3.755   5.556 -0.5794 -0.2609  0.7575
 8505SOL    HW237152   3.798   3.652   5.576 -2.5550  0.9393 -1.1865
 8506SOL     OW37153   4.007   4.599   8.109 -0.1156  0.3664  0.4224
 8506SOL    HW137154   3.962   4.585   8.192  1.7946  2.2917  1.7560
 8506SOL    HW237155   4.086   4.547   8.119  1.4750  2.7039 -0.0657
 8507SOL     OW37156   0.076   3.238   4.644 -0.5757 -0.1480  0.1169
 8507SOL    HW137157   0.089   3.332   4.637 -2.6140  0.3593  3.1803
 8507SOL    HW237158   4.717   3.232   4.658 -0.7684 -1.3386 -1.6611
 8508SOL     OW37159   1.068   2.442   3.074  0.6446 -0.1180 -0.4332
 8508SOL    HW137160   1.091   2.372   3.013 -1.6158  0.3569 -1.8388
 8508SOL    HW237161   0.990   2.398   3.108 -0.6717  3.0448  0.6858
 8509SOL     OW37162   3.569   2.025   8.709 -0.0341 -0.3539 -0.2794
 8509SOL    HW137163   3.660   2.019   8.739  1.2728  2.8839 -3.6096
 8509SOL    HW237164   3.539   2.093   8.769  2.9184  1.4518 -0.8653
 8510SOL     OW37165   2.325   3.110   6.967  0.6049 -0.4736 -0.1504
 8510SOL    HW137166   2.375   3.075   6.894  0.8371 -1.6988  0.6009
 8510SOL    HW237167   2.237   3.073   6.959  2.0621 -3.3581 -2.9778
 8511SOL     OW37168   1.564   1.530   7.334 -0.0475  0.1441  0.2142
 8511SOL    HW137169   1.486   1.483   7.304  2.1304 -1.8295 -2.4058
 8511SOL    HW237170   1.551   1.616   7.294  3.2124 -0.6127 -2.4293
 8512SOL     OW37171   4.033   2.257   3.881  0.6314 -0.1249  0.1214
 8512SOL    HW137172   3.977   2.215   3.816 -0.2533  1.7997 -0.3508
 8512SOL    HW237173   4.108   2.198   3.876 -0.1271 -1.0486 -0.2939
 8513SOL     OW37174   2.429   1.732   4.272  0.1985  0.1922 -0.2552
 8513SOL    HW137175   2.406   1.727   4.179 -1.4772 -2.8315  0.3207
 8513SOL    HW237176   2.391   1.813   4.307 -0.5456  1.3715 -3.8279
 8514SOL     OW37177   1.305   0.659   4.486  0.1326 -0.9471  0.0314
 8514SOL    HW137178   1.373   0.726   4.495 -0.5492 -0.2300 -0.2128
 8514SOL    HW237179   1.325   0.604   4.562 -1.9205  0.3567  1.5181
 8515SOL     OW37180   2.307   0.268   5.155 -0.4143  0.1238 -0.0823
 8515SOL    HW137181   2.226   0.217   5.154 -1.7797  2.2833 -1.4383
 8515SOL    HW237182   2.295   0.301   5.244 -1.4881  1.0781 -0.5820
 8516SOL     OW37183   0.688   0.031   7.938 -0.0543  0.0167  0.1600
 8516SOL    HW137184   0.763   0.057   7.992  0.0845  0.3879 -0.2091
 8516SOL    HW237185   0.713   0.051   7.848  0.3281  1.5689  0.6079
 8517SOL     OW37186   0.048   1.674   8.834  0.3685  0.0810 -0.0187
 8517SOL    HW137187   0.125   1.717   8.873  0.7358 -0.1794 -0.4555
 8517SOL    HW237188   4.719   1.743   8.823 -0.2695 -0.1263  2.3097
 8518SOL     OW37189   1.746   3.037   8.737  0.3693 -0.5582  0.0026
 8518SOL    HW137190   1.805   3.071   8.670  1.6060 -2.5921  0.0550
 8518SOL    HW237191   1.660   3.061   8.701 -0.2242 -2.4903  0.1640
 8519SOL     OW37192   1.198   1.454   7.313 -0.2091  0.2493 -0.0585
 8519SOL    HW137193   1.127   1.392   7.297  0.4223 -1.0177  2.0805
 8519SOL    HW237194   1.242   1.461   7.228 -0.8169  0.3597 -0.3612
 8520SOL     OW37195   3.986   2.544  10.994 -0.6724  0.3577 -0.4729
 8520SOL    HW137196   4.077   2.514  10.996 -0.2905  1.2776 -3.0275
 8520SOL    HW237197   3.970   2.573  10.904 -0.7012  1.5895 -0.0808
 8521SOL     OW37198   0.022   2.687   5.561  0.1722 -0.3924  0.4434
 8521SOL    HW137199   4.693   2.645   5.616 -0.7500 -1.7312 -1.6839
 8521SOL    HW237200   0.071   2.725   5.634  1.2193  2.0673 -1.5522
 8522SOL     OW37201   3.365   2.026   6.910 -0.4961  0.3306 -0.0323
 8522SOL    HW137202   3.308   1.986   6.844  0.0824 -1.2032  0.3971
 8522SOL    HW237203   3.371   1.953   6.972 -2.0673  1.2935  1.2507
 8523SOL     OW37204   0.561   0.209   2.930  0.2377 -0.5441 -0.3646
 8523SOL    HW137205   0.576   0.225   2.837  1.4207 -1.0581 -0.2493
 8523SOL    HW237206   0.467   0.227   2.923  0.6023  1.6358  0.3238
 8524SOL     OW37207   1.213   2.365   0.301 -0.0921  0.2265  0.8001
 8524SOL    HW137208   1.259   2.287   0.270  1.4157  0.1721  3.2317
 8524SOL    HW237209   1.126   2.333   0.325 -0.1802 -1.7716 -2.2393
 8525SOL     OW37210   2.273   0.164   4.356  0.0384 -0.2054 -0.3221
 8525SOL    HW137211   2.269   0.087   4.300 -0.7558  1.3276 -2.3461
 8525SOL    HW237212   2.274   0.240   4.298 -0.2582 -0.2069 -0.3246
 8526SOL     OW37213   1.127   2.421  13.157  0.5998  0.2142  0.2324
 8526SOL    HW137214   1.103   2.438  13.248 -0.6727  0.3050 -0.1182
 8526SOL    HW237215   1.069   2.352  13.126 -0.9529  2.5976 -2.2032
 8527SOL     OW37216   1.089   0.602  16.448  0.5037  0.1642  0.0821
 8527SOL    HW137217   1.156   0.557  16.499  0.7447 -0.0741 -0.4420
 8527SOL    HW237218   1.012   0.544  16.455  1.6113 -1.3709 -0.4058
 8528SOL     OW37219   4.582   1.140   6.717  0.2229  0.0332  0.0277
 8528SOL    HW137220   4.577   1.197   6.793  1.8552 -0.1296  0.2617
 8528SOL    HW237221   4.591   1.055   6.761  0.8550  0.4305  0.6611
 8529SOL     OW37222   2.702   0.310   9.970  0.4555  0.0764 -0.0874
 8529SOL    HW137223   2.749   0.387   9.938  0.6800  0.3680  0.9443
 8529SOL    HW237224   2.611   0.340   9.981  0.4754 -0.6809  2.1767
 8530SOL     OW37225   3.800   0.385   8.204  0.6045 -0.1772 -0.8705
 8530SOL    HW137226   3.796   0.305   8.256  1.2552  0.0916 -0.4090
 8530SOL    HW237227   3.771   0.345   8.122 -0.7299  1.9193 -1.4351
 8531SOL     OW37228   2.237   4.281   9.460  0.0361  0.2694 -0.1678
 8531SOL    HW137229   2.177   4.246   9.526 -0.7040  0.8777 -0.5210
 8531SOL    HW237230   2.227   4.376   9.465 -0.9239  0.2367 -1.2508
 8532SOL     OW37231   2.082   0.170   8.014 -0.0837 -0.0404 -0.7273
 8532SOL    HW137232   2.165   0.212   8.034  0.7275 -1.6088 -0.7907
 8532SOL    HW237233   2.032   0.169   8.095  1.9379  0.9785  0.5278
 8533SOL     OW37234   1.721   1.795   6.295  0.0094  0.0561 -0.2143
 8533SOL    HW137235   1.785   1.727   6.276  0.9981  0.6353  1.0326
 8533SOL    HW237236   1.657   1.730   6.326 -0.7991  0.1248 -1.7424
 8534SOL     OW37237   0.484   1.995  11.745 -0.1817 -1.0258  0.1077
 8534SOL    HW137238   0.408   2.020  11.798  0.4453 -0.4207  0.7230
 8534SOL    HW237239   0.495   2.079  11.700 -2.4531 -0.5247  0.5105
 8535SOL     OW37240   4.399   2.088  11.434  0.3180  0.5033 -0.6939
 8535SOL    HW137241   4.490   2.107  11.412  0.1362  1.4025 -0.6683
 8535SOL    HW237242   4.355   2.158  11.386  0.6173  0.0354 -1.6535
 8536SOL     OW37243   1.595   0.400   5.716 -0.1979 -0.1926  0.5112
 8536SOL    HW137244   1.648   0.360   5.785 -0.5563 -1.1413  0.2403
 8536SOL    HW237245   1.512   0.359   5.739 -0.4299  0.9390  1.7233
 8537SOL     OW37246   0.633   3.734   7.496  0.3245 -0.7790 -0.2518
 8537SOL    HW137247   0.692   3.701   7.563 -0.0245 -0.7425  0.0735
 8537SOL    HW237248   0.663   3.825   7.496 -0.8208 -0.3979 -2.2497
 8538SOL     OW37249   1.239   2.667   5.343  0.1364  0.4216 -0.4180
 8538SOL    HW137250   1.279   2.709   5.266 -1.4898 -0.8742 -1.9507
 8538SOL    HW237251   1.202   2.590   5.300 -0.4214  0.8293 -0.6493
 8539SOL     OW37252   3.490   3.260   9.320  0.5270 -0.7264  0.3805
 8539SOL    HW137253   3.579   3.295   9.313  0.6389 -1.2353 -0.6792
 8539SOL    HW237254   3.469   3.298   9.406 -1.0058  1.2615 -0.8869
 8540SOL     OW37255   1.115   3.730  14.140  0.3313  0.2381 -0.1715
 8540SOL    HW137256   1.049   3.786  14.100  0.5566  0.5906 -0.0559
 8540SOL    HW237257   1.177   3.801  14.157  0.0607  0.2523  0.7509
 8541SOL     OW37258   0.446   1.060  15.231  0.5723  0.0044 -0.5875
 8541SOL    HW137259   0.477   0.975  15.199 -1.8733 -1.0723 -0.1125
 8541SOL    HW237260   0.367   1.077  15.181  0.8527 -0.4856 -1.1938
 8542SOL     OW37261   1.781   0.507   3.130 -0.2788 -0.4132  0.5369
 8542SOL    HW137262   1.840   0.550   3.192 -1.5053  0.8686  0.8074
 8542SOL    HW237263   1.751   0.433   3.183 -0.0191 -0.7992  0.1457
 8543SOL     OW37264   0.364   1.024  16.506  0.1796 -0.9558  0.4920
 8543SOL    HW137265   0.453   1.059  16.516  0.9717 -1.9722 -2.8449
 8543SOL    HW237266   0.343   1.080  16.431 -2.1823 -1.7684  0.5347
 8544SOL     OW37267   2.107   2.948  12.803 -0.4446 -0.5221  0.1509
 8544SOL    HW137268   2.046   2.874  12.801 -1.6058  0.3968  1.9159
 8544SOL    HW237269   2.060   3.030  12.788  2.4967  0.9727 -0.8503
 8545SOL     OW37270   3.360   0.799  16.131 -0.0643  0.2838  0.1071
 8545SOL    HW137271   3.301   0.749  16.186  0.8811 -0.5313  0.3906
 8545SOL    HW237272   3.362   0.742  16.054  0.7406 -2.1544  1.9467
 8546SOL     OW37273   1.580   4.696   3.255 -0.0661  0.2761 -0.3064
 8546SOL    HW137274   1.587   4.660   3.167 -1.7628  0.0773 -0.3475
 8546SOL    HW237275   1.537   0.045   3.250 -1.5180 -0.3547  1.2181
 8547SOL     OW37276   2.901   0.794   1.333 -0.2220 -0.3425 -0.4164
 8547SOL    HW137277   2.833   0.758   1.390 -0.4021  2.9109  1.4106
 8547SOL    HW237278   2.963   0.836   1.393 -0.9192 -1.7061  1.2613
 8548SOL     OW37279   2.412   0.312   2.525 -0.2142 -0.2335 -0.6255
 8548SOL    HW137280   2.476   0.374   2.491 -1.8853  1.3554 -0.8730
 8548SOL    HW237281   2.328   0.340   2.487 -0.0168  1.5298  0.2475
 8549SOL     OW37282   1.359   2.137   7.702  0.1264 -0.4850  0.2463
 8549SOL    HW137283   1.409   2.059   7.677 -1.3284 -1.0832 -0.7949
 8549SOL    HW237284   1.429   2.201   7.718  0.1828 -0.3587 -0.5253
 8550SOL     OW37285   4.471   3.166  13.608 -0.4317  0.2746  0.1133
 8550SOL    HW137286   4.515   3.133  13.529 -1.7242  0.6254 -0.7378
 8550SOL    HW237287   4.517   3.249  13.620 -3.1324  1.9271 -1.1123
 8551SOL     OW37288   0.066   2.490   8.264  0.4050 -0.0881  0.1186
 8551SOL    HW137289   4.731   2.523   8.318 -0.0218  0.0643 -0.5431
 8551SOL    HW237290   0.138   2.531   8.312  2.0840 -0.0094 -2.4833
 8552SOL     OW37291   2.133   4.291  14.160  0.0026 -0.2592  0.1978
 8552SOL    HW137292   2.041   4.286  14.135 -0.3692  1.9560  1.1321
 8552SOL    HW237293   2.153   4.382  14.179 -0.7796 -0.0563  0.0505
 8553SOL     OW37294   4.313   3.173   9.298 -0.1245 -0.7705 -0.2823
 8553SOL    HW137295   4.291   3.081   9.280  0.0093 -0.5111 -1.8122
 8553SOL    HW237296   4.230   3.209   9.331  0.3543  0.2143 -0.1500
 8554SOL     OW37297   4.564   3.815   2.750  0.0971  0.1325  0.3231
 8554SOL    HW137298   4.524   3.737   2.712  2.6226 -0.2045 -1.6235
 8554SOL    HW237299   4.488   3.867   2.777 -0.7605 -1.2557  0.5728
 8555SOL     OW37300   4.120   4.364   8.350  0.1615  0.1654  0.1499
 8555SOL    HW137301   4.121   4.287   8.407 -2.9030 -0.4592 -0.6651
 8555SOL    HW237302   4.170   4.430   8.397  0.3501  0.7214 -0.8340
 8556SOL     OW37303   3.718   4.110  10.158 -0.4838 -0.4319  0.0298
 8556SOL    HW137304   3.682   4.050  10.224 -1.8556 -0.6882 -0.9648
 8556SOL    HW237305   3.812   4.092  10.153 -0.3089  0.7222 -0.6934
 8557SOL     OW37306   3.064   2.465   4.190 -0.2986 -0.4582 -0.4934
 8557SOL    HW137307   3.101   2.434   4.272 -0.5759 -1.0230 -0.5870
 8557SOL    HW237308   3.099   2.555   4.192 -3.4338  0.7335  0.2901
 8558SOL     OW37309   1.375   3.210   7.102 -0.5201 -0.3767  0.1180
 8558SOL    HW137310   1.394   3.189   7.011 -1.3978 -2.5185  0.4417
 8558SOL    HW237311   1.354   3.129   7.147  1.9306 -0.8549  0.3639
 8559SOL     OW37312   0.884   0.601   2.716  0.5789 -0.5733 -0.4261
 8559SOL    HW137313   0.854   0.527   2.663 -1.2778 -0.1674  0.0617
 8559SOL    HW237314   0.935   0.650   2.652  0.0462  3.8110  2.4970
 8560SOL     OW37315   1.403   3.270   9.116 -0.1117  0.1103 -0.5055
 8560SOL    HW137316   1.346   3.282   9.039 -0.3007  1.5397 -0.1444
 8560SOL    HW237317   1.455   3.350   9.109 -0.2688  0.1047 -1.7994
 8561SOL     OW37318   1.234   4.354   2.512 -0.7823  0.3530  0.4263
 8561SOL    HW137319   1.150   4.396   2.495  0.4065  2.7141  0.2793
 8561SOL    HW237320   1.275   4.366   2.426  0.1069 -1.9003  0.5263
 8562SOL     OW37321   2.137   1.637  12.349 -0.1532  0.2491 -0.5043
 8562SOL    HW137322   2.215   1.649  12.404  0.1006 -0.7745 -0.6411
 8562SOL    HW237323   2.132   1.728  12.319 -2.3608 -0.0394 -0.9993
 8563SOL     OW37324   4.660   1.985   3.508 -0.3622 -0.0763 -0.4626
 8563SOL    HW137325   4.660   1.895   3.541 -2.6441 -0.0691 -0.4013
 8563SOL    HW237326   0.003   2.028   3.540  0.1450 -1.4419  0.1051
 8564SOL     OW37327   4.062   2.326  11.717  0.3105  0.3394 -0.7792
 8564SOL    HW137328   4.069   2.232  11.704  1.4281  0.3029  0.0404
 8564SOL    HW237329   4.059   2.361  11.628  1.7986  0.3889 -0.8164
 8565SOL     OW37330   0.894   3.778   6.819 -0.1623 -0.1757 -0.6242
 8565SOL    HW137331   0.909   3.715   6.890 -0.6806 -0.9717 -1.2153
 8565SOL    HW237332   0.966   3.757   6.760 -1.1781 -1.5976 -1.3649
 8566SOL     OW37333   0.333   4.695   6.655 -0.3990  0.1479  0.8975
 8566SOL    HW137334   0.410   4.693   6.711  1.7983 -0.0997 -2.1102
 8566SOL    HW237335   0.322   0.054   6.650  0.9607  0.3567  1.8457
 8567SOL     OW37336   4.531   3.310   2.771 -0.2818 -0.0079  0.4099
 8567SOL    HW137337   4.508   3.381   2.831  0.6573  1.3144 -0.8079
 8567SOL    HW237338   4.448   3.295   2.726  0.0664  0.9082 -0.5484
 8568SOL     OW37339   2.360   4.127   4.192 -0.3456 -0.6793  0.2485
 8568SOL    HW137340   2.367   4.033   4.205  0.7741 -0.4507  1.3214
 8568SOL    HW237341   2.450   4.153   4.173 -0.8102  1.3834  0.8491
 8569SOL     OW37342   0.098   0.170   3.765  0.5882 -0.2779 -0.4981
 8569SOL    HW137343   0.026   0.156   3.704 -2.1823  0.5609  2.5902
 8569SOL    HW237344   0.108   0.091   3.818 -3.0314  2.2678  3.9746
 8570SOL     OW37345   0.556   1.546   5.468 -0.7337 -0.9840  0.2516
 8570SOL    HW137346   0.623   1.563   5.402  0.4642 -3.2423  0.8811
 8570SOL    HW237347   0.607   1.524   5.547 -0.5065  2.9221  1.1880
 8571SOL     OW37348   0.638   3.222   6.000  0.7466 -0.1332  0.6306
 8571SOL    HW137349   0.728   3.191   5.993 -0.1724 -2.6518 -0.3387
 8571SOL    HW237350   0.642   3.281   6.075 -2.2875  0.7148  0.1334
 8572SOL     OW37351   0.259   3.911  12.523 -0.8876 -0.1153  0.5146
 8572SOL    HW137352   0.309   3.872  12.451 -0.4924 -0.8066  1.1642
 8572SOL    HW237353   0.315   3.901  12.600 -2.8765 -0.6345  1.8868
 8573SOL     OW37354   2.776   1.390  16.124  0.0373 -0.0549 -0.1034
 8573SOL    HW137355   2.719   1.459  16.158  2.0384  2.4292 -1.8291
 8573SOL    HW237356   2.859   1.432  16.102 -0.4632  1.1438  0.2695
 8574SOL     OW37357   1.463   4.384   2.663 -0.1616  0.1867 -0.3097
 8574SOL    HW137358   1.427   4.345   2.743 -4.3679  0.2150 -2.1703
 8574SOL    HW237359   1.388   4.364   2.607  0.3836  1.6442 -1.5631
 8575SOL     OW37360   0.258   2.773   8.291 -0.1289 -0.4944  0.1589
 8575SOL    HW137361   0.282   2.805   8.204 -0.4637 -0.7763 -0.0371
 8575SOL    HW237362   0.332   2.809   8.341  1.7697  0.0071 -3.0372
 8576SOL     OW37363   1.703   1.862   4.313  0.1561  0.2190  0.1013
 8576SOL    HW137364   1.676   1.866   4.405  0.8087  0.9124  0.2646
 8576SOL    HW237365   1.617   1.869   4.273  1.4836 -1.8725 -3.1771
 8577SOL     OW37366   1.771   1.754   5.550  0.0411 -0.1896 -0.1572
 8577SOL    HW137367   1.678   1.778   5.549  0.7305  2.4539 -0.9680
 8577SOL    HW237368   1.799   1.756   5.641 -0.7542 -1.2433  0.1109
 8578SOL     OW37369   0.227   2.268   8.806 -0.3309  1.1195 -0.0455
 8578SOL    HW137370   0.273   2.311   8.878  0.9973 -0.2708 -0.0718
 8578SOL    HW237371   0.163   2.339   8.800 -0.1325  1.2382 -0.8147
 8579SOL     OW37372   1.685   1.591  12.719  0.6053 -0.0645 -0.5122
 8579SOL    HW137373   1.731   1.626  12.795 -0.8163 -2.3918  1.4114
 8579SOL    HW237374   1.643   1.669  12.682  1.4849  0.4505 -0.4224
 8580SOL     OW37375   1.188   2.563   4.235 -0.3361  0.2943  0.2853
 8580SOL    HW137376   1.236   2.523   4.308  1.4994 -0.4491 -1.3261
 8580SOL    HW237377   1.217   2.654   4.244 -2.3192  0.7974  1.7027
 8581SOL     OW37378   0.307   0.321   1.982 -0.0961  0.3097  0.5007
 8581SOL    HW137379   0.218   0.308   2.013 -0.3503 -1.1252 -0.8356
 8581SOL    HW237380   0.302   0.318   1.886  0.5866  2.0015  0.4060
 8582SOL     OW37381   0.768   4.080  11.920  0.1101  0.4928 -0.4217
 8582SOL    HW137382   0.699   4.043  11.975  2.0254 -1.6549  0.5499
 8582SOL    HW237383   0.715   4.144  11.872 -0.5527  0.3527  0.1311
 8583SOL     OW37384   1.980   1.667   1.251 -0.6155 -0.4122 -0.1813
 8583SOL    HW137385   2.040   1.610   1.203 -0.8774 -0.1249 -0.8530
 8583SOL    HW237386   1.909   1.672   1.188 -1.1013  0.2643  0.4225
 8584SOL     OW37387   2.945   3.609   5.614  0.0010 -0.8980  0.5448
 8584SOL    HW137388   2.890   3.680   5.579 -0.6590 -0.5495  2.3190
 8584SOL    HW237389   3.028   3.632   5.571  0.9302 -0.6494  2.4843
 8585SOL     OW37390   4.547   2.399   3.763 -0.3515  0.2950 -0.0845
 8585SOL    HW137391   4.642   2.391   3.762 -0.1725  2.2520  0.4566
 8585SOL    HW237392   4.519   2.332   3.701  1.8628 -1.2225  0.5480
 8586SOL     OW37393   3.301   3.423   5.239 -0.0934 -0.0306  0.0540
 8586SOL    HW137394   3.368   3.354   5.240 -1.9419 -1.8054  0.0041
 8586SOL    HW237395   3.229   3.373   5.278  0.3072 -0.8712 -0.2741
 8587SOL     OW37396   1.269   3.456  13.721 -0.2410  0.0883 -0.5689
 8587SOL    HW137397   1.254   3.502  13.804  1.4074 -0.1629 -0.1467
 8587SOL    HW237398   1.200   3.500  13.670 -0.0101  0.4716 -0.5517
 8588SOL     OW37399   4.450   3.662   3.247  0.4995 -0.6847  0.0570
 8588SOL    HW137400   4.504   3.707   3.183  0.8582 -1.1090  0.0631
 8588SOL    HW237401   4.454   3.740   3.303  1.2051 -0.8684  0.2580
 8589SOL     OW37402   2.710   1.793   4.094  0.5871 -0.5565  0.1499
 8589SOL    HW137403   2.623   1.826   4.072  0.2460 -1.1551  0.5774
 8589SOL    HW237404   2.707   1.785   4.189  2.1624 -1.4392  0.1301
 8590SOL     OW37405   3.149   0.616   9.531  0.3960  0.2696 -0.1522
 8590SOL    HW137406   3.095   0.685   9.569 -1.1584 -0.5328 -0.9022
 8590SOL    HW237407   3.225   0.612   9.588  0.4643 -1.1243 -0.3418
 8591SOL     OW37408   2.648   1.994   5.298 -0.3174  0.0137  0.6057
 8591SOL    HW137409   2.683   2.077   5.265 -1.7823  0.9934  1.5127
 8591SOL    HW237410   2.721   1.958   5.349  1.5864  1.8698 -0.7934
 8592SOL     OW37411   1.661   1.380   6.330  0.7246 -0.5988 -0.1925
 8592SOL    HW137412   1.605   1.457   6.340 -0.9991 -1.9129  0.2489
 8592SOL    HW237413   1.745   1.415   6.356  1.3929 -1.8304 -0.6759
 8593SOL     OW37414   0.106   0.830  16.715  0.5316  0.1111  0.0167
 8593SOL    HW137415   0.065   0.916  16.727 -2.7400 -0.9890 -3.0855
 8593SOL    HW237416   0.174   0.854  16.652  0.8003  0.2338  0.3554
 8594SOL     OW37417   0.302   3.333   4.357 -0.2082  0.5695  0.2018
 8594SOL    HW137418   0.248   3.412   4.364 -0.7617  0.3747 -1.9186
 8594SOL    HW237419   0.328   3.349   4.267 -1.2724 -2.5232 -0.6431
 8595SOL     OW37420   1.887   0.238  17.153  0.0415  0.3960  0.4337
 8595SOL    HW137421   1.979   0.265  17.155  0.5388 -1.3519  1.1356
 8595SOL    HW237422   1.906   0.145  17.143  0.4283  0.4307  0.8387
 8596SOL     OW37423   2.216   3.412  16.123 -0.2209  0.1231  1.0078
 8596SOL    HW137424   2.300   3.391  16.083 -1.0476  1.3712 -1.3801
 8596SOL    HW237425   2.157   3.342  16.096 -1.1217  0.7652  1.2708
 8597SOL     OW37426   0.598   1.991   0.102  0.0322  0.2165 -0.2690
 8597SOL    HW137427   0.566   2.081   0.110  0.6212  0.6074 -2.3348
 8597SOL    HW237428   0.691   1.992   0.125  0.3588  1.0827 -1.6091
 8598SOL     OW37429   1.043   3.329   8.456  0.2316  0.1348 -0.1644
 8598SOL    HW137430   1.011   3.239   8.461  0.3913  0.0416 -0.8444
 8598SOL    HW237431   1.003   3.363   8.376  0.9961  0.4208 -0.4203
 8599SOL     OW37432   3.565   4.412  14.641 -0.0414  0.1750  1.1340
 8599SOL    HW137433   3.484   4.393  14.690  0.8758  1.9602  3.3146
 8599SOL    HW237434   3.628   4.438  14.708  1.6548  3.2571 -1.6996
 8600SOL     OW37435   4.354   4.238   8.178  0.1191  0.2462  0.6706
 8600SOL    HW137436   4.442   4.207   8.158  0.0063 -0.5641  1.4226
 8600SOL    HW237437   4.302   4.165   8.145 -0.3567  1.3021 -0.9155
 8601SOL     OW37438   0.260   2.926   7.233  0.4731 -0.0609  0.2061
 8601SOL    HW137439   0.331   2.965   7.284 -0.1552 -0.1090  1.1118
 8601SOL    HW237440   0.265   2.981   7.154 -0.8655 -3.1753 -2.0545
 8602SOL     OW37441   2.450   2.630   7.954  0.3370  0.1728  0.1747
 8602SOL    HW137442   2.374   2.668   7.997 -0.3551 -1.4366  0.3666
 8602SOL    HW237443   2.521   2.692   7.971  0.1215 -0.0125  1.6850
 8603SOL     OW37444   0.907   4.236   5.088  0.1635  0.0301  0.1006
 8603SOL    HW137445   0.960   4.158   5.071 -0.6830 -0.8920  1.6560
 8603SOL    HW237446   0.969   4.305   5.064 -1.5064  1.6562  0.3776
 8604SOL     OW37447   2.993   3.810  12.573  0.3571 -0.4404  0.2185
 8604SOL    HW137448   2.967   3.719  12.563  0.6300 -0.8883  3.7049
 8604SOL    HW237449   2.940   3.828  12.651  0.4439 -0.9406  0.3910
 8605SOL     OW37450   1.001   4.493   5.098 -0.3492  0.0451  0.8866
 8605SOL    HW137451   0.981   4.521   5.009  0.4925  1.7889  1.2475
 8605SOL    HW237452   0.975   4.574   5.142 -0.3707 -1.0426  2.9095
 8606SOL     OW37453   4.445   4.123   9.256  0.2026  0.1563 -0.0948
 8606SOL    HW137454   4.416   4.038   9.288 -1.0881  0.1948 -1.1272
 8606SOL    HW237455   4.536   4.120   9.285 -0.0885 -0.6595  0.7223
 8607SOL     OW37456   2.662   0.477  17.592 -0.0828  0.0720 -0.3340
 8607SOL    HW137457   2.690   0.437  17.509  2.2383  1.0862 -0.0196
 8607SOL    HW237458   2.579   0.512  17.559 -0.3799 -3.2523 -3.1703
 8608SOL     OW37459   4.157   0.217   8.381  0.4066 -0.0261  0.1518
 8608SOL    HW137460   4.162   0.159   8.305 -0.3149  0.3585 -0.1816
 8608SOL    HW237461   4.135   0.300   8.338  1.0456 -0.6476 -1.3927
 8609SOL     OW37462   4.674   2.172   0.840 -0.7345  0.1759 -0.3839
 8609SOL    HW137463   4.650   2.145   0.929 -1.1014 -0.1082 -0.5717
 8609SOL    HW237464   4.697   2.091   0.796 -3.5152  0.3438 -2.1092
 8610SOL     OW37465   1.387   4.136   4.864  0.2023 -0.6972  0.0010
 8610SOL    HW137466   1.344   4.128   4.779 -0.0637 -1.6881  0.2249
 8610SOL    HW237467   1.473   4.129   4.824  0.1171 -1.1487 -0.1069
 8611SOL     OW37468   4.125   1.409  10.574  0.4034 -0.5187  0.1907
 8611SOL    HW137469   4.213   1.373  10.589  0.9124  1.1923  1.2780
 8611SOL    HW237470   4.136   1.496  10.611  1.4665 -0.6123  0.1070
 8612SOL     OW37471   4.682   2.796   5.938  0.3273  0.4551 -0.5242
 8612SOL    HW137472   4.628   2.819   5.862 -0.3150 -0.4666 -0.3565
 8612SOL    HW237473   0.039   2.807   5.921  0.2227  0.1301 -1.3010
 8613SOL     OW37474   4.610   4.507   7.115 -0.0148  0.1079 -0.0692
 8613SOL    HW137475   4.582   4.416   7.104 -1.9243  0.9554 -2.2224
 8613SOL    HW237476   4.544   4.547   7.171 -0.1883 -0.0430 -0.1642
 8614SOL     OW37477   0.374   1.875   1.223  0.2959 -0.7929  0.1583
 8614SOL    HW137478   0.406   1.815   1.155 -2.9905 -2.7395  0.3433
 8614SOL    HW237479   0.381   1.959   1.177  0.4494  0.3552  2.2772
 8615SOL     OW37480   2.438   3.656  14.632  0.0425 -0.0979 -0.2172
 8615SOL    HW137481   2.362   3.598  14.634 -0.8566  1.1099  0.7119
 8615SOL    HW237482   2.476   3.636  14.547 -4.2329 -3.2877 -1.3499
 8616SOL     OW37483   3.664   3.407   2.456  0.4736  0.2892 -0.0131
 8616SOL    HW137484   3.625   3.357   2.527 -1.2831  0.9228 -0.5144
 8616SOL    HW237485   3.618   3.491   2.462  1.8749  1.2022 -1.9814
 8617SOL     OW37486   0.248   4.599   7.797 -0.2100 -0.1036 -0.3536
 8617SOL    HW137487   0.331   4.639   7.770 -0.3835 -1.3019 -2.6827
 8617SOL    HW237488   0.274   4.550   7.875  0.1287  2.0812  0.8985
 8618SOL     OW37489   0.125   0.409   3.062 -1.1543  0.1366  0.3088
 8618SOL    HW137490   0.186   0.451   3.122 -1.0578  0.3019  0.0972
 8618SOL    HW237491   0.075   0.486   3.033 -2.2717 -0.4442  0.7025
 8619SOL     OW37492   2.279   4.433   2.942 -0.9178 -0.1387  0.4856
 8619SOL    HW137493   2.199   4.404   2.985 -0.9725  0.0984  0.5421
 8619SOL    HW237494   2.323   4.348   2.951 -1.1914 -0.0949  2.2637
 8620SOL     OW37495   3.460   2.929   4.684 -0.2638 -0.2768 -0.3566
 8620SOL    HW137496   3.378   2.922   4.732  0.3889 -0.8165  0.6859
 8620SOL    HW237497   3.514   2.893   4.754 -1.3220  1.0618  1.1384
 8621SOL     OW37498   4.720   0.260   5.146  0.0529 -0.4158 -0.1732
 8621SOL    HW137499   4.649   0.242   5.085  2.5611 -2.9351 -2.3421
 8621SOL    HW237500   0.025   0.175   5.160 -2.9126 -1.7775  0.4267
 8622SOL     OW37501   4.496   0.474  14.681 -0.1424 -0.7015  0.3146
 8622SOL    HW137502   4.412   0.428  14.691  1.2244 -3.3706 -0.5427
 8622SOL    HW237503   4.538   0.419  14.616 -1.6325 -0.3705 -0.9197
 8623SOL     OW37504   1.268   1.183  13.664 -0.0436  0.0538  0.3434
 8623SOL    HW137505   1.344   1.212  13.714 -0.0039 -0.9815  0.8941
 8623SOL    HW237506   1.310   1.175  13.578 -1.0259  0.0183 -0.1328
 8624SOL     OW37507   1.295   3.040  14.991  0.7462  0.0803 -0.9238
 8624SOL    HW137508   1.246   3.106  15.038 -0.3470 -3.1362  2.4282
 8624SOL    HW237509   1.290   3.064  14.898 -1.2971  1.5154 -0.4245
 8625SOL     OW37510   4.419   2.915   8.403 -0.1312  0.4624  0.0744
 8625SOL    HW137511   4.480   2.912   8.329  0.1872  1.8705  0.2782
 8625SOL    HW237512   4.402   3.009   8.403  0.7410  0.6009  1.7455
 8626SOL     OW37513   3.231   1.741  13.510  0.0497  0.1630  0.0713
 8626SOL    HW137514   3.265   1.739  13.599  0.3940  0.7677 -0.0499
 8626SOL    HW237515   3.286   1.806  13.466 -0.2527  0.5966  0.3429
 8627SOL     OW37516   0.939   0.437  15.261  0.2694  0.4757  0.0590
 8627SOL    HW137517   0.876   0.369  15.241  0.3676  0.5467 -0.4725
 8627SOL    HW237518   0.885   0.515  15.252 -2.6582 -1.7656 -1.4679
 8628SOL     OW37519   1.905   0.537   2.846  0.2240  0.2236  0.1362
 8628SOL    HW137520   1.841   0.550   2.916 -1.0274 -1.4114 -0.7257
 8628SOL    HW237521   1.951   0.458   2.874 -0.4282 -0.0746  0.3590
 8629SOL     OW37522   4.733   3.846  11.188 -0.8285 -0.5786 -0.5461
 8629SOL    HW137523   4.695   3.775  11.138  0.3834  0.1186 -2.4549
 8629SOL    HW237524   0.090   3.825  11.192 -0.1380  2.5966  0.4646
 8630SOL     OW37525   1.042   0.824   5.090 -0.0488  0.4833 -0.5412
 8630SOL    HW137526   0.999   0.766   5.153  0.0957  1.8737  0.8468
 8630SOL    HW237527   1.002   0.908   5.109 -1.9540 -1.3756  3.7337
 8631SOL     OW37528   2.900   3.982  15.621 -0.1115  0.4007 -0.0781
 8631SOL    HW137529   2.868   3.983  15.531  0.0693 -0.2520 -0.1527
 8631SOL    HW237530   2.953   3.902  15.626  1.9745  1.7965  0.2494
 8632SOL     OW37531   3.245   0.691   8.506 -0.6357 -0.4481  0.5444
 8632SOL    HW137532   3.314   0.650   8.557  0.4923 -0.5875 -1.1232
 8632SOL    HW237533   3.279   0.780   8.496  1.4793 -1.4435 -0.9835
 8633SOL     OW37534   1.581   0.381  17.604 -0.0388 -0.1740 -0.0297
 8633SOL    HW137535   1.589   0.321  17.678  0.5126  0.2075  0.2172
 8633SOL    HW237536   1.654   0.359  17.546  0.2322 -0.7715  0.5444
 8634SOL     OW37537   1.387   4.462  11.752  0.1612 -0.1117  0.1869
 8634SOL    HW137538   1.387   4.367  11.763 -0.2821 -0.2754 -1.1965
 8634SOL    HW237539   1.477   4.490  11.733 -0.7023  1.9117 -0.9202
 8635SOL     OW37540   3.666   2.195   1.411 -0.6701 -0.5516 -0.2667
 8635SOL    HW137541   3.738   2.248   1.378 -0.0059  1.2963  4.1429
 8635SOL    HW237542   3.616   2.258   1.462  0.2664  0.4750 -0.6316
 8636SOL     OW37543   0.836   1.253   1.254 -0.1744 -0.2258 -0.0259
 8636SOL    HW137544   0.795   1.329   1.296  2.1177 -0.1689  2.0872
 8636SOL    HW237545   0.763   1.243   1.192  0.6231  0.0424 -1.0157
 8637SOL     OW37546   2.563   1.766   8.101 -0.2525  0.2716  0.1248
 8637SOL    HW137547   2.554   1.850   8.145  3.3113 -0.0049  1.3388
 8637SOL    HW237548   2.651   1.776   8.066 -0.6404  2.6871 -0.1245
 8638SOL     OW37549   2.153   2.120   5.286 -0.1777 -0.0994 -0.7686
 8638SOL    HW137550   2.226   2.181   5.277  1.5188 -1.6836  2.5280
 8638SOL    HW237551   2.095   2.141   5.213 -0.4165 -2.2911 -1.2127
 8639SOL     OW37552   0.433   0.090   4.057  0.0555 -0.2033 -0.2059
 8639SOL    HW137553   0.342   0.120   4.047 -0.0305  0.0929  1.3906
 8639SOL    HW237554   0.467   0.175   4.084 -0.8494  0.2424 -0.4619
 8640SOL     OW37555   1.905   0.372   7.155 -0.1897 -0.0070  0.1452
 8640SOL    HW137556   1.886   0.411   7.070  1.1722 -0.0708 -0.1862
 8640SOL    HW237557   1.871   0.282   7.149  1.1354 -0.4855 -0.0705
 8641SOL     OW37558   1.921   0.474   2.414 -0.4453 -0.0922 -0.2424
 8641SOL    HW137559   1.895   0.553   2.367  0.4439 -0.6502 -1.6678
 8641SOL    HW237560   1.844   0.458   2.470  1.7669 -1.0082  2.5532
 8642SOL     OW37561   0.708   1.902   3.779 -0.7388  0.2186  0.2738
 8642SOL    HW137562   0.685   1.809   3.786  0.0405 -0.0325 -0.5406
 8642SOL    HW237563   0.620   1.935   3.758 -1.1002 -1.5774 -1.1123
 8643SOL     OW37564   2.954   3.743   4.233 -0.8679 -0.2248 -0.6077
 8643SOL    HW137565   3.021   3.796   4.190 -0.9796  0.6791  0.3433
 8643SOL    HW237566   2.909   3.810   4.284 -1.0390 -1.0598  0.3479
 8644SOL     OW37567   3.327   3.498  10.955 -0.4174  0.4373 -0.2585
 8644SOL    HW137568   3.351   3.445  10.879 -1.6394 -2.7105  1.5067
 8644SOL    HW237569   3.402   3.555  10.972 -2.2951  2.3030  1.8384
 8645SOL     OW37570   1.281   3.121   6.480  0.5705 -0.0714 -0.3230
 8645SOL    HW137571   1.214   3.061   6.449 -0.1915  1.0871 -0.9198
 8645SOL    HW237572   1.267   3.207   6.440 -0.0209  0.1971  0.4665
 8646SOL     OW37573   2.144   3.484   6.651  0.0984  0.0008 -0.5208
 8646SOL    HW137574   2.225   3.535   6.661 -1.4090  1.7293  2.8425
 8646SOL    HW237575   2.119   3.472   6.743 -1.8849  0.5071 -0.9914
 8647SOL     OW37576   4.221   1.073   1.573 -0.1339 -0.1464  0.1758
 8647SOL    HW137577   4.299   1.027   1.604  0.6623  2.1959  1.6459
 8647SOL    HW237578   4.205   1.134   1.645  0.6120 -1.5202  1.5040
 8648SOL     OW37579   3.755   1.205   8.394 -0.0578 -0.1938  0.1748
 8648SOL    HW137580   3.778   1.273   8.457  3.3088 -0.2838 -0.9351
 8648SOL    HW237581   3.694   1.242   8.331  1.5877 -0.0549 -1.3423
 8649SOL     OW37582   0.116   1.533   3.872 -0.4096 -0.0776 -0.8871
 8649SOL    HW137583   0.121   1.559   3.964  1.2363  0.0458 -1.0227
 8649SOL    HW237584   0.202   1.503   3.843 -0.0477 -0.1900  0.3415
 8650SOL     OW37585   3.444   4.010   5.239 -0.0120  0.0537  0.3013
 8650SOL    HW137586   3.364   4.000   5.186 -0.0386  0.5981  0.2403
 8650SOL    HW237587   3.435   4.101   5.268  1.9797  0.5476 -0.6232
 8651SOL     OW37588   1.734   3.823  10.690  0.0834 -0.2266  0.0810
 8651SOL    HW137589   1.740   3.826  10.785 -0.0578  1.7919  0.0196
 8651SOL    HW237590   1.645   3.856  10.679 -0.4814 -2.4192 -1.9969
 8652SOL     OW37591   2.977   3.588   3.653 -0.7390 -0.5133  0.3930
 8652SOL    HW137592   2.962   3.639   3.733 -0.2479 -2.1943  1.5539
 8652SOL    HW237593   2.929   3.649   3.596  0.5486  1.7383  1.6938
 8653SOL     OW37594   0.112   2.966   4.551 -0.1018 -0.0876 -0.2584
 8653SOL    HW137595   0.114   3.058   4.578 -0.7930 -0.4915  1.2037
 8653SOL    HW237596   0.142   2.914   4.625 -0.6155  0.2473  0.1885
 8654SOL     OW37597   1.234   1.291   2.823  0.3671  0.4178 -0.2474
 8654SOL    HW137598   1.309   1.294   2.764  1.5522 -0.7128  1.1765
 8654SOL    HW237599   1.191   1.375   2.808  0.1862  0.7195  1.8538
 8655SOL     OW37600   1.965   0.716   4.153 -0.4133 -0.3169 -0.0675
 8655SOL    HW137601   1.932   0.723   4.063  1.2262 -1.0058 -0.7338
 8655SOL    HW237602   2.053   0.700   4.120 -1.0017 -2.2636 -0.7352
 8656SOL     OW37603   4.080   0.118   4.530 -0.4950  0.0472 -0.2369
 8656SOL    HW137604   4.136   0.168   4.471  0.3855 -0.8359 -0.1257
 8656SOL    HW237605   4.066   0.037   4.482  0.9259 -0.5686  0.3966
 8657SOL     OW37606   1.664   3.203   4.174  0.1085 -0.3458 -0.2356
 8657SOL    HW137607   1.738   3.149   4.146  0.4669  1.0680 -2.0343
 8657SOL    HW237608   1.607   3.182   4.100 -0.7334 -0.8589  0.5577
 8658SOL     OW37609   4.709   0.544   4.397 -0.0127 -0.1330 -0.9536
 8658SOL    HW137610   0.051   0.503   4.434 -1.1590 -1.1796  0.3251
 8658SOL    HW237611   4.649   0.470   4.387 -0.9020  0.5671 -0.7410
 8659SOL     OW37612   1.437   1.096  12.041  0.4530  0.3974  0.1570
 8659SOL    HW137613   1.421   1.154  12.115 -1.2485 -0.1760  0.2444
 8659SOL    HW237614   1.526   1.120  12.017  1.0715 -2.7452 -0.7594
 8660SOL     OW37615   1.642   0.243   8.393 -0.5994  0.1795 -0.3073
 8660SOL    HW137616   1.620   0.296   8.470 -0.8042 -1.1130  0.5179
 8660SOL    HW237617   1.725   0.286   8.373 -0.3987 -0.2187 -0.3279
 8661SOL     OW37618   2.518   2.405   5.853 -0.1747  0.3876 -0.6946
 8661SOL    HW137619   2.527   2.314   5.824 -2.7245  0.3814 -1.4955
 8661SOL    HW237620   2.432   2.427   5.819  0.4091  1.8237 -1.2211
 8662SOL     OW37621   2.176   0.401   3.612 -0.3472 -0.5638 -0.0734
 8662SOL    HW137622   2.093   0.449   3.610  0.7531  1.3937  2.2045
 8662SOL    HW237623   2.221   0.432   3.534 -1.1791 -0.4494 -0.5090
 8663SOL     OW37624   1.968   0.903  12.631  0.1615 -0.5554  0.1463
 8663SOL    HW137625   1.996   0.835  12.692  0.0984  0.2055  1.0175
 8663SOL    HW237626   2.033   0.902  12.560  1.1409 -0.5417  1.0481
 8664SOL     OW37627   3.668   0.961   9.690  0.1973  0.4617  0.3717
 8664SOL    HW137628   3.710   1.035   9.648 -2.8619  2.5328  0.9922
 8664SOL    HW237629   3.609   1.010   9.748  0.2274  0.0551  0.7539
 8665SOL     OW37630   0.441   0.799   8.049  0.5099  0.1985  0.5990
 8665SOL    HW137631   0.494   0.742   7.992 -0.9878  0.0500 -0.6441
 8665SOL    HW237632   0.430   0.744   8.126 -1.1921  1.8770  1.5510
 8666SOL     OW37633   2.047   3.278   7.572 -0.7934  0.1974  0.0488
 8666SOL    HW137634   1.989   3.242   7.505 -1.7500 -0.0793  1.0295
 8666SOL    HW237635   1.979   3.333   7.610 -2.4328 -1.5263 -0.3686
 8667SOL     OW37636   0.909   3.966   3.543  0.4170 -0.2043  0.2298
 8667SOL    HW137637   0.926   3.877   3.574  0.6424  0.5039  2.1474
 8667SOL    HW237638   0.814   3.976   3.551  0.5885  1.0763  0.5704
 8668SOL     OW37639   1.930   1.604   9.357 -0.0336 -1.0638 -0.0186
 8668SOL    HW137640   2.018   1.580   9.327  1.2935  1.8508  1.5717
 8668SOL    HW237641   1.895   1.654   9.284 -1.9119 -2.5251 -0.1056
 8669SOL     OW37642   1.883   1.799  14.484 -0.4476  0.4013 -1.1713
 8669SOL    HW137643   1.806   1.854  14.499 -0.3525 -0.4349  2.3851
 8669SOL    HW237644   1.886   1.746  14.563  0.8579  0.9795 -0.8267
 8670SOL     OW37645   2.333   2.961   5.895  0.6248 -0.4220 -0.0900
 8670SOL    HW137646   2.341   3.051   5.864 -1.1117  0.1784  1.1416
 8670SOL    HW237647   2.418   2.920   5.879 -0.7259 -2.3726 -2.2082
 8671SOL     OW37648   0.947   0.185   3.948  0.3644 -0.2666 -0.3933
 8671SOL    HW137649   0.983   0.139   3.872  1.3664  0.7265 -0.5286
 8671SOL    HW237650   0.903   0.114   3.996  0.5026 -0.1374 -0.0721
 8672SOL     OW37651   3.652   3.141   5.659  0.0150  0.0368 -0.1994
 8672SOL    HW137652   3.585   3.184   5.712 -0.2644  0.1865 -0.6723
 8672SOL    HW237653   3.609   3.156   5.574  1.2709 -1.2093 -1.0564
 8673SOL     OW37654   1.809   2.333   4.473  0.2003  0.4341  0.1894
 8673SOL    HW137655   1.824   2.424   4.448  0.1366  0.1912 -0.7463
 8673SOL    HW237656   1.754   2.299   4.403  0.5638 -1.0077  0.5961
 8674SOL     OW37657   4.473   1.613   2.692  0.1659 -0.4318 -0.3209
 8674SOL    HW137658   4.426   1.660   2.762 -2.4725  0.2169 -2.5478
 8674SOL    HW237659   4.493   1.537   2.746 -0.3293 -0.6685 -0.4702
 8675SOL     OW37660   1.973   0.842   4.719  0.6524 -0.5674  0.4816
 8675SOL    HW137661   1.907   0.870   4.656 -0.6897 -3.4232  0.6336
 8675SOL    HW237662   1.946   0.753   4.742 -1.8598 -0.1944 -0.9976
 8676SOL     OW37663   2.999   2.949   0.823  0.7525 -0.4413 -0.8398
 8676SOL    HW137664   2.950   3.012   0.771  0.1436  0.4705  0.8246
 8676SOL    HW237665   2.937   2.883   0.854 -0.5894  1.9410  1.5396
 8677SOL     OW37666   2.655   1.796   1.533  0.0365 -0.2444 -0.2746
 8677SOL    HW137667   2.585   1.841   1.580 -0.8424 -3.5427  1.5582
 8677SOL    HW237668   2.662   1.719   1.589  1.7833 -0.9879 -1.5268
 8678SOL     OW37669   2.836   2.923   3.703 -0.0382 -0.0106 -0.3907
 8678SOL    HW137670   2.895   2.933   3.628 -0.8126  1.6960 -0.7732
 8678SOL    HW237671   2.905   2.911   3.768  0.3609 -3.5378 -1.4816
 8679SOL     OW37672   0.750   4.322   3.210  0.1562 -0.3758  0.0521
 8679SOL    HW137673   0.813   4.323   3.137 -0.3675 -1.1421 -0.4021
 8679SOL    HW237674   0.806   4.282   3.276  0.6751 -0.5217 -0.4747
 8680SOL     OW37675   3.430   2.992   9.254 -0.3421  0.0748 -0.0215
 8680SOL    HW137676   3.470   3.063   9.306 -1.5770  1.1763 -0.5829
 8680SOL    HW237677   3.510   2.943   9.233  1.0125  2.0588  0.5000
 8681SOL     OW37678   2.708   4.698  12.496  0.2135  0.1545  0.4853
 8681SOL    HW137679   2.742   4.610  12.513 -0.6634 -0.3351 -0.2901
 8681SOL    HW237680   2.713   0.006  12.581  0.6823  1.4263 -0.1992
 8682SOL     OW37681   1.422   4.505   6.388  0.5638 -0.6501 -0.2336
 8682SOL    HW137682   1.419   4.554   6.306 -2.4117  0.1339  0.3136
 8682SOL    HW237683   1.329   4.494   6.409  0.8441 -1.5431  0.5579
 8683SOL     OW37684   4.009   3.418   7.617 -0.2860  0.1555  0.1795
 8683SOL    HW137685   3.978   3.467   7.542  0.1420  0.0585 -0.0581
 8683SOL    HW237686   4.082   3.472   7.646  0.2089  0.3197 -1.3742
 8684SOL     OW37687   0.460   4.172   2.689 -0.0467  0.3810  0.0185
 8684SOL    HW137688   0.409   4.097   2.658 -1.1005 -0.0637  2.8015
 8684SOL    HW237689   0.510   4.128   2.758 -1.3708 -2.3451 -0.7214
 8685SOL     OW37690   2.434   2.869   8.346 -0.0324  0.1309  0.2401
 8685SOL    HW137691   2.454   2.775   8.352 -2.3112 -0.4977 -2.1165
 8685SOL    HW237692   2.388   2.871   8.429  0.0310  1.0084  0.2479
 8686SOL     OW37693   2.178   3.515   0.225 -1.0290  0.5806  0.2651
 8686SOL    HW137694   2.183   3.455   0.151 -0.9153 -0.9369  1.4988
 8686SOL    HW237695   2.156   3.597   0.182 -1.8839 -1.2660 -2.7813
 8687SOL     OW37696   3.388   2.052   9.203  0.0894 -0.0526 -0.0179
 8687SOL    HW137697   3.343   2.053   9.119 -0.4609  0.4142  0.2853
 8687SOL    HW237698   3.477   2.021   9.184 -0.2718 -1.7174  1.0446
 8688SOL     OW37699   1.453   3.600   9.899 -0.9748  0.0487  0.2357
 8688SOL    HW137700   1.361   3.605   9.872 -0.0826  1.5897 -2.5611
 8688SOL    HW237701   1.475   3.693   9.893  1.7593 -0.5906  0.3766
 8689SOL     OW37702   2.582   1.006   6.600  0.5150  0.2759  0.1698
 8689SOL    HW137703   2.512   0.943   6.619  0.7972  0.2947  1.2548
 8689SOL    HW237704   2.537   1.088   6.617  0.8116  1.1587 -3.3928
 8690SOL     OW37705   4.027   1.548   4.940 -0.1634 -0.1007 -0.4073
 8690SOL    HW137706   3.993   1.606   5.008  0.3217 -0.0123 -0.2420
 8690SOL    HW237707   4.074   1.480   4.988 -0.8096  0.1577  0.5865
 8691SOL     OW37708   3.491   2.908   7.729  0.0110  0.5041 -0.0397
 8691SOL    HW137709   3.585   2.917   7.718 -0.0878 -0.2399 -1.4382
 8691SOL    HW237710   3.462   2.998   7.748 -1.2511  0.0453  0.2265
 8692SOL     OW37711   3.670   0.231  12.437 -0.3869 -0.1823  0.1029
 8692SOL    HW137712   3.685   0.284  12.515  1.9161  0.4484 -0.7568
 8692SOL    HW237713   3.761   0.208  12.419 -0.2338  0.7353 -0.2581
 8693SOL     OW37714   0.497   1.040   6.494 -0.0261 -0.0596 -0.7813
 8693SOL    HW137715   0.468   0.949   6.505 -2.1184  0.6692 -0.3744
 8693SOL    HW237716   0.420   1.073   6.540  2.3389  1.3310  2.1719
 8694SOL     OW37717   1.057   3.322   5.742  0.1753  0.0586 -0.4990
 8694SOL    HW137718   1.011   3.365   5.814  0.8460 -0.1540  0.0534
 8694SOL    HW237719   1.119   3.393   5.724  1.4553 -0.7750  0.6479
 8695SOL     OW37720   0.739   1.007   2.735  0.4797  0.0607 -0.2022
 8695SOL    HW137721   0.770   0.996   2.645  1.2301 -1.3566  0.2284
 8695SOL    HW237722   0.813   0.981   2.789 -1.7727 -3.3161  1.2711
 8696SOL     OW37723   0.022   1.380   6.576  0.3575 -0.3733 -0.0947
 8696SOL    HW137724   0.030   1.475   6.566 -2.2337 -0.1084  0.6060
 8696SOL    HW237725   4.700   1.384   6.651  0.3908  1.2870 -0.1474
 8697SOL     OW37726   1.236   0.118  10.825 -0.2524 -0.1000 -0.0248
 8697SOL    HW137727   1.156   0.066  10.831  1.0542 -1.9610  1.2324
 8697SOL    HW237728   1.252   0.129  10.918 -2.7469  2.7185  0.0880
 8698SOL     OW37729   4.268   1.940   4.075 -0.1658 -0.0356  0.1369
 8698SOL    HW137730   4.338   1.912   4.015 -0.5529 -0.7664  0.0229
 8698SOL    HW237731   4.258   2.029   4.042  0.1584 -0.4410 -1.0630
 8699SOL     OW37732   3.201   1.903   2.998 -0.0664 -0.2250  0.4902
 8699SOL    HW137733   3.233   1.816   2.974  1.1313  0.0013  1.2613
 8699SOL    HW237734   3.148   1.907   2.918  0.8444 -0.9938 -0.1578
 8700SOL     OW37735   1.722   0.393   2.144 -0.0717  0.1287  0.1841
 8700SOL    HW137736   1.695   0.408   2.235  1.3670  0.8515  0.4817
 8700SOL    HW237737   1.783   0.466   2.134 -0.9543  1.0662  1.6580
 8701SOL     OW37738   3.898   0.086   3.922 -0.8533 -0.3099 -0.0841
 8701SOL    HW137739   3.926   4.732   3.908 -0.4117 -0.2602  0.4965
 8701SOL    HW237740   3.803   0.079   3.933 -0.6685  1.5896  2.6492
 8702SOL     OW37741   4.665   4.158   5.005  0.1282  0.0726  0.4786
 8702SOL    HW137742   4.677   4.087   5.068  1.6699  0.7332  0.9274
 8702SOL    HW237743   4.571   4.169   5.020  0.1822 -0.2279  1.0380
 8703SOL     OW37744   0.567   1.910  13.119  0.2991  1.0401 -0.0596
 8703SOL    HW137745   0.549   1.827  13.073  3.0802  0.8229 -0.7785
 8703SOL    HW237746   0.513   1.892  13.195 -0.2481 -0.2558 -0.7516
 8704SOL     OW37747   2.048   1.295   4.195  0.4505 -0.6856 -0.3986
 8704SOL    HW137748   2.113   1.248   4.142  0.1506 -1.4840 -0.0711
 8704SOL    HW237749   1.997   1.333   4.123  1.2048 -0.5615 -0.8684
 8705SOL     OW37750   3.357   0.023   3.621  0.2206 -0.3350  0.1609
 8705SOL    HW137751   3.396   4.711   3.549  0.3113  0.6432 -0.4440
 8705SOL    HW237752   3.297   0.082   3.576  2.1895  1.2083 -0.4478
 8706SOL     OW37753   3.205   3.923   5.906  0.6174  0.1887  0.0527
 8706SOL    HW137754   3.222   3.851   5.845 -0.5970  0.5050 -0.6712
 8706SOL    HW237755   3.227   3.997   5.849 -2.9451 -0.3877 -2.0648
 8707SOL     OW37756   2.799   2.585   5.104 -0.3984 -0.4362 -0.3225
 8707SOL    HW137757   2.829   2.578   5.195 -0.8687  1.3548 -0.0305
 8707SOL    HW237758   2.732   2.517   5.114  0.6114 -1.2307  1.1068
 8708SOL     OW37759   1.099   1.466   8.042 -0.3235 -0.1200  0.3477
 8708SOL    HW137760   1.005   1.460   8.059 -0.5270  0.7004 -0.4965
 8708SOL    HW237761   1.104   1.551   7.999  1.1855  0.0468  0.8207
 8709SOL     OW37762   3.635   2.933   2.849  0.4100  0.2426  0.7831
 8709SOL    HW137763   3.700   2.943   2.919  0.7210 -1.8601  0.7740
 8709SOL    HW237764   3.641   2.841   2.827  0.7457  0.7343 -1.1937
 8710SOL     OW37765   2.705   1.922   6.579 -0.1186 -0.1135 -0.1421
 8710SOL    HW137766   2.724   1.980   6.653  0.0155 -0.8693  0.4091
 8710SOL    HW237767   2.733   1.979   6.507 -3.8245  2.3791  0.3784
 8711SOL     OW37768   0.315   2.468   5.092  0.5839  0.2328 -0.1988
 8711SOL    HW137769   0.378   2.404   5.059  0.4795  0.0978 -0.1394
 8711SOL    HW237770   0.237   2.414   5.102  2.2266 -2.0860  0.0755
 8712SOL     OW37771   1.627   0.051   8.672 -0.2664 -0.2588 -0.3026
 8712SOL    HW137772   1.689   4.715   8.666  1.0010  0.6515  1.9405
 8712SOL    HW237773   1.632   0.088   8.584  2.0037 -1.4588 -0.7027
 8713SOL     OW37774   3.667   3.281   6.228  0.0446  0.0668 -0.0383
 8713SOL    HW137775   3.701   3.233   6.153 -0.0332 -0.1512  0.0658
 8713SOL    HW237776   3.580   3.303   6.196  0.2881  2.6732  1.0946
 8714SOL     OW37777   3.514   2.198  14.266  0.3116  0.0567  0.0737
 8714SOL    HW137778   3.462   2.256  14.322 -1.5360  0.0927 -1.6637
 8714SOL    HW237779   3.504   2.239  14.179 -1.2347 -0.4904 -0.0071
 8715SOL     OW37780   2.028   2.246   5.072  0.4124 -0.0806  0.2592
 8715SOL    HW137781   1.940   2.256   5.036 -0.5679 -0.5906  2.5092
 8715SOL    HW237782   2.073   2.196   5.003 -1.0955 -0.9884 -0.0555
 8716SOL     OW37783   2.017   2.536   7.280  0.2554  0.2258 -0.1187
 8716SOL    HW137784   2.071   2.506   7.207 -0.6246 -2.5576  0.3667
 8716SOL    HW237785   2.090   2.557   7.339  0.1411  0.2820  0.0029
 8717SOL     OW37786   0.886   2.324   6.906 -0.3291  0.0359  0.0036
 8717SOL    HW137787   0.835   2.403   6.888 -1.5411 -0.6581  0.3800
 8717SOL    HW237788   0.867   2.268   6.831  2.7767 -0.3298 -0.5296
 8718SOL     OW37789   2.613   2.466   9.228  0.4867  0.2471 -0.0650
 8718SOL    HW137790   2.634   2.421   9.310 -1.3082 -0.2295  0.1315
 8718SOL    HW237791   2.522   2.488   9.248  0.5333  0.2148  0.1741
 8719SOL     OW37792   4.193   3.238   4.908  0.2228 -0.5800 -0.0007
 8719SOL    HW137793   4.112   3.260   4.861  2.0801  3.6493 -1.1742
 8719SOL    HW237794   4.259   3.292   4.866  1.4054 -1.3875  0.8180
 8720SOL     OW37795   3.511   1.380   3.687 -0.2107  0.0489  0.2384
 8720SOL    HW137796   3.509   1.424   3.772  1.2375 -0.3533  0.4813
 8720SOL    HW237797   3.420   1.372   3.659 -0.1594  0.7009 -0.1237
 8721SOL     OW37798   2.885   4.322   4.133 -0.7044 -0.0777 -0.1650
 8721SOL    HW137799   2.933   4.281   4.205 -1.4147  0.3933  0.5831
 8721SOL    HW237800   2.934   4.290   4.057 -0.2228 -0.5680  0.3551
 8722SOL     OW37801   3.532   1.413  13.117 -0.1724 -0.3746 -0.0024
 8722SOL    HW137802   3.476   1.476  13.072 -0.2451 -0.6299 -0.2630
 8722SOL    HW237803   3.500   1.427  13.207  2.1564  1.0731  0.6146
 8723SOL     OW37804   4.351   1.588   0.876 -0.0442 -0.4629 -0.6312
 8723SOL    HW137805   4.357   1.660   0.939  0.7027 -0.4375 -0.7299
 8723SOL    HW237806   4.289   1.532   0.922  0.5251 -1.6930 -1.3650
 8724SOL     OW37807   1.275   1.067   2.348 -0.2020 -0.1580  0.1350
 8724SOL    HW137808   1.286   1.048   2.254 -1.7141 -1.7128  0.2944
 8724SOL    HW237809   1.296   1.161   2.354  1.7910 -0.6401  0.8222
 8725SOL     OW37810   4.259   4.280   8.959  0.2946 -0.0052  0.3640
 8725SOL    HW137811   4.239   4.362   9.005  0.3025  1.3625 -2.0042
 8725SOL    HW237812   4.218   4.303   8.875  4.1053 -2.5593 -2.1698
 8726SOL     OW37813   1.003   1.183   4.966 -0.4326 -0.1406  0.1159
 8726SOL    HW137814   1.036   1.271   4.950  2.6792 -1.1870  0.8160
 8726SOL    HW237815   1.071   1.152   5.026 -2.9706 -3.5922  1.2366
 8727SOL     OW37816   0.585   4.544   5.146 -0.0840  0.4316  0.1736
 8727SOL    HW137817   0.531   4.593   5.084  0.2819 -0.1173 -0.5689
 8727SOL    HW237818   0.542   4.569   5.228  1.0962  1.5427  0.4399
 8728SOL     OW37819   4.012   2.825   7.878  1.1962  0.7216 -0.0487
 8728SOL    HW137820   3.947   2.777   7.929 -0.1031 -0.3117 -2.6716
 8728SOL    HW237821   4.063   2.751   7.845  2.8506  1.5400  0.6720
 8729SOL     OW37822   1.056   4.500   7.407  0.4389  0.1145  0.0341
 8729SOL    HW137823   1.115   4.427   7.389  0.0424 -0.1139 -0.3388
 8729SOL    HW237824   0.975   4.451   7.418  1.3599 -1.7021 -1.2347
 8730SOL     OW37825   3.039   3.749  14.543 -0.4150 -0.8320 -0.4946
 8730SOL    HW137826   2.996   3.779  14.622  1.3322 -0.7656  0.4419
 8730SOL    HW237827   3.097   3.820  14.515  0.3253 -1.5548 -0.8463
 8731SOL     OW37828   1.179   0.456   1.763 -0.4494  0.5585 -0.1705
 8731SOL    HW137829   1.115   0.526   1.746 -1.1103 -0.5189 -2.0401
 8731SOL    HW237830   1.167   0.398   1.688  0.3833 -0.4791  0.5074
 8732SOL     OW37831   3.482   3.750   5.311  0.2355  0.0510  0.0594
 8732SOL    HW137832   3.411   3.703   5.267  1.5744 -1.2476 -0.7027
 8732SOL    HW237833   3.473   3.839   5.277  2.5426 -0.1225 -1.0444
 8733SOL     OW37834   3.983   3.401   2.112 -0.6033  0.2042  0.2433
 8733SOL    HW137835   3.972   3.408   2.207  1.1378  0.5298  0.4188
 8733SOL    HW237836   3.961   3.309   2.104 -0.2062  0.1541 -0.2689
 8734SOL     OW37837   1.615   0.901   4.137  0.3207  0.2732  0.0758
 8734SOL    HW137838   1.668   0.960   4.084 -1.0731  1.8886  0.4829
 8734SOL    HW237839   1.532   0.950   4.139  0.5749  0.6852  0.5934
 8735SOL     OW37840   1.892   3.583   6.555  0.0192  0.2096 -0.2360
 8735SOL    HW137841   1.928   3.657   6.507  0.5276 -0.3731 -0.7590
 8735SOL    HW237842   1.975   3.542   6.577 -0.5154 -2.1027 -2.5069
 8736SOL     OW37843   2.815   2.563   3.334  0.2093 -0.0687 -0.3814
 8736SOL    HW137844   2.757   2.555   3.411  1.4872 -0.1333  0.5709
 8736SOL    HW237845   2.891   2.517   3.369  0.8735  2.3461  1.3783
 8737SOL     OW37846   0.452   1.831  10.921  0.4025  0.5859  0.3808
 8737SOL    HW137847   0.426   1.783  11.000  0.1734  0.7236  0.3905
 8737SOL    HW237848   0.547   1.838  10.933  0.5895 -0.1134 -0.7743
 8738SOL     OW37849   2.270   0.854   6.368  0.0518  0.0475 -0.1783
 8738SOL    HW137850   2.231   0.938   6.392 -0.5939  0.2782 -2.0201
 8738SOL    HW237851   2.338   0.860   6.435 -1.2904  0.4444  1.1536
 8739SOL     OW37852   2.780   2.840   7.048  0.1951 -1.0615  0.2309
 8739SOL    HW137853   2.700   2.808   7.091 -0.9534  1.7110  0.1850
 8739SOL    HW237854   2.847   2.815   7.112  0.7753 -2.1403 -0.7965
 8740SOL     OW37855   0.593   1.885   1.717  0.3426 -0.3878  0.6277
 8740SOL    HW137856   0.607   1.946   1.645 -0.2319 -2.0564 -0.9036
 8740SOL    HW237857   0.686   1.859   1.720  0.3110 -0.4252  1.5313
 8741SOL     OW37858   0.674   4.320  13.541 -0.1078 -0.2640 -0.0469
 8741SOL    HW137859   0.652   4.409  13.568 -1.4596  0.0097 -2.0050
 8741SOL    HW237860   0.768   4.329  13.528 -0.6153  0.0987 -3.5953
 8742SOL     OW37861   0.319   2.632  16.569  0.5036  0.2288  0.4153
 8742SOL    HW137862   0.403   2.660  16.604  1.4766 -2.7377  0.4720
 8742SOL    HW237863   0.316   2.545  16.610  2.7906  0.5202  1.1770
 8743SOL     OW37864   1.279   0.676   2.843  0.3675 -0.2705 -0.2489
 8743SOL    HW137865   1.193   0.697   2.879  0.0547 -1.1065 -0.4967
 8743SOL    HW237866   1.272   0.699   2.751 -2.8461  1.2479  0.3570
 8744SOL     OW37867   4.112   2.953   0.691 -0.0584  0.1452  0.0783
 8744SOL    HW137868   4.197   2.968   0.650 -0.4541  2.3411  0.0849
 8744SOL    HW237869   4.137   2.887   0.755 -0.8475 -0.1614  0.0726
 8745SOL     OW37870   3.254   2.501   5.084  1.0480 -0.2773  0.2052
 8745SOL    HW137871   3.187   2.548   5.135  0.8715  0.8030 -1.0248
 8745SOL    HW237872   3.330   2.503   5.143  0.6267  1.5373  0.6976
 8746SOL     OW37873   0.748   2.359   6.517 -0.2154 -0.1282  0.6327
 8746SOL    HW137874   0.664   2.319   6.539  0.1640 -1.5307 -0.4247
 8746SOL    HW237875   0.750   2.378   6.423 -2.0365  2.2938  1.0928
 8747SOL     OW37876   2.878   0.711   3.478  0.1955 -0.1090  0.2797
 8747SOL    HW137877   2.818   0.779   3.449 -0.6118 -1.5529 -1.4140
 8747SOL    HW237878   2.842   0.626   3.454 -1.9247 -0.4810  4.8151
 8748SOL     OW37879   3.360   1.974   6.508  0.4430  0.3413 -0.2248
 8748SOL    HW137880   3.442   1.980   6.460 -0.1229 -0.1533 -1.2515
 8748SOL    HW237881   3.356   1.878   6.514  0.7886  0.4093  1.0813
 8749SOL     OW37882   4.445   0.630   2.437  0.2841 -0.1463 -0.3945
 8749SOL    HW137883   4.533   0.629   2.475  0.6791  2.2704 -1.2021
 8749SOL    HW237884   4.451   0.552   2.382 -0.4937 -1.1863  1.0245
 8750SOL     OW37885   0.466   1.625   8.268 -0.2961 -0.4140  0.3177
 8750SOL    HW137886   0.435   1.535   8.260 -2.8099  0.6167 -1.4873
 8750SOL    HW237887   0.555   1.610   8.300  0.2397 -1.3218 -1.5527
 8751SOL     OW37888   4.274   2.024   7.404 -0.8532 -0.1225 -0.0477
 8751SOL    HW137889   4.187   1.985   7.393 -0.0445 -1.7711 -0.6848
 8751SOL    HW237890   4.323   1.973   7.339  1.4500 -1.2083  2.5566
 8752SOL     OW37891   2.407   0.814   9.581 -0.2969 -0.4563 -0.4605
 8752SOL    HW137892   2.495   0.777   9.577 -0.3438 -0.7993  1.7944
 8752SOL    HW237893   2.371   0.790   9.666  0.8396 -0.1173  0.1098
 8753SOL     OW37894   1.045   4.140   5.469 -0.1415 -0.5506  0.1804
 8753SOL    HW137895   1.117   4.196   5.443 -0.0207 -0.4749  0.6748
 8753SOL    HW237896   1.076   4.126   5.559  1.0705  1.2835  0.0378
 8754SOL     OW37897   3.532   3.107  14.721  0.1591  0.3658 -0.4684
 8754SOL    HW137898   3.562   3.088  14.810 -1.4026  0.8966  0.1779
 8754SOL    HW237899   3.437   3.106  14.732  0.1950 -0.0714 -0.2083
 8755SOL     OW37900   2.456   0.635   8.402  0.1012  0.1585 -0.4483
 8755SOL    HW137901   2.497   0.558   8.362  1.5094  0.8762 -0.3926
 8755SOL    HW237902   2.496   0.703   8.348  1.7347 -0.4261  0.0384
 8756SOL     OW37903   4.221   2.659   0.663  0.4364  0.1215  0.3404
 8756SOL    HW137904   4.314   2.681   0.668  0.3906 -0.0471  1.9149
 8756SOL    HW237905   4.217   2.602   0.586 -2.2835 -0.7677  1.1424
 8757SOL     OW37906   2.814   4.567   2.487  0.4319  0.2536 -0.0595
 8757SOL    HW137907   2.860   4.634   2.436 -0.1560  0.9584  0.3440
 8757SOL    HW237908   2.822   4.484   2.439 -1.6690 -0.3292  0.6287
 8758SOL     OW37909   4.467   3.517   4.327 -0.3810  0.3710 -0.0001
 8758SOL    HW137910   4.481   3.501   4.234  0.2154 -1.8833  0.4797
 8758SOL    HW237911   4.396   3.454   4.338  2.0888 -2.5918 -1.0717
 8759SOL     OW37912   1.697   1.279   5.367  0.0868 -0.2559 -0.1356
 8759SOL    HW137913   1.792   1.293   5.361 -0.0303  0.4687 -0.2687
 8759SOL    HW237914   1.698   1.243   5.456 -1.9000 -2.6511 -1.0846
 8760SOL     OW37915   3.031   4.110  14.669 -0.2520 -0.4211 -0.1938
 8760SOL    HW137916   3.026   4.095  14.763  0.5277 -1.6434 -0.3571
 8760SOL    HW237917   3.103   4.056  14.636  0.0325  0.7694 -1.5316
 8761SOL     OW37918   0.852   1.685   4.339 -0.3880 -0.2013 -0.8789
 8761SOL    HW137919   0.931   1.727   4.374 -1.7801 -0.0058  1.9906
 8761SOL    HW237920   0.819   1.636   4.415 -0.1330  0.7380 -0.1628
 8762SOL     OW37921   4.662   0.453   3.618 -1.3221  0.3684  0.3516
 8762SOL    HW137922   4.714   0.502   3.554 -0.3536 -1.4245 -0.2309
 8762SOL    HW237923   4.696   0.494   3.698 -0.9888  0.1215  0.3381
 8763SOL     OW37924   2.271   3.310   6.282 -0.3127  0.7793  0.5382
 8763SOL    HW137925   2.175   3.313   6.280 -0.2831  0.0405 -2.5189
 8763SOL    HW237926   2.282   3.300   6.376  1.7546  1.2010  0.3460
 8764SOL     OW37927   0.614   2.674  11.550 -0.6029  0.1204 -0.0934
 8764SOL    HW137928   0.614   2.700  11.642  2.1455  0.4528 -0.2125
 8764SOL    HW237929   0.696   2.705  11.513 -0.4535  1.2108  1.1653
 8765SOL     OW37930   1.513   1.481   6.024  0.1398  0.2030 -0.4775
 8765SOL    HW137931   1.526   1.434   6.106 -1.1577  2.4426  0.9971
 8765SOL    HW237932   1.441   1.434   5.984  0.1507  1.5016 -2.0335
 8766SOL     OW37933   2.290   4.083   4.927 -0.1182 -0.0335  0.0845
 8766SOL    HW137934   2.362   4.102   4.987  0.5479 -0.7581 -0.4907
 8766SOL    HW237935   2.208   4.094   4.976 -1.9529 -2.2109 -2.5343
 8767SOL     OW37936   1.582   1.981   6.075  0.4366  0.4212 -0.3236
 8767SOL    HW137937   1.608   1.896   6.040 -2.8237 -1.1323  1.0929
 8767SOL    HW237938   1.659   2.034   6.051  1.2300  0.2692  1.8196
 8768SOL     OW37939   1.770   1.591   3.800  0.7631 -0.4417  0.5639
 8768SOL    HW137940   1.698   1.528   3.790  1.3006 -1.2584  1.7988
 8768SOL    HW237941   1.753   1.638   3.718  1.9082  1.1378  1.2405
 8769SOL     OW37942   1.537   4.223   5.509  0.4861 -0.9005  0.8086
 8769SOL    HW137943   1.579   4.158   5.565 -2.2995 -0.2663  3.6279
 8769SOL    HW237944   1.608   4.283   5.488  0.0511  0.4938  3.3194
 8770SOL     OW37945   1.319   3.057   1.573 -0.5320  0.2043  0.0105
 8770SOL    HW137946   1.327   2.962   1.573  1.1731  0.3454 -0.3833
 8770SOL    HW237947   1.246   3.071   1.514  1.1633 -1.4286 -2.4570
 8771SOL     OW37948   3.586   0.072  11.666 -0.1238 -0.1239 -0.2708
 8771SOL    HW137949   3.583   0.088  11.572  0.1101  0.7806 -0.1174
 8771SOL    HW237950   3.527   4.734  11.679  0.2288 -0.6174 -1.5309
 8772SOL     OW37951   0.677   4.489   8.140  0.0693  0.2717  0.1621
 8772SOL    HW137952   0.598   4.520   8.185 -0.7690 -2.5443  0.6803
 8772SOL    HW237953   0.650   4.408   8.097 -0.1965  0.2762  0.3235
 8773SOL     OW37954   4.552   0.468   8.712 -1.0676 -0.6350 -0.4399
 8773SOL    HW137955   4.635   0.443   8.673 -1.2530 -1.9468  0.0143
 8773SOL    HW237956   4.551   0.558   8.680  0.9645 -0.3137  0.3542
 8774SOL     OW37957   3.637   3.590   9.297  0.2180 -0.3301 -0.1801
 8774SOL    HW137958   3.698   3.652   9.257  0.5511 -1.6017 -1.6494
 8774SOL    HW237959   3.597   3.647   9.362  1.6251 -0.2089  0.5860
 8775SOL     OW37960   2.993   0.503  13.033  0.4660 -0.2125 -0.3858
 8775SOL    HW137961   3.034   0.475  13.115  0.0830 -2.6812 -1.0355
 8775SOL    HW237962   2.904   0.471  13.050  0.5410 -0.3133 -0.1779
 8776SOL     OW37963   0.933   2.578   8.131 -0.0745  0.1497  0.3419
 8776SOL    HW137964   0.983   2.564   8.212  2.6094  1.3592 -1.1017
 8776SOL    HW237965   0.906   2.487   8.118 -0.0917  0.1710  0.2267
 8777SOL     OW37966   3.927   3.431   9.474 -0.0277  0.4318 -0.0116
 8777SOL    HW137967   3.961   3.519   9.457  0.8266  0.2316  0.6319
 8777SOL    HW237968   3.891   3.442   9.562  0.9741  0.1892  0.4201
 8778SOL     OW37969   0.927   3.382   7.802  0.3002  0.5896 -0.5412
 8778SOL    HW137970   1.001   3.424   7.758  1.0877 -0.6587 -0.4318
 8778SOL    HW237971   0.886   3.451   7.853 -0.1501 -0.8429  1.0373
 8779SOL     OW37972   0.705   3.101  16.741  0.2861 -0.4189 -0.0901
 8779SOL    HW137973   0.614   3.078  16.763 -0.2747  1.3863 -0.5092
 8779SOL    HW237974   0.757   3.082  16.819 -0.0755  0.1199  0.2837
 8780SOL     OW37975   1.476   0.003   5.701 -0.0810 -0.2246  0.3420
 8780SOL    HW137976   1.390   0.035   5.727 -0.2439 -0.4708  0.1050
 8780SOL    HW237977   1.487   0.068   5.631  1.0297 -1.1122 -0.3122
 8781SOL     OW37978   3.547   3.299   2.218 -0.1794 -0.4521 -0.3646
 8781SOL    HW137979   3.609   3.321   2.148 -0.5460 -0.0671 -0.5678
 8781SOL    HW237980   3.568   3.365   2.284 -0.4329 -1.1736  0.4492
 8782SOL     OW37981   4.073   0.643  16.096 -0.0157  0.0459  0.4329
 8782SOL    HW137982   4.010   0.713  16.109 -0.4379 -0.2815  0.1366
 8782SOL    HW237983   4.120   0.675  16.018  1.2064  2.1516  2.0530
 8783SOL     OW37984   2.160   3.890   1.693  0.3472  0.0543 -0.3963
 8783SOL    HW137985   2.091   3.828   1.668  1.6264 -2.4200  2.1465
 8783SOL    HW237986   2.224   3.863   1.628 -0.1242  1.3351 -1.3853
 8784SOL     OW37987   2.772   3.563   2.682  0.4416 -0.1204 -0.0113
 8784SOL    HW137988   2.845   3.625   2.687 -0.0349  0.3893  0.6806
 8784SOL    HW237989   2.818   3.491   2.725 -1.2560 -1.7764 -0.9552
 8785SOL     OW37990   3.520   4.144   4.333 -0.4115 -0.0987 -0.1251
 8785SOL    HW137991   3.436   4.105   4.310  0.4128 -2.1439  0.2573
 8785SOL    HW237992   3.507   4.238   4.322  0.6279  0.4303  3.2640
 8786SOL     OW37993   4.312   3.356  13.354  0.1494 -0.9739 -0.0283
 8786SOL    HW137994   4.337   3.264  13.350  2.1712 -0.3011 -2.6289
 8786SOL    HW237995   4.380   3.392  13.411  2.0630 -2.0391 -1.6366
 8787SOL     OW37996   4.683   2.014   7.426  0.1229 -0.1410 -0.2121
 8787SOL    HW137997   4.708   2.031   7.335 -0.2351  0.7396 -0.1500
 8787SOL    HW237998   4.723   1.927   7.436  0.4114 -0.1247 -1.2593
 8788SOL     OW37999   2.607   4.065   6.645 -0.1084  0.2160 -0.0178
 8788SOL    HW138000   2.554   3.996   6.604 -0.2723  0.5608 -0.3920
 8788SOL    HW238001   2.690   4.050   6.599  0.9465  0.8841  1.6676
 8789SOL     OW38002   1.889   1.688   5.803 -0.5175 -0.0116 -0.2725
 8789SOL    HW138003   1.965   1.728   5.844  0.4982 -1.2334 -0.9572
 8789SOL    HW238004   1.927   1.610   5.762  0.6164 -0.5081  1.7274
 8790SOL     OW38005   0.460   2.375  10.854 -0.1104  0.7799 -0.2045
 8790SOL    HW138006   0.459   2.311  10.783  0.4977 -1.9662  2.2279
 8790SOL    HW238007   0.366   2.394  10.865  0.0340  0.6420  1.3049
 8791SOL     OW38008   1.553   3.644   0.535  0.7606  0.6297 -0.3312
 8791SOL    HW138009   1.587   3.601   0.614  0.9790  1.9934  0.3232
 8791SOL    HW238010   1.518   3.722   0.577 -1.1806 -0.7617  0.6147
 8792SOL     OW38011   0.491   2.161   8.098 -0.5750  0.1292  0.4908
 8792SOL    HW138012   0.464   2.152   8.007  0.0292 -1.4400  0.4581
 8792SOL    HW238013   0.405   2.155   8.139 -1.2585 -0.3735 -1.0045
 8793SOL     OW38014   0.154   3.957   6.200 -0.6293  0.4748  0.3935
 8793SOL    HW138015   0.210   3.922   6.270  0.0880  1.1275  0.1543
 8793SOL    HW238016   0.071   3.980   6.239 -0.9368  0.3105 -0.1609
 8794SOL     OW38017   3.114   3.716   6.658 -0.1875  0.0554 -0.2431
 8794SOL    HW138018   3.097   3.754   6.743 -1.2764 -1.0042  0.0217
 8794SOL    HW238019   3.023   3.701   6.634 -0.0326 -0.3226 -0.5964
 8795SOL     OW38020   2.261   2.191   9.099  0.3291 -1.0821 -0.1944
 8795SOL    HW138021   2.276   2.248   9.174 -2.2580  0.9316 -1.2055
 8795SOL    HW238022   2.190   2.241   9.059  0.8122 -0.5419 -0.3783
 8796SOL     OW38023   4.494   4.735   0.041 -0.3760 -0.2232 -0.2368
 8796SOL    HW138024   4.549   4.696   0.108  0.5786 -0.3688 -1.1115
 8796SOL    HW238025   4.447   4.663  17.742 -0.9992 -0.0863  0.2092
 8797SOL     OW38026   1.649   3.440   6.575  0.1703 -0.4728 -0.1811
 8797SOL    HW138027   1.646   3.447   6.671 -0.6580 -1.9788 -0.0867
 8797SOL    HW238028   1.720   3.502   6.562 -0.5021  0.3744  0.1831
 8798SOL     OW38029   3.303   0.954   8.513  0.0973 -0.6646 -0.0415
 8798SOL    HW138030   3.302   0.983   8.604  2.1726 -0.6885 -0.0188
 8798SOL    HW238031   3.360   1.017   8.469  0.5633  0.0068  1.5230
 8799SOL     OW38032   1.652   1.849   4.581 -0.4457 -0.3084  0.2012
 8799SOL    HW138033   1.701   1.921   4.620  0.1466  0.5592 -2.1682
 8799SOL    HW238034   1.709   1.775   4.604  0.6322  0.7216  0.8525
 8800SOL     OW38035   2.299   4.716   7.237  0.8008  0.1468  0.2588
 8800SOL    HW138036   2.332   4.649   7.297 -3.4791 -0.7185  1.5985
 8800SOL    HW238037   2.353   0.055   7.262  0.4070  0.6730 -0.5010
 8801SOL     OW38038   4.217   2.112   8.128 -0.4402 -0.0217  0.1257
 8801SOL    HW138039   4.155   2.066   8.185  0.9627 -1.3969  0.5178
 8801SOL    HW238040   4.186   2.075   8.045 -1.9188  0.3767  0.4947
 8802SOL     OW38041   3.024   0.177  17.419 -0.0412 -0.0481 -0.0068
 8802SOL    HW138042   2.965   0.122  17.368 -0.1790  0.9960 -0.9742
 8802SOL    HW238043   3.108   0.140  17.393 -0.0654 -0.3834  0.4056
 8803SOL     OW38044   1.813   2.251   6.471  0.2247 -0.2096  0.4289
 8803SOL    HW138045   1.824   2.218   6.560 -0.4020  0.5129  0.7832
 8803SOL    HW238046   1.763   2.183   6.425  0.3181  0.9136 -1.3292
 8804SOL     OW38047   4.215   1.599   3.850 -0.3181 -0.1037  0.1636
 8804SOL    HW138048   4.241   1.607   3.942 -0.0962  0.2009  0.0769
 8804SOL    HW238049   4.149   1.668   3.839  0.6173  0.7524 -0.0177
 8805SOL     OW38050   2.827   1.200   6.517 -0.0755  0.0233 -0.2345
 8805SOL    HW138051   2.820   1.288   6.555 -0.7129  0.1167 -0.5702
 8805SOL    HW238052   2.900   1.167   6.569  0.0134  1.1587  0.3721
 8806SOL     OW38053   2.013   4.613   9.056  0.3450  0.0689  0.2989
 8806SOL    HW138054   1.958   4.569   8.991  0.9887 -0.3066  0.0055
 8806SOL    HW238055   2.101   4.586   9.029  0.5857  1.2880 -0.1365
 8807SOL     OW38056   2.115   3.174  13.115 -0.0834  0.3306 -0.1902
 8807SOL    HW138057   2.031   3.182  13.159  0.3564 -0.7679  0.8604
 8807SOL    HW238058   2.174   3.228  13.168  2.3888 -1.5750 -1.0059
 8808SOL     OW38059   0.037   2.772  12.248  0.3938 -0.5103 -0.6063
 8808SOL    HW138060   0.111   2.739  12.300 -1.4351 -5.3176 -0.9819
 8808SOL    HW238061   0.072   2.855  12.218  0.3104  0.3271  1.5991
 8809SOL     OW38062   3.668   0.595   5.062  0.1742 -0.1272 -0.2543
 8809SOL    HW138063   3.623   0.666   5.107 -1.2523 -1.1783  0.0030
 8809SOL    HW238064   3.607   0.521   5.065  0.4769 -0.4472 -2.3655
 8810SOL     OW38065   1.550   0.351   7.764  0.4431  0.3367 -0.0051
 8810SOL    HW138066   1.507   0.342   7.849 -1.1733  1.9533 -0.6320
 8810SOL    HW238067   1.468   0.371   7.719  0.4349 -0.6453 -0.4159
 8811SOL     OW38068   0.766   2.776   1.266  0.1951 -0.1862  0.2314
 8811SOL    HW138069   0.720   2.735   1.192  0.0782 -0.4410  0.4452
 8811SOL    HW238070   0.748   2.869   1.257 -0.2379 -0.2834  0.0708
 8812SOL     OW38071   0.931   3.868   7.101 -1.5568  0.2088  0.7173
 8812SOL    HW138072   0.893   3.817   7.030 -0.9314  0.5701  0.1246
 8812SOL    HW238073   0.907   3.955   7.069 -0.8827  0.2577  0.3494
 8813SOL     OW38074   4.119   1.906   6.151 -0.2201 -0.1672  0.5123
 8813SOL    HW138075   4.086   1.951   6.073 -0.2305  0.5115  0.9130
 8813SOL    HW238076   4.128   1.980   6.211  2.9403  1.6943 -2.2785
 8814SOL     OW38077   0.122   0.916   6.745 -0.4880 -0.6792 -0.0125
 8814SOL    HW138078   0.147   0.917   6.837  2.0301 -0.9532 -0.6743
 8814SOL    HW238079   0.041   0.866   6.752 -0.7804  0.1032  2.1716
 8815SOL     OW38080   4.259   0.456   2.844  0.3785 -0.3265 -0.7229
 8815SOL    HW138081   4.188   0.435   2.906  3.2510 -0.0826  2.6380
 8815SOL    HW238082   4.332   0.477   2.902 -0.7423 -1.2561  1.0378
 8816SOL     OW38083   2.846   3.890   1.651 -0.3053  0.1179  0.6690
 8816SOL    HW138084   2.905   3.961   1.626 -0.9031  1.1604  2.2588
 8816SOL    HW238085   2.778   3.912   1.587  0.7852 -1.6492 -1.1329
 8817SOL     OW38086   3.740   1.497   8.191 -0.0420  0.0588 -0.8104
 8817SOL    HW138087   3.676   1.433   8.223 -2.3449  3.5073  1.5332
 8817SOL    HW238088   3.819   1.478   8.243  1.0672 -1.2752 -3.0063
 8818SOL     OW38089   0.676   3.523   5.888  0.0491 -0.0665  0.7094
 8818SOL    HW138090   0.633   3.597   5.844 -0.7999  0.5820  2.6263
 8818SOL    HW238091   0.639   3.531   5.976 -1.9264 -1.0601 -0.0293
 8819SOL     OW38092   2.289   3.709   3.556  0.0302 -0.1716 -0.3149
 8819SOL    HW138093   2.205   3.702   3.600 -0.7253  3.8497 -1.1094
 8819SOL    HW238094   2.260   3.655   3.482 -0.0362 -3.4825  2.1321
 8820SOL     OW38095   3.439   2.985  12.910 -0.1810  0.0108  0.1850
 8820SOL    HW138096   3.370   2.994  12.845 -0.5884  0.1225  0.6361
 8820SOL    HW238097   3.466   3.077  12.914 -1.8226  0.4557  0.9868
 8821SOL     OW38098   0.982   2.800   1.428  0.2801  0.2311 -0.4961
 8821SOL    HW138099   0.937   2.774   1.347 -0.8250  2.1313 -0.4714
 8821SOL    HW238100   0.904   2.817   1.480  0.1577 -2.3021  0.1493
 8822SOL     OW38101   0.396   2.401   6.080  0.0663  0.1797  0.6602
 8822SOL    HW138102   0.438   2.343   6.142  3.0094  0.3691 -1.1388
 8822SOL    HW238103   0.307   2.406   6.114 -0.6165 -1.6669 -0.8371
 8823SOL     OW38104   3.174   2.679   6.938 -0.0018  0.0637 -0.0802
 8823SOL    HW138105   3.230   2.735   6.884  0.1729 -0.7850 -0.7711
 8823SOL    HW238106   3.085   2.698   6.910 -0.9789 -2.2269  1.4731
 8824SOL     OW38107   1.399   4.194  10.752 -0.3382  0.0205  0.4298
 8824SOL    HW138108   1.345   4.211  10.675 -0.8083 -0.3543  0.6768
 8824SOL    HW238109   1.351   4.251  10.813  0.9726  0.3174  1.1857
 8825SOL     OW38110   4.196   1.702   7.186  0.1111  0.6644  0.1342
 8825SOL    HW138111   4.275   1.756   7.193  1.7885 -1.6296 -0.7481
 8825SOL    HW238112   4.130   1.767   7.210  2.1390  1.7088  2.8035
 8826SOL     OW38113   0.006   0.261   2.051  0.6104 -0.5660 -0.0471
 8826SOL    HW138114   4.727   0.172   2.082 -0.7046 -0.8333 -1.5177
 8826SOL    HW238115   4.692   0.323   2.104  0.3490  0.1860 -1.1679
 8827SOL     OW38116   0.488   2.136   6.820  0.3693  0.0755  0.4973
 8827SOL    HW138117   0.517   2.062   6.767  0.5490 -0.6927  1.6757
 8827SOL    HW238118   0.543   2.122   6.897 -0.4437 -3.2406  0.4323
 8828SOL     OW38119   1.327   3.530   0.171  0.7799 -0.1295 -0.1804
 8828SOL    HW138120   1.299   3.447   0.132 -0.9926  0.0640  0.7268
 8828SOL    HW238121   1.347   3.514   0.263 -2.6867 -1.0797  0.4070
 8829SOL     OW38122   1.168   0.391  11.032  0.0754  0.2457 -0.4951
 8829SOL    HW138123   1.261   0.367  11.029  0.6742  2.6095 -0.8035
 8829SOL    HW238124   1.172   0.486  11.046 -0.5988  0.1577  0.2596
 8830SOL     OW38125   0.460   4.630   3.678  0.4242 -0.3609 -0.0826
 8830SOL    HW138126   0.517   4.683   3.622 -1.9456  2.3333  0.0031
 8830SOL    HW238127   0.516   4.568   3.724 -0.8155 -1.1377  0.3815
 8831SOL     OW38128   0.241   1.818   1.441 -0.0009 -0.5557  0.0069
 8831SOL    HW138129   0.310   1.845   1.380 -1.0841 -1.6110 -1.6647
 8831SOL    HW238130   0.296   1.757   1.491 -0.1254 -0.1360  0.6598
 8832SOL     OW38131   0.619   0.588   4.651 -0.0480  0.0127  0.2512
 8832SOL    HW138132   0.564   0.666   4.654  0.6015  0.6439 -4.5931
 8832SOL    HW238133   0.693   0.611   4.708 -0.1365  0.3005  0.2457
 8833SOL     OW38134   0.492   3.582   7.193 -0.0119  0.6911  0.5625
 8833SOL    HW138135   0.575   3.535   7.205 -0.1350  0.0951 -0.9243
 8833SOL    HW238136   0.437   3.542   7.260  1.1316 -0.1175  1.0205
 8834SOL     OW38137   4.319   2.013  16.233 -0.1741 -0.3172  0.1306
 8834SOL    HW138138   4.396   2.051  16.191 -0.9622  1.5111  0.3315
 8834SOL    HW238139   4.307   1.931  16.186  0.9787  0.1421 -0.9582
 8835SOL     OW38140   3.974   4.063   8.707  0.1637 -0.4915  0.2044
 8835SOL    HW138141   3.936   3.975   8.718  1.4256 -0.9673  0.7116
 8835SOL    HW238142   4.022   4.073   8.789  1.2354 -0.0477 -0.4835
 8836SOL     OW38143   3.743   4.545   6.271  0.2916 -0.0537 -0.6577
 8836SOL    HW138144   3.649   4.554   6.254  0.4297  0.2214 -1.2810
 8836SOL    HW238145   3.746   4.613   6.338 -1.7225  0.2565 -0.8690
 8837SOL     OW38146   4.119   1.200   4.336 -0.2612 -0.4405 -0.8701
 8837SOL    HW138147   4.196   1.249   4.364 -0.8088  0.1209 -0.3373
 8837SOL    HW238148   4.067   1.201   4.417 -1.7482 -1.7231 -1.8136
 8838SOL     OW38149   3.669   3.586   3.848 -0.3862  0.5160  0.2114
 8838SOL    HW138150   3.730   3.569   3.776 -2.1206  2.9664 -1.8782
 8838SOL    HW238151   3.613   3.659   3.819  0.5287  1.1217 -0.0120
 8839SOL     OW38152   2.259   0.490   4.610 -0.0489 -0.0596  0.7811
 8839SOL    HW138153   2.252   0.399   4.640 -0.6610 -0.1910  0.2234
 8839SOL    HW238154   2.254   0.546   4.688 -0.6932  0.3755  0.4185
 8840SOL     OW38155   2.907   4.130   3.209 -0.3380 -0.0727 -0.1281
 8840SOL    HW138156   2.954   4.056   3.170 -3.3273 -1.0624 -1.8592
 8840SOL    HW238157   2.950   4.200   3.159  1.3996  0.0536  1.5532
 8841SOL     OW38158   2.760   4.678  16.180 -0.2499  0.0534 -0.6183
 8841SOL    HW138159   2.780   0.032  16.207  2.3404 -1.2893  1.9487
 8841SOL    HW238160   2.848   4.656  16.150 -0.7226  0.0107 -1.9507
 8842SOL     OW38161   0.249   3.397   8.360  0.2184 -0.1622  0.4284
 8842SOL    HW138162   0.193   3.366   8.288 -1.9931  0.3843  1.9023
 8842SOL    HW238163   0.277   3.485   8.337 -1.8439  0.4344  0.1480
 8843SOL     OW38164   3.512   0.330   4.787 -0.2051 -0.0273  0.1613
 8843SOL    HW138165   3.572   0.397   4.756 -1.1055  0.2598 -0.9925
 8843SOL    HW238166   3.454   0.387   4.837  0.4168  1.3870 -0.7231
 8844SOL     OW38167   3.509   2.705   5.844  0.0059  0.4290 -0.1066
 8844SOL    HW138168   3.573   2.648   5.887  1.3493  2.7240  0.9307
 8844SOL    HW238169   3.559   2.782   5.817 -0.6844  0.5296 -1.1006
 8845SOL     OW38170   3.252   2.201   4.259 -0.0659  0.2284  0.0311
 8845SOL    HW138171   3.302   2.120   4.258  2.0151  1.5473 -2.6875
 8845SOL    HW238172   3.252   2.215   4.354  0.0113  1.7775 -0.1858
 8846SOL     OW38173   0.336   4.651  13.962 -0.4245 -0.4580 -0.2895
 8846SOL    HW138174   0.274   4.695  14.020  2.5016  1.3509  1.4393
 8846SOL    HW238175   0.278   4.651  13.885 -0.5061  2.1844 -0.2277
 8847SOL     OW38176   0.227   0.684   2.626  0.6492  0.0550 -0.1040
 8847SOL    HW138177   0.316   0.663   2.654  1.0225  2.0249  0.1526
 8847SOL    HW238178   0.205   0.742   2.699  1.7422  0.0916  0.1998
 8848SOL     OW38179   2.885   4.224   3.733 -0.2565 -0.1871  0.3437
 8848SOL    HW138180   2.879   4.243   3.639 -0.0085  1.4194  0.6419
 8848SOL    HW238181   2.814   4.276   3.770  0.1878  0.7923 -0.1546
 8849SOL     OW38182   4.728   3.543   8.926  0.8118 -0.1370  0.7390
 8849SOL    HW138183   0.031   3.463   8.960 -3.5606 -1.6165  2.1836
 8849SOL    HW238184   0.010   3.527   8.833  0.0233 -0.4221  0.6336
 8850SOL     OW38185   1.291   0.608   4.773 -0.3616 -0.2380 -0.0533
 8850SOL    HW138186   1.234   0.675   4.809  0.1327 -0.5381  1.2720
 8850SOL    HW238187   1.249   0.532   4.811  1.4361 -1.2865 -0.1393
 8851SOL     OW38188   0.037   3.000   5.609 -0.1017  0.3275  0.5453
 8851SOL    HW138189   4.731   3.083   5.632  0.7422  1.3726 -1.6678
 8851SOL    HW238190   4.710   2.930   5.623  0.0206 -0.0957 -1.0137
 8852SOL     OW38191   1.118   2.654   5.747 -0.6682  0.1240 -0.6392
 8852SOL    HW138192   1.071   2.634   5.828 -0.9984  0.6199 -0.7071
 8852SOL    HW238193   1.126   2.748   5.765  1.5940 -0.2484  0.2987
 8853SOL     OW38194   0.422   2.934  13.877  0.1743 -0.1384 -0.3224
 8853SOL    HW138195   0.357   2.874  13.913  1.3152 -0.9943  0.3319
 8853SOL    HW238196   0.504   2.885  13.886  0.0680 -0.0126  1.4469
 8854SOL     OW38197   4.122   1.834   0.573  0.3170 -0.6763 -0.3687
 8854SOL    HW138198   4.204   1.788   0.555  0.8333 -0.4383  1.3977
 8854SOL    HW238199   4.153   1.895   0.640  0.7428  0.3785 -1.5331
 8855SOL     OW38200   4.465   0.013   2.299 -0.4463  0.5517 -0.1704
 8855SOL    HW138201   4.430   4.660   2.300  0.0061  0.3637 -1.8026
 8855SOL    HW238202   4.542   0.005   2.243 -0.9854 -1.5954 -0.6376
 8856SOL     OW38203   2.280   0.060  11.445 -0.2937 -0.4557 -0.0039
 8856SOL    HW138204   2.188   0.080  11.429 -0.6009 -2.0312 -0.1400
 8856SOL    HW238205   2.312   0.055  11.355  1.0572 -0.7159  0.4770
 8857SOL     OW38206   4.059   0.510   7.981 -0.2681 -0.2927 -0.6756
 8857SOL    HW138207   3.987   0.556   7.937 -0.3920 -0.6210 -0.8185
 8857SOL    HW238208   4.029   0.420   7.993  1.3729 -0.7125  0.2778
 8858SOL     OW38209   3.520   0.255  16.746  0.3513  0.4499 -0.1281
 8858SOL    HW138210   3.610   0.226  16.736  0.8659  1.2810  2.2215
 8858SOL    HW238211   3.537   0.347  16.769 -0.4202  0.9163 -1.4005
 8859SOL     OW38212   1.698   3.626   6.243  0.1311 -0.5160  0.7056
 8859SOL    HW138213   1.778   3.673   6.221  0.7463 -0.7614  2.4003
 8859SOL    HW238214   1.685   3.660   6.332 -3.1945 -2.8140  1.0889
 8860SOL     OW38215   0.052   2.324   9.304 -0.5114  0.4249  0.2853
 8860SOL    HW138216   4.703   2.326   9.261  0.3384  1.0753 -1.3734
 8860SOL    HW238217   0.069   2.415   9.280 -2.2656  1.2449  2.1202
 8861SOL     OW38218   0.876   1.110  17.567 -0.7056 -0.0947 -0.5472
 8861SOL    HW138219   0.963   1.142  17.546 -0.5877 -1.7422 -2.5509
 8861SOL    HW238220   0.878   1.032  17.512  0.6758  0.0201 -0.6602
 8862SOL     OW38221   3.173   0.175   2.864  0.3268  0.0782 -0.4819
 8862SOL    HW138222   3.198   0.139   2.779  1.7079  0.1467 -0.1080
 8862SOL    HW238223   3.256   0.175   2.913  0.0951  0.2629 -0.0911
 8863SOL     OW38224   2.543   4.468   4.855 -0.6587  0.2065 -0.1773
 8863SOL    HW138225   2.448   4.479   4.863 -0.3178  2.0307  1.1011
 8863SOL    HW238226   2.564   4.560   4.865  2.7966 -0.6099  0.0439
 8864SOL     OW38227   2.655   4.494   8.162 -0.1227 -0.7433 -0.1033
 8864SOL    HW138228   2.740   4.496   8.206  0.4790  3.4147 -1.5131
 8864SOL    HW238229   2.631   4.401   8.164 -0.1520 -0.7461 -0.5487
 8865SOL     OW38230   3.149   4.732  15.334  0.0133 -0.5294  0.7403
 8865SOL    HW138231   3.216   4.691  15.280  0.4016  1.3653 -0.2402
 8865SOL    HW238232   3.162   0.084  15.300 -2.1024  0.0022  1.3395
 8866SOL     OW38233   0.395   2.991  14.990  0.2276  0.2573 -0.3724
 8866SOL    HW138234   0.375   2.911  14.942  0.9742  0.1157 -0.4458
 8866SOL    HW238235   0.454   3.029  14.925  2.2729 -1.0874  0.6947
 8867SOL     OW38236   2.330   1.280  11.546 -0.1235  0.0743 -0.2592
 8867SOL    HW138237   2.343   1.375  11.539  0.6383  0.0545  0.8311
 8867SOL    HW238238   2.402   1.259  11.605  1.4144  2.2901 -1.3309
 8868SOL     OW38239   1.103   1.877   4.849 -0.3070  0.3356 -0.4133
 8868SOL    HW138240   1.117   1.949   4.788  0.0527 -0.1715 -0.9329
 8868SOL    HW238241   1.181   1.822   4.837 -0.4621  0.6147 -2.7310
 8869SOL     OW38242   1.765   3.539   2.659  0.1019  0.2143 -0.0192
 8869SOL    HW138243   1.674   3.543   2.688  0.1042 -2.0024  0.3418
 8869SOL    HW238244   1.779   3.615   2.603 -0.0816 -0.9965 -1.7130
 8870SOL     OW38245   4.693   4.249   9.453  0.4837  0.1025 -0.4607
 8870SOL    HW138246   4.715   4.166   9.411  0.3201 -0.9031  1.4302
 8870SOL    HW238247   0.001   4.237   9.537 -0.6108  2.1459  0.4185
 8871SOL     OW38248   0.151   1.260   8.124  0.4706 -0.0200  0.2075
 8871SOL    HW138249   0.149   1.193   8.055 -1.2369 -0.3659  0.5859
 8871SOL    HW238250   0.075   1.313   8.099  0.1913 -0.6305 -0.2537
 8872SOL     OW38251   1.562   2.466   6.741 -0.0081  0.5500  0.8753
 8872SOL    HW138252   1.545   2.386   6.691 -1.5891  1.0517  0.6168
 8872SOL    HW238253   1.536   2.533   6.678 -2.3918 -2.6317 -1.5026
 8873SOL     OW38254   3.114   0.894   9.349  0.0074 -0.6777 -0.8688
 8873SOL    HW138255   3.205   0.866   9.337 -0.4802 -2.1804 -1.0219
 8873SOL    HW238256   3.121   0.984   9.382 -1.0398 -0.6563 -0.7056
 8874SOL     OW38257   4.139   4.099   6.604 -0.7624  0.4367  0.3037
 8874SOL    HW138258   4.119   4.062   6.690  4.0559 -1.1293  0.7089
 8874SOL    HW238259   4.208   4.037   6.582 -0.0797  1.6950 -1.1267
 8875SOL     OW38260   2.092   1.073  14.983  0.1254 -0.3703 -0.2162
 8875SOL    HW138261   2.109   0.980  14.975  1.2025 -0.1604 -0.3025
 8875SOL    HW238262   2.086   1.113  14.897  1.3698  0.1876 -0.0366
 8876SOL     OW38263   0.931   3.883   4.645  0.2451  0.3921 -0.0908
 8876SOL    HW138264   0.886   3.940   4.707 -0.9003 -2.4097  1.6373
 8876SOL    HW238265   0.881   3.887   4.563 -0.1025 -0.2115  0.0904
 8877SOL     OW38266   1.849   3.679   7.597  0.1852  0.0170  0.4793
 8877SOL    HW138267   1.910   3.680   7.671  0.7273 -0.7266  0.0452
 8877SOL    HW238268   1.809   3.763   7.618  0.2367 -0.1649  1.2872
 8878SOL     OW38269   3.102   3.316   7.560  0.3447 -0.4880 -0.0555
 8878SOL    HW138270   3.142   3.304   7.646 -1.9003 -0.1297  1.0486
 8878SOL    HW238271   3.024   3.370   7.574  1.8594  1.4203  0.9686
 8879SOL     OW38272   2.324   1.730  11.326 -0.1703 -0.2740  0.4334
 8879SOL    HW138273   2.281   1.694  11.248  0.5882 -1.8702  0.7645
 8879SOL    HW238274   2.255   1.795  11.343 -0.9831 -1.1322  0.4245
 8880SOL     OW38275   0.619   1.246   8.129 -0.6357 -0.5136 -0.0926
 8880SOL    HW138276   0.599   1.216   8.040 -0.4361  1.1662 -0.7223
 8880SOL    HW238277   0.534   1.277   8.161 -0.0884 -0.4719  1.3066
 8881SOL     OW38278   0.748   1.536   7.799  0.0635  0.1995 -0.5302
 8881SOL    HW138279   0.793   1.552   7.883  1.0177  3.0738 -1.5605
 8881SOL    HW238280   0.779   1.608   7.744  1.6316 -0.2688 -0.2539
 8882SOL     OW38281   1.576   1.147   2.840  0.0606  0.2803 -0.0729
 8882SOL    HW138282   1.536   1.189   2.764 -1.2433  1.8691  1.4985
 8882SOL    HW238283   1.612   1.219   2.892  0.4388 -0.6347  0.9316
 8883SOL     OW38284   3.890   0.573   4.908 -0.1615 -0.2648  0.1498
 8883SOL    HW138285   3.951   0.641   4.936  0.1123  0.1848 -1.5391
 8883SOL    HW238286   3.822   0.576   4.975 -0.2571 -2.6847  0.1540
 8884SOL     OW38287   0.132   0.381   0.278  0.3273 -0.3214  0.4004
 8884SOL    HW138288   0.107   0.455   0.332  1.9049 -0.5574  1.4817
 8884SOL    HW238289   0.218   0.407   0.245  0.5461 -1.5444  0.0120
 8885SOL     OW38290   4.728   4.494   7.885  0.9539 -0.5690 -0.6086
 8885SOL    HW138291   4.645   4.490   7.839  1.2320  2.4185 -1.3581
 8885SOL    HW238292   0.054   4.537   7.825  1.8243 -0.3488  0.4528
 8886SOL     OW38293   0.015   2.273   2.273 -0.1112  0.2072  0.1880
 8886SOL    HW138294   0.016   2.215   2.197 -3.3489 -0.4281  0.6223
 8886SOL    HW238295   0.084   2.241   2.330 -1.4854 -1.5339  0.8735
 8887SOL     OW38296   0.016   1.262   7.461 -0.1355  0.6785  0.6121
 8887SOL    HW138297   4.686   1.290   7.525  0.6871  0.5772  1.5079
 8887SOL    HW238298   0.043   1.178   7.496  0.1718  0.4866 -0.0872
 8888SOL     OW38299   4.471   0.585  11.278 -0.5399  0.3048 -0.0424
 8888SOL    HW138300   4.382   0.551  11.268  0.3685 -1.4041 -2.1443
 8888SOL    HW238301   4.460   0.602  11.372  1.6416  0.7230  0.1511
 8889SOL     OW38302   3.376   0.735   9.642  0.5172 -0.2253 -0.2693
 8889SOL    HW138303   3.330   0.756   9.724 -3.2259 -1.5570 -2.0389
 8889SOL    HW238304   3.382   0.821   9.600 -0.0061  0.6039  1.3262
 8890SOL     OW38305   3.355   2.515   8.752  0.3259 -0.7675  0.6651
 8890SOL    HW138306   3.387   2.569   8.679  0.6161  0.7178  1.9091
 8890SOL    HW238307   3.360   2.575   8.826  2.0466 -0.6272  0.4198
 8891SOL     OW38308   1.381   1.876   1.805 -0.5488 -0.0665 -0.3922
 8891SOL    HW138309   1.305   1.822   1.781 -0.5422  0.2123 -1.0322
 8891SOL    HW238310   1.343   1.960   1.781  1.1683  0.8309  0.1069
 8892SOL     OW38311   3.173   1.411   6.280  0.2473 -0.4284  0.6344
 8892SOL    HW138312   3.164   1.444   6.370  1.3962 -0.2201  0.6725
 8892SOL    HW238313   3.217   1.479   6.228 -3.0391  1.1130 -0.1677
 8893SOL     OW38314   0.044   1.945   6.933 -0.0127  0.1447 -0.2100
 8893SOL    HW138315   4.706   1.896   6.969  0.7669 -0.2747  0.8179
 8893SOL    HW238316   0.044   1.920   6.841 -0.8311 -0.4842 -0.0402
 8894SOL     OW38317   3.225   0.676   1.859 -0.1325  0.4669  0.1353
 8894SOL    HW138318   3.277   0.687   1.938  0.7014 -2.4143 -0.0077
 8894SOL    HW238319   3.160   0.622   1.904  0.4430 -0.6517 -0.3809
 8895SOL     OW38320   0.316   2.915   5.590  0.0168 -0.2073  0.2302
 8895SOL    HW138321   0.322   2.842   5.651  0.5115 -1.5280 -1.3968
 8895SOL    HW238322   0.252   2.959   5.645 -3.2787 -0.6168 -3.2954
 8896SOL     OW38323   3.632   1.335   6.732 -0.5415  0.2354  0.1106
 8896SOL    HW138324   3.640   1.251   6.777 -1.3769  0.9563  1.6133
 8896SOL    HW238325   3.623   1.303   6.642 -1.4346 -1.1388  0.6707
 8897SOL     OW38326   1.016   1.184   7.357  0.0444 -0.0070 -0.0086
 8897SOL    HW138327   0.930   1.217   7.330  0.1359 -1.1112 -1.6103
 8897SOL    HW238328   1.023   1.220   7.446  2.6056 -3.3871  1.1615
 8898SOL     OW38329   1.156   0.472   8.917 -0.0308  0.4539  0.6659
 8898SOL    HW138330   1.178   0.493   8.826  0.6810  1.4701  1.0664
 8898SOL    HW238331   1.117   0.558   8.934  0.1381  1.0830 -2.1627
 8899SOL     OW38332   1.047   1.111   8.340  0.6639 -0.2408 -0.1265
 8899SOL    HW138333   1.005   1.154   8.266 -2.2118  1.2224  2.3231
 8899SOL    HW238334   0.992   1.032   8.335 -0.9256  0.8197  0.4928
 8900SOL     OW38335   1.565   1.175   4.865 -0.3120  0.2356  0.0376
 8900SOL    HW138336   1.566   1.090   4.911 -0.2949  0.7382  0.9711
 8900SOL    HW238337   1.627   1.227   4.916  3.0876 -2.9006 -0.8460
 8901SOL     OW38338   2.407   0.001   7.855  0.0546 -0.9980 -0.1497
 8901SOL    HW138339   2.406   0.095   7.840 -0.0539 -0.7873  1.2155
 8901SOL    HW238340   2.416   4.719   7.949  1.3976  0.8733  0.0803
 8902SOL     OW38341   1.515   2.595   6.500 -0.2975  0.1620 -0.3294
 8902SOL    HW138342   1.567   2.639   6.433  1.1807 -0.4459  0.4170
 8902SOL    HW238343   1.433   2.642   6.490 -1.0632 -0.7436  1.7772
 8903SOL     OW38344   4.189   0.940  10.105 -0.1928 -0.2682  0.8606
 8903SOL    HW138345   4.162   0.893  10.026  3.1412 -0.0626 -0.4198
 8903SOL    HW238346   4.284   0.944  10.094 -0.3817  2.5391  0.2379
 8904SOL     OW38347   4.140   3.465   3.946 -0.0124 -0.2397  0.0950
 8904SOL    HW138348   4.229   3.474   3.910 -0.2126 -0.5356 -0.4735
 8904SOL    HW238349   4.132   3.370   3.955 -0.4025 -0.2364 -0.2210
 8905SOL     OW38350   0.404   0.113  10.643 -0.5095  0.7288  0.0183
 8905SOL    HW138351   0.410   0.121  10.548 -1.1224  2.1215  0.0908
 8905SOL    HW238352   0.388   0.205  10.663  0.5533  0.7833  0.5986
 8906SOL     OW38353   3.448   2.945  11.207 -0.0769 -0.7650  1.0823
 8906SOL    HW138354   3.430   3.010  11.275 -0.9940  1.4297 -1.2575
 8906SOL    HW238355   3.407   2.866  11.244  0.5260 -1.6402 -0.1337
 8907SOL     OW38356   1.029   2.546   6.685  0.2547 -0.7122 -0.4926
 8907SOL    HW138357   1.002   2.566   6.775  0.6821 -1.6698 -0.1433
 8907SOL    HW238358   1.090   2.615   6.662 -1.2888  0.8619  0.1305
 8908SOL     OW38359   1.566   2.779   5.020  0.0775 -0.0222 -0.1083
 8908SOL    HW138360   1.492   2.730   5.056  0.5699 -0.4153  0.3635
 8908SOL    HW238361   1.536   2.865   4.990  0.0057 -0.0109 -0.0040
 8909SOL     OW38362   1.962   3.900   8.011 -0.1889  0.3496 -0.3760
 8909SOL    HW138363   2.001   3.833   8.067 -2.9467 -0.8287  0.1629
 8909SOL    HW238364   2.034   3.963   8.010  0.3623 -0.2834 -0.3308
 8910SOL     OW38365   4.165   2.900   4.746  0.2440  0.1435 -0.0052
 8910SOL    HW138366   4.121   2.815   4.751 -1.5548  1.1773  1.5400
 8910SOL    HW238367   4.141   2.932   4.833  1.7731  1.0755  0.0719
 8911SOL     OW38368   1.436   2.061   7.338  0.2933 -0.1671 -0.8011
 8911SOL    HW138369   1.492   2.072   7.415  1.8704 -1.6008 -1.7327
 8911SOL    HW238370   1.488   2.085   7.262  0.4364  1.0669 -0.3182
 8912SOL     OW38371   2.617   2.014   5.865 -0.1689 -0.6185  0.6006
 8912SOL    HW138372   2.674   2.053   5.798 -0.5388  0.6067  1.0071
 8912SOL    HW238373   2.616   2.070   5.943 -2.8323  0.2479 -0.0713
 8913SOL     OW38374   4.660   3.097  12.467  0.0435 -0.0398 -0.0065
 8913SOL    HW138375   4.621   3.115  12.553 -2.3931 -0.8837 -0.9277
 8913SOL    HW238376   0.010   3.063  12.492  0.9775  1.7248 -0.8945
 8914SOL     OW38377   2.167   4.091  11.543  0.1660 -0.0245  0.2449
 8914SOL    HW138378   2.144   4.147  11.468  1.8348  0.8997  0.4143
 8914SOL    HW238379   2.175   4.008  11.496  0.0684 -0.7452  1.5128
 8915SOL     OW38380   2.630   4.015   6.262  0.0055 -0.0517 -0.6553
 8915SOL    HW138381   2.569   3.952   6.223 -1.5172  1.2328 -0.3720
 8915SOL    HW238382   2.691   3.951   6.300  0.2951  0.1003 -0.8733
 8916SOL     OW38383   4.135   2.865   3.974 -0.4406  0.1262 -0.7173
 8916SOL    HW138384   4.218   2.868   4.022 -0.1442 -2.4231 -1.0650
 8916SOL    HW238385   4.086   2.925   4.030 -0.4362  1.1665 -1.8377
 8917SOL     OW38386   0.052   0.578  17.491 -0.1817  0.0562  0.2361
 8917SOL    HW138387   0.019   0.572  17.581  1.3177 -1.9746  0.6290
 8917SOL    HW238388   4.706   0.577  17.443 -1.8609  4.6818  2.9854
 8918SOL     OW38389   1.806   1.202   7.704 -0.0731 -0.4176  0.3919
 8918SOL    HW138390   1.771   1.236   7.622 -0.7071 -0.4783  0.6390
 8918SOL    HW238391   1.823   1.110   7.682 -0.9019 -0.0068 -1.9545
 8919SOL     OW38392   1.846   2.697   7.156  0.8374  0.1296  0.4390
 8919SOL    HW138393   1.911   2.639   7.196  0.4547 -0.7918 -0.2740
 8919SOL    HW238394   1.777   2.631   7.151  0.6101  0.5402 -1.9171
 8920SOL     OW38395   2.624   4.473   1.003 -1.1983  0.2988 -0.2646
 8920SOL    HW138396   2.676   4.535   0.952 -1.1538 -0.2260 -0.8564
 8920SOL    HW238397   2.553   4.531   1.030  0.7212  2.0965  1.0313
 8921SOL     OW38398   3.325   1.746   3.800 -0.2383 -0.2268  0.3195
 8921SOL    HW138399   3.237   1.711   3.791 -0.0661 -0.7613  0.7322
 8921SOL    HW238400   3.311   1.835   3.767  0.8215  0.1927  0.9864
 8922SOL     OW38401   2.892   1.165   7.271  0.4987 -0.9406 -0.1906
 8922SOL    HW138402   2.973   1.131   7.231  0.1723  0.3720 -1.9734
 8922SOL    HW238403   2.907   1.170   7.365  0.9278  1.1161 -0.3619
 8923SOL     OW38404   0.718   2.426   0.292 -0.1406 -0.1601 -0.5771
 8923SOL    HW138405   0.646   2.445   0.352  1.7174 -0.5081  1.7428
 8923SOL    HW238406   0.669   2.434   0.210 -2.7409 -1.3857  0.8534
 8924SOL     OW38407   4.091   0.342   5.125 -0.3877  0.0936 -0.3022
 8924SOL    HW138408   4.148   0.330   5.049  1.3747 -1.1692  1.2345
 8924SOL    HW238409   4.006   0.310   5.094 -0.4169 -0.8567  0.7670
 8925SOL     OW38410   2.331   4.440   8.208 -0.3090  0.0191 -0.0517
 8925SOL    HW138411   2.265   4.370   8.208 -1.3193  0.9550 -1.8007
 8925SOL    HW238412   2.352   4.443   8.301  1.5792 -0.5513 -0.4611
 8926SOL     OW38413   2.460   3.020   4.057  0.1586  0.7343  0.3713
 8926SOL    HW138414   2.453   2.934   4.017  0.3211 -0.2775  2.5121
 8926SOL    HW238415   2.545   3.052   4.028  0.8579 -1.0739  0.4564
 8927SOL     OW38416   1.571   4.183   6.915 -0.1408  0.3990  0.6525
 8927SOL    HW138417   1.557   4.230   6.833 -0.7264 -2.0022 -0.6272
 8927SOL    HW238418   1.506   4.113   6.914  0.0337  0.2513 -0.5867
 8928SOL     OW38419   1.068   2.614   9.652 -0.4892 -0.4953  0.0984
 8928SOL    HW138420   1.160   2.641   9.653 -0.9580  1.0873  1.6185
 8928SOL    HW238421   1.032   2.679   9.592  0.5124  0.3590  0.4219
 8929SOL     OW38422   0.185   0.510   7.500 -0.1477 -0.4467  0.1061
 8929SOL    HW138423   0.178   0.594   7.546  0.7387 -0.6409  0.5970
 8929SOL    HW238424   0.186   0.449   7.574 -1.4557  2.1314  2.2773
 8930SOL     OW38425   0.227   3.726   3.827  0.1747 -0.0205  0.8884
 8930SOL    HW138426   0.284   3.793   3.864 -0.2823  0.9619 -0.1655
 8930SOL    HW238427   0.297   3.662   3.814 -1.7449 -2.2151  1.3261
 8931SOL     OW38428   2.952   1.461   2.001 -0.5629 -0.0307 -0.0669
 8931SOL    HW138429   2.968   1.494   2.090  0.0167 -0.5276  0.0188
 8931SOL    HW238430   2.870   1.414   2.016 -0.6371 -0.0566 -0.5856
 8932SOL     OW38431   0.796   2.424  11.436  0.0804  0.1084 -0.3369
 8932SOL    HW138432   0.863   2.485  11.405  1.6120 -1.6793 -0.4939
 8932SOL    HW238433   0.733   2.475  11.486  1.8198 -0.6211  2.5543
 8933SOL     OW38434   0.199   3.490   0.240 -0.0647 -0.6818  0.2289
 8933SOL    HW138435   0.182   3.537   0.321 -0.2181 -0.3737  0.0169
 8933SOL    HW238436   0.110   3.477   0.208  0.5746 -0.1097 -1.8130
 8934SOL     OW38437   1.542   2.916  10.602  0.4043 -0.5961  0.0824
 8934SOL    HW138438   1.462   2.865  10.607 -0.3402  0.7725  2.0804
 8934SOL    HW238439   1.501   3.002  10.588  0.6244 -0.4706  0.2182
 8935SOL     OW38440   4.613   3.154   0.326  0.2477  0.0062  0.5805
 8935SOL    HW138441   4.670   3.231   0.337  0.2149 -0.2382  2.5349
 8935SOL    HW238442   4.626   3.110   0.411  1.3102 -2.8718 -1.0670
 8936SOL     OW38443   3.876   3.819   0.953 -0.6525 -0.3771  0.0338
 8936SOL    HW138444   3.862   3.913   0.951 -3.7125 -0.8574 -1.3086
 8936SOL    HW238445   3.855   3.804   1.045 -1.2731 -1.3585 -0.2539
 8937SOL     OW38446   3.009   3.945   7.598  0.0129  0.6544 -0.2370
 8937SOL    HW138447   2.949   4.011   7.633  0.2728  0.4440  0.5955
 8937SOL    HW238448   3.095   3.983   7.611 -0.0716  1.3026 -1.5903
 8938SOL     OW38449   1.953   1.344   6.161 -0.2702  0.1854 -0.0430
 8938SOL    HW138450   2.003   1.297   6.228  0.0792  0.0014 -0.4324
 8938SOL    HW238451   1.871   1.298   6.143  0.5418 -0.9804 -0.8292
 8939SOL     OW38452   1.046   0.667   7.293  0.0618  0.3164 -0.0399
 8939SOL    HW138453   1.134   0.668   7.331  0.1421 -1.4463 -0.2204
 8939SOL    HW238454   1.045   0.601   7.224  2.3014  0.5690 -0.2992
 8940SOL     OW38455   0.662   2.030   6.273  0.0155 -0.4390 -0.2744
 8940SOL    HW138456   0.694   2.109   6.316  0.4921 -0.8283  0.0836
 8940SOL    HW238457   0.611   2.076   6.206 -0.3282 -0.3628  0.0386
 8941SOL     OW38458   2.388   2.508   3.381  0.1869  0.1131 -0.2542
 8941SOL    HW138459   2.473   2.507   3.338  0.2288 -0.0955 -0.1668
 8941SOL    HW238460   2.408   2.546   3.467  1.2843  0.9891 -0.8924
 8942SOL     OW38461   2.307   2.836   5.563  0.0514  0.2675 -0.6319
 8942SOL    HW138462   2.386   2.825   5.616 -1.4452 -0.0144  1.5530
 8942SOL    HW238463   2.239   2.875   5.618 -1.1752 -1.2983 -1.0561
 8943SOL     OW38464   3.897   0.481   6.689 -0.0679  0.3668 -0.0470
 8943SOL    HW138465   3.862   0.520   6.608  1.2370 -0.3791 -0.9607
 8943SOL    HW238466   3.849   0.539   6.748 -0.6806  1.2887 -1.4466
 8944SOL     OW38467   3.859   0.669   7.902  0.7077  0.5416  0.5936
 8944SOL    HW138468   3.898   0.756   7.890  2.3948 -0.0820  1.5267
 8944SOL    HW238469   3.818   0.671   7.989  0.8682  1.4499  0.6460
 8945SOL     OW38470   3.458   0.259  12.704 -0.3321  0.1018  0.6758
 8945SOL    HW138471   3.373   0.218  12.693 -1.0353  1.6283  0.3571
 8945SOL    HW238472   3.511   0.179  12.707 -0.9312 -0.2807  0.9464
 8946SOL     OW38473   3.289   4.328   3.500  0.2989  0.2050 -0.0614
 8946SOL    HW138474   3.272   4.397   3.436 -0.9672 -1.2454 -1.3002
 8946SOL    HW238475   3.372   4.363   3.532  0.2982  0.3955 -0.2632
 8947SOL     OW38476   3.255   2.634   8.396 -0.1955  0.0133  0.0127
 8947SOL    HW138477   3.185   2.588   8.351 -1.9820  0.1797  2.6068
 8947SOL    HW238478   3.241   2.727   8.375 -1.9020 -0.0557  0.8920
 8948SOL     OW38479   0.449   0.824   4.767 -0.0551  0.3749 -0.4694
 8948SOL    HW138480   0.407   0.876   4.836  1.4333 -1.0603  1.5124
 8948SOL    HW238481   0.370   0.773   4.747 -0.7701  0.7423  1.3809
 8949SOL     OW38482   4.337   1.380  15.749 -0.2660  0.2268 -0.6024
 8949SOL    HW138483   4.359   1.429  15.670  0.4529 -1.0802 -1.2041
 8949SOL    HW238484   4.305   1.308  15.695  0.8625 -0.3731 -0.4524
 8950SOL     OW38485   3.369   4.607   2.788 -0.7181 -0.2623 -0.6973
 8950SOL    HW138486   3.368   4.580   2.880  0.5079  0.7027 -0.3945
 8950SOL    HW238487   3.377   4.519   2.752 -1.2948 -1.0069  0.9747
 8951SOL     OW38488   0.997   3.480   3.808 -0.1872 -0.0511  0.0290
 8951SOL    HW138489   1.067   3.430   3.768 -0.5426 -0.0455 -0.5942
 8951SOL    HW238490   0.926   3.417   3.793 -2.0322  1.4119  2.5193
 8952SOL     OW38491   1.371   3.736   6.045 -0.5532  0.8140 -0.5490
 8952SOL    HW138492   1.417   3.749   6.128  0.5515 -1.1781 -0.8496
 8952SOL    HW238493   1.439   3.707   5.984 -0.4310  0.7333 -0.3765
 8953SOL     OW38494   0.807   2.576   3.677  0.1637  0.2891  0.8414
 8953SOL    HW138495   0.869   2.641   3.712 -0.5349  1.1759  0.4435
 8953SOL    HW238496   0.724   2.609   3.712 -0.7820  1.1302 -2.2185
 8954SOL     OW38497   4.186   4.061   7.692  0.0993  0.5620  0.4912
 8954SOL    HW138498   4.199   4.120   7.618 -1.8715 -2.0660 -1.9557
 8954SOL    HW238499   4.197   4.127   7.760  0.8076  1.8256 -0.8681
 8955SOL     OW38500   4.096   2.207   3.081 -0.8233  0.2373 -0.0155
 8955SOL    HW138501   4.129   2.119   3.097 -0.7198  0.3376  0.3201
 8955SOL    HW238502   4.084   2.244   3.169 -0.5293  1.5329 -0.5163
 8956SOL     OW38503   4.535   1.327   6.956 -0.1938  0.2190  0.2339
 8956SOL    HW138504   4.469   1.268   6.994  0.0907  0.3100  0.8763
 8956SOL    HW238505   4.479   1.402   6.933 -1.2459  0.7736  4.5640
 8957SOL     OW38506   4.293   2.712   8.969  0.4170  0.3404  0.7537
 8957SOL    HW138507   4.380   2.682   8.940  1.2027 -2.0706  5.6616
 8957SOL    HW238508   4.242   2.679   8.895 -1.6165 -1.5195  2.9911
 8958SOL     OW38509   0.839   3.018   3.585 -0.5393  0.6110  0.0674
 8958SOL    HW138510   0.844   2.932   3.542  0.4457 -0.0235  1.4404
 8958SOL    HW238511   0.832   2.989   3.676 -0.2642  2.1718  0.5814
 8959SOL     OW38512   4.506   1.002   4.523  0.0975  0.2916 -0.2551
 8959SOL    HW138513   4.488   0.924   4.577  0.2808  1.1979  1.1163
 8959SOL    HW238514   4.433   0.995   4.461 -1.3329  0.7684  1.3529
 8960SOL     OW38515   2.836   4.574   6.962  0.0716  0.0521 -0.2013
 8960SOL    HW138516   2.860   4.647   6.906 -1.7136  0.8410  0.0670
 8960SOL    HW238517   2.742   4.580   6.943  0.3045 -2.4462 -2.1215
 8961SOL     OW38518   0.165   1.530   7.807  0.4403 -0.0309 -0.1136
 8961SOL    HW138519   0.259   1.534   7.792  0.4677  0.0135  0.0665
 8961SOL    HW238520   0.169   1.572   7.894 -1.1053 -1.9813  0.9012
 8962SOL     OW38521   0.644   4.027   3.646  0.6793 -0.1492 -0.2174
 8962SOL    HW138522   0.641   4.077   3.564  2.4014  1.6026  0.8021
 8962SOL    HW238523   0.579   4.066   3.705 -1.4390 -2.7492 -0.8434
 8963SOL     OW38524   1.114   0.844   8.684 -0.2303  0.0318  0.4119
 8963SOL    HW138525   1.204   0.864   8.707 -0.5881  0.0517  1.7894
 8963SOL    HW238526   1.061   0.911   8.727 -0.0935 -0.5395  1.4507
 8964SOL     OW38527   0.131   4.087   6.784  0.2728 -0.3628 -0.2298
 8964SOL    HW138528   0.104   4.067   6.874 -0.3045 -3.2408 -1.0245
 8964SOL    HW238529   0.107   4.003   6.744 -2.2389  0.2394  0.0324
 8965SOL     OW38530   3.182   3.990   0.079 -0.0902  0.2080 -0.5138
 8965SOL    HW138531   3.115   3.937   0.122 -0.4540  0.9034 -0.2201
 8965SOL    HW238532   3.170   4.079   0.112 -0.1446  0.0423 -0.0922
 8966SOL     OW38533   3.673   0.589  11.986  0.0406 -0.3898  0.6292
 8966SOL    HW138534   3.701   0.579  12.077  1.7554 -1.5218 -0.0124
 8966SOL    HW238535   3.753   0.547  11.955  0.4169 -0.5544  1.8282
 8967SOL     OW38536   2.801   3.679   2.113  0.4555  0.1241 -0.4811
 8967SOL    HW138537   2.766   3.704   2.027  1.5777  1.0746 -0.6611
 8967SOL    HW238538   2.745   3.726   2.175  0.7971 -1.2461  0.8565
 8968SOL     OW38539   4.633   3.004   8.195  0.2420 -0.0409  0.3506
 8968SOL    HW138540   4.581   3.082   8.175  1.3856  0.6466  0.0696
 8968SOL    HW238541   4.693   3.009   8.121  1.8491 -1.4637  1.5669
 8969SOL     OW38542   3.459   1.470   4.670 -0.4981  0.3732  0.3156
 8969SOL    HW138543   3.399   1.400   4.695 -0.4912 -0.1394 -1.0834
 8969SOL    HW238544   3.399   1.518   4.614  1.4300  1.7082 -0.5992
 8970SOL     OW38545   0.444   2.926  10.245 -0.0828  0.2982 -0.6379
 8970SOL    HW138546   0.534   2.928  10.212  0.4184  0.8746  0.7657
 8970SOL    HW238547   0.405   2.866  10.181 -0.6574 -0.4196  0.3789
 8971SOL     OW38548   2.168   4.520   2.698 -0.1080 -0.6394  0.0049
 8971SOL    HW138549   2.077   4.521   2.668  0.1590  3.3666 -0.5510
 8971SOL    HW238550   2.157   4.493   2.790 -1.0118  0.7641  0.2941
 8972SOL     OW38551   1.962   0.420   5.453  0.3039 -0.1548  0.2381
 8972SOL    HW138552   1.978   0.463   5.369  0.8971  0.1558  0.5116
 8972SOL    HW238553   2.042   0.370   5.467  0.2065 -0.0787  1.0684
 8973SOL     OW38554   4.235   4.104  15.772  0.7485  0.0149 -0.5234
 8973SOL    HW138555   4.278   4.166  15.831  0.9945 -2.0434  1.4196
 8973SOL    HW238556   4.228   4.157  15.692  0.0031 -0.4630 -0.7738
 8974SOL     OW38557   2.436   4.107   2.674 -0.3947 -0.8312  0.5452
 8974SOL    HW138558   2.507   4.165   2.648 -2.4255  1.6218  0.4631
 8974SOL    HW238559   2.370   4.145   2.616 -1.0260 -1.4672  0.8323
 8975SOL     OW38560   2.800   4.229   8.937  0.0351  0.2540 -0.6740
 8975SOL    HW138561   2.855   4.226   9.015 -2.0502 -1.5860  0.7238
 8975SOL    HW238562   2.726   4.268   8.984 -2.1618 -1.3807 -2.7529
 8976SOL     OW38563   1.951   0.254   2.220  0.8659  0.0901  0.3512
 8976SOL    HW138564   1.948   0.249   2.315 -0.3395  1.2904  0.3826
 8976SOL    HW238565   1.862   0.273   2.188  1.9080  0.3468 -2.4126
 8977SOL     OW38566   1.300   2.738   8.466 -0.6911 -0.0186  0.9316
 8977SOL    HW138567   1.382   2.783   8.447 -1.6627  0.3725 -2.2999
 8977SOL    HW238568   1.307   2.713   8.559  0.0325 -0.3985  0.7765
 8978SOL     OW38569   0.853   4.653  12.557 -0.0483 -0.1436  0.0669
 8978SOL    HW138570   0.834   4.559  12.559 -0.0993 -0.0955  2.8508
 8978SOL    HW238571   0.921   4.663  12.624  0.3725  0.3515 -0.4356
 8979SOL     OW38572   4.148   0.978   5.220  0.1796  0.8601  0.5935
 8979SOL    HW138573   4.170   1.027   5.300  1.3286  0.8793  0.2574
 8979SOL    HW238574   4.052   0.977   5.224  0.1794 -0.5219  0.1592
 8980SOL     OW38575   3.049   3.759   5.032  0.0558 -0.0205 -0.1400
 8980SOL    HW138576   3.085   3.801   4.954 -0.8105  0.4180 -0.2961
 8980SOL    HW238577   3.128   3.727   5.076 -0.2423  1.4963  1.4562
 8981SOL     OW38578   0.715   2.821   4.645  0.0756  0.0955 -0.4265
 8981SOL    HW138579   0.650   2.867   4.698  2.0630  2.2661  0.1276
 8981SOL    HW238580   0.674   2.835   4.560 -1.6442  1.6389  0.6490
 8982SOL     OW38581   4.637   2.665   3.315  0.5001 -0.5985  0.5336
 8982SOL    HW138582   4.720   2.711   3.327 -0.1068  0.9745 -1.2259
 8982SOL    HW238583   4.580   2.741   3.329  0.9528 -0.5807  2.1854
 8983SOL     OW38584   2.452   2.628   6.389 -0.3818  0.0403  0.3174
 8983SOL    HW138585   2.431   2.584   6.306 -0.0175  1.4161 -0.5203
 8983SOL    HW238586   2.495   2.706   6.352  0.1511 -0.5916 -0.3912
 8984SOL     OW38587   0.465   0.151  10.363  0.2834  0.5774  0.6437
 8984SOL    HW138588   0.424   0.233  10.335 -0.0346  0.0106 -0.5325
 8984SOL    HW238589   0.464   0.101  10.282 -0.2580  1.7075 -0.0460
 8985SOL     OW38590   2.970   3.230   0.338  0.0641 -0.2993  0.1789
 8985SOL    HW138591   2.944   3.309   0.291  0.0954 -0.4133 -0.0301
 8985SOL    HW238592   2.979   3.168   0.265 -1.8863  2.1004 -2.0880
 8986SOL     OW38593   2.693   3.054   3.307  0.1426 -0.6594 -0.0968
 8986SOL    HW138594   2.629   2.987   3.326  0.1498 -1.2659 -2.1863
 8986SOL    HW238595   2.714   3.088   3.394 -3.0686  1.0328  0.0114
 8987SOL     OW38596   0.567   2.491   0.811  0.3901  0.2154 -0.4076
 8987SOL    HW138597   0.491   2.519   0.862 -0.1383 -2.6014  0.3497
 8987SOL    HW238598   0.591   2.566   0.757  2.2977  0.4693  0.8177
 8988SOL     OW38599   0.642   3.422  17.709  0.4119  0.3359  0.5039
 8988SOL    HW138600   0.664   3.383   0.049  1.5032 -0.9792 -0.3934
 8988SOL    HW238601   0.601   3.502  17.743  0.9375  0.8042  0.0374
 8989SOL     OW38602   0.839   1.715   1.287  0.0041  0.6115  0.4973
 8989SOL    HW138603   0.853   1.644   1.349  0.5126  2.5766  2.6298
 8989SOL    HW238604   0.789   1.675   1.216  0.7310  1.5214 -0.5310
 8990SOL     OW38605   0.518   3.537   8.175 -0.3523  0.0745 -0.5260
 8990SOL    HW138606   0.566   3.491   8.244  0.8675  1.5449 -0.3883
 8990SOL    HW238607   0.499   3.613   8.230 -0.6201  0.3213 -0.9601
 8991SOL     OW38608   4.593   3.481   2.362  0.0460  0.5095  0.2545
 8991SOL    HW138609   4.606   3.571   2.332 -0.3963  0.0594 -1.2681
 8991SOL    HW238610   4.521   3.455   2.305  0.2823  0.5350 -0.0543
 8992SOL     OW38611   3.609   2.434   8.573  0.0319 -0.1047 -0.3157
 8992SOL    HW138612   3.557   2.409   8.497 -0.8820 -0.0604  0.2946
 8992SOL    HW238613   3.564   2.514   8.600 -1.4546 -0.6236 -1.2819
 8993SOL     OW38614   0.083   2.724   7.105 -0.3278 -0.9091 -0.3213
 8993SOL    HW138615   0.093   2.671   7.025 -1.6198 -1.3417 -0.2023
 8993SOL    HW238616   0.163   2.776   7.102 -1.1858  0.4417  0.0428
 8994SOL     OW38617   3.972   1.598   1.842 -0.9703  0.4788 -0.0071
 8994SOL    HW138618   3.934   1.643   1.918 -1.2648 -1.6788  1.1012
 8994SOL    HW238619   3.987   1.679   1.793  1.2525 -0.1408 -0.3156
 8995SOL     OW38620   1.776   1.350   9.883  0.4460 -0.2341 -0.5463
 8995SOL    HW138621   1.806   1.437   9.856 -0.3366  1.0654  2.8341
 8995SOL    HW238622   1.787   1.295   9.806 -1.7049  1.8669 -2.3484
 8996SOL     OW38623   2.187   1.921   7.362 -0.1449  0.3171  0.2807
 8996SOL    HW138624   2.174   1.938   7.455 -1.4131 -0.4179  0.2430
 8996SOL    HW238625   2.101   1.943   7.324  0.0625  1.5759  0.5380
 8997SOL     OW38626   4.150   4.450   2.445 -0.8260  0.3610  0.0143
 8997SOL    HW138627   4.176   4.473   2.356 -0.4792 -0.8895 -0.2090
 8997SOL    HW238628   4.144   4.536   2.486  3.4529  0.3875  0.5120
 8998SOL     OW38629   1.563   1.667   7.562 -0.3197  0.0299 -0.1483
 8998SOL    HW138630   1.542   1.619   7.482  1.9953 -0.5055 -0.4425
 8998SOL    HW238631   1.596   1.606   7.627  0.0243 -1.1983 -1.4827
 8999SOL     OW38632   3.347   4.062  12.010 -0.0623  0.6356 -0.2844
 8999SOL    HW138633   3.313   4.114  12.084 -2.0649 -0.6661 -0.2944
 8999SOL    HW238634   3.417   4.013  12.053 -0.9079  1.6470  2.2213
 9000SOL     OW38635   0.929   3.812  14.390 -0.0422 -0.1019 -0.6024
 9000SOL    HW138636   0.924   3.820  14.295  0.8276 -3.3190 -0.8991
 9000SOL    HW238637   0.916   3.717  14.392 -1.1451  0.1185  2.7959
 9001SOL     OW38638   2.275   2.041   7.792 -0.1193 -0.0449  0.6722
 9001SOL    HW138639   2.360   2.000   7.780 -0.7716 -1.4088  0.6435
 9001SOL    HW238640   2.298   2.133   7.777  0.9527 -0.0802  2.1722
 9002SOL     OW38641   0.341   1.305   7.631 -0.2385 -1.0108 -0.0836
 9002SOL    HW138642   0.407   1.368   7.659  0.1409 -1.7689  0.7443
 9002SOL    HW238643   0.295   1.283   7.713  0.1355 -0.8510  0.1690
 9003SOL     OW38644   3.656   0.210  12.034 -0.0915 -0.4089 -0.2423
 9003SOL    HW138645   3.701   0.162  11.964  1.4142  1.9669 -0.9203
 9003SOL    HW238646   3.688   0.300  12.026  0.2908 -0.6982 -2.0027
 9004SOL     OW38647   3.961   0.404   7.423 -0.0950 -0.2312 -0.2688
 9004SOL    HW138648   3.923   0.409   7.335  1.0597 -1.6823 -0.8349
 9004SOL    HW238649   3.953   0.496   7.451 -2.1072 -0.5784  0.3408
 9005SOL     OW38650   0.549   3.266   0.582 -0.0289 -0.0075  0.1892
 9005SOL    HW138651   0.636   3.284   0.618 -0.0147 -2.1434  1.2210
 9005SOL    HW238652   0.571   3.185   0.536 -1.1570  0.0820 -0.5060
 9006SOL     OW38653   0.044   0.301   9.324  0.0370 -0.5344 -0.1329
 9006SOL    HW138654   0.058   0.393   9.303  0.6888 -0.8971 -1.3283
 9006SOL    HW238655   0.049   0.315   9.418 -0.0880  1.1105 -0.3794
 9007SOL     OW38656   2.583   3.669   8.525 -0.6248  0.3215 -0.4753
 9007SOL    HW138657   2.634   3.698   8.449 -2.6211 -0.2025 -2.0080
 9007SOL    HW238658   2.655   3.663   8.588 -2.1960 -0.5016  1.2148
 9008SOL     OW38659   4.559   3.716   6.283 -0.4463  0.6635  0.4638
 9008SOL    HW138660   4.577   3.805   6.253 -2.5015  0.4455 -1.3399
 9008SOL    HW238661   4.562   3.732   6.378 -1.9594 -2.6927  1.0689
 9009SOL     OW38662   3.261   3.424  12.797  0.1251 -0.3271  0.3546
 9009SOL    HW138663   3.257   3.519  12.804 -0.9901 -0.4699  1.7353
 9009SOL    HW238664   3.316   3.409  12.721 -1.6752  0.2213 -1.0386
 9010SOL     OW38665   4.736   2.780   5.143 -0.0491 -0.2574 -0.1247
 9010SOL    HW138666   0.048   2.781   5.060 -0.5004 -1.7608 -0.4007
 9010SOL    HW238667   0.037   2.856   5.189  0.0681 -0.3559 -0.0594
 9011SOL     OW38668   2.728   1.417   3.676  0.7050 -0.2297 -0.3388
 9011SOL    HW138669   2.795   1.350   3.688  0.8545 -0.2700 -1.3611
 9011SOL    HW238670   2.784   1.487   3.642  1.3064 -0.9803 -0.9111
 9012SOL     OW38671   3.968   3.573   7.400  0.5403  0.3438 -0.8193
 9012SOL    HW138672   3.936   3.500   7.347 -1.0022  0.4453 -0.0416
 9012SOL    HW238673   3.912   3.644   7.366 -1.2352 -1.2444 -1.2206
 9013SOL     OW38674   4.512   1.224  10.063 -0.1861  0.7090  0.0994
 9013SOL    HW138675   4.458   1.193   9.990 -2.7520  2.2540  1.3340
 9013SOL    HW238676   4.568   1.147  10.067 -0.9926  0.2060  1.9050
 9014SOL     OW38677   4.139   1.213   9.244  0.1876 -0.2413 -0.4924
 9014SOL    HW138678   4.231   1.192   9.227  0.3065  0.9306 -1.2797
 9014SOL    HW238679   4.144   1.293   9.296  1.0008 -0.1774 -0.6717
 9015SOL     OW38680   3.737   0.102   8.245  0.0986  0.2647 -0.4702
 9015SOL    HW138681   3.781   0.023   8.274  0.6835  1.1190  0.9362
 9015SOL    HW238682   3.643   0.088   8.256 -0.5396  1.1394 -4.5087
 9016SOL     OW38683   4.151   2.929  13.115 -0.5744 -0.4656 -0.1156
 9016SOL    HW138684   4.161   2.880  13.197 -0.6264  1.6531  1.1546
 9016SOL    HW238685   4.122   3.012  13.154 -1.9058 -0.7202 -0.5802
 9017SOL     OW38686   4.709   3.541   3.585  0.2537 -0.0914  0.2351
 9017SOL    HW138687   4.635   3.481   3.583  0.8562 -0.7802 -1.1023
 9017SOL    HW238688   0.049   3.486   3.570  1.5452  1.8143 -0.2051
 9018SOL     OW38689   0.649   4.069   4.074 -0.0517 -0.1022 -0.3005
 9018SOL    HW138690   0.676   3.978   4.086 -2.7838 -1.1524 -1.8160
 9018SOL    HW238691   0.688   4.078   3.987  2.3150  2.6910  1.0900
 9019SOL     OW38692   4.158   2.994   7.602  0.3224 -0.2912  0.0063
 9019SOL    HW138693   4.126   2.977   7.690 -2.8967  0.6578 -0.9894
 9019SOL    HW238694   4.138   2.915   7.552 -0.0868 -0.1801 -0.0067
 9020SOL     OW38695   3.860   2.163   6.688  0.3363  0.3082  0.3598
 9020SOL    HW138696   3.826   2.073   6.691  0.4966  0.1531 -1.9788
 9020SOL    HW238697   3.857   2.181   6.782 -0.4668 -0.6849  0.5282
 9021SOL     OW38698   3.566   0.612   8.339 -0.3291  0.2834  0.5132
 9021SOL    HW138699   3.531   0.583   8.423  0.1669  0.2628  0.7110
 9021SOL    HW238700   3.640   0.669   8.359  1.4616 -1.9658  0.3107
 9022SOL     OW38701   1.984   0.578   8.875 -0.2390  0.3214  0.3506
 9022SOL    HW138702   1.932   0.594   8.954 -0.5626 -2.8022  0.7480
 9022SOL    HW238703   2.018   0.660   8.839  0.2113  0.1379  0.3637
 9023SOL     OW38704   3.543   3.182   4.707  0.9265 -0.0367  0.4732
 9023SOL    HW138705   3.459   3.203   4.666  0.4211 -1.5946  0.7165
 9023SOL    HW238706   3.550   3.092   4.676 -0.1020  0.7942 -2.1322
 9024SOL     OW38707   3.755   3.336   9.275  0.7477 -0.7089  0.3896
 9024SOL    HW138708   3.717   3.423   9.283  1.2956 -0.4097 -0.2037
 9024SOL    HW238709   3.836   3.353   9.324  1.0106 -1.4769  0.2271
 9025SOL     OW38710   1.466   2.156   6.815 -0.2604  0.5578 -0.2423
 9025SOL    HW138711   1.379   2.188   6.793  0.4367  2.0004 -0.9702
 9025SOL    HW238712   1.452   2.065   6.789  0.4470 -0.3821  2.7447
 9026SOL     OW38713   1.202   4.538  14.688 -0.2753  0.5962  0.4699
 9026SOL    HW138714   1.281   4.580  14.654  0.4284 -1.3859 -0.3248
 9026SOL    HW238715   1.141   4.606  14.658 -0.7115  0.8525  1.9557
 9027SOL     OW38716   3.088   2.350   9.427 -0.3063  0.2043  0.0149
 9027SOL    HW138717   3.004   2.362   9.382 -0.4986  0.5619  0.4726
 9027SOL    HW238718   3.127   2.303   9.353  1.7883  0.8489  0.7030
 9028SOL     OW38719   4.395   2.575   8.217 -0.0967  0.5587 -0.1494
 9028SOL    HW138720   4.461   2.603   8.154 -1.4529  0.4645 -1.6075
 9028SOL    HW238721   4.332   2.523   8.168 -0.3362  1.2065 -0.5310
 9029SOL     OW38722   2.582   2.380   7.316 -0.3227  0.0059  0.1637
 9029SOL    HW138723   2.670   2.351   7.338 -0.7942 -0.9208  0.8304
 9029SOL    HW238724   2.536   2.365   7.398  1.4008  1.3577  1.3554
 9030SOL     OW38725   1.718   2.904   5.207  0.3495 -0.1610 -0.2575
 9030SOL    HW138726   1.750   2.837   5.266  1.6187  0.3298 -0.3956
 9030SOL    HW238727   1.709   2.852   5.127 -1.7377 -0.9628  0.4937
 9031SOL     OW38728   2.014   2.917   8.508  0.2237 -0.2857 -0.0556
 9031SOL    HW138729   2.090   2.880   8.464  2.1800  1.2346  2.0596
 9031SOL    HW238730   2.025   2.891   8.600 -1.3736  1.7526  0.7142
 9032SOL     OW38731   3.278   0.127   8.839 -0.6019  0.3428 -0.3560
 9032SOL    HW138732   3.310   0.217   8.832 -2.5793  1.2362  2.1685
 9032SOL    HW238733   3.363   0.083   8.850 -0.3501  0.1028 -3.1719
 9033SOL     OW38734   1.130   0.648  10.824 -0.4554 -0.3063 -0.2845
 9033SOL    HW138735   1.201   0.643  10.888 -0.5407  3.4219  0.1297
 9033SOL    HW238736   1.057   0.664  10.884 -0.3903 -1.4295  0.0850
 9034SOL     OW38737   1.800   0.957   0.024  0.0973  0.0187 -0.0393
 9034SOL    HW138738   1.733   0.890   0.011 -1.0870  1.3856 -0.9274
 9034SOL    HW238739   1.750   1.025   0.069 -0.7976  1.0535 -2.5721
 9035SOL     OW38740   1.394   2.397   3.946 -0.2064 -0.3172 -0.9777
 9035SOL    HW138741   1.422   2.404   4.037 -2.0337  1.3063 -0.5335
 9035SOL    HW238742   1.469   2.362   3.899  0.9381 -1.3515  1.6650
 9036SOL     OW38743   3.861   4.092   0.860  0.1324  0.1736 -0.2805
 9036SOL    HW138744   3.955   4.089   0.875  0.0808  0.8403  0.1580
 9036SOL    HW238745   3.836   4.178   0.893  0.2431  0.5405 -1.1815
 9037SOL     OW38746   4.482   3.380   3.542  0.5312  0.5875 -0.5822
 9037SOL    HW138747   4.505   3.316   3.609  2.9001  0.9589 -1.0559
 9037SOL    HW238748   4.454   3.315   3.478  1.5572  0.0400 -0.4667
 9038SOL     OW38749   0.586   2.431   8.180  0.2475  0.0492 -0.4928
 9038SOL    HW138750   0.563   2.340   8.160  1.1540  0.0195 -1.4021
 9038SOL    HW238751   0.670   2.445   8.137 -0.0924  0.7130 -0.9435
 9039SOL     OW38752   3.860   2.387   9.877 -0.0079 -0.1345 -0.4120
 9039SOL    HW138753   3.766   2.392   9.892  0.1509  0.7755  0.2871
 9039SOL    HW238754   3.862   2.316   9.941 -0.1692 -1.6391 -2.0705
 9040SOL     OW38755   0.006   1.724  17.625 -0.7966  0.1577  0.8557
 9040SOL    HW138756   0.032   1.787  17.557  2.3797 -1.8009  0.2363
 9040SOL    HW238757   4.663   1.684  17.588  0.3891 -2.7365  1.4426
 9041SOL     OW38758   3.545   1.475   3.959 -0.3049 -0.1705 -0.0123
 9041SOL    HW138759   3.460   1.471   4.002  0.0534  2.9266  0.9672
 9041SOL    HW238760   3.606   1.431   4.018 -0.4779 -1.1967 -0.5997
 9042SOL     OW38761   2.881   2.323   0.520  0.2569  0.0392  0.0553
 9042SOL    HW138762   2.911   2.414   0.517  0.8370 -0.1175  1.1125
 9042SOL    HW238763   2.794   2.336   0.482  0.1168 -0.4950  0.1964
 9043SOL     OW38764   2.161   2.904  13.077 -0.3576  0.0437 -0.7745
 9043SOL    HW138765   2.124   2.990  13.097 -0.6867 -0.6707  1.7387
 9043SOL    HW238766   2.158   2.902  12.982 -2.0088 -0.3784 -0.7107
 9044SOL     OW38767   1.713   3.490  12.879 -0.2857 -0.1055  0.2386
 9044SOL    HW138768   1.631   3.475  12.926 -0.8520  3.1839  0.3278
 9044SOL    HW238769   1.770   3.531  12.944 -1.2438 -0.9236  1.5929
 9045SOL     OW38770   3.071   3.226   8.964  0.1322  0.3547 -0.2789
 9045SOL    HW138771   3.056   3.147   8.911  1.9838 -0.6929  0.7751
 9045SOL    HW238772   3.155   3.206   9.005  0.4718  1.7569 -0.2863
 9046SOL     OW38773   0.198   1.773   9.259  0.0480  0.0764 -0.0884
 9046SOL    HW138774   0.252   1.738   9.188  0.1445 -0.0804  0.0629
 9046SOL    HW238775   0.235   1.734   9.338 -0.8883 -2.6330 -1.0015
 9047SOL     OW38776   0.432   0.638   2.152  0.2671  0.1910  0.3495
 9047SOL    HW138777   0.448   0.730   2.132  1.5931 -0.2960 -0.8635
 9047SOL    HW238778   0.363   0.655   2.215 -1.5580 -0.1156 -1.5625
 9048SOL     OW38779   4.263   0.805  15.885  0.0966 -0.2297  0.6900
 9048SOL    HW138780   4.289   0.896  15.870 -1.8386  0.2577  0.2476
 9048SOL    HW238781   4.193   0.794  15.819 -0.0688 -1.3794  1.0572
 9049SOL     OW38782   1.052   4.312   8.171 -0.1923 -0.0017 -0.1640
 9049SOL    HW138783   1.144   4.333   8.154 -0.3901  1.8896  1.1530
 9049SOL    HW238784   1.019   4.401   8.157 -1.5704 -0.6412 -1.0725
 9050SOL     OW38785   1.800   2.451  12.092 -0.1881 -0.1340 -0.2620
 9050SOL    HW138786   1.796   2.450  12.188 -0.6181 -2.6144 -0.2869
 9050SOL    HW238787   1.751   2.526  12.060 -0.5065  0.2562  1.1644
 9051SOL     OW38788   3.791   3.883  11.655 -0.0259 -0.0308  0.0782
 9051SOL    HW138789   3.752   3.969  11.637 -1.3286 -0.9117 -1.2651
 9051SOL    HW238790   3.809   3.861  11.564  0.7196 -0.5697  0.3522
 9052SOL     OW38791   2.156   4.456   4.565  0.1850 -0.0264 -0.0441
 9052SOL    HW138792   2.072   4.426   4.601 -0.0077  0.5268 -0.0344
 9052SOL    HW238793   2.201   4.372   4.555 -0.4586 -0.5329  1.2327
 9053SOL     OW38794   4.180   4.230   1.472 -0.1616  0.2681  0.1039
 9053SOL    HW138795   4.201   4.292   1.542 -1.8215  1.1943 -0.1991
 9053SOL    HW238796   4.254   4.223   1.413 -0.2518 -2.3356  0.2924
 9054SOL     OW38797   1.939   4.564   3.666 -0.1808  0.6552 -0.0888
 9054SOL    HW138798   1.998   4.566   3.741  0.6720  0.9616 -0.7669
 9054SOL    HW238799   2.002   4.562   3.594 -2.9585  0.3281 -2.5053
 9055SOL     OW38800   4.620   0.365  15.128  0.8220  0.4822 -0.1950
 9055SOL    HW138801   4.585   0.410  15.205  1.9020 -0.5243  0.8952
 9055SOL    HW238802   4.567   0.399  15.056 -1.2315 -1.2872  0.4615
 9056SOL     OW38803   2.644   0.325   7.571 -0.0633 -0.4025 -0.0490
 9056SOL    HW138804   2.668   0.387   7.502 -0.2755  0.6749  0.8360
 9056SOL    HW238805   2.635   0.377   7.651 -0.8786  0.5890 -0.7787
 9057SOL     OW38806   3.500   4.051  14.032  0.0892  0.1871  0.0441
 9057SOL    HW138807   3.431   3.985  14.038  0.2942 -0.1634 -1.4690
 9057SOL    HW238808   3.584   4.007  14.043 -0.5204 -1.0115 -0.1052
 9058SOL     OW38809   1.613   4.302  10.610  0.0324 -0.3079 -0.0385
 9058SOL    HW138810   1.553   4.254  10.668 -0.7611  2.7640  1.7363
 9058SOL    HW238811   1.587   4.275  10.522 -0.9320  1.7482 -0.3954
 9059SOL     OW38812   2.175   3.188  17.509 -0.6485 -0.3699  0.7275
 9059SOL    HW138813   2.233   3.217  17.439 -1.8922  1.5916  0.5034
 9059SOL    HW238814   2.128   3.117  17.465 -0.6048  0.6573 -1.0006
 9060SOL     OW38815   1.596   0.718   2.709 -0.0596  0.2189  0.0759
 9060SOL    HW138816   1.523   0.751   2.656  0.3147 -1.8889 -1.7361
 9060SOL    HW238817   1.639   0.801   2.729 -0.4563  0.3537  0.3638
 9061SOL     OW38818   3.649   3.171   4.246 -0.3060  0.8941  0.2296
 9061SOL    HW138819   3.566   3.192   4.203 -0.7601  0.5456  0.9400
 9061SOL    HW238820   3.626   3.112   4.318 -1.8884 -0.6400 -1.5160
 9062SOL     OW38821   1.027   1.276   7.608  0.3424 -0.3560 -0.0659
 9062SOL    HW138822   1.068   1.201   7.652  3.3400 -0.1876 -2.5149
 9062SOL    HW238823   0.968   1.316   7.672  1.4205  1.9303 -0.4820
 9063SOL     OW38824   3.463   2.184   6.675 -0.7644  0.9125  0.4902
 9063SOL    HW138825   3.523   2.120   6.712  3.0915  3.4993 -1.3156
 9063SOL    HW238826   3.383   2.131   6.674  0.3792 -0.7397 -1.0268
 9064SOL     OW38827   1.694   2.037   9.813 -0.1611 -0.4197  0.7362
 9064SOL    HW138828   1.739   2.101   9.868  0.4374  0.3492 -0.6597
 9064SOL    HW238829   1.652   2.099   9.753  0.6069 -0.5514  0.0691
 9065SOL     OW38830   2.864   1.008   0.140  0.5799  0.3208 -0.2745
 9065SOL    HW138831   2.803   1.082   0.147 -0.0008 -0.2349  0.4605
 9065SOL    HW238832   2.828   0.974   0.058 -1.4553  1.0895  0.3068
 9066SOL     OW38833   3.377   3.664   6.666 -0.4062 -0.9335  0.6933
 9066SOL    HW138834   3.388   3.640   6.574  1.6700  0.9837  0.4477
 9066SOL    HW238835   3.284   3.689   6.661 -0.0748  0.2042  0.1046
 9067SOL     OW38836   3.179   0.703  10.656 -0.3754 -0.1996 -0.1501
 9067SOL    HW138837   3.201   0.746  10.739  2.1200  0.9556 -1.4464
 9067SOL    HW238838   3.260   0.660  10.630 -0.0234  0.4967 -0.1992
 9068SOL     OW38839   1.748   4.312   4.120 -0.4551 -0.2753 -0.3112
 9068SOL    HW138840   1.817   4.366   4.159 -0.9306  0.8359 -1.0096
 9068SOL    HW238841   1.690   4.385   4.098 -0.5538 -0.1600  0.3386
 9069SOL     OW38842   4.698   2.557   7.972  0.0820  0.5601  0.6389
 9069SOL    HW138843   0.037   2.545   8.029  0.3640 -1.4962 -0.1758
 9069SOL    HW238844   4.705   2.482   7.912  1.1896  1.5350 -0.4493
 9070SOL     OW38845   1.754   4.701  16.906 -0.2970 -0.0915 -0.1763
 9070SOL    HW138846   1.690   0.030  16.933  2.1627  1.7104  1.2409
 9070SOL    HW238847   1.826   4.724  16.965 -1.2210  1.9532  0.1503
 9071SOL     OW38848   1.361   2.766   7.393 -0.1487  0.1753 -1.1040
 9071SOL    HW138849   1.415   2.687   7.391 -1.4121 -0.7254  0.3517
 9071SOL    HW238850   1.286   2.721   7.432 -0.2851  0.8556 -0.5698
 9072SOL     OW38851   2.318   2.000   4.280 -0.8718  0.0155  0.1161
 9072SOL    HW138852   2.248   2.038   4.332 -0.6684  1.7121 -0.8495
 9072SOL    HW238853   2.322   2.044   4.195  1.4259 -1.7507 -0.6901
 9073SOL     OW38854   3.161   4.699   6.350 -0.2897 -0.4787 -0.0714
 9073SOL    HW138855   3.082   4.728   6.395  0.7665  2.0406  0.1365
 9073SOL    HW238856   3.198   0.044   6.317 -1.0756  0.5449  1.5569
 9074SOL     OW38857   0.863   2.092   2.937  0.1172  0.1427  0.0316
 9074SOL    HW138858   0.882   2.109   2.844 -2.1281  1.7985 -0.1212
 9074SOL    HW238859   0.794   2.156   2.951  1.1212  1.3086 -0.3713
 9075SOL     OW38860   1.433   4.617   4.138 -0.3799  0.1115  0.3425
 9075SOL    HW138861   1.529   4.626   4.142 -0.2821  0.0180 -1.9072
 9075SOL    HW238862   1.422   4.623   4.043  2.5186  2.5298  0.1581
 9076SOL     OW38863   1.520   2.280   6.554  0.3545  0.4134 -0.0137
 9076SOL    HW138864   1.569   2.198   6.551 -2.1500 -1.2523  3.3648
 9076SOL    HW238865   1.577   2.336   6.502 -1.8681  0.2797 -2.5910
 9077SOL     OW38866   2.522   1.966   7.421  0.5956 -0.4696 -0.0510
 9077SOL    HW138867   2.458   1.905   7.457 -0.0245 -1.4710 -2.8200
 9077SOL    HW238868   2.499   1.963   7.328 -0.4088 -1.5692  0.2372
 9078SOL     OW38869   4.560   1.771   8.410  0.1076  0.0455 -0.9426
 9078SOL    HW138870   4.599   1.698   8.458 -1.1396 -0.2355 -0.3543
 9078SOL    HW238871   4.496   1.810   8.470 -1.1974 -1.1318 -1.5482
 9079SOL     OW38872   2.696   3.353   7.992 -0.3861 -0.2805  0.7017
 9079SOL    HW138873   2.612   3.321   7.959 -1.2928  3.1060 -0.2929
 9079SOL    HW238874   2.724   3.413   7.923  0.8132 -1.2358  0.3635
 9080SOL     OW38875   2.940   1.896   0.446  0.2082  0.0455 -0.2140
 9080SOL    HW138876   2.965   1.924   0.534  0.9244  1.5232 -0.8837
 9080SOL    HW238877   3.024   1.864   0.416 -0.4733 -1.3735 -0.6011
 9081SOL     OW38878   4.224   4.313   8.657 -0.2323  0.7593 -0.5037
 9081SOL    HW138879   4.246   4.397   8.617 -1.9615  2.0623  1.2781
 9081SOL    HW238880   4.286   4.260   8.607 -1.5953  0.0722 -1.4775
 9082SOL     OW38881   2.032   4.115   4.670 -0.4710  0.4391 -0.4456
 9082SOL    HW138882   1.968   4.145   4.734 -0.6130  1.2689 -0.9825
 9082SOL    HW238883   2.028   4.019   4.678 -0.3412  0.5457  1.0135
 9083SOL     OW38884   3.307   4.105   6.342  0.4586 -0.3088 -0.4596
 9083SOL    HW138885   3.216   4.089   6.317 -0.1663  1.0108  1.0234
 9083SOL    HW238886   3.318   4.039   6.410  0.8095 -1.6488 -1.8090
 9084SOL     OW38887   4.064   0.442   4.735 -0.1624 -0.0458 -0.1347
 9084SOL    HW138888   4.016   0.489   4.803 -0.6846 -0.8037  0.0248
 9084SOL    HW238889   4.008   0.364   4.731 -3.1139  2.1789 -1.7118
 9085SOL     OW38890   1.402   3.008  11.994 -0.9449 -0.2687  0.0264
 9085SOL    HW138891   1.471   3.074  11.995 -0.5146 -0.7997  3.3806
 9085SOL    HW238892   1.411   2.976  11.904  1.0610  2.0834 -0.5935
 9086SOL     OW38893   1.880   3.903  17.533 -0.1984 -0.1518 -0.0129
 9086SOL    HW138894   1.849   3.846  17.462 -0.8603  0.2690 -0.0671
 9086SOL    HW238895   1.837   3.861  17.607  1.0092 -1.1538  0.1245
 9087SOL     OW38896   3.424   3.064   2.766 -0.0081  0.0746 -0.3521
 9087SOL    HW138897   3.386   3.024   2.688  0.7830 -0.2821 -0.5485
 9087SOL    HW238898   3.488   2.998   2.793  0.5565  0.2191 -1.3466
 9088SOL     OW38899   0.953   4.280   8.730  0.2610 -0.5560  0.0382
 9088SOL    HW138900   1.003   4.351   8.689 -0.1440 -0.4387 -0.2492
 9088SOL    HW238901   0.928   4.329   8.809  1.4242  0.8155 -0.4481
 9089SOL     OW38902   1.563   2.308   3.188  0.0062 -0.0471 -0.3583
 9089SOL    HW138903   1.563   2.404   3.186  0.4872 -0.0374  0.1196
 9089SOL    HW238904   1.550   2.291   3.281 -1.4665 -0.7861 -0.6952
 9090SOL     OW38905   1.342   4.545   1.987  0.0754 -1.0532  0.8826
 9090SOL    HW138906   1.333   4.506   1.901 -0.7023 -0.7100  0.8140
 9090SOL    HW238907   1.401   4.617   1.965 -1.5971  1.1037  3.3503
 9091SOL     OW38908   1.860   1.146   8.017  0.2904  0.6992  0.3357
 9091SOL    HW138909   1.892   1.236   8.027  1.6766  0.4096 -1.7052
 9091SOL    HW238910   1.857   1.131   7.923  0.4495  3.1014 -0.0500
 9092SOL     OW38911   2.466   4.631   6.523  0.0667 -0.9974 -0.1767
 9092SOL    HW138912   2.480   4.538   6.538  1.3613 -1.0671 -1.8301
 9092SOL    HW238913   2.413   4.657   6.599  0.7142 -2.4452  0.7616
 9093SOL     OW38914   4.259   2.020   3.153 -0.3222  0.1338  0.6338
 9093SOL    HW138915   4.312   2.066   3.218  1.3578  1.8306 -1.9285
 9093SOL    HW238916   4.236   1.940   3.202 -1.2981 -1.1682 -1.9640
 9094SOL     OW38917   0.656   1.805   2.456  0.2621 -0.1829 -0.2155
 9094SOL    HW138918   0.565   1.794   2.484  0.0296  1.0430 -0.4706
 9094SOL    HW238919   0.663   1.900   2.462  2.3700 -0.4400  1.2746
 9095SOL     OW38920   1.249   0.604   0.426 -0.1231 -0.4131  0.4572
 9095SOL    HW138921   1.164   0.576   0.459  0.2047 -1.4073  0.4453
 9095SOL    HW238922   1.217   0.647   0.346  1.6658  0.7239  0.3519
 9096SOL     OW38923   1.229   1.880  15.575 -0.4201  0.1515 -0.5953
 9096SOL    HW138924   1.246   1.792  15.609 -1.1312 -0.2434 -1.2796
 9096SOL    HW238925   1.269   1.937  15.641  0.5252  1.0363 -1.9141
 9097SOL     OW38926   2.649   4.236  11.675  0.5991  0.2923  0.2493
 9097SOL    HW138927   2.693   4.314  11.642  0.2614  0.7826  0.9631
 9097SOL    HW238928   2.690   4.167  11.622  1.7530  0.5926  0.7452
 9098SOL     OW38929   0.055   4.689   3.929 -0.2452  0.0954  0.0607
 9098SOL    HW138930   0.066   4.690   4.024 -1.6767  1.3972  0.2000
 9098SOL    HW238931   4.700   4.663   3.922 -0.2100 -0.0752  0.2248
 9099SOL     OW38932   4.027   2.914   5.820  0.0576 -0.1222  0.5377
 9099SOL    HW138933   3.941   2.895   5.858 -1.3669  0.5394 -2.3524
 9099SOL    HW238934   4.006   2.973   5.747  0.7007 -0.7458 -0.1538
 9100SOL     OW38935   4.382   0.770   5.982 -0.9266  0.0644  0.4890
 9100SOL    HW138936   4.384   0.810   5.895  1.7620 -1.0781  0.0402
 9100SOL    HW238937   4.473   0.741   5.988 -0.4385  1.3898 -0.5524
 9101SOL     OW38938   4.392   4.354  11.171 -0.3997 -0.4584 -0.4214
 9101SOL    HW138939   4.389   4.448  11.193  0.1291 -0.2332 -1.2967
 9101SOL    HW238940   4.297   4.342  11.171 -0.4224 -0.1489 -2.4608
 9102SOL     OW38941   1.370   1.377   3.427  0.2949 -0.2598 -0.1362
 9102SOL    HW138942   1.355   1.363   3.333  0.6788  0.7535 -0.3467
 9102SOL    HW238943   1.458   1.341   3.441 -0.5118 -1.0604  2.8940
 9103SOL     OW38944   3.206   1.787   7.255  0.2219  0.4612 -0.4237
 9103SOL    HW138945   3.112   1.801   7.266  0.2400  0.7880 -0.6968
 9103SOL    HW238946   3.230   1.878   7.270  2.4083  0.1278 -1.9095
 9104SOL     OW38947   4.184   2.608  16.817  0.1319  0.3236 -0.3306
 9104SOL    HW138948   4.208   2.636  16.728  0.1797  1.3619  0.0091
 9104SOL    HW238949   4.131   2.531  16.795  0.9753  0.1892 -1.9018
 9105SOL     OW38950   0.312   2.188   2.731  0.7634 -0.1002 -0.4725
 9105SOL    HW138951   0.295   2.213   2.822  1.7173  0.5361 -0.4679
 9105SOL    HW238952   0.227   2.147   2.716  0.3640  0.5957 -0.1165
 9106SOL     OW38953   4.553   1.808   6.977 -0.1469  0.2147 -0.1600
 9106SOL    HW138954   4.478   1.783   6.923 -0.4193 -0.8721  0.7128
 9106SOL    HW238955   4.545   1.737   7.041  3.2735 -0.5820 -0.6089
 9107SOL     OW38956   2.924   2.710  11.723  0.5090  0.3175 -0.3939
 9107SOL    HW138957   2.837   2.725  11.760  0.6285 -0.6653  0.2865
 9107SOL    HW238958   2.908   2.658  11.644  1.9855  1.8348 -1.6706
 9108SOL     OW38959   4.348   3.928   8.323  0.2213  0.0709  0.0561
 9108SOL    HW138960   4.269   3.874   8.322 -1.3034  2.3144 -1.4818
 9108SOL    HW238961   4.328   3.980   8.246  0.9636  0.7382  0.3102
 9109SOL     OW38962   2.782   3.781   3.580  0.2630  0.2928  0.0784
 9109SOL    HW138963   2.765   3.819   3.494 -0.4203 -0.3122 -0.0601
 9109SOL    HW238964   2.696   3.746   3.604 -0.3433  1.1734 -0.8102
 9110SOL     OW38965   0.830   2.762  11.425 -0.0018  0.0830  0.2630
 9110SOL    HW138966   0.873   2.710  11.357 -0.3233  0.6066 -0.3434
 9110SOL    HW238967   0.906   2.797  11.472 -1.1624  1.7388  0.9067
 9111SOL     OW38968   1.788   3.456   4.131  0.0467  0.0208  0.1097
 9111SOL    HW138969   1.763   3.365   4.143 -1.3865  0.2140 -1.4382
 9111SOL    HW238970   1.834   3.465   4.214  0.7601  0.2671 -0.3047
 9112SOL     OW38971   2.735   3.481   6.951  0.1009 -0.1142 -0.1461
 9112SOL    HW138972   2.793   3.428   6.897 -0.2027  0.9210 -1.4825
 9112SOL    HW238973   2.794   3.521   7.015 -0.4146 -1.8277  1.4427
 9113SOL     OW38974   1.143   1.518  11.704 -0.1900 -0.0131 -0.1530
 9113SOL    HW138975   1.102   1.592  11.661  1.6133  0.0300 -1.8046
 9113SOL    HW238976   1.125   1.455  11.634 -0.5444 -0.7080  0.5667
 9114SOL     OW38977   0.813   0.005   2.581  0.4627 -0.6278 -0.2668
 9114SOL    HW138978   0.749   0.054   2.633  2.2925  0.0098  1.3557
 9114SOL    HW238979   0.810   4.655   2.621  0.8315 -0.1490  0.7931
 9115SOL     OW38980   2.442   2.650   8.554 -0.0088 -0.1317 -0.1548
 9115SOL    HW138981   2.412   2.593   8.483 -1.8808 -1.9900  2.1242
 9115SOL    HW238982   2.517   2.605   8.593 -1.2917 -0.5777  1.8021
 9116SOL     OW38983   1.455   2.962  15.360  0.0104 -0.2653 -0.5872
 9116SOL    HW138984   1.388   2.973  15.428  0.8977  1.3275  0.0364
 9116SOL    HW238985   1.418   2.891  15.308 -0.1460 -0.8224  0.3018
 9117SOL     OW38986   3.402   3.301  14.273  0.0657  0.2840 -0.3877
 9117SOL    HW138987   3.357   3.278  14.192 -0.7670 -0.0091  0.1672
 9117SOL    HW238988   3.354   3.380  14.298 -1.8824 -0.7473 -0.8729
 9118SOL     OW38989   1.341   1.780   8.516  0.0072 -0.2008 -0.6255
 9118SOL    HW138990   1.406   1.830   8.466 -0.8568  0.1042 -1.4624
 9118SOL    HW238991   1.318   1.845   8.583 -2.1999 -0.8463 -0.7534
 9119SOL     OW38992   2.969   2.628   4.499 -0.6761  0.2076 -0.4689
 9119SOL    HW138993   2.971   2.719   4.469 -0.5566 -0.1309 -1.4906
 9119SOL    HW238994   2.877   2.605   4.510 -0.1225 -1.6851  0.1125
 9120SOL     OW38995   3.065   0.288  15.485  0.2239  0.3420  0.2619
 9120SOL    HW138996   3.154   0.308  15.457  0.0637 -1.3006 -1.4531
 9120SOL    HW238997   3.065   0.337  15.567 -1.0630  0.8213 -0.0149
 9121SOL     OW38998   0.516   4.090  12.131 -0.6067  0.2573 -0.2512
 9121SOL    HW138999   0.440   4.035  12.152  1.6158 -2.9343 -0.4905
 9121SOL    HW239000   0.597   4.050  12.162 -0.6345 -1.2348 -2.0737
 9122SOL     OW39001   0.332   4.088   9.636 -0.2962 -0.0942 -0.4314
 9122SOL    HW139002   0.421   4.080   9.601 -0.3882 -0.8216 -0.4929
 9122SOL    HW239003   0.324   4.183   9.622 -0.1739 -0.0323 -0.0775
 9123SOL     OW39004   4.329   3.769   7.079 -0.0759  0.6070 -0.4617
 9123SOL    HW139005   4.345   3.770   6.985  1.4128 -0.1973 -0.2230
 9123SOL    HW239006   4.245   3.724   7.078  0.3708 -0.2605  0.7625
 9124SOL     OW39007   2.574   0.984   9.231  0.0982  0.5208  0.4288
 9124SOL    HW139008   2.668   1.000   9.241  0.4328 -1.6040  0.6571
 9124SOL    HW239009   2.567   0.913   9.168 -0.9084 -0.6306  1.8430
 9125SOL     OW39010   3.586   3.461   4.630  0.3173 -0.6147 -0.3464
 9125SOL    HW139011   3.608   3.438   4.540  0.4015  2.9009 -1.2398
 9125SOL    HW239012   3.570   3.373   4.665 -0.1312  1.1350  3.8815
 9126SOL     OW39013   4.099   3.056   3.143  0.6363  0.7160 -0.0528
 9126SOL    HW139014   4.074   2.993   3.211  2.1684 -0.3475 -0.4808
 9126SOL    HW239015   4.036   3.125   3.164 -1.8775 -1.3662 -0.6288
 9127SOL     OW39016   3.545   4.396  14.131 -0.0705  0.2923  0.2061
 9127SOL    HW139017   3.551   4.374  14.224 -0.4325 -0.9252 -0.0509
 9127SOL    HW239018   3.450   4.411  14.126 -0.4918 -2.9436 -1.4205
 9128SOL     OW39019   0.786   1.350   7.335  0.3669 -0.3290 -0.2041
 9128SOL    HW139020   0.737   1.294   7.274  1.2476  0.1117 -1.3206
 9128SOL    HW239021   0.707   1.374   7.384 -0.2376 -0.0179 -1.3267
 9129SOL     OW39022   3.081   4.383   6.806 -0.2693  0.2240  0.7007
 9129SOL    HW139023   3.034   4.340   6.877 -0.3734 -2.1872 -0.8339
 9129SOL    HW239024   3.013   4.413   6.745  0.5855 -0.1820 -0.4579
 9130SOL     OW39025   4.281   3.576   3.622 -0.0751  0.1186 -0.2900
 9130SOL    HW139026   4.238   3.521   3.557 -1.6104 -0.1972  0.9988
 9130SOL    HW239027   4.364   3.528   3.630 -0.6069 -0.8517 -0.6017
 9131SOL     OW39028   1.753   1.549  16.379 -0.1194 -0.5633  0.3687
 9131SOL    HW139029   1.775   1.458  16.360  0.1169 -0.5300  0.4830
 9131SOL    HW239030   1.659   1.554  16.396 -0.3773 -0.7418 -1.0723
 9132SOL     OW39031   3.485   4.649   6.028 -0.4511 -0.1130 -0.1350
 9132SOL    HW139032   3.541   4.724   6.046 -0.4009 -0.3973  0.8841
 9132SOL    HW239033   3.475   4.627   6.121  0.4471 -0.6233 -0.1605
 9133SOL     OW39034   3.107   0.212   1.354  0.2637  0.3631  0.4448
 9133SOL    HW139035   3.066   0.298   1.362 -1.8314 -0.2795 -3.1521
 9133SOL    HW239036   3.107   0.189   1.447  0.7727 -2.4553 -0.2344
 9134SOL     OW39037   1.590   2.899   3.479 -0.0607  0.5440 -0.1079
 9134SOL    HW139038   1.638   2.968   3.524 -1.3564 -0.1026  2.3218
 9134SOL    HW239039   1.648   2.860   3.414 -0.6000 -0.1582 -0.1728
 9135SOL     OW39040   4.076   0.798   4.961  0.4209  0.2593  0.3914
 9135SOL    HW139041   4.104   0.843   5.041 -0.2852 -0.7947  1.2328
 9135SOL    HW239042   4.160   0.764   4.930  1.3741  0.3584  2.8437
 9136SOL     OW39043   2.276   3.552   5.480 -0.0686 -0.3454  0.3648
 9136SOL    HW139044   2.204   3.526   5.423  0.1364 -1.2186  0.4963
 9136SOL    HW239045   2.214   3.595   5.539 -0.6969  0.7291 -1.0983
 9137SOL     OW39046   0.394   2.775   2.377  0.3966 -0.5026  0.0563
 9137SOL    HW139047   0.335   2.706   2.347  0.8020 -1.3426  1.1956
 9137SOL    HW239048   0.458   2.731   2.434  2.4295  1.9423 -0.3368
 9138SOL     OW39049   3.030   0.487   4.497  0.0510 -0.2453 -0.2425
 9138SOL    HW139050   2.988   0.571   4.517  0.6804  0.7400 -3.0077
 9138SOL    HW239051   3.041   0.497   4.402 -1.0567 -0.4065 -0.3919
 9139SOL     OW39052   2.882   4.075   5.433 -0.0845  0.2949 -0.0609
 9139SOL    HW139053   2.878   4.142   5.364 -1.9914  1.1337  0.8692
 9139SOL    HW239054   2.845   4.118   5.510  1.7918  1.3022  0.2830
 9140SOL     OW39055   3.405   4.301  13.586  0.0601 -0.4299 -0.1353
 9140SOL    HW139056   3.319   4.320  13.548  0.0286  0.9427  0.6184
 9140SOL    HW239057   3.421   4.216  13.546  3.2795 -0.5571  1.3877
 9141SOL     OW39058   2.611   2.025   7.895  0.3723 -0.1842 -0.6384
 9141SOL    HW139059   2.676   1.957   7.913  2.0506  1.7891  0.8611
 9141SOL    HW239060   2.553   1.989   7.828 -1.8396 -1.2233  1.8919
 9142SOL     OW39061   1.728   2.398   8.943 -0.3644 -0.0548 -0.1425
 9142SOL    HW139062   1.749   2.476   8.892 -0.4797 -0.4312 -0.7704
 9142SOL    HW239063   1.665   2.360   8.881  0.7853 -0.2506 -1.1697
 9143SOL     OW39064   4.234   4.152   6.073 -0.6352  0.5520  0.1477
 9143SOL    HW139065   4.217   4.092   6.001 -0.8449 -1.6031  2.0145
 9143SOL    HW239066   4.154   4.155   6.126  0.5810  0.5320  1.9620
 9144SOL     OW39067   0.200   2.839   3.972 -0.2047  0.8791 -0.5279
 9144SOL    HW139068   0.193   2.930   4.000 -0.6049  0.6225  0.1847
 9144SOL    HW239069   0.291   2.846   3.942 -0.4752  0.8570 -1.3685
 9145SOL     OW39070   2.623   0.850   3.431 -0.0840  0.2806  0.0429
 9145SOL    HW139071   2.578   0.907   3.493 -0.0032  1.3089 -0.8587
 9145SOL    HW239072   2.593   0.764   3.461 -0.2297  0.4209  0.3023
 9146SOL     OW39073   3.330   0.206   5.636  0.1557  0.5620  0.4658
 9146SOL    HW139074   3.318   0.123   5.682  0.1969 -1.5500 -3.2832
 9146SOL    HW239075   3.277   0.270   5.684 -1.1194 -0.6133  0.6374
 9147SOL     OW39076   4.153   0.636   2.146 -0.3499  0.0286 -0.4109
 9147SOL    HW139077   4.117   0.675   2.066 -0.7135  2.0037  0.6944
 9147SOL    HW239078   4.223   0.699   2.167 -0.1830 -0.2197 -0.2300
 9148SOL     OW39079   2.533   3.364   6.347 -0.1096 -0.1833  0.4847
 9148SOL    HW139080   2.447   3.354   6.305  0.7653 -1.3596 -1.0289
 9148SOL    HW239081   2.589   3.345   6.272  1.4771 -0.7539  1.8088
 9149SOL     OW39082   3.849   4.297  14.096  0.6149  0.2133  0.4778
 9149SOL    HW139083   3.847   4.326  14.188  0.2543 -1.0526  0.8725
 9149SOL    HW239084   3.942   4.289  14.073  0.5628 -0.1536  0.3964
 9150SOL     OW39085   1.125   1.858   3.296  0.1112 -0.2131 -0.2931
 9150SOL    HW139086   1.197   1.800   3.319  0.5564 -0.2829 -1.8920
 9150SOL    HW239087   1.142   1.931   3.356  2.7055  0.5126 -1.9220
 9151SOL     OW39088   3.991   4.140   6.220 -0.2213  0.2146  1.1628
 9151SOL    HW139089   3.921   4.176   6.274 -1.6921  0.4608 -0.8926
 9151SOL    HW239090   4.023   4.069   6.275  0.9763 -0.4750 -0.4213
 9152SOL     OW39091   1.603   4.641   2.947  0.0434  0.0225 -0.2353
 9152SOL    HW139092   1.553   4.650   2.866  3.2423 -2.6238 -2.4941
 9152SOL    HW239093   1.585   4.549   2.967  2.3651 -0.4986 -0.6052
 9153SOL     OW39094   3.392   0.134   3.018 -0.6845 -0.1256 -0.0888
 9153SOL    HW139095   3.442   0.061   3.054  0.6080  0.5887 -0.4399
 9153SOL    HW239096   3.457   0.202   3.039 -1.0908  0.5323 -0.9414
 9154SOL     OW39097   1.329   1.337   2.317 -0.0593 -0.2966  0.0322
 9154SOL    HW139098   1.408   1.351   2.265 -0.8046 -0.8675 -1.2701
 9154SOL    HW239099   1.345   1.413   2.374  3.3284 -0.0816 -1.1937
 9155SOL     OW39100   1.615   1.939  11.217 -0.3869 -0.2569 -0.2868
 9155SOL    HW139101   1.672   1.912  11.290 -0.6593  0.2122  0.1022
 9155SOL    HW239102   1.537   1.968  11.266  0.6758  4.1519 -1.2327
 9156SOL     OW39103   4.296   1.405   3.461 -0.3566  0.0083  0.1106
 9156SOL    HW139104   4.275   1.452   3.381 -2.1393  1.0677  1.1996
 9156SOL    HW239105   4.390   1.395   3.444 -0.2987 -1.0083  0.9897
 9157SOL     OW39106   0.700   3.062   5.380 -0.3216 -0.2207  0.0307
 9157SOL    HW139107   0.671   3.040   5.468 -2.3544  2.3921  0.0151
 9157SOL    HW239108   0.640   3.022   5.318 -0.9889 -1.6382  1.6077
 9158SOL     OW39109   1.933   2.224   2.063  0.1445 -0.2582 -0.1125
 9158SOL    HW139110   1.978   2.150   2.022 -1.9480 -2.2902  1.2201
 9158SOL    HW239111   2.007   2.259   2.113 -0.1272 -2.9269  2.1615
 9159SOL     OW39112   0.695   3.336   4.054 -0.5927  0.3358 -0.1995
 9159SOL    HW139113   0.673   3.292   3.972 -3.1420  2.4261 -0.6313
 9159SOL    HW239114   0.769   3.282   4.081  1.9804  3.2241 -1.5036
 9160SOL     OW39115   1.162   3.197   3.852 -0.2522  0.1637 -0.3746
 9160SOL    HW139116   1.143   3.272   3.909  0.9276  1.5783 -1.8082
 9160SOL    HW239117   1.219   3.238   3.786 -0.7086  0.1714 -0.7623
 9161SOL     OW39118   3.272   1.556   0.942 -0.0581 -0.9827  0.1984
 9161SOL    HW139119   3.350   1.503   0.956  1.5236  1.4936  0.6292
 9161SOL    HW239120   3.246   1.569   1.034  0.4265 -1.5939  0.4207
 9162SOL     OW39121   3.880   3.462   5.370  0.4207 -0.0244  0.1914
 9162SOL    HW139122   3.888   3.529   5.439 -1.4042 -0.8453  1.1982
 9162SOL    HW239123   3.786   3.453   5.357  0.1163  1.9553  0.9247
 9163SOL     OW39124   3.915   0.313   8.877 -0.4339  0.1376 -0.2876
 9163SOL    HW139125   3.835   0.346   8.836 -1.5104 -2.0096  0.0948
 9163SOL    HW239126   3.943   0.375   8.945  1.3158 -1.3221  0.3093
 9164SOL     OW39127   4.689   3.266   4.144 -0.1412 -0.3218 -0.3626
 9164SOL    HW139128   4.613   3.310   4.108 -1.2305  1.8095  4.6384
 9164SOL    HW239129   4.672   3.269   4.238  0.7574 -0.1125 -0.2081
 9165SOL     OW39130   1.069   4.592   3.541  0.4472  0.4524  0.3734
 9165SOL    HW139131   1.118   4.573   3.461  2.2322  0.9838  1.3196
 9165SOL    HW239132   1.137   4.561   3.601  0.1380  3.2026  2.1930
 9166SOL     OW39133   1.322   0.005   5.246  0.7719  0.4510 -0.2788
 9166SOL    HW139134   1.306   4.688   5.168  0.9087  0.6642 -0.4512
 9166SOL    HW239135   1.239   4.735   5.295  1.4964 -1.2735  0.7255
 9167SOL     OW39136   2.992   1.493   3.434  0.1565  0.0403 -0.2050
 9167SOL    HW139137   3.064   1.535   3.386 -0.4709  2.0388  0.5990
 9167SOL    HW239138   2.919   1.531   3.385 -0.2003  0.5887  0.7560
 9168SOL     OW39139   1.318   3.276   7.983  0.4382  0.0271  0.0804
 9168SOL    HW139140   1.319   3.360   8.031  1.2569  0.2818 -0.3918
 9168SOL    HW239141   1.227   3.253   7.999  0.5065  0.0843  0.5598
 9169SOL     OW39142   1.718   0.582  13.855 -0.4995 -0.2203 -0.2835
 9169SOL    HW139143   1.809   0.591  13.828  0.0830 -2.5838  0.8881
 9169SOL    HW239144   1.679   0.654  13.805 -1.4996 -0.7888 -0.3355
 9170SOL     OW39145   3.691   2.635  12.149  0.4889  0.0590  0.3958
 9170SOL    HW139146   3.780   2.633  12.115  0.7331 -0.5219  1.0646
 9170SOL    HW239147   3.646   2.695  12.090 -0.1594 -0.5806  0.2455
 9171SOL     OW39148   4.314   4.625   1.866 -0.3293  0.2917 -0.3467
 9171SOL    HW139149   4.400   4.596   1.836 -0.0458  0.3082  0.4296
 9171SOL    HW239150   4.276   4.682   1.799 -1.9302 -1.7158 -1.1175
 9172SOL     OW39151   3.126   3.408   9.469 -0.3609 -0.0908 -0.2133
 9172SOL    HW139152   3.076   3.377   9.393 -0.1837 -0.9098  0.0121
 9172SOL    HW239153   3.203   3.442   9.423 -0.5644 -0.7543 -1.0445
 9173SOL     OW39154   0.616   0.945  17.687  0.2750 -0.1148 -0.0125
 9173SOL    HW139155   0.630   0.972   0.033  0.4672 -0.6510  0.1188
 9173SOL    HW239156   0.697   0.975  17.645 -0.7300  1.5663 -0.7336
 9174SOL     OW39157   4.089   1.340  15.137 -0.1626  0.1313  0.7130
 9174SOL    HW139158   4.100   1.377  15.225  2.2884 -0.2766  0.5517
 9174SOL    HW239159   4.051   1.255  15.156 -0.2942  0.5058  2.1086
 9175SOL     OW39160   2.308   0.092   3.013 -0.2157 -0.0201  0.4748
 9175SOL    HW139161   2.297   0.001   3.042  1.0262 -0.3692 -0.1636
 9175SOL    HW239162   2.271   0.090   2.925  1.7282 -0.7762 -0.3146
 9176SOL     OW39163   3.452   2.104  12.351  0.4907 -0.0759 -0.2481
 9176SOL    HW139164   3.532   2.147  12.382  0.1478 -0.3311  0.9910
 9176SOL    HW239165   3.446   2.020  12.395 -1.5092 -0.4662 -1.2716
 9177SOL     OW39166   0.442   3.613   5.209  0.4905  0.3709  0.0053
 9177SOL    HW139167   0.459   3.604   5.115  0.8003 -0.5153  0.1530
 9177SOL    HW239168   0.527   3.605   5.252  0.1956 -0.6937  0.3771
 9178SOL     OW39169   0.008   2.145   2.710 -0.0101 -0.2101  0.1972
 9178SOL    HW139170   0.014   2.147   2.806 -1.5479 -0.6962  0.3110
 9178SOL    HW239171   4.703   2.231   2.700  0.4537  0.1789  1.5851
 9179SOL     OW39172   3.058   3.162   5.862 -0.9363 -0.2297  0.1350
 9179SOL    HW139173   3.117   3.150   5.936  0.7187 -0.7446 -1.2577
 9179SOL    HW239174   3.107   3.143   5.781  1.9162  3.0507  1.0796
 9180SOL     OW39175   3.493   3.587   8.477 -0.4216  0.0377 -0.3219
 9180SOL    HW139176   3.497   3.512   8.418 -0.3825  0.7223 -1.1910
 9180SOL    HW239177   3.573   3.639   8.475 -0.8575  0.5427 -3.4960
 9181SOL     OW39178   0.830   2.020   6.922 -0.5837 -0.4267  0.1000
 9181SOL    HW139179   0.875   1.939   6.945 -1.4255 -0.2413  2.3452
 9181SOL    HW239180   0.849   2.073   6.999 -0.6009  1.1611 -0.9962
 9182SOL     OW39181   2.626   3.415   8.828  0.0701 -0.3708 -0.6370
 9182SOL    HW139182   2.719   3.390   8.828 -0.1529 -1.2163  0.3675
 9182SOL    HW239183   2.592   3.342   8.880 -0.9627 -0.0962 -0.9316
 9183SOL     OW39184   4.251   0.337   4.920  0.3215  0.1941  0.3741
 9183SOL    HW139185   4.177   0.354   4.861  1.2420  1.2747 -0.4667
 9183SOL    HW239186   4.319   0.348   4.854 -1.0839  0.8473 -0.9781
 9184SOL     OW39187   1.078   3.393  10.071 -0.5844  0.2791  0.4795
 9184SOL    HW139188   1.078   3.360  10.160  1.6058 -2.4224 -0.5124
 9184SOL    HW239189   1.040   3.481  10.071 -3.1426 -0.8366 -1.8184
 9185SOL     OW39190   0.923   3.366  17.360  0.2628  0.4259  0.1581
 9185SOL    HW139191   0.922   3.320  17.276 -0.7603 -0.8801  0.8910
 9185SOL    HW239192   1.001   3.421  17.353 -1.5328  2.7035 -2.2642
 9186SOL     OW39193   3.465   1.225  15.054  0.5137  0.3733 -0.1539
 9186SOL    HW139194   3.419   1.161  14.999  0.5577  1.0582 -0.9956
 9186SOL    HW239195   3.406   1.300  15.062  0.6799  0.6656 -1.5527
 9187SOL     OW39196   4.003   3.779   3.625  0.2957  0.3503 -0.3623
 9187SOL    HW139197   4.087   3.788   3.669 -0.9016 -2.9182  2.5220
 9187SOL    HW239198   3.973   3.870   3.622  0.7234  0.5095  0.2317
 9188SOL     OW39199   3.540   4.526  12.591 -0.3930 -0.2967 -0.4913
 9188SOL    HW139200   3.508   4.454  12.536  1.5374 -0.2000 -1.7295
 9188SOL    HW239201   3.598   4.475  12.648 -0.6431  0.2937  0.2920
 9189SOL     OW39202   3.321   2.993   4.228 -0.3443  0.7240 -0.1731
 9189SOL    HW139203   3.260   3.066   4.219  2.1739  2.9123  0.5318
 9189SOL    HW239204   3.269   2.927   4.274  1.6221 -0.0829  0.9026
 9190SOL     OW39205   1.526   3.007   6.087  0.4951  0.0397 -0.4666
 9190SOL    HW139206   1.519   3.011   6.183 -0.4559 -0.7780 -0.5008
 9190SOL    HW239207   1.435   2.980   6.074 -0.2639  1.7670  1.2109
 9191SOL     OW39208   0.994   4.620   5.711 -1.0751  0.1848 -0.3086
 9191SOL    HW139209   0.941   4.589   5.637 -0.0667 -0.3743 -0.8093
 9191SOL    HW239210   0.934   4.610   5.785  0.2781 -1.0210  0.6334
 9192SOL     OW39211   3.348   0.980   5.198  0.2972 -0.3010 -0.0401
 9192SOL    HW139212   3.405   1.057   5.197 -0.0599 -0.0529 -0.8483
 9192SOL    HW239213   3.305   0.982   5.284 -0.8777  0.4364 -0.6338
 9193SOL     OW39214   3.980   2.707   5.453 -0.3237 -0.9455  0.4814
 9193SOL    HW139215   3.936   2.666   5.378  1.9897 -2.0542 -0.2603
 9193SOL    HW239216   4.065   2.663   5.452  0.3880  0.5009 -1.9344
 9194SOL     OW39217   4.041   0.230   8.003 -0.3865  0.8819 -0.4709
 9194SOL    HW139218   4.108   0.209   7.938 -0.8369 -0.7974 -0.3905
 9194SOL    HW239219   4.075   0.192   8.084 -1.7537  0.0423 -0.2778
 9195SOL     OW39220   2.819   1.538  12.499 -0.3109 -0.2645  0.2457
 9195SOL    HW139221   2.833   1.517  12.407 -1.7113  2.1504 -0.5204
 9195SOL    HW239222   2.801   1.457  12.546 -1.1672  0.2819  0.8469
 9196SOL     OW39223   4.235   1.118   7.506 -0.4139 -0.3522 -0.5994
 9196SOL    HW139224   4.286   1.096   7.584  1.0503  0.7981 -1.2444
 9196SOL    HW239225   4.169   1.049   7.508 -0.0608 -0.6906 -0.6062
 9197SOL     OW39226   1.936   2.896  12.499 -0.0853  0.1525 -0.6604
 9197SOL    HW139227   1.991   2.830  12.541 -0.1081  1.0444  0.7713
 9197SOL    HW239228   1.884   2.933  12.570 -2.0689 -1.5882 -1.2040
 9198SOL     OW39229   0.051   0.915   7.415  0.1257  0.1591 -0.2035
 9198SOL    HW139230   0.080   0.869   7.493  4.3246  1.1782 -1.1655
 9198SOL    HW239231   0.119   0.900   7.349  0.7669 -1.0843  0.7446
 9199SOL     OW39232   0.064   2.929  13.934  0.0009 -0.4355 -0.5012
 9199SOL    HW139233   0.104   2.847  13.962 -1.1492 -1.5388 -2.0877
 9199SOL    HW239234   0.026   2.956  14.018  1.3936  0.0143 -0.0051
 9200SOL     OW39235   4.349   1.114   7.979  0.1673  0.2939 -1.0046
 9200SOL    HW139236   4.291   1.189   7.964  0.6367  1.2541  1.7757
 9200SOL    HW239237   4.384   1.074   7.900 -0.5875 -0.2641 -1.0539
 9201SOL     OW39238   4.726   4.065   8.637  0.5451  0.1973  0.6359
 9201SOL    HW139239   4.638   4.040   8.610  1.1473 -1.4037  0.1663
 9201SOL    HW239240   4.708   4.136   8.699  0.7111  1.5978 -0.9270
 9202SOL     OW39241   0.421   4.014   8.815  0.1113 -0.1982 -0.4082
 9202SOL    HW139242   0.466   3.964   8.747 -1.7198 -0.9177 -1.1020
 9202SOL    HW239243   0.335   3.975   8.800  0.9428 -1.8909 -0.7782
 9203SOL     OW39244   4.466   3.496   8.997  0.5871 -0.3158  0.4021
 9203SOL    HW139245   4.556   3.506   8.966  1.2950 -1.2009  2.1573
 9203SOL    HW239246   4.467   3.491   9.093  0.4513 -2.3311  0.3118
 9204SOL     OW39247   2.256   2.227   6.991  0.0557  0.2602 -0.1785
 9204SOL    HW139248   2.229   2.278   6.915  1.1825 -0.1041 -0.8305
 9204SOL    HW239249   2.267   2.289   7.064 -2.7856 -1.8882  2.0672
 9205SOL     OW39250   3.873   0.080   6.099 -0.0624 -0.1524 -0.2505
 9205SOL    HW139251   3.905   0.168   6.079  1.0677 -0.2384  1.2328
 9205SOL    HW239252   3.890   0.032   6.018 -3.1565  3.8145 -3.2388
 9206SOL     OW39253   2.855   3.327   1.601  0.2839 -0.3709  0.2111
 9206SOL    HW139254   2.849   3.301   1.693  1.0147 -2.0272 -0.2067
 9206SOL    HW239255   2.925   3.268   1.572  0.2101 -0.2234 -0.2812
 9207SOL     OW39256   4.271   4.483   3.409 -0.1330 -0.0029  0.3206
 9207SOL    HW139257   4.357   4.476   3.367 -0.2897  3.3544 -0.5126
 9207SOL    HW239258   4.226   4.495   3.326 -1.0736 -1.8598  0.5652
 9208SOL     OW39259   3.878   4.319   6.981  0.4335 -0.1196 -0.5511
 9208SOL    HW139260   3.894   4.239   7.031 -1.0189 -0.5742 -0.8301
 9208SOL    HW239261   3.948   4.311   6.916  0.1260 -0.3386 -0.8586
 9209SOL     OW39262   4.027   1.903   8.338  0.0861 -0.4593 -0.1256
 9209SOL    HW139263   4.097   1.958   8.375 -2.0119  0.2627  2.8045
 9209SOL    HW239264   3.980   1.875   8.417  0.2784 -0.0433  0.1417
 9210SOL     OW39265   3.348   0.147   6.204 -0.3953  0.2542 -0.7317
 9210SOL    HW139266   3.372   0.194   6.124 -0.0865 -0.8091 -1.2654
 9210SOL    HW239267   3.434   0.116   6.231 -0.9861  0.9211  1.8756
 9211SOL     OW39268   2.402   4.486   2.164  0.0197  0.6793  0.1916
 9211SOL    HW139269   2.372   4.548   2.230  1.5446 -0.4951  1.9758
 9211SOL    HW239270   2.319   4.446   2.139  1.4458 -1.1796 -1.6103
 9212SOL     OW39271   2.333   0.584   0.656  0.0238 -0.1966 -0.1249
 9212SOL    HW139272   2.302   0.675   0.659  0.5563 -0.0158 -0.2536
 9212SOL    HW239273   2.389   0.590   0.579  0.4407 -1.1818  0.1042
 9213SOL     OW39274   0.968   1.862   0.631 -0.2362  0.2676 -0.6760
 9213SOL    HW139275   0.931   1.852   0.719  3.1352  0.8546  0.7931
 9213SOL    HW239276   0.967   1.773   0.596  2.0575  0.6972 -1.8469
 9214SOL     OW39277   3.581   0.309   5.216  0.0160  0.9548  0.1178
 9214SOL    HW139278   3.507   0.352   5.173  0.1608  0.6381 -0.4521
 9214SOL    HW239279   3.552   0.297   5.307  0.0417  0.3491  0.0519
 9215SOL     OW39280   0.806   1.053  14.056 -0.1365 -0.9679  0.4342
 9215SOL    HW139281   0.872   1.118  14.030 -0.3568 -0.8743  0.1101
 9215SOL    HW239282   0.737   1.087  13.999  0.4289  0.4784  0.6132
 9216SOL     OW39283   2.063   1.829   4.184 -0.2061  0.6791 -0.2853
 9216SOL    HW139284   2.136   1.883   4.153 -0.6630  1.4819  0.0475
 9216SOL    HW239285   1.992   1.843   4.121  0.1657 -0.2531 -0.9077
 9217SOL     OW39286   0.100   2.888   1.768 -0.0628  0.5637 -0.0379
 9217SOL    HW139287   0.150   2.953   1.719  1.8932 -0.8192  0.0854
 9217SOL    HW239288   0.156   2.810   1.766 -1.4829 -0.4126 -1.2540
 9218SOL     OW39289   2.014   2.889   6.293 -0.2331  0.6042  0.0753
 9218SOL    HW139290   2.073   2.939   6.237  1.2387 -1.5519 -0.2696
 9218SOL    HW239291   2.067   2.817   6.327 -3.4376 -1.6890  0.2188
 9219SOL     OW39292   3.255   4.226   3.753 -0.2505  0.5562  0.1035
 9219SOL    HW139293   3.256   4.243   3.659  0.0965 -0.2637 -0.0422
 9219SOL    HW239294   3.240   4.132   3.763 -0.5149  0.6197  0.2867
 9220SOL     OW39295   4.317   3.591   5.250 -0.3170 -0.4438  0.6020
 9220SOL    HW139296   4.406   3.559   5.233 -0.8975 -2.3737  1.1924
 9220SOL    HW239297   4.285   3.502   5.264  1.4075 -1.6415 -3.0328
 9221SOL     OW39298   2.437   2.846   7.659 -0.1681  0.5591 -0.2935
 9221SOL    HW139299   2.392   2.882   7.583 -1.8196 -0.3809  0.2358
 9221SOL    HW239300   2.356   2.821   7.704 -0.5514 -1.3757 -2.0980
 9222SOL     OW39301   4.378   1.545   2.443 -0.0608 -0.1296 -0.2252
 9222SOL    HW139302   4.339   1.624   2.405  2.0044  1.8333  1.7575
 9222SOL    HW239303   4.399   1.566   2.534  2.0784 -0.6315 -0.6019
 9223SOL     OW39304   1.766   2.395   5.424 -0.8610 -0.0464 -0.2556
 9223SOL    HW139305   1.764   2.389   5.520 -1.0485 -0.9211 -0.3133
 9223SOL    HW239306   1.834   2.330   5.411  0.1821  0.5155  2.2940
 9224SOL     OW39307   1.509   1.342  14.748  0.1684  0.0026  0.8303
 9224SOL    HW139308   1.576   1.405  14.774 -0.7991  1.1933  0.4440
 9224SOL    HW239309   1.427   1.385  14.772  0.7840  1.0219  1.1167
 9225SOL     OW39310   1.821   4.455   8.907  0.2427  0.0681  0.4892
 9225SOL    HW139311   1.753   4.419   8.964  0.1160 -2.3199 -1.1850
 9225SOL    HW239312   1.827   4.396   8.832 -0.4892 -2.2115  2.1951
 9226SOL     OW39313   1.538   0.205   8.907 -0.2938  0.3915 -0.3043
 9226SOL    HW139314   1.600   0.183   8.837 -2.5345  0.6416 -2.3473
 9226SOL    HW239315   1.455   0.189   8.863 -1.2613  3.0023  0.5648
 9227SOL     OW39316   2.381   0.080  12.885 -0.4129  0.3439 -0.4013
 9227SOL    HW139317   2.453   0.064  12.946  0.3951  0.2217 -1.3788
 9227SOL    HW239318   2.328   0.005  12.911  1.0442 -0.8444 -0.8820
 9228SOL     OW39319   4.107   4.715   8.507  0.0543  0.0602  0.1766
 9228SOL    HW139320   4.079   0.016   8.591  1.1426 -0.2909  0.6929
 9228SOL    HW239321   4.100   0.063   8.463 -0.3256  0.3385  0.7722
 9229SOL     OW39322   1.346   3.925  16.954 -0.7859  0.2087 -0.6640
 9229SOL    HW139323   1.299   3.973  16.887  0.4672  0.2334 -1.5163
 9229SOL    HW239324   1.299   3.945  17.035  1.9827 -0.0634  1.0156
 9230SOL     OW39325   0.909   2.317   3.266 -0.5258  0.6692 -0.0540
 9230SOL    HW139326   0.855   2.373   3.321 -0.0665  1.2205 -0.1675
 9230SOL    HW239327   0.863   2.233   3.273 -1.9662  1.4266 -0.3760
 9231SOL     OW39328   4.336   0.556   5.595 -0.4373 -0.3908 -0.1002
 9231SOL    HW139329   4.387   0.541   5.515 -1.5525  0.0365 -0.8844
 9231SOL    HW239330   4.259   0.596   5.555 -0.6231  0.8121  1.4660
 9232SOL     OW39331   0.807   1.336  11.668  1.0871 -0.0322 -0.3631
 9232SOL    HW139332   0.772   1.424  11.682  1.0598 -0.5347  2.7718
 9232SOL    HW239333   0.841   1.330  11.757 -0.2027 -2.0009  0.0085
 9233SOL     OW39334   3.730   0.034   1.092  0.2800 -0.4420 -0.4941
 9233SOL    HW139335   3.763   4.682   1.075 -0.4520 -0.7786 -0.1429
 9233SOL    HW239336   3.640   0.014   1.116  0.0829 -0.5209 -1.2733
 9234SOL     OW39337   0.304   3.893   4.305  0.1605 -0.1151 -0.2701
 9234SOL    HW139338   0.215   3.927   4.312  1.4037  2.9041  0.8321
 9234SOL    HW239339   0.335   3.951   4.236  1.7088 -1.5479 -0.7838
 9235SOL     OW39340   3.640   0.102  15.408 -0.2034  0.5335 -0.3765
 9235SOL    HW139341   3.593   0.040  15.464 -1.9820 -0.5236 -3.0309
 9235SOL    HW239342   3.656   0.174  15.469 -0.7704  1.8694 -1.7910
 9236SOL     OW39343   2.325   3.438   2.959 -0.3579 -0.0711  0.0029
 9236SOL    HW139344   2.402   3.478   2.917 -0.8735 -0.8796 -1.7285
 9236SOL    HW239345   2.294   3.374   2.895  1.2337 -2.5589  1.7242
 9237SOL     OW39346   4.283   1.455   5.381  0.1562  0.3284 -0.7171
 9237SOL    HW139347   4.349   1.460   5.449  1.3914  1.0192 -1.9743
 9237SOL    HW239348   4.340   1.411   5.318 -1.9371 -0.1156 -2.3220
 9238SOL     OW39349   1.709   4.013  12.266  0.7175  0.1509  0.9616
 9238SOL    HW139350   1.652   3.942  12.234  1.1970 -0.3375  1.1862
 9238SOL    HW239351   1.783   3.963  12.300  2.0231  0.9935 -0.6673
 9239SOL     OW39352   1.209   0.508   7.904 -0.1666  0.6149 -0.0020
 9239SOL    HW139353   1.166   0.563   7.969 -0.6338  1.4329 -1.0234
 9239SOL    HW239354   1.173   0.543   7.823  0.0577 -1.4176 -1.0033
 9240SOL     OW39355   4.407   3.008  14.042 -0.0352 -0.0880  0.5468
 9240SOL    HW139356   4.463   2.952  13.988 -0.6649  2.8495 -3.1339
 9240SOL    HW239357   4.454   3.012  14.126  2.7241 -1.9288 -0.9036
 9241SOL     OW39358   2.187   4.341   2.021  0.0109  0.5970 -0.1076
 9241SOL    HW139359   2.115   4.404   2.032  0.6742  0.8013  3.0519
 9241SOL    HW239360   2.129   4.285   1.969  0.1760  0.6414 -0.3418
 9242SOL     OW39361   2.858   3.800   9.946 -0.1706  0.1325 -0.2807
 9242SOL    HW139362   2.796   3.841   9.885 -2.4966 -0.9347  1.3474
 9242SOL    HW239363   2.908   3.879   9.966 -2.0306  1.0646  0.6772
 9243SOL     OW39364   1.346   0.235   4.194  0.0968  0.2899 -0.8317
 9243SOL    HW139365   1.306   0.279   4.119 -0.6101 -0.9693 -1.1869
 9243SOL    HW239366   1.381   0.304   4.252  2.2539 -0.5394 -1.1297
 9244SOL     OW39367   4.291   2.773   3.349 -0.1426 -0.3376  0.1304
 9244SOL    HW139368   4.375   2.817   3.347 -0.6329  0.6754  1.2616
 9244SOL    HW239369   4.229   2.845   3.337 -2.6367 -2.2730  1.1830
 9245SOL     OW39370   0.344   0.547   6.083  0.2630 -0.7483 -0.6175
 9245SOL    HW139371   0.439   0.535   6.085  0.2579 -0.1890  2.4521
 9245SOL    HW239372   0.323   0.510   5.997 -2.9942 -0.3311 -0.0112
 9246SOL     OW39373   4.708   0.436   7.343  0.2295  0.0477 -0.2691
 9246SOL    HW139374   0.028   0.466   7.414 -0.2272 -1.9626  0.9391
 9246SOL    HW239375   0.002   0.500   7.279 -1.3876  1.5747  0.4803
 9247SOL     OW39376   0.311   0.345   2.736 -0.5514 -0.4525  0.1243
 9247SOL    HW139377   0.356   0.429   2.736  1.4612 -1.5212 -1.0251
 9247SOL    HW239378   0.279   0.334   2.647  1.5895 -0.6642 -0.6185
 9248SOL     OW39379   1.621   1.083  10.733 -0.1578 -0.0105  0.4070
 9248SOL    HW139380   1.681   1.130  10.675  1.0152 -2.5470 -0.4148
 9248SOL    HW239381   1.613   1.004  10.680 -1.1329 -0.6809  1.5460
 9249SOL     OW39382   1.571   3.285   3.595  0.5532 -0.3305  0.0794
 9249SOL    HW139383   1.624   3.349   3.643 -0.3091 -0.0826  0.6969
 9249SOL    HW239384   1.523   3.245   3.668  0.8428  1.0964  1.0556
 9250SOL     OW39385   2.641   4.703  13.472 -0.4178  0.0715 -0.4859
 9250SOL    HW139386   2.577   4.653  13.522 -1.0575 -0.1947 -1.5674
 9250SOL    HW239387   2.587   4.733  13.399  0.9278 -0.5420 -1.7394
 9251SOL     OW39388   1.856   2.969  15.126 -0.0265 -0.1765  0.4650
 9251SOL    HW139389   1.772   2.985  15.083  0.8558 -1.5033 -1.7313
 9251SOL    HW239390   1.899   3.054  15.137 -0.2551 -0.0433  0.3235
 9252SOL     OW39391   4.130   0.632   7.412 -0.4735 -0.6129  0.2930
 9252SOL    HW139392   4.193   0.560   7.406  0.4838  0.4319 -2.4353
 9252SOL    HW239393   4.138   0.669   7.323  0.9750  0.7155  0.9651
 9253SOL     OW39394   2.932   1.248  15.210  0.6051  1.0869  0.4108
 9253SOL    HW139395   2.966   1.299  15.284  2.5627 -0.5136  0.5976
 9253SOL    HW239396   2.945   1.161  15.245 -2.6128  0.6294  0.4599
 9254SOL     OW39397   0.668   3.806   4.091 -0.3364  0.2670  0.3791
 9254SOL    HW139398   0.606   3.750   4.138  0.4360 -0.8427  0.0624
 9254SOL    HW239399   0.741   3.757   4.128 -0.4161  1.2279  1.8087
 9255SOL     OW39400   2.399   4.693   5.103  0.5097 -0.1451  0.0643
 9255SOL    HW139401   2.368   0.048   5.102  1.3719  0.1402 -0.4472
 9255SOL    HW239402   2.477   4.696   5.047  0.3553  0.7930 -0.1041
 9256SOL     OW39403   1.988   0.415   5.723 -0.0785  0.0068 -1.0897
 9256SOL    HW139404   1.959   0.424   5.632 -0.5094 -1.4995 -1.0901
 9256SOL    HW239405   1.926   0.352   5.760  1.3593  0.1502  1.5129
 9257SOL     OW39406   1.149   0.955   3.600  0.1034 -0.5538 -0.2305
 9257SOL    HW139407   1.149   1.039   3.645 -0.2257 -0.9241  0.4515
 9257SOL    HW239408   1.155   0.982   3.508 -0.4603 -1.2694 -0.4795
 9258SOL     OW39409   0.462   0.325   4.194  0.3775  0.5447 -0.3891
 9258SOL    HW139410   0.517   0.359   4.264 -0.2160  1.6657 -0.4726
 9258SOL    HW239411   0.470   0.401   4.137  1.7553  1.7558  1.3886
 9259SOL     OW39412   2.168   0.923  15.395 -0.5145 -0.2714 -0.0193
 9259SOL    HW139413   2.230   0.904  15.465 -0.2853  0.8629  0.0836
 9259SOL    HW239414   2.213   0.979  15.332  0.8975 -0.2775  0.9940
 9260SOL     OW39415   0.430   3.952   6.682 -0.4493 -0.1312  0.1136
 9260SOL    HW139416   0.479   3.872   6.697  1.1092  0.4833 -1.6522
 9260SOL    HW239417   0.351   3.921   6.638 -1.1708  0.9732  0.6396
 9261SOL     OW39418   2.512   2.181   1.451 -0.0588 -0.6609 -0.3604
 9261SOL    HW139419   2.477   2.122   1.385 -1.7702  0.5007 -0.4838
 9261SOL    HW239420   2.464   2.149   1.527 -0.0636 -1.4116 -0.6796
 9262SOL     OW39421   0.468   2.478  11.235  0.1162  0.1922  0.1963
 9262SOL    HW139422   0.402   2.506  11.298 -0.0393  0.6999 -0.1865
 9262SOL    HW239423   0.455   2.548  11.171 -0.6329  0.2843  0.4471
 9263SOL     OW39424   0.542   4.345  13.936 -0.0671 -0.2687 -0.0578
 9263SOL    HW139425   0.505   4.363  13.849 -0.2861 -1.5019 -0.2228
 9263SOL    HW239426   0.468   4.296  13.972 -1.5293 -0.8415 -3.7860
 9264SOL     OW39427   0.309   2.595  16.304 -0.0155  0.0035 -0.2247
 9264SOL    HW139428   0.220   2.631  16.298 -0.1272 -0.1077  0.7607
 9264SOL    HW239429   0.319   2.600  16.399 -0.2310  0.8128 -0.2461
 9265SOL     OW39430   4.050   2.092   7.128 -0.4223  0.5448 -0.1579
 9265SOL    HW139431   3.999   2.140   7.194  1.6778  1.7474  0.5940
 9265SOL    HW239432   4.075   2.012   7.175 -0.4963  1.0737  0.7872
 9266SOL     OW39433   1.628   2.024   2.741  0.8389  0.3948 -0.1316
 9266SOL    HW139434   1.537   2.045   2.760  0.2047 -2.0320 -0.5128
 9266SOL    HW239435   1.668   2.091   2.796  2.4161  0.3848 -1.2693
 9267SOL     OW39436   1.983   4.431   8.432 -0.1066 -0.5694 -0.0168
 9267SOL    HW139437   2.029   4.493   8.488 -0.2996  0.7651 -1.3580
 9267SOL    HW239438   2.021   4.347   8.459  0.1431  0.2083  2.0211
 9268SOL     OW39439   3.847   0.960   6.617  0.2832  0.4944  0.1200
 9268SOL    HW139440   3.816   0.915   6.539  0.3656  0.9715 -0.1822
 9268SOL    HW239441   3.875   1.042   6.579 -1.0452  0.2997 -1.2748
 9269SOL     OW39442   1.834   2.993   9.001 -0.6169 -0.0304 -0.5399
 9269SOL    HW139443   1.790   3.068   9.041 -3.9499 -2.0694 -0.3110
 9269SOL    HW239444   1.826   3.021   8.910  0.0709 -0.3621 -0.7010
 9270SOL     OW39445   4.167   3.836  14.396  0.4933 -0.0324  0.0145
 9270SOL    HW139446   4.100   3.892  14.434  0.0197  1.2099 -2.6398
 9270SOL    HW239447   4.125   3.752  14.412  1.2297  0.1322  2.8233
 9271SOL     OW39448   0.871   0.844   7.441  0.1090 -0.7357 -1.0400
 9271SOL    HW139449   0.949   0.799   7.407  0.1158 -0.3375 -1.5530
 9271SOL    HW239450   0.837   0.882   7.361  0.3918  1.0303 -0.3183
 9272SOL     OW39451   1.484   4.286   6.697  0.0333  0.5734  0.3599
 9272SOL    HW139452   1.418   4.352   6.718 -2.3599 -1.4602 -0.8312
 9272SOL    HW239453   1.428   4.235   6.639 -0.2607  1.1296  0.1549
 9273SOL     OW39454   1.732   4.021   5.656 -0.3958  0.2666 -0.4780
 9273SOL    HW139455   1.663   3.954   5.655 -0.1075 -0.0470  0.0922
 9273SOL    HW239456   1.811   3.968   5.649 -0.1291  0.9875 -2.8434
 9274SOL     OW39457   0.836   3.139   8.430 -0.1409  0.2792  0.7850
 9274SOL    HW139458   0.770   3.170   8.491 -2.1348  2.5046 -2.5028
 9274SOL    HW239459   0.802   3.052   8.409 -1.0752  0.9450 -0.4524
 9275SOL     OW39460   3.739   1.142  14.591 -0.3744 -0.1322 -0.1440
 9275SOL    HW139461   3.673   1.136  14.522  0.5655  1.4121 -1.2014
 9275SOL    HW239462   3.706   1.207  14.653 -2.8155 -0.1619 -1.4232
 9276SOL     OW39463   2.290   1.744   5.092 -0.2085 -0.4492 -0.0428
 9276SOL    HW139464   2.241   1.824   5.112 -1.5806 -1.3724  0.2531
 9276SOL    HW239465   2.220   1.679   5.088 -0.2008 -0.4566 -0.0579
 9277SOL     OW39466   2.230   2.719   2.478 -0.2918  1.0193  0.6006
 9277SOL    HW139467   2.280   2.721   2.396 -0.2756  1.5153  0.6170
 9277SOL    HW239468   2.291   2.664   2.527 -0.6346 -1.7921 -2.1713
 9278SOL     OW39469   3.724   0.387   9.706  0.7053 -0.3674 -0.3560
 9278SOL    HW139470   3.697   0.303   9.743  0.6027 -0.2222 -0.1012
 9278SOL    HW239471   3.665   0.375   9.631 -1.9059  2.6288  1.2341
 9279SOL     OW39472   1.775   3.317  17.366  0.4653  0.1315  0.5055
 9279SOL    HW139473   1.716   3.313  17.291 -1.6946 -0.0587  2.2249
 9279SOL    HW239474   1.728   3.297  17.446 -0.0116 -0.5407  0.0531
 9280SOL     OW39475   0.069   2.470  15.930 -0.3294  0.7345 -0.2395
 9280SOL    HW139476   0.154   2.492  15.968 -1.6197  1.0745  2.4733
 9280SOL    HW239477   0.041   2.412  16.001 -1.7577  1.5171 -0.1780
 9281SOL     OW39478   4.178   1.634   4.682 -0.2997  0.3661  0.3778
 9281SOL    HW139479   4.118   1.588   4.742  1.4135 -0.8745  1.1449
 9281SOL    HW239480   4.257   1.584   4.700  0.4905  1.6326  0.3747
 9282SOL     OW39481   3.072   0.450   4.197 -0.2109 -0.3606  0.1704
 9282SOL    HW139482   3.077   0.373   4.140 -1.8635  0.1423 -0.6482
 9282SOL    HW239483   3.158   0.492   4.189 -0.1085 -0.4679  0.7037
 9283SOL     OW39484   4.455   3.893   7.437 -0.7779 -0.5713 -0.1999
 9283SOL    HW139485   4.453   3.820   7.375 -0.3150 -0.3648 -0.4528
 9283SOL    HW239486   4.415   3.962   7.384  0.7819  0.1117 -0.4864
 9284SOL     OW39487   1.331   2.074  16.337  0.6114  0.1021  0.2548
 9284SOL    HW139488   1.350   2.159  16.375  1.4484 -0.3591  0.8685
 9284SOL    HW239489   1.344   2.023  16.417 -1.0995  0.3833  0.7289
 9285SOL     OW39490   0.304   0.309   5.928 -0.0865  0.2357 -0.2892
 9285SOL    HW139491   0.215   0.327   5.958  0.6419 -0.6032  2.3204
 9285SOL    HW239492   0.346   0.291   6.012  1.1195 -0.3766 -1.0317
 9286SOL     OW39493   1.075   1.333   4.199 -0.0579  0.0754  0.8136
 9286SOL    HW139494   1.140   1.278   4.242  1.2679  0.0123 -1.2687
 9286SOL    HW239495   1.119   1.417   4.192 -1.1999  0.4960 -1.4123
 9287SOL     OW39496   0.068   0.897   2.140  0.0138 -0.5053 -0.5603
 9287SOL    HW139497   0.071   0.903   2.235 -1.8594 -1.1356 -0.4506
 9287SOL    HW239498   0.095   0.807   2.125 -1.3342 -0.7796 -1.3803
 9288SOL     OW39499   1.632   4.091   4.597 -0.0972  0.1952  0.2135
 9288SOL    HW139500   1.604   4.002   4.617  1.3383 -0.5766 -1.1736
 9288SOL    HW239501   1.698   4.101   4.665  1.1478 -0.7145 -0.8756
 9289SOL     OW39502   1.706   3.656  16.835 -0.2058  0.0044 -0.0695
 9289SOL    HW139503   1.799   3.677  16.835 -0.3970  0.8482 -2.2893
 9289SOL    HW239504   1.696   3.649  16.740 -1.0501  0.1505  0.0073
 9290SOL     OW39505   2.954   1.457   4.867  0.2352  0.3961 -0.3070
 9290SOL    HW139506   3.017   1.446   4.938  0.7973  2.8867 -0.4355
 9290SOL    HW239507   3.010   1.423   4.796 -0.7016 -1.1823 -0.3088
 9291SOL     OW39508   1.081   0.839  11.822 -0.0836  0.1794  0.1290
 9291SOL    HW139509   1.068   0.821  11.729 -0.9293  2.3478 -0.1776
 9291SOL    HW239510   1.006   0.801  11.867 -0.7598 -0.7447 -1.7902
 9292SOL     OW39511   0.289   4.659   5.621 -0.1756 -0.8318  0.4030
 9292SOL    HW139512   0.357   4.630   5.683 -0.4964 -3.5843 -0.5447
 9292SOL    HW239513   0.220   4.683   5.683 -0.5341  2.4994 -1.3108
 9293SOL     OW39514   1.835   1.016   6.601  0.4555 -0.0816  0.5647
 9293SOL    HW139515   1.829   0.994   6.694 -0.4747  0.3592  0.6080
 9293SOL    HW239516   1.792   1.101   6.597 -0.1951 -0.3897  1.1034
 9294SOL     OW39517   1.133   2.000   2.095  0.3719  0.7668 -0.3172
 9294SOL    HW139518   1.226   2.023   2.096  0.5413  0.0203  0.5911
 9294SOL    HW239519   1.116   1.950   2.175  0.8424 -0.0420 -0.7176
 9295SOL     OW39520   0.641   0.200  13.740 -0.6879  0.2738  0.1324
 9295SOL    HW139521   0.656   0.159  13.655  0.6333 -1.7505  1.3380
 9295SOL    HW239522   0.593   0.134  13.790 -0.5974  0.7467  0.8477
 9296SOL     OW39523   1.036   4.265   3.165  0.3067  0.8388 -0.6365
 9296SOL    HW139524   1.109   4.205   3.173 -1.1896 -1.3464 -3.3017
 9296SOL    HW239525   0.988   4.248   3.246  0.1886  0.1596 -0.8468
 9297SOL     OW39526   2.285   1.515   8.132  0.5703 -0.5092  0.0063
 9297SOL    HW139527   2.284   1.578   8.060 -0.9151 -2.1359 -1.3792
 9297SOL    HW239528   2.267   1.558   8.216  0.6074 -0.6409  0.0811
 9298SOL     OW39529   1.379   1.357   3.119 -0.1466  0.0745  0.3490
 9298SOL    HW139530   1.360   1.319   3.033  1.1510 -0.7668  0.4361
 9298SOL    HW239531   1.376   1.448   3.089 -0.3258 -0.3780 -1.0193
 9299SOL     OW39532   1.400   4.276  12.187  0.1708 -0.4470  0.1852
 9299SOL    HW139533   1.356   4.326  12.119  0.1316  1.0164  1.2790
 9299SOL    HW239534   1.422   4.198  12.135 -0.7809  0.0213 -0.9061
 9300SOL     OW39535   3.493   3.356   7.048 -0.2663  0.0764  0.7099
 9300SOL    HW139536   3.547   3.296   6.997  2.1497  1.1575  1.9790
 9300SOL    HW239537   3.486   3.444   7.010  1.4024 -0.1950 -0.2216
 9301SOL     OW39538   0.641   2.943  15.739 -0.3936  0.2319 -0.3169
 9301SOL    HW139539   0.663   2.850  15.748 -0.6704  0.4158  2.4642
 9301SOL    HW239540   0.707   2.978  15.681  1.9058 -3.1187  0.2963
 9302SOL     OW39541   2.997   2.084   5.706 -0.4044  0.0330 -0.3395
 9302SOL    HW139542   3.006   2.002   5.754  2.5071  1.5211  1.6784
 9302SOL    HW239543   2.908   2.085   5.672 -0.7468 -1.3948  0.5115
 9303SOL     OW39544   3.015   4.149   4.291  0.3609  0.2162  0.3156
 9303SOL    HW139545   2.952   4.078   4.304  0.0556  0.6907  1.4156
 9303SOL    HW239546   3.076   4.128   4.361  0.7469 -0.1359 -0.1285
 9304SOL     OW39547   3.283   0.182  16.637  0.3156  0.3998 -0.6208
 9304SOL    HW139548   3.365   0.208  16.679  0.8213 -1.3005 -0.5458
 9304SOL    HW239549   3.228   0.177  16.715  1.1258  1.6133  0.0279
 9305SOL     OW39550   0.585   2.886   4.415 -0.0953  0.2604  0.0826
 9305SOL    HW139551   0.529   2.818   4.379 -0.6388 -0.5634  2.4408
 9305SOL    HW239552   0.547   2.974   4.411 -1.9188 -0.4643  1.3026
 9306SOL     OW39553   1.843   4.498  10.334 -0.2061 -0.0610 -0.2409
 9306SOL    HW139554   1.830   4.492  10.428  0.2366 -2.2764 -0.3340
 9306SOL    HW239555   1.934   4.476  10.319 -0.1137  1.0631 -1.4080
 9307SOL     OW39556   0.201   3.703  14.015 -0.1365 -0.4595  0.0468
 9307SOL    HW139557   0.248   3.640  13.960  0.9616 -0.8793  1.4537
 9307SOL    HW239558   0.145   3.644  14.066 -1.3378 -1.4462 -2.4449
 9308SOL     OW39559   2.439   2.270   4.446 -0.3105 -0.2211 -0.4815
 9308SOL    HW139560   2.396   2.190   4.475 -0.1502  0.0453  0.5157
 9308SOL    HW239561   2.396   2.284   4.362  0.1298 -0.5881 -0.7696
 9309SOL     OW39562   1.133   0.080   5.436 -0.2615 -0.0578  0.3264
 9309SOL    HW139563   1.055   0.136   5.437  1.7257  2.7171 -1.0690
 9309SOL    HW239564   1.124   0.028   5.517  0.1254  0.7711  0.8978
 9310SOL     OW39565   3.509   1.224   5.182  0.4545  0.4626  0.2466
 9310SOL    HW139566   3.550   1.306   5.155 -1.2420  1.0142 -0.5951
 9310SOL    HW239567   3.554   1.223   5.267 -0.3471  0.0646  0.6608
 9311SOL     OW39568   0.565   4.385   4.932 -0.1902  0.0680 -0.0570
 9311SOL    HW139569   0.582   4.412   5.022  2.2979 -5.0297  1.0146
 9311SOL    HW239570   0.562   4.462   4.875  0.5457  0.5137  0.5029
 9312SOL     OW39571   0.703   1.554   8.357  0.0269 -0.0537  0.1883
 9312SOL    HW139572   0.791   1.556   8.393  0.1482 -2.2679  0.0257
 9312SOL    HW239573   0.658   1.533   8.438  0.8015  0.4713  0.7457
 9313SOL     OW39574   1.673   1.248  12.025  0.3579  0.3394 -0.0084
 9313SOL    HW139575   1.615   1.324  12.027  0.5820  0.5142 -0.2783
 9313SOL    HW239576   1.752   1.288  11.990 -0.1805  0.4915 -1.0712
 9314SOL     OW39577   2.616   4.066   4.921  0.6871 -0.2288  0.0947
 9314SOL    HW139578   2.689   4.004   4.919 -0.3473 -1.4969  1.8784
 9314SOL    HW239579   2.578   4.040   5.004  0.1016 -3.0456 -1.0490
 9315SOL     OW39580   0.429   4.389   8.655  0.0173  0.0448 -0.2643
 9315SOL    HW139581   0.436   4.415   8.563  2.7202  2.1472  0.5181
 9315SOL    HW239582   0.338   4.362   8.649  0.3866 -1.1207 -0.5542
 9316SOL     OW39583   2.975   2.748   8.210 -1.0403  0.4391 -0.6503
 9316SOL    HW139584   2.979   2.832   8.164  1.9206  0.6822  0.0800
 9316SOL    HW239585   3.011   2.688   8.145 -0.0662 -1.2432  1.4620
 9317SOL     OW39586   0.769   0.339   8.432  0.1340  0.5619 -0.5634
 9317SOL    HW139587   0.743   0.428   8.409 -1.5071  0.6067  1.5037
 9317SOL    HW239588   0.849   0.320   8.384  1.2770  0.8717  1.1886
 9318SOL     OW39589   0.322   2.557   7.845  1.0869 -0.3992  0.6232
 9318SOL    HW139590   0.270   2.628   7.808  2.8329 -0.4533 -1.9486
 9318SOL    HW239591   0.408   2.590   7.822  1.5240 -1.5924  0.5351
 9319SOL     OW39592   2.816   4.042  11.538  0.4271 -0.1823  0.0193
 9319SOL    HW139593   2.904   4.041  11.576 -0.9187  0.5154  3.1116
 9319SOL    HW239594   2.835   3.974  11.473  0.6275 -0.2547  0.1540
 9320SOL     OW39595   4.710   3.663  10.992  0.3755  0.6119  0.2188
 9320SOL    HW139596   0.061   3.640  10.960  0.4184  1.2913 -0.1503
 9320SOL    HW239597   4.660   3.587  10.965 -0.4908  2.1169 -2.3741
 9321SOL     OW39598   2.278   0.385   2.842 -0.2289  0.0609 -0.1938
 9321SOL    HW139599   2.348   0.365   2.904  0.7754  1.8153 -0.7732
 9321SOL    HW239600   2.337   0.402   2.769 -1.7498  1.8318 -1.0372
 9322SOL     OW39601   3.847   2.190   2.363 -0.0392 -0.1261 -0.7008
 9322SOL    HW139602   3.890   2.193   2.277 -0.4018  0.4319 -0.8625
 9322SOL    HW239603   3.905   2.153   2.430 -1.1025  0.2125  0.3978
 9323SOL     OW39604   1.303   0.557   2.489 -0.0498 -0.3921 -0.3586
 9323SOL    HW139605   1.276   0.509   2.568  1.1728  0.0927  0.3466
 9323SOL    HW239606   1.325   0.642   2.525 -0.9101 -0.2731 -0.0963
 9324SOL     OW39607   4.155   1.119   1.892 -0.3826  0.1135  0.3520
 9324SOL    HW139608   4.140   1.034   1.849 -3.3875  0.5469  0.5283
 9324SOL    HW239609   4.076   1.172   1.879  0.2037  0.6232 -1.1466
 9325SOL     OW39610   1.183   3.361   6.358 -0.2297  0.0089  0.1583
 9325SOL    HW139611   1.271   3.384   6.328  0.0556  0.3535  1.2884
 9325SOL    HW239612   1.180   3.411   6.439 -1.1075 -1.5323  1.0710
 9326SOL     OW39613   2.721   0.708   0.844 -0.4122 -0.3552 -0.3260
 9326SOL    HW139614   2.786   0.739   0.781  0.9177 -3.1186 -0.3226
 9326SOL    HW239615   2.707   0.786   0.898 -0.0741  0.2809 -1.1514
 9327SOL     OW39616   0.757   3.697  10.452 -1.1782 -0.4243  0.0961
 9327SOL    HW139617   0.684   3.729  10.505 -0.1514  1.5771  0.2704
 9327SOL    HW239618   0.770   3.767  10.388 -0.2520 -0.2101  0.5089
 9328SOL     OW39619   3.254   4.074   9.341 -0.2302 -0.0346 -0.0683
 9328SOL    HW139620   3.319   4.112   9.401  0.9627 -0.4838 -1.0807
 9328SOL    HW239621   3.228   4.152   9.293  1.3364  0.0951 -0.7240
 9329SOL     OW39622   4.511   3.565   5.041 -0.0241  0.2491  0.2921
 9329SOL    HW139623   4.595   3.557   5.086 -0.1278  1.5393  0.7118
 9329SOL    HW239624   4.507   3.495   4.976 -2.0774 -1.4240  2.2399
 9330SOL     OW39625   0.788   2.857   8.012 -0.4677  0.1048  0.6592
 9330SOL    HW139626   0.878   2.890   8.014 -0.5153  0.3209 -0.4823
 9330SOL    HW239627   0.753   2.864   8.100 -1.4701  0.9387  0.1836
 9331SOL     OW39628   0.087   4.149   2.473 -0.1551  0.6382  0.7390
 9331SOL    HW139629   4.730   4.125   2.479  1.1365 -4.1974  1.3340
 9331SOL    HW239630   0.081   4.244   2.470 -0.5769  0.6355  1.3539
 9332SOL     OW39631   2.592   0.324   7.016  0.0958 -0.3687 -0.7829
 9332SOL    HW139632   2.586   0.411   7.056 -1.2193  0.0772 -1.9769
 9332SOL    HW239633   2.510   0.319   6.968  0.4717  2.4196 -1.7669
 9333SOL     OW39634   1.243   2.295  14.770  0.4919  1.1416 -0.5043
 9333SOL    HW139635   1.148   2.301  14.783  0.8688  1.2319  2.2229
 9333SOL    HW239636   1.240   2.244  14.689 -1.3242  1.7574 -0.8318
 9334SOL     OW39637   2.739   2.106   7.400  0.4304 -0.0868  0.0341
 9334SOL    HW139638   2.659   2.060   7.425 -0.2186  1.2378  0.3393
 9334SOL    HW239639   2.806   2.045   7.434 -0.1542 -1.2500 -0.9210
 9335SOL     OW39640   0.874   0.091   6.057  0.6115  0.0403  0.5417
 9335SOL    HW139641   0.917   0.012   6.090 -1.5633 -1.3396  0.0528
 9335SOL    HW239642   0.814   0.097   6.131  0.9678  0.9452  0.7537
 9336SOL     OW39643   1.278   0.386   6.441  0.2502  0.2801 -0.1749
 9336SOL    HW139644   1.290   0.479   6.457  3.0415 -0.1080 -0.0962
 9336SOL    HW239645   1.368   0.357   6.428  0.4193  1.2748 -1.1922
 9337SOL     OW39646   3.730   1.459   6.263  0.3958  0.3788 -0.1108
 9337SOL    HW139647   3.776   1.410   6.195  1.5719 -0.7401  1.5110
 9337SOL    HW239648   3.681   1.519   6.206 -0.5894 -2.8008 -2.6220
 9338SOL     OW39649   0.154   1.278  16.880 -0.3359  0.2396 -0.3300
 9338SOL    HW139650   0.146   1.197  16.830  1.9500 -1.3471  1.8999
 9338SOL    HW239651   0.222   1.323  16.829 -0.9809 -2.1518 -3.3057
 9339SOL     OW39652   0.499   3.045   7.337 -0.0242 -0.1684 -0.2042
 9339SOL    HW139653   0.541   3.059   7.422 -0.0140  0.8908 -0.3821
 9339SOL    HW239654   0.559   2.991   7.285 -2.6155 -2.8525 -0.3787
 9340SOL     OW39655   1.589   1.088  13.792 -0.2621  0.0984  0.4328
 9340SOL    HW139656   1.540   1.013  13.827 -1.5084  0.9633  0.5739
 9340SOL    HW239657   1.527   1.157  13.816  0.5989  0.7908  0.6649
 9341SOL     OW39658   3.626   0.589  11.291  0.2920 -0.0933 -0.0561
 9341SOL    HW139659   3.709   0.582  11.337  0.4884 -0.2115 -0.4236
 9341SOL    HW239660   3.588   0.505  11.318  0.2290 -0.0766 -0.0927
 9342SOL     OW39661   2.959   0.982   5.356  0.4579 -0.7815 -0.0799
 9342SOL    HW139662   2.960   1.001   5.263  0.5910  2.7836  0.6652
 9342SOL    HW239663   3.052   0.995   5.375 -0.6456  1.8452  3.6527
 9343SOL     OW39664   2.829   1.921   9.243 -0.0788 -0.1298  0.0237
 9343SOL    HW139665   2.916   1.928   9.282 -0.3361  0.6995  0.4571
 9343SOL    HW239666   2.850   1.863   9.171  0.4817  2.2742 -1.7396
 9344SOL     OW39667   1.872   3.220   4.794 -0.2191  0.3391  0.3109
 9344SOL    HW139668   1.873   3.188   4.884 -0.2466 -0.1769  0.1265
 9344SOL    HW239669   1.940   3.168   4.753  0.7796  1.2434  0.8171
 9345SOL     OW39670   4.223   4.325   6.481  0.5570 -0.3846 -0.1922
 9345SOL    HW139671   4.193   4.258   6.543 -0.8565  1.3183  0.9420
 9345SOL    HW239672   4.139   4.344   6.440 -0.2539 -0.9639  1.1799
 9346SOL     OW39673   1.521   0.331  10.966 -0.3938  0.0547  0.3537
 9346SOL    HW139674   1.603   0.281  10.957  0.2228  0.4591  4.0168
 9346SOL    HW239675   1.517   0.351  10.872 -0.4703 -0.4852  0.2396
 9347SOL     OW39676   0.947   4.544   6.672  0.1851 -0.1890  0.0447
 9347SOL    HW139677   0.902   4.557   6.589 -1.3879 -0.4447  0.8535
 9347SOL    HW239678   0.906   4.604   6.735  1.0312 -2.2066  2.5588
 9348SOL     OW39679   3.898   1.195   6.092  0.3841 -0.0427 -0.6062
 9348SOL    HW139680   3.955   1.272   6.087  0.3891  0.1293  2.1761
 9348SOL    HW239681   3.965   1.126   6.099  0.2445 -0.0627  0.5804
 9349SOL     OW39682   4.201   2.717   7.063 -0.0873 -0.3516  0.4114
 9349SOL    HW139683   4.217   2.780   7.133 -1.9916 -1.3466  1.7291
 9349SOL    HW239684   4.125   2.749   7.013 -0.3529 -0.4442  0.7603
 9350SOL     OW39685   0.095   2.880   3.183 -0.6950 -0.3393  0.5964
 9350SOL    HW139686   0.081   2.956   3.126  0.3927 -0.2142  0.4872
 9350SOL    HW239687   0.186   2.895   3.210  0.0612 -2.5186 -0.7477
 9351SOL     OW39688   1.318   2.093   9.619 -0.1776 -0.0974 -0.1457
 9351SOL    HW139689   1.354   2.006   9.601 -0.6795  0.0345 -1.8039
 9351SOL    HW239690   1.282   2.112   9.532  1.5156  1.9348 -0.4146
 9352SOL     OW39691   1.018   0.165   4.250  0.6026  0.0061  0.1148
 9352SOL    HW139692   1.034   0.198   4.161  2.4306  0.6761  0.6958
 9352SOL    HW239693   1.036   0.245   4.300 -2.0536 -0.1056  1.2461
 9353SOL     OW39694   2.538   1.725   6.614 -0.2088 -0.1546 -0.3016
 9353SOL    HW139695   2.563   1.684   6.697 -0.9981 -2.4595 -1.2040
 9353SOL    HW239696   2.611   1.783   6.592 -1.8025  2.7034  1.9655
 9354SOL     OW39697   0.063   4.308   1.091  0.4642 -0.0704  0.5818
 9354SOL    HW139698   0.038   4.392   1.131  1.5731  0.2102  0.6900
 9354SOL    HW239699   0.134   4.276   1.147 -0.7865 -0.3809  2.0134
 9355SOL     OW39700   1.535   4.111   6.172 -0.4803  0.1008  0.5126
 9355SOL    HW139701   1.458   4.168   6.165 -1.4828 -1.1136  1.6888
 9355SOL    HW239702   1.504   4.041   6.229 -1.3302 -0.4044 -0.5543
 9356SOL     OW39703   3.188   2.438   3.072 -0.6872 -0.6788 -0.1113
 9356SOL    HW139704   3.239   2.394   3.140  0.3961  0.6315 -0.0737
 9356SOL    HW239705   3.129   2.365   3.053  0.2562 -1.7705  1.1499
 9357SOL     OW39706   3.375   2.085   9.682 -0.1822 -0.0269  0.0161
 9357SOL    HW139707   3.384   2.156   9.618 -1.5374 -0.3755 -0.5678
 9357SOL    HW239708   3.303   2.123   9.733  0.7847  0.1529  1.2159
 9358SOL     OW39709   2.552   2.621   5.448 -0.3455 -0.4293 -0.4740
 9358SOL    HW139710   2.493   2.685   5.406 -1.9392 -1.2377  0.5694
 9358SOL    HW239711   2.562   2.669   5.530  1.3250 -0.8944 -0.4291
 9359SOL     OW39712   4.597   0.617  13.589  0.3118 -0.2575 -0.2563
 9359SOL    HW139713   4.576   0.541  13.644  1.7887 -0.0144  0.6360
 9359SOL    HW239714   4.514   0.640  13.548  0.0516 -0.8728 -0.0813
 9360SOL     OW39715   0.434   0.810   5.670 -0.6602  0.1691  0.2927
 9360SOL    HW139716   0.363   0.791   5.610 -1.3185 -0.1340  1.1613
 9360SOL    HW239717   0.460   0.718   5.680 -0.2319  0.2337 -0.2159
 9361SOL     OW39718   0.783   2.660   2.896 -0.3244  0.4434  0.1937
 9361SOL    HW139719   0.702   2.687   2.852  0.7902 -0.4672 -2.3887
 9361SOL    HW239720   0.825   2.745   2.898  2.8915 -1.1447 -0.8165
 9362SOL     OW39721   0.901   0.533   2.126 -0.0899  0.0397 -0.8281
 9362SOL    HW139722   0.811   0.519   2.156  0.5937 -0.4291  1.0135
 9362SOL    HW239723   0.950   0.457   2.157  0.9853  0.1127 -2.3786
 9363SOL     OW39724   4.499   2.212   3.205 -0.1148 -0.1789 -0.3588
 9363SOL    HW139725   4.584   2.256   3.216  0.4640 -1.0393 -1.3040
 9363SOL    HW239726   4.530   2.121   3.216 -0.9946 -0.7448 -2.6623
 9364SOL     OW39727   3.180   4.454   6.137  0.4169 -0.2620 -0.1261
 9364SOL    HW139728   3.263   4.424   6.173 -0.0033  0.8591  1.7923
 9364SOL    HW239729   3.175   4.533   6.190 -0.3256  0.7230 -1.6732
 9365SOL     OW39730   4.029   0.313  10.400  0.2302 -0.0262  0.5869
 9365SOL    HW139731   4.020   0.349  10.312 -1.8408 -2.6982 -0.2718
 9365SOL    HW239732   3.987   0.388  10.443  0.3801  1.4482 -1.8589
 9366SOL     OW39733   2.252   3.907   2.624 -0.0950  0.0285  0.2984
 9366SOL    HW139734   2.319   3.839   2.614 -0.2633 -0.3267  1.5038
 9366SOL    HW239735   2.300   3.979   2.665  1.5557 -0.2061 -1.1969
 9367SOL     OW39736   3.902   3.126   2.413  0.3813 -0.1388 -0.2658
 9367SOL    HW139737   3.941   3.198   2.463  0.9634 -1.8510  1.7479
 9367SOL    HW239738   3.910   3.062   2.483 -0.4944 -1.3624 -1.2788
 9368SOL     OW39739   3.519   3.901   5.801 -0.0334 -0.0491  1.0884
 9368SOL    HW139740   3.589   3.932   5.744 -0.2043 -1.4659  0.0977
 9368SOL    HW239741   3.443   3.903   5.743 -0.7842 -0.7541  2.0399
 9369SOL     OW39742   1.031   4.132  11.841 -0.3825  0.1288 -0.5641
 9369SOL    HW139743   1.040   4.166  11.752 -0.1183  1.5066 -0.0068
 9369SOL    HW239744   0.938   4.114  11.856 -0.4922 -0.6396 -2.1575
 9370SOL     OW39745   0.623   0.950   4.562  0.3598  0.6179  0.1790
 9370SOL    HW139746   0.613   0.922   4.653  0.7194  1.1286  0.3784
 9370SOL    HW239747   0.639   1.043   4.578 -0.8134  0.6370  1.3149
 9371SOL     OW39748   2.332   2.382   9.300  0.5743 -0.0144 -0.3967
 9371SOL    HW139749   2.246   2.422   9.286 -0.2992 -1.5361  0.5992
 9371SOL    HW239750   2.326   2.367   9.394  0.6050  0.1863 -0.3619
 9372SOL     OW39751   1.828   4.671  11.954 -0.2694  0.8047  0.1056
 9372SOL    HW139752   1.847   0.001  12.021 -0.4503 -0.1978  1.1511
 9372SOL    HW239753   1.864   4.587  11.983 -1.7500 -0.6297 -2.2011
 9373SOL     OW39754   3.594   2.179   9.349  0.1361 -0.1095 -0.0713
 9373SOL    HW139755   3.539   2.225   9.412 -0.3591 -1.9249  0.8112
 9373SOL    HW239756   3.528   2.168   9.281  0.1200  0.4007 -0.1412
 9374SOL     OW39757   0.707   2.283   1.837  0.0496  0.8370 -0.2032
 9374SOL    HW139758   0.786   2.336   1.845  0.5171  0.4215 -1.8777
 9374SOL    HW239759   0.709   2.262   1.743  0.0178 -0.4052  0.0745
 9375SOL     OW39760   3.876   0.875   2.303 -0.2069 -0.2842 -0.3367
 9375SOL    HW139761   3.952   0.924   2.274  0.0955  0.5864  1.9284
 9375SOL    HW239762   3.912   0.789   2.324  1.8547  0.6907  0.1033
 9376SOL     OW39763   1.901   1.026   4.514  0.1378  0.7231 -0.6888
 9376SOL    HW139764   1.921   1.090   4.582 -0.0874 -1.5476  1.5373
 9376SOL    HW239765   1.858   1.078   4.446 -0.0720  1.5118  0.0595
 9377SOL     OW39766   2.241   0.337   0.760  0.3916  0.6776 -0.2711
 9377SOL    HW139767   2.285   0.312   0.678 -0.0773  0.7176 -0.5338
 9377SOL    HW239768   2.236   0.430   0.740 -0.3281  0.6647 -0.1192
 9378SOL     OW39769   1.216   0.325   3.648 -0.1051 -0.0188  0.4739
 9378SOL    HW139770   1.202   0.317   3.554  1.2331  0.4740  0.2357
 9378SOL    HW239771   1.133   0.371   3.661 -0.9448 -1.7820  1.2995
 9379SOL     OW39772   2.443   0.280   9.586 -0.0228 -0.4543  0.4103
 9379SOL    HW139773   2.406   0.367   9.568 -0.0458 -0.5463  0.0089
 9379SOL    HW239774   2.534   0.306   9.571 -0.6187  1.7487  0.5853
 9380SOL     OW39775   2.014   1.430   5.717  0.0190  0.2041 -0.0579
 9380SOL    HW139776   2.062   1.364   5.668 -1.1582 -1.3867  0.9418
 9380SOL    HW239777   2.068   1.438   5.796  0.2426  0.9135 -0.2805
 9381SOL     OW39778   2.011   0.140  11.364 -0.1158 -0.2707  0.0394
 9381SOL    HW139779   2.003   0.235  11.368  0.3860 -0.1416 -1.9464
 9381SOL    HW239780   1.924   0.114  11.393 -0.0190  1.0370  1.5175
 9382SOL     OW39781   0.089   4.096   5.555 -0.0986 -0.2891 -0.0618
 9382SOL    HW139782   0.100   4.106   5.461 -1.1905  1.2394 -0.0229
 9382SOL    HW239783   4.730   4.101   5.556  0.0104  1.7784  1.0028
 9383SOL     OW39784   2.276   0.111   6.992  0.3910  0.0661 -0.3187
 9383SOL    HW139785   2.184   0.085   6.991  0.3479  0.2469 -1.0237
 9383SOL    HW239786   2.297   0.073   7.078 -0.0351  0.7424  0.0786
 9384SOL     OW39787   3.028   2.527   0.248  0.1874 -0.0407 -0.6149
 9384SOL    HW139788   3.113   2.483   0.239  0.7171  0.9694 -0.5209
 9384SOL    HW239789   3.020   2.576   0.166  2.2969  1.5555  0.1268
 9385SOL     OW39790   1.327   3.627  10.160 -0.0361 -0.7113 -0.1242
 9385SOL    HW139791   1.399   3.582  10.115  1.4833  1.5421  0.0530
 9385SOL    HW239792   1.368   3.713  10.160  0.3940 -0.9195  2.0231
 9386SOL     OW39793   0.361   1.413   3.756  0.7930  0.1928  0.2455
 9386SOL    HW139794   0.427   1.435   3.822 -0.6297  2.3419  0.9607
 9386SOL    HW239795   0.374   1.318   3.753 -2.3016 -0.1651 -1.3265
 9387SOL     OW39796   4.563   3.136   5.858  0.6007 -1.2521 -0.8621
 9387SOL    HW139797   4.556   3.142   5.953 -1.4613  0.7588 -1.1596
 9387SOL    HW239798   4.555   3.042   5.843 -2.0891 -1.1008 -0.2252
 9388SOL     OW39799   0.802   2.721  17.003 -0.2379 -0.4864 -0.3687
 9388SOL    HW139800   0.721   2.734  17.052  0.1502  0.6025 -0.0294
 9388SOL    HW239801   0.822   2.632  17.033  2.5313  0.7029  1.3015
 9389SOL     OW39802   1.531   1.075  14.733 -0.1639  0.0549 -0.3722
 9389SOL    HW139803   1.489   1.110  14.812 -0.4034  0.2151 -0.5717
 9389SOL    HW239804   1.558   1.164  14.711  2.6784 -0.7487 -0.0783
 9390SOL     OW39805   0.457   1.268   4.479 -0.0225 -0.2594  0.6322
 9390SOL    HW139806   0.391   1.281   4.547 -1.1539 -2.9928  0.0575
 9390SOL    HW239807   0.523   1.331   4.509 -2.9870  1.7660  2.8899
 9391SOL     OW39808   0.443   1.375  13.693  0.1313  0.4780  0.9525
 9391SOL    HW139809   0.423   1.291  13.653  0.1588  1.7968 -1.8574
 9391SOL    HW239810   0.359   1.418  13.681 -0.9622 -2.1727 -0.8104
 9392SOL     OW39811   2.594   2.722   6.839  0.2508 -0.2625 -0.0360
 9392SOL    HW139812   2.504   2.740   6.812 -0.9438 -3.1830  2.0084
 9392SOL    HW239813   2.606   2.791   6.904 -0.8110 -0.4044  0.3111
 9393SOL     OW39814   3.401   3.540  13.032  0.2976  0.0649  0.7428
 9393SOL    HW139815   3.484   3.530  12.984 -1.6721 -0.5090 -2.5261
 9393SOL    HW239816   3.346   3.483  12.980  1.3282 -1.2266  1.0637
 9394SOL     OW39817   0.960   2.766   0.048  0.0579 -0.3103 -0.2141
 9394SOL    HW139818   0.942   2.859   0.032 -0.0138 -0.2705  0.1116
 9394SOL    HW239819   0.967   2.726  17.705  0.7155  0.7327 -0.6369
 9395SOL     OW39820   2.011   1.419   7.717  0.1438 -0.0459  0.0023
 9395SOL    HW139821   2.076   1.418   7.788 -0.6207  1.7789  0.7132
 9395SOL    HW239822   1.966   1.337   7.741 -0.9762  0.6508  0.2739
 9396SOL     OW39823   2.451   1.358   8.803  0.3942  0.0189  0.6150
 9396SOL    HW139824   2.407   1.363   8.718 -0.4822  1.2336  1.1322
 9396SOL    HW239825   2.435   1.450   8.825  0.5612  0.2260 -0.1419
 9397SOL     OW39826   4.686   0.230   6.151  0.2032 -0.2955  0.6744
 9397SOL    HW139827   4.699   0.205   6.243  0.7628 -0.2926  0.5957
 9397SOL    HW239828   4.590   0.231   6.150  0.2360  1.1713 -0.1797
 9398SOL     OW39829   3.078   1.413   3.920 -0.6077  0.2106  0.0138
 9398SOL    HW139830   3.169   1.443   3.922  0.4440 -2.9870  0.7841
 9398SOL    HW239831   3.023   1.490   3.930 -1.6609 -0.3506 -1.6398
 9399SOL     OW39832   1.656   0.230   2.995 -0.2547 -0.5022  0.5246
 9399SOL    HW139833   1.617   0.149   2.963 -1.0438  0.7038 -1.5612
 9399SOL    HW239834   1.596   0.298   2.965  1.0926  0.1714 -0.6187
 9400SOL     OW39835   0.808   4.394  12.584 -0.0623  0.7516  0.7150
 9400SOL    HW139836   0.777   4.362  12.499  0.8491 -0.9910  1.0362
 9400SOL    HW239837   0.849   4.315  12.619 -1.6797 -0.2091  0.4301
 9401SOL     OW39838   4.615   0.708   8.563  0.2079  0.3367  0.0657
 9401SOL    HW139839   4.662   0.789   8.543  2.0354 -1.3835 -2.5347
 9401SOL    HW239840   4.534   0.738   8.523  0.2465 -0.3298 -0.5085
 9402SOL     OW39841   1.262   0.853   7.622  0.3266 -0.6200 -0.2759
 9402SOL    HW139842   1.314   0.871   7.701  0.8869 -1.8287 -0.3684
 9402SOL    HW239843   1.210   0.931   7.609  0.7615 -0.3228 -0.2439
 9403SOL     OW39844   1.835   0.572   4.772  0.3144 -0.5929 -0.5840
 9403SOL    HW139845   1.863   0.524   4.850  1.2666  1.6267  0.4321
 9403SOL    HW239846   1.748   0.602   4.796  0.5745 -0.7836  0.5977
 9404SOL     OW39847   3.392   2.365   8.433 -0.1331 -0.5047 -0.1726
 9404SOL    HW139848   3.342   2.441   8.401  1.7457  1.2093  1.0079
 9404SOL    HW239849   3.336   2.331   8.502 -0.6351 -0.0968 -0.3747
 9405SOL     OW39850   1.124   1.602   6.874 -0.0439  0.0541  0.1084
 9405SOL    HW139851   1.080   1.602   6.959  1.3436 -0.7697  0.8091
 9405SOL    HW239852   1.046   1.610   6.819  1.6489  2.5579 -1.9276
 9406SOL     OW39853   4.641   2.539  11.610 -0.0338  0.7347  0.2716
 9406SOL    HW139854   4.732   2.555  11.634  0.2309 -0.9942  0.4604
 9406SOL    HW239855   4.641   2.445  11.630 -0.6985  0.6030 -0.3389
 9407SOL     OW39856   0.903   1.518   1.497 -0.1450 -0.4289 -0.4476
 9407SOL    HW139857   0.984   1.477   1.468 -1.0546 -2.4007 -0.2080
 9407SOL    HW239858   0.923   1.542   1.588 -0.1161 -1.7022 -0.1223
 9408SOL     OW39859   3.959   4.635   2.146 -0.0454 -0.9057 -0.5846
 9408SOL    HW139860   3.913   4.616   2.228 -1.1135 -0.8234 -1.1623
 9408SOL    HW239861   4.039   4.582   2.140  0.2067 -0.4581 -1.2258
 9409SOL     OW39862   2.115   0.245   7.347 -0.5732 -0.1375 -0.2981
 9409SOL    HW139863   2.057   0.303   7.298  0.1216  1.3102  0.6240
 9409SOL    HW239864   2.200   0.278   7.319 -1.3228  2.0270  0.0284
 9410SOL     OW39865   0.372   2.753  11.414  0.0679  0.0674 -0.2301
 9410SOL    HW139866   0.371   2.657  11.419  0.0554 -0.0514 -2.4669
 9410SOL    HW239867   0.438   2.770  11.481 -0.2219 -1.8140  0.5456
 9411SOL     OW39868   1.125   0.958   2.535 -0.0082 -0.3337  0.4462
 9411SOL    HW139869   1.164   1.017   2.470 -1.9114 -0.4836 -0.8193
 9411SOL    HW239870   1.088   1.024   2.594  0.7714 -1.4455  2.1561
 9412SOL     OW39871   3.205   4.735  14.906  0.2270 -0.0360  0.0444
 9412SOL    HW139872   3.239   0.080  14.870  0.4232  0.1542  0.6549
 9412SOL    HW239873   3.220   0.008  15.000 -1.3153 -1.0049  0.3877
 9413SOL     OW39874   3.069   0.262   6.914 -0.2688 -0.4155  0.4807
 9413SOL    HW139875   2.994   0.312   6.945  0.0827  0.4273 -0.0346
 9413SOL    HW239876   3.100   0.337   6.862 -1.9065  1.1829  1.8353
 9414SOL     OW39877   0.519   0.321   2.473  0.2428 -0.3962  0.6916
 9414SOL    HW139878   0.441   0.374   2.458  0.4420  0.1346  1.5108
 9414SOL    HW239879   0.579   0.357   2.408 -0.6224  1.8745  1.1572
 9415SOL     OW39880   4.285   2.550  11.699  0.5692 -0.0046 -0.0464
 9415SOL    HW139881   4.210   2.608  11.712  0.3929 -0.6265  1.7129
 9415SOL    HW239882   4.246   2.469  11.732 -0.8116  0.5907 -0.2357
 9416SOL     OW39883   4.449   3.659   6.028 -0.0689 -0.4096  0.1594
 9416SOL    HW139884   4.496   3.654   6.111 -0.9437 -0.9918  0.6110
 9416SOL    HW239885   4.362   3.678   6.063  0.0595 -1.2113  0.9085
 9417SOL     OW39886   0.141   1.238  10.370 -0.5341 -0.0033 -0.3200
 9417SOL    HW139887   0.101   1.260  10.453  0.5490  0.7381  0.0086
 9417SOL    HW239888   0.101   1.301  10.309 -1.3260  0.3333  0.5615
 9418SOL     OW39889   1.416   1.866   5.772 -0.4255  0.0970  0.1288
 9418SOL    HW139890   1.338   1.835   5.817  0.9913  1.1803  3.3302
 9418SOL    HW239891   1.489   1.823   5.816 -1.0972 -0.0366  1.1084
 9419SOL     OW39892   4.095   4.669   2.614  0.2617 -0.4133  0.5004
 9419SOL    HW139893   4.138   0.018   2.608 -2.2146  0.7586 -0.5089
 9419SOL    HW239894   4.063   4.669   2.704 -1.2004 -0.0646 -0.0196
 9420SOL     OW39895   0.178   1.039   4.359  0.0328 -0.3075 -0.2896
 9420SOL    HW139896   0.177   0.954   4.316  0.9443 -0.4773  0.0157
 9420SOL    HW239897   0.272   1.057   4.352  0.7014 -2.6891  2.5119
 9421SOL     OW39898   3.443   4.058   3.293  0.1859  0.0799  0.2523
 9421SOL    HW139899   3.365   4.110   3.312  1.6855  2.3694  0.2389
 9421SOL    HW239900   3.477   4.042   3.382 -0.5679 -2.2015  0.1331
 9422SOL     OW39901   2.228   3.300   9.338  0.6080  0.0044 -0.5930
 9422SOL    HW139902   2.242   3.386   9.379 -0.6247  0.0740 -0.3206
 9422SOL    HW239903   2.308   3.265   9.376  0.3299  0.9476  0.8838
 9423SOL     OW39904   2.888   1.348   7.776  0.4300  0.3301  0.2927
 9423SOL    HW139905   2.971   1.300   7.773  1.9801  2.9466  0.5374
 9423SOL    HW239906   2.842   1.300   7.707  0.4311  2.8178 -1.4606
 9424SOL     OW39907   0.278   0.922   5.289 -0.1012  0.3097  0.2800
 9424SOL    HW139908   0.226   0.892   5.363  0.3904  1.1537  0.9561
 9424SOL    HW239909   0.304   1.010   5.315 -1.1067  0.8014 -0.3670
 9425SOL     OW39910   3.008   3.571   9.662  0.3717 -0.2531  0.6729
 9425SOL    HW139911   2.934   3.618   9.622 -1.7765 -3.6947  0.6008
 9425SOL    HW239912   3.046   3.522   9.589  0.7521 -0.3421  0.9306
 9426SOL     OW39913   2.068   2.733   5.518  0.5746  0.1985 -0.1343
 9426SOL    HW139914   2.160   2.758   5.515  0.2664  1.3451 -0.2058
 9426SOL    HW239915   2.040   2.791   5.589 -0.1086  1.0940 -1.1349
 9427SOL     OW39916   1.356   1.187   8.979  0.1712  0.1121  0.2532
 9427SOL    HW139917   1.430   1.237   8.944 -0.6527  1.1980  0.0786
 9427SOL    HW239918   1.368   1.106   8.929 -0.5193 -0.5650  1.1759
 9428SOL     OW39919   2.773   1.407   6.749  0.5853 -0.1961 -0.1882
 9428SOL    HW139920   2.863   1.439   6.745  0.8351 -0.6340  1.7970
 9428SOL    HW239921   2.732   1.478   6.799  1.8151  0.3335  0.0627
 9429SOL     OW39922   2.113   1.747   8.824  0.0320  0.0610  0.3391
 9429SOL    HW139923   2.098   1.689   8.899  2.6267  0.4036  1.1597
 9429SOL    HW239924   2.079   1.830   8.858 -0.6478  0.0236 -0.2804
 9430SOL     OW39925   0.435   4.139   5.854  0.5275  0.1166 -0.2628
 9430SOL    HW139926   0.477   4.053   5.852 -0.1295 -0.1938 -0.7513
 9430SOL    HW239927   0.432   4.155   5.759  0.5725  3.9521  0.3904
 9431SOL     OW39928   0.766   3.038  15.057 -0.1539  0.3013  0.6873
 9431SOL    HW139929   0.737   3.082  14.977  1.2118 -0.7138 -0.3751
 9431SOL    HW239930   0.790   3.113  15.110 -0.2730  1.0742 -0.3555
 9432SOL     OW39931   1.660   2.533   0.678 -0.0614 -0.4820  0.0063
 9432SOL    HW139932   1.725   2.524   0.748  0.5823 -1.8133 -0.7565
 9432SOL    HW239933   1.601   2.594   0.721  0.2094  0.4072 -0.8806
 9433SOL     OW39934   1.848   0.697   6.660 -0.4255 -0.3873  0.5509
 9433SOL    HW139935   1.843   0.789   6.684 -1.2662  0.3322 -2.3775
 9433SOL    HW239936   1.759   0.667   6.640 -0.3993 -0.5808  0.7226
 9434SOL     OW39937   0.990   1.827  12.152  0.5414 -0.2963 -0.1806
 9434SOL    HW139938   1.071   1.820  12.202 -0.2930  1.0025  1.3250
 9434SOL    HW239939   1.024   1.829  12.062 -1.3503  0.5949 -0.8865
 9435SOL     OW39940   2.143   0.138   8.787  0.2140  0.3873 -0.0575
 9435SOL    HW139941   2.225   0.186   8.786 -0.4063  1.4611  2.2696
 9435SOL    HW239942   2.149   0.113   8.879 -0.5764 -2.2085 -0.6983
 9436SOL     OW39943   1.899   1.777   3.524  0.4142  0.2712 -0.2862
 9436SOL    HW139944   1.971   1.723   3.557  0.2669 -0.3109 -0.9208
 9436SOL    HW239945   1.929   1.782   3.434  4.4580  1.4829  1.1477
 9437SOL     OW39946   3.390   0.176   4.423 -0.2457 -0.3432  0.3831
 9437SOL    HW139947   3.379   0.157   4.330 -0.0545 -1.1081  0.5127
 9437SOL    HW239948   3.394   0.271   4.418  1.3097 -0.2384  3.4240
 9438SOL     OW39949   1.664   3.816   0.873 -0.0884  0.3290  0.0105
 9438SOL    HW139950   1.699   3.843   0.958 -3.3005  0.4199  1.3305
 9438SOL    HW239951   1.727   3.868   0.823 -0.8769  2.3063  1.0644
 9439SOL     OW39952   1.420   1.115   6.812 -0.6668  0.2868 -0.1111
 9439SOL    HW139953   1.405   1.100   6.905  1.3943  1.1540  0.3507
 9439SOL    HW239954   1.359   1.187   6.795  0.2719  1.2888  0.8143
 9440SOL     OW39955   2.450   3.895   8.617 -0.1833 -0.1063 -0.4221
 9440SOL    HW139956   2.485   3.806   8.621  2.1433  0.6817 -3.1870
 9440SOL    HW239957   2.519   3.943   8.572  2.0685 -1.1061  1.9263
 9441SOL     OW39958   2.436   0.709   7.852 -0.0324 -0.0930  0.3754
 9441SOL    HW139959   2.412   0.729   7.942 -1.6962  1.6575 -0.4515
 9441SOL    HW239960   2.368   0.650   7.819  0.8283 -0.6908 -0.3322
 9442SOL     OW39961   1.359   1.875   6.528  0.0999 -0.3500  0.1109
 9442SOL    HW139962   1.377   1.914   6.442  1.6719  0.2646  0.7100
 9442SOL    HW239963   1.274   1.912   6.550  0.9327  0.9012  1.2466
 9443SOL     OW39964   3.005   2.815   5.664  0.5526  0.2466  0.0130
 9443SOL    HW139965   3.033   2.724   5.648  2.4486  1.3738 -2.9709
 9443SOL    HW239966   2.955   2.803   5.745  0.8200 -0.3613  0.0926
 9444SOL     OW39967   3.762   3.162   7.509  0.9634  0.0376  0.1727
 9444SOL    HW139968   3.683   3.215   7.508  1.4516  0.7322 -3.1129
 9444SOL    HW239969   3.770   3.158   7.604  1.8304 -2.1407  0.0205
 9445SOL     OW39970   3.026   0.139  13.482  0.2031  0.6560  0.1322
 9445SOL    HW139971   3.069   0.214  13.524 -0.2736  2.9577 -3.4788
 9445SOL    HW239972   2.938   0.131  13.520  0.5980 -0.6132  0.7818
 9446SOL     OW39973   3.603   1.124   2.493 -0.1001  0.1259  0.2346
 9446SOL    HW139974   3.678   1.124   2.552 -1.0424 -1.9586  1.4327
 9446SOL    HW239975   3.642   1.153   2.411  2.9194 -0.5476  1.4568
 9447SOL     OW39976   0.008   1.480   8.074 -0.2320  0.3883 -0.2948
 9447SOL    HW139977   4.682   1.539   8.033 -0.5599  1.3730  1.6486
 9447SOL    HW239978   4.727   1.496   8.167 -0.1480 -0.5167 -0.1183
 9448SOL     OW39979   3.743   3.246   4.880  0.2437  0.8916 -0.0292
 9448SOL    HW139980   3.660   3.223   4.840  0.2627  0.6677  0.0625
 9448SOL    HW239981   3.724   3.336   4.908 -1.7354 -0.0658  1.7029
 9449SOL     OW39982   2.576   3.601  11.047  0.4843  0.2786  0.7421
 9449SOL    HW139983   2.667   3.613  11.071  0.5383 -0.9212  1.1496
 9449SOL    HW239984   2.552   3.693  11.056 -0.2023  0.3896 -2.0755
 9450SOL     OW39985   3.569   3.512   5.440 -0.2288  0.0522  0.5165
 9450SOL    HW139986   3.593   3.544   5.527  1.0664  0.5192 -0.0260
 9450SOL    HW239987   3.543   3.589   5.389  0.6921 -2.1152 -3.2285
 9451SOL     OW39988   1.090   1.027   4.231 -0.0680 -0.3452 -0.2468
 9451SOL    HW139989   1.006   1.059   4.197 -0.2166 -0.7992 -0.3060
 9451SOL    HW239990   1.052   1.009   4.317  1.1271  0.1641  0.3868
 9452SOL     OW39991   1.223   2.957  13.296 -0.1351  0.2898  0.5745
 9452SOL    HW139992   1.277   2.974  13.373  2.0164 -0.1214 -0.8439
 9452SOL    HW239993   1.164   2.890  13.331 -1.6947  1.6367  0.5273
 9453SOL     OW39994   0.157   4.239   6.556  0.3239 -0.1358  0.4594
 9453SOL    HW139995   0.079   4.295   6.553  0.6898  0.2701 -1.1631
 9453SOL    HW239996   0.150   4.213   6.648 -1.0558 -3.1853 -0.5169
 9454SOL     OW39997   1.288   1.557   2.512  0.3700 -0.1214 -0.1081
 9454SOL    HW139998   1.196   1.534   2.522  0.3984 -0.2881 -0.2397
 9454SOL    HW239999   1.288   1.644   2.553 -0.7387 -0.3889  0.4508
 9455SOL     OW40000   2.847   4.305   3.448 -0.3535 -0.0469 -0.4013
 9455SOL    HW140001   2.850   4.248   3.371 -1.7500  0.0708 -0.5393
 9455SOL    HW240002   2.890   4.383   3.412  1.6914 -0.9545  0.0760
 9456SOL     OW40003   2.510   4.034   5.174 -0.4603  0.1569 -0.3044
 9456SOL    HW140004   2.535   4.077   5.255 -0.3883 -1.8338  0.7152
 9456SOL    HW240005   2.455   3.961   5.202  0.4360 -0.5589 -0.4229
 9457SOL     OW40006   2.430   2.403   1.317 -0.2770 -0.4097  0.2241
 9457SOL    HW140007   2.483   2.333   1.354  0.7196 -0.2051 -0.8045
 9457SOL    HW240008   2.499   2.465   1.292  0.9810 -1.1207  1.9564
 9458SOL     OW40009   3.711   2.849   4.854 -0.1906  0.2082  0.3630
 9458SOL    HW140010   3.768   2.897   4.794  0.1280  2.6431  2.6181
 9458SOL    HW240011   3.686   2.777   4.795  1.4139 -0.3436  0.3568
 9459SOL     OW40012   3.893   0.642   9.235 -0.0734  0.0214 -0.1554
 9459SOL    HW140013   3.921   0.696   9.162  2.3446 -1.6218 -0.4453
 9459SOL    HW240014   3.915   0.556   9.198  1.8758  0.3479  0.2561
 9460SOL     OW40015   3.898   0.189   4.829  0.2244 -0.7252  0.4031
 9460SOL    HW140016   3.895   0.207   4.923 -3.5882  0.7580 -0.0123
 9460SOL    HW240017   3.824   0.129   4.823  1.8574 -2.5490 -1.6547
 9461SOL     OW40018   2.385   3.646   2.623  0.0638  0.0266 -0.2011
 9461SOL    HW140019   2.458   3.649   2.561 -0.8386 -1.4899 -1.3485
 9461SOL    HW240020   2.420   3.622   2.709  0.6856 -2.3336 -1.1215
 9462SOL     OW40021   3.788   0.002   9.920 -0.1486  0.2906  0.1248
 9462SOL    HW140022   3.821   4.666   9.867 -1.0682 -0.2218  0.2666
 9462SOL    HW240023   3.865   0.013   9.976 -0.3612 -0.5975  0.5908
 9463SOL     OW40024   2.861   0.172   4.100  0.1796 -0.1704  0.5795
 9463SOL    HW140025   2.783   0.121   4.075  1.0874 -1.2096 -0.1069
 9463SOL    HW240026   2.831   0.257   4.132  1.1168  1.2152 -2.1923
 9464SOL     OW40027   2.820   4.618  12.262 -0.7711 -0.1671 -0.2783
 9464SOL    HW140028   2.766   4.648  12.189 -0.6218  0.2416 -0.2191
 9464SOL    HW240029   2.765   4.638  12.337  0.2936  0.7026  0.2636
 9465SOL     OW40030   4.234   2.409  11.018  0.2906 -0.8609 -0.0227
 9465SOL    HW140031   4.317   2.388  10.976  0.7866 -0.0393  0.5408
 9465SOL    HW240032   4.249   2.408  11.113 -0.8070  0.8621  0.1762
 9466SOL     OW40033   0.078   3.425   2.068 -0.3662 -0.3534  0.2398
 9466SOL    HW140034   4.736   3.479   2.061 -0.8161 -1.2204 -1.2248
 9466SOL    HW240035   0.127   3.477   2.132 -0.6695  1.0109 -0.6236
 9467SOL     OW40036   2.252   0.363   5.969 -0.0003 -0.1486  0.5080
 9467SOL    HW140037   2.342   0.377   5.941  0.4173  0.9379  2.3697
 9467SOL    HW240038   2.260   0.269   5.982  1.9050 -0.0578  0.0337
 9468SOL     OW40039   2.515   0.332   5.927  0.0325  0.2552 -0.0001
 9468SOL    HW140040   2.562   0.395   5.982 -0.2740  1.0643 -0.6671
 9468SOL    HW240041   2.586   0.269   5.910 -0.3830  0.3089 -1.9777
 9469SOL     OW40042   0.651   1.303   1.879  0.5072 -0.3967 -0.2528
 9469SOL    HW140043   0.575   1.310   1.821  0.2082  1.1131  0.3401
 9469SOL    HW240044   0.680   1.212   1.871 -1.3760 -1.2760  3.2759
 9470SOL     OW40045   3.524   1.502   9.700  0.2091  0.1751  0.8567
 9470SOL    HW140046   3.497   1.460   9.782 -1.5096 -1.7426 -0.6909
 9470SOL    HW240047   3.441   1.498   9.653  0.3711  1.5044  0.4772
 9471SOL     OW40048   3.306   4.261   4.941  0.0859  0.3225 -0.1980
 9471SOL    HW140049   3.279   4.323   5.009 -0.6622  1.5245 -1.5911
 9471SOL    HW240050   3.291   4.304   4.857  0.2001  1.4304  0.3480
 9472SOL     OW40051   3.242   3.824  10.970  0.4010  0.1127 -0.0115
 9472SOL    HW140052   3.258   3.849  11.061  0.5651 -1.5032  0.4196
 9472SOL    HW240053   3.147   3.828  10.976  0.4274 -2.5775  2.4654
 9473SOL     OW40054   1.889   3.811   1.540  0.0196  0.1263 -0.3699
 9473SOL    HW140055   1.963   3.839   1.486  1.0831 -1.4038  0.2869
 9473SOL    HW240056   1.919   3.721   1.549  0.3136  0.1327 -1.3474
 9474SOL     OW40057   3.075   2.734   6.015 -0.1080  0.0311  0.0811
 9474SOL    HW140058   3.011   2.745   6.086  1.6697  2.1827  1.3543
 9474SOL    HW240059   3.008   2.728   5.947  0.8737  2.4076 -1.0909
 9475SOL     OW40060   2.029   1.882   5.965 -0.5214  0.0455  0.4246
 9475SOL    HW140061   2.051   1.959   5.913  0.9807 -0.5596  0.1637
 9475SOL    HW240062   1.982   1.924   6.038  0.6223  2.5116 -0.2645
 9476SOL     OW40063   4.208   4.102   3.246  1.0462  0.1953  0.2588
 9476SOL    HW140064   4.282   4.152   3.280  1.2043 -0.1499  0.4167
 9476SOL    HW240065   4.182   4.049   3.321 -1.7697 -1.7831 -2.0992
 9477SOL     OW40066   3.745   3.354   8.466  0.3303  0.0851 -0.6091
 9477SOL    HW140067   3.679   3.419   8.489 -0.4620 -0.8568 -0.2105
 9477SOL    HW240068   3.797   3.356   8.547  0.7778 -0.2778 -0.8891
 9478SOL     OW40069   3.541   1.751   8.355 -0.2764  0.9202 -0.1470
 9478SOL    HW140070   3.487   1.799   8.419  1.1157 -1.5900  2.9498
 9478SOL    HW240071   3.629   1.785   8.369  0.6040 -1.1840 -0.5555
 9479SOL     OW40072   2.196   1.244   5.598  0.1288  0.1667 -0.5160
 9479SOL    HW140073   2.228   1.203   5.518  1.1784 -0.6373  0.3296
 9479SOL    HW240074   2.274   1.240   5.652 -2.2058 -2.5610  2.6051
 9480SOL     OW40075   1.330   2.938   7.193  0.0757  0.5781  0.2350
 9480SOL    HW140076   1.339   2.867   7.256 -0.4749  0.4821  0.1984
 9480SOL    HW240077   1.380   2.903   7.119  0.9654  2.5114 -0.0695
 9481SOL     OW40078   2.975   2.972   3.002 -0.8846 -0.2992 -0.4614
 9481SOL    HW140079   2.924   2.917   2.942  0.0650 -1.5670 -0.1068
 9481SOL    HW240080   3.029   3.028   2.946  1.4949 -1.6192  0.5345
 9482SOL     OW40081   3.912   3.830  17.056 -0.0204 -0.0746 -0.1242
 9482SOL    HW140082   4.007   3.829  17.058 -0.0442 -0.9526  0.6651
 9482SOL    HW240083   3.895   3.902  17.116 -1.6132 -0.2743 -0.3218
 9483SOL     OW40084   3.839   1.654  12.637 -0.6314  0.1574  0.1678
 9483SOL    HW140085   3.811   1.602  12.712  0.9242  0.2519  0.8067
 9483SOL    HW240086   3.933   1.653  12.650 -0.3420  1.0849 -1.8495
 9484SOL     OW40087   0.601   3.264   2.222 -0.3521  0.3088 -0.3283
 9484SOL    HW140088   0.594   3.189   2.281  0.0002  1.2212  0.8685
 9484SOL    HW240089   0.517   3.255   2.177 -0.5199  1.8676 -0.3136
 9485SOL     OW40090   0.945   0.641   5.744  0.3831  0.2984 -0.0980
 9485SOL    HW140091   0.959   0.708   5.812  1.4448  0.9958 -1.0057
 9485SOL    HW240092   0.862   0.674   5.708  1.3902  0.9837 -1.7769
 9486SOL     OW40093   3.884   1.681   7.160 -0.1868 -0.4175 -0.7841
 9486SOL    HW140094   3.903   1.742   7.088  0.3928 -0.4572 -0.6698
 9486SOL    HW240095   3.799   1.709   7.194  0.2398 -0.6694  0.4739
 9487SOL     OW40096   3.514   0.394   8.003 -0.0906 -0.1406  0.8150
 9487SOL    HW140097   3.529   0.452   7.928  1.4319 -1.4429  0.1293
 9487SOL    HW240098   3.555   0.438   8.078 -2.3385 -0.0863  2.0056
 9488SOL     OW40099   2.962   3.914   8.262  0.4648 -0.7578  0.0808
 9488SOL    HW140100   2.947   3.837   8.316  0.5897 -0.1436  0.9877
 9488SOL    HW240101   3.019   3.961   8.322  0.1589  0.3461 -0.4975
 9489SOL     OW40102   2.946   2.791   6.845 -0.1346 -0.3089  0.4882
 9489SOL    HW140103   2.964   2.876   6.804  0.1960 -1.2362 -1.2865
 9489SOL    HW240104   2.884   2.814   6.914 -1.8901 -1.6011 -0.6644
 9490SOL     OW40105   4.077   4.054   4.891  0.2222 -0.5409 -0.2604
 9490SOL    HW140106   3.999   4.109   4.895  1.4396  1.2261 -1.1174
 9490SOL    HW240107   4.047   3.980   4.838 -1.3060  0.3928 -0.6792
 9491SOL     OW40108   4.499   3.615   8.141 -0.6108 -1.5743 -0.0208
 9491SOL    HW140109   4.557   3.669   8.088 -2.8018 -1.0033 -1.8573
 9491SOL    HW240110   4.458   3.683   8.193  2.4845 -0.0632  0.4041
 9492SOL     OW40111   4.138   3.443  16.920 -0.4125  0.1944 -0.5113
 9492SOL    HW140112   4.230   3.432  16.894  0.2569  1.1343  1.4893
 9492SOL    HW240113   4.087   3.420  16.842 -1.3114  1.2778 -0.2431
 9493SOL     OW40114   2.295   2.984   6.386 -0.3341 -0.6375  0.2510
 9493SOL    HW140115   2.371   2.967   6.330 -0.4287 -1.0445  0.2454
 9493SOL    HW240116   2.275   3.074   6.362  0.1261 -0.3956  0.7631
 9494SOL     OW40117   1.839   3.387   5.152  0.4598 -0.3844 -0.2883
 9494SOL    HW140118   1.870   3.298   5.165  0.4221 -0.4378 -0.5774
 9494SOL    HW240119   1.750   3.364   5.128 -0.4961  2.3499  0.6564
 9495SOL     OW40120   1.764   3.247   9.093  0.2027  0.1608  0.2333
 9495SOL    HW140121   1.823   3.277   9.162 -1.6821  0.0670  1.9066
 9495SOL    HW240122   1.699   3.318   9.086  1.8434  1.6198 -0.1974
 9496SOL     OW40123   4.482   4.101   8.959 -0.7151 -0.1142 -0.5050
 9496SOL    HW140124   4.474   4.092   9.054  0.8889  3.0963 -0.0405
 9496SOL    HW240125   4.428   4.177   8.936 -0.8621 -0.1891 -0.4005
 9497SOL     OW40126   0.659   0.620   3.823  0.7564  0.1463 -0.0678
 9497SOL    HW140127   0.642   0.537   3.777 -1.3146 -0.1158  1.1722
 9497SOL    HW240128   0.707   0.591   3.901  0.8112  0.7677  0.1254
 9498SOL     OW40129   0.595   1.344  14.853  0.4693 -0.0845  0.0950
 9498SOL    HW140130   0.661   1.360  14.787  0.3926  1.6891  0.4315
 9498SOL    HW240131   0.623   1.266  14.901 -0.9435 -0.2727  0.6172
 9499SOL     OW40132   3.443   1.804   7.089  0.4027 -0.7884 -0.6386
 9499SOL    HW140133   3.373   1.779   7.148  0.2939  0.3221 -0.2905
 9499SOL    HW240134   3.522   1.798   7.142 -1.1020 -1.6733  1.4896
 9500SOL     OW40135   1.225   0.664   3.613 -0.7507  0.1464  0.0182
 9500SOL    HW140136   1.319   0.648   3.610 -0.5210  1.5546 -0.1401
 9500SOL    HW240137   1.210   0.759   3.610 -1.0767  0.0972  0.0729
 9501SOL     OW40138   1.968   2.587   2.332 -0.7451 -0.2236  0.4638
 9501SOL    HW140139   1.976   2.643   2.255  0.6102 -2.0763 -0.7475
 9501SOL    HW240140   2.058   2.592   2.363 -1.2697 -0.6585  2.0675
 9502SOL     OW40141   4.633   2.798   1.618  0.3792  0.2688 -1.0794
 9502SOL    HW140142   4.675   2.720   1.579 -0.9838 -0.8889 -0.2335
 9502SOL    HW240143   4.690   2.841   1.682 -1.4769 -1.9576  2.0750
 9503SOL     OW40144   3.171   2.632   7.917  0.0968 -0.1272 -0.3467
 9503SOL    HW140145   3.100   2.686   7.883  0.2490 -0.6137 -1.4188
 9503SOL    HW240146   3.120   2.555   7.943  3.6328 -1.1603  3.5483
 9504SOL     OW40147   2.457   3.023   5.211 -0.1338  0.1468  0.7919
 9504SOL    HW140148   2.546   2.991   5.203 -0.8467 -1.9241  1.1516
 9504SOL    HW240149   2.471   3.118   5.205 -1.5921  0.2958 -0.1948
 9505SOL     OW40150   1.832   2.881   2.811 -0.4297 -0.2695  0.5158
 9505SOL    HW140151   1.870   2.897   2.725 -0.8551 -2.2873 -0.0535
 9505SOL    HW240152   1.770   2.953   2.821 -1.4755 -0.9162 -1.4831
 9506SOL     OW40153   1.135   1.084  11.554 -0.3189  0.2683 -0.0395
 9506SOL    HW140154   1.189   1.099  11.631 -2.5864 -0.4707  1.6840
 9506SOL    HW240155   1.044   1.098  11.581 -0.1780 -0.1344  0.6313
 9507SOL     OW40156   2.247   2.457   3.147  0.1646  0.6193  0.0069
 9507SOL    HW140157   2.306   2.488   3.078 -0.7061  1.4351 -0.3655
 9507SOL    HW240158   2.301   2.463   3.226 -1.1582  1.0844  0.8549
 9508SOL     OW40159   0.526   1.448   7.417  0.4629  0.3714 -0.2863
 9508SOL    HW140160   0.434   1.424   7.408  0.0192  1.5876  1.1276
 9508SOL    HW240161   0.530   1.543   7.403 -1.3092  0.2215 -1.7759
 9509SOL     OW40162   2.843   3.646   4.465 -0.7118  0.2751  0.4337
 9509SOL    HW140163   2.887   3.654   4.380 -1.1602  0.0346  0.1798
 9509SOL    HW240164   2.772   3.583   4.455  0.3744 -0.6113 -1.5643
 9510SOL     OW40165   2.873   3.722   6.247 -0.9559 -0.1432  0.1235
 9510SOL    HW140166   2.891   3.713   6.154  1.0752 -1.3136  0.6459
 9510SOL    HW240167   2.850   3.632   6.271 -0.7601 -0.0746  0.5696
 9511SOL     OW40168   0.587   0.401   3.643 -0.2072  0.4376 -0.0616
 9511SOL    HW140169   0.520   0.352   3.691 -0.1341 -1.1886 -1.5851
 9511SOL    HW240170   0.655   0.334   3.640 -1.5008 -0.8807 -0.3685
 9512SOL     OW40171   2.501   4.277  12.129 -0.5432 -0.0804 -0.3525
 9512SOL    HW140172   2.467   4.205  12.075  1.1428  1.3923 -3.4093
 9512SOL    HW240173   2.586   4.270  12.085 -0.8925 -1.2928 -0.8318
 9513SOL     OW40174   1.626   4.430  12.300  0.2080 -0.1551 -0.4735
 9513SOL    HW140175   1.603   4.484  12.225  0.8867 -0.5591 -0.9752
 9513SOL    HW240176   1.544   4.381  12.295  0.1391 -0.0739 -0.1838
 9514SOL     OW40177   3.478   1.424   9.311 -0.5708  0.4988  0.0969
 9514SOL    HW140178   3.486   1.519   9.322 -0.2817  0.5243 -0.3437
 9514SOL    HW240179   3.418   1.418   9.236  0.7598 -0.5107 -0.8731
 9515SOL     OW40180   3.583   1.141   9.959  0.4665  0.6442  0.8879
 9515SOL    HW140181   3.508   1.087   9.986 -1.2460  1.8040 -1.5335
 9515SOL    HW240182   3.653   1.128  10.022  1.6960 -2.0893 -1.0132
 9516SOL     OW40183   4.531   1.475   2.197 -0.3470  0.2545 -0.4682
 9516SOL    HW140184   4.459   1.489   2.259  2.3939  0.1623  2.7625
 9516SOL    HW240185   4.575   1.556   2.173  1.0029  0.1809  1.6937
 9517SOL     OW40186   3.258   4.730   2.319  0.0258  0.4871 -0.2510
 9517SOL    HW140187   3.281   4.701   2.231  2.8217  1.1495  0.2610
 9517SOL    HW240188   3.264   4.653   2.376 -1.8244  0.1180 -0.5448
 9518SOL     OW40189   2.543   3.124   1.934  0.4917  0.1836 -0.0128
 9518SOL    HW140190   2.632   3.108   1.901  0.7301  0.7160  0.3815
 9518SOL    HW240191   2.577   3.139   2.022 -0.8503 -0.3172  0.5839
 9519SOL     OW40192   2.072   0.898   7.106  0.2630 -0.4071 -0.1369
 9519SOL    HW140193   2.001   0.834   7.106 -0.5728  0.5295  1.4082
 9519SOL    HW240194   2.016   0.967   7.140  0.4494  1.1025 -2.9134
 9520SOL     OW40195   1.680   0.342   1.203  0.6100  0.3059 -0.3441
 9520SOL    HW140196   1.738   0.274   1.236 -0.5762  0.6509  2.5069
 9520SOL    HW240197   1.637   0.377   1.282  0.9139 -0.1139  0.0119
 9521SOL     OW40198   2.512   3.146   7.149  0.0051  0.6170  0.3903
 9521SOL    HW140199   2.454   3.146   7.074  3.6108 -1.5879 -2.3912
 9521SOL    HW240200   2.526   3.239   7.163 -1.4221  1.0939 -1.4599
 9522SOL     OW40201   3.679   2.871   9.226 -0.1652 -0.1606 -0.0129
 9522SOL    HW140202   3.722   2.811   9.165 -1.4038 -2.1934  1.1153
 9522SOL    HW240203   3.754   2.926   9.247  1.3252 -2.7848  1.4616
 9523SOL     OW40204   3.309   0.724   1.366  0.0293  0.2608 -0.0310
 9523SOL    HW140205   3.266   0.675   1.436  1.4350  0.6382  1.1104
 9523SOL    HW240206   3.251   0.707   1.292 -0.3277  1.0520  0.0591
 9524SOL     OW40207   2.383   0.682  16.956 -0.3411 -0.3240 -0.0082
 9524SOL    HW140208   2.343   0.641  16.879 -1.2777 -1.5710  1.1525
 9524SOL    HW240209   2.326   0.758  16.967  0.5412  0.4412 -0.6604
 9525SOL     OW40210   3.003   3.147   8.512  0.3706 -0.3732  0.0303
 9525SOL    HW140211   2.971   3.159   8.602  0.7887  1.8670 -0.1024
 9525SOL    HW240212   2.942   3.204   8.464  1.3024  0.7813  0.2052
 9526SOL     OW40213   1.916   2.618   9.242 -0.2555  0.6766  0.2708
 9526SOL    HW140214   1.963   2.687   9.289  1.2912  0.0788 -0.3812
 9526SOL    HW240215   1.830   2.659   9.247  0.5550  2.0607  3.0255
 9527SOL     OW40216   0.249   1.532   5.252  0.6326  0.2834  0.6487
 9527SOL    HW140217   0.240   1.567   5.163 -0.2997  2.3403  1.5543
 9527SOL    HW240218   0.343   1.529   5.269  0.5839 -0.6720  0.7761
 9528SOL     OW40219   1.372   3.686   3.780 -0.1567 -0.2447  0.2994
 9528SOL    HW140220   1.311   3.681   3.707 -0.0163 -0.3821  0.1926
 9528SOL    HW240221   1.328   3.756   3.829  1.4608  1.3991 -0.5997
 9529SOL     OW40222   2.249   3.536   5.147 -0.0192  0.5858 -0.5770
 9529SOL    HW140223   2.312   3.580   5.090 -0.4006  1.6042 -0.2012
 9529SOL    HW240224   2.233   3.465   5.085 -2.3342 -0.7472  1.5622
 9530SOL     OW40225   0.779   1.646  12.122  0.3471 -0.2801 -0.0859
 9530SOL    HW140226   0.770   1.651  12.217 -1.0997 -0.4751 -0.2160
 9530SOL    HW240227   0.851   1.709  12.115  2.1617 -2.5897 -2.0254
 9531SOL     OW40228   3.406   2.509   5.349 -0.1442 -0.3286 -0.0236
 9531SOL    HW140229   3.371   2.580   5.295 -0.0583 -0.5592 -0.3898
 9531SOL    HW240230   3.426   2.538   5.437 -1.1144  0.4375 -0.0597
 9532SOL     OW40231   0.341   1.680   9.051 -0.1268 -0.5133 -0.2506
 9532SOL    HW140232   0.292   1.615   9.001 -0.4463  0.0072 -0.6030
 9532SOL    HW240233   0.420   1.628   9.070 -0.3120 -1.1833 -1.3087
 9533SOL     OW40234   0.271   2.151  17.465  0.0455  0.2437  0.4663
 9533SOL    HW140235   0.195   2.102  17.496  1.1240 -0.8866  1.3465
 9533SOL    HW240236   0.229   2.215  17.407 -0.8571 -0.1466  0.6861
 9534SOL     OW40237   2.068   4.029   3.078 -0.5509  0.2789 -0.1549
 9534SOL    HW140238   2.079   4.002   3.170  0.2403  0.1322 -0.2940
 9534SOL    HW240239   2.031   3.954   3.031  2.1753  0.2772 -2.2731
 9535SOL     OW40240   4.090   1.457   8.172  0.0745 -0.4928  0.5716
 9535SOL    HW140241   4.172   1.417   8.202 -0.6846 -1.0354  1.8838
 9535SOL    HW240242   4.117   1.549   8.169 -0.3820 -0.2962  2.9179
 9536SOL     OW40243   4.262   1.853   3.658  0.1711 -0.1275  0.3090
 9536SOL    HW140244   4.310   1.864   3.740  0.1052  0.7963  0.2194
 9536SOL    HW240245   4.240   1.941   3.628 -2.4911 -0.2725  1.7474
 9537SOL     OW40246   3.068   2.517  13.685  0.4374  0.2842  0.2419
 9537SOL    HW140247   3.018   2.537  13.764  1.5751  0.2199  0.9840
 9537SOL    HW240248   3.142   2.577  13.699  1.7024 -0.8413 -1.6526
 9538SOL     OW40249   1.605   3.864  17.039 -0.0227 -0.2762 -0.2866
 9538SOL    HW140250   1.638   3.795  16.981  0.9649  1.0292 -1.2728
 9538SOL    HW240251   1.531   3.906  16.994 -1.1255 -1.3771  0.4792
 9539SOL     OW40252   3.761   3.817  11.968  0.3946 -0.1180  0.1638
 9539SOL    HW140253   3.803   3.851  11.890 -1.3490 -1.4005 -1.3230
 9539SOL    HW240254   3.757   3.900  12.016 -0.4448  0.2197 -0.4951
 9540SOL     OW40255   2.809   2.042   1.552 -0.7170 -0.1806  0.3140
 9540SOL    HW140256   2.855   2.048   1.469 -2.0288  1.0355 -0.3261
 9540SOL    HW240257   2.779   1.951   1.550 -2.3183  0.3001  2.2112
 9541SOL     OW40258   0.899   1.063  10.458 -0.1914  0.2539  0.8474
 9541SOL    HW140259   0.805   1.045  10.465 -0.0453 -0.4109  1.1229
 9541SOL    HW240260   0.896   1.153  10.427  0.2398  0.8619  2.5559
 9542SOL     OW40261   4.677   2.619   8.468 -0.2154 -0.1961 -0.4157
 9542SOL    HW140262   4.673   2.712   8.449  1.9632  0.3597  1.7903
 9542SOL    HW240263   4.711   2.613   8.557  0.0450 -0.1751 -0.5154
 9543SOL     OW40264   1.230   2.132   9.148 -0.3755 -0.0193 -0.2059
 9543SOL    HW140265   1.317   2.171   9.146  0.6043 -2.2764 -1.3957
 9543SOL    HW240266   1.201   2.150   9.237 -2.9684 -1.2110 -0.8078
 9544SOL     OW40267   3.076   0.503   4.781  0.8318  0.0642 -0.0363
 9544SOL    HW140268   3.020   0.558   4.727  1.4829 -0.9225 -1.7107
 9544SOL    HW240269   3.122   0.454   4.713 -2.4176 -1.5027 -1.0919
 9545SOL     OW40270   1.404   3.575   8.063  0.0822  0.2542 -0.5226
 9545SOL    HW140271   1.395   3.580   7.968  0.0567  0.7411 -0.4988
 9545SOL    HW240272   1.485   3.525   8.070 -0.7948 -0.9141  1.3148
 9546SOL     OW40273   2.272   2.671   4.308  0.3926  0.0288  0.7330
 9546SOL    HW140274   2.220   2.609   4.360 -1.6119  1.3331  0.2917
 9546SOL    HW240275   2.252   2.751   4.356  1.3466  0.7306 -0.0438
 9547SOL     OW40276   1.194   0.203   1.516 -0.2874  0.2225 -0.4457
 9547SOL    HW140277   1.206   0.154   1.434  0.5829 -1.3411  0.6223
 9547SOL    HW240278   1.108   0.177   1.550  1.4521 -2.4545  1.8759
 9548SOL     OW40279   1.782   3.878   4.710 -0.3201 -0.2666 -0.9114
 9548SOL    HW140280   1.688   3.860   4.718  0.0297 -1.4559  0.4368
 9548SOL    HW240281   1.791   3.871   4.615 -2.8244 -0.4082 -1.1434
 9549SOL     OW40282   3.291   0.555   3.137  0.3905  0.1787 -0.0862
 9549SOL    HW140283   3.225   0.506   3.186 -0.5246  1.8566  0.4023
 9549SOL    HW240284   3.249   0.642   3.136  0.4842  0.2411  1.0962
 9550SOL     OW40285   2.196   1.639   7.311  0.1279 -0.9764 -0.5471
 9550SOL    HW140286   2.182   1.732   7.331 -2.2346 -1.2908 -0.6796
 9550SOL    HW240287   2.102   1.621   7.302 -0.4820  2.0826 -0.3411
 9551SOL     OW40288   2.706   1.078   5.566 -0.3048  0.0364  0.7984
 9551SOL    HW140289   2.692   1.166   5.531  2.5696  0.9548  2.0316
 9551SOL    HW240290   2.722   1.113   5.654 -1.8982 -0.3197  1.2335
 9552SOL     OW40291   4.622   2.827   3.688 -0.0799 -0.2043  0.0156
 9552SOL    HW140292   4.564   2.828   3.612  0.9612  2.1838 -0.7667
 9552SOL    HW240293   4.699   2.851   3.637 -0.8821 -0.5578 -1.3707
 9553SOL     OW40294   1.179   1.101   1.494  0.0589  0.2272 -0.1551
 9553SOL    HW140295   1.192   1.040   1.567  1.6399 -0.4029 -0.9595
 9553SOL    HW240296   1.125   1.050   1.434  0.5226 -0.1729 -0.2343
 9554SOL     OW40297   2.351   0.194  15.596 -0.0698 -0.3387  0.1236
 9554SOL    HW140298   2.309   0.268  15.552  0.1690 -0.5278 -0.4253
 9554SOL    HW240299   2.443   0.206  15.571 -0.4902  2.2767 -0.1660
 9555SOL     OW40300   3.503   3.254   5.453  0.5346  0.4919 -0.1956
 9555SOL    HW140301   3.488   3.225   5.363 -0.8935 -0.0561  0.2213
 9555SOL    HW240302   3.543   3.340   5.435  1.1894  0.5693  1.5885
 9556SOL     OW40303   1.253   2.980   4.689 -0.8264  0.3318  0.7173
 9556SOL    HW140304   1.174   3.010   4.643 -1.0600 -3.1561 -1.1616
 9556SOL    HW240305   1.312   3.046   4.652 -0.4261 -1.7096 -2.3301
 9557SOL     OW40306   2.935   2.612  10.350 -0.1689 -0.0484  0.2441
 9557SOL    HW140307   2.976   2.652  10.426  0.7979  0.5764 -0.6048
 9557SOL    HW240308   2.902   2.692  10.308 -0.0479 -0.1539 -0.0542
 9558SOL     OW40309   1.989   2.134   5.775  0.2877  0.7209  0.4091
 9558SOL    HW140310   1.914   2.121   5.716 -0.4519 -0.9390  1.7023
 9558SOL    HW240311   2.031   2.213   5.743  1.1180 -0.2994 -1.0174
 9559SOL     OW40312   1.108   1.527   2.848  0.4533 -0.0183 -0.0714
 9559SOL    HW140313   1.014   1.516   2.861  0.1947  0.6902 -1.3874
 9559SOL    HW240314   1.130   1.552   2.938  0.8132  1.7287 -0.6518
 9560SOL     OW40315   3.750   4.343   0.235  0.2085 -0.3875  0.2061
 9560SOL    HW140316   3.707   4.258   0.230 -0.1965 -0.1680 -0.0420
 9560SOL    HW240317   3.791   4.342   0.148 -1.8004 -2.5544 -0.7116
 9561SOL     OW40318   2.378   0.422   5.670  0.1134  0.3145 -0.1062
 9561SOL    HW140319   2.317   0.473   5.723  3.0927  2.4363  1.2518
 9561SOL    HW240320   2.439   0.381   5.733 -0.1567 -1.9672 -1.3294
 9562SOL     OW40321   3.568   3.430  16.858 -0.3171 -0.8019  0.5463
 9562SOL    HW140322   3.625   3.430  16.782 -2.0453  3.7850 -0.7617
 9562SOL    HW240323   3.511   3.507  16.848  0.9271  0.1165  0.5222
 9563SOL     OW40324   0.967   4.068  15.189  0.5322 -0.4029 -0.3583
 9563SOL    HW140325   1.001   4.127  15.122 -3.3452  1.2596 -0.8766
 9563SOL    HW240326   1.014   4.111  15.261 -0.1893  0.2584 -0.2859
 9564SOL     OW40327   3.040   0.290   5.106 -0.0752  0.1780  0.5851
 9564SOL    HW140328   2.962   0.241   5.129  0.0290 -0.0842  0.3851
 9564SOL    HW240329   3.104   0.231   5.067  0.6739  2.7020 -2.0690
 9565SOL     OW40330   1.942   0.733   7.364  0.2414  0.6347  0.0803
 9565SOL    HW140331   1.881   0.782   7.309 -0.5258 -0.9211 -0.4483
 9565SOL    HW240332   2.023   0.785   7.359  0.8397 -0.0696  2.1723
 9566SOL     OW40333   4.459   1.390   5.899 -0.9070 -0.8293  0.4926
 9566SOL    HW140334   4.479   1.454   5.967 -2.3911 -2.2708  2.2899
 9566SOL    HW240335   4.364   1.385   5.907 -0.9971 -0.6707 -0.5224
 9567SOL     OW40336   2.862   1.008   9.237 -0.2984 -0.3388 -0.2252
 9567SOL    HW140337   2.900   1.094   9.221 -2.2465  0.3506 -1.0887
 9567SOL    HW240338   2.939   0.960   9.267 -0.5562 -0.0618  0.8412
 9568SOL     OW40339   2.007   1.250   5.229  0.0609  0.7150 -0.1230
 9568SOL    HW140340   2.008   1.337   5.270  0.7809  1.1819 -1.1459
 9568SOL    HW240341   2.097   1.238   5.199 -0.4754  0.7224 -1.7269
 9569SOL     OW40342   3.982   3.187   6.302  0.3455 -0.0454  0.1215
 9569SOL    HW140343   3.929   3.108   6.293  1.4322 -0.8330  0.5286
 9569SOL    HW240344   4.061   3.143   6.269  0.4389 -1.1772  1.8622
   4.73641   4.73641  17.74415
