Membrane in water
40344
    1TMC1    C1    1   2.897   2.195  11.594  0.0994 -0.1771  0.0719
    1TMC1    C2    2   2.980   2.185  11.483 -0.5561  1.1019 -0.6043
    1TMC1    C3    3   3.101   2.240  11.480 -0.3273 -0.0239  0.3160
    1TMC1    C4    4   2.940   2.254  11.710 -0.5156 -0.1321 -0.0464
    1TMC1    C5    5   3.063   2.310  11.700  0.2015 -0.1878  0.3651
    1TMC1    C6    6   3.150   2.309  11.588 -0.3282 -0.6581 -0.2593
    1TMC1     C    7   2.760   2.150  11.590 -0.0526  0.0379  0.2852
    1TMC1     O    8   2.714   2.136  11.704 -0.0256 -0.1137 -0.4660
    1TMC1     H    9   2.951   2.109  11.412 -2.4195 -0.3566  1.7200
    1TMC1    H1   10   2.876   2.258  11.797  0.3845 -0.7802  0.6429
    1TMC1    H2   11   3.250   2.348  11.605 -0.2235 -0.5691 -1.0709
    1TMC1    C7   12   3.109   2.389  11.808 -0.1170 -0.2647  0.3724
    1TMC1    C8   13   3.170   2.237  11.352  0.2774 -0.1745 -0.2156
    1TMC1    O1   14   3.090   2.361  11.923  0.0973  1.0434 -0.1259
    1TMC1    O2   15   3.132   2.155  11.269 -0.2574  0.4290 -0.0656
    1TMC1    O3   16   3.133   2.515  11.768  0.5026  0.3865  0.1911
    1TMC1    H3   17   3.091   2.535  11.681  0.5559 -0.8500 -0.1186
    1TMC1    O5   18   3.275   2.316  11.332  0.2861 -0.4966  0.8276
    1TMC1    H5   19   3.296   2.389  11.394  2.2585 -1.2956  1.0780
    2MPD2     C   20   2.363   1.924  11.359 -0.9803  0.2985  0.7035
    2MPD2    C1   21   2.399   1.935  11.492  0.0200 -0.5382 -0.3482
    2MPD2    C2   22   2.510   2.007  11.531  0.3911 -0.1494 -0.3128
    2MPD2    C3   23   2.586   2.067  11.433  0.2283  0.1891 -0.3029
    2MPD2    C4   24   2.552   2.055  11.303 -0.3709 -0.5618  0.4000
    2MPD2    C5   25   2.440   1.976  11.261 -0.8029  0.3822  0.7479
    2MPD2     H   26   2.534   2.015  11.637  0.5296  2.9213 -0.5699
    2MPD2    H1   27   2.614   2.090  11.222  1.3789 -1.0713  1.5185
    2MPD2    H2   28   2.271   1.874  11.330 -1.1389  0.1314  1.5157
    2MPD2    H3   29   2.412   1.964  11.157  1.2212 -1.2050  0.3987
    2MPD2     N   30   2.710   2.126  11.464 -0.1242  0.0155  0.0402
    2MPD2    H5   31   2.765   2.167  11.389  2.1688  0.0675  1.7560
    2MPD2    N1   32   2.304   1.900  11.593 -0.4707  0.4964  0.2419
    2MPD2    H7   33   2.325   1.917  11.691 -1.5050  0.3443  0.4886
    3TMC1    C1   34   1.394   3.198  10.382  0.2340 -0.2803 -0.2724
    3TMC1    C2   35   1.456   3.097  10.315  0.3167 -0.2460 -0.2937
    3TMC1    C3   36   1.587   3.116  10.292  0.1410  0.1910 -0.3249
    3TMC1    C4   37   1.453   3.316  10.409 -0.8094 -0.1882 -1.1936
    3TMC1    C5   38   1.585   3.336  10.376 -0.2858 -1.3286 -0.2028
    3TMC1    C6   39   1.654   3.227  10.329  0.5157 -0.2483 -0.7001
    3TMC1     C   40   1.265   3.161  10.427 -0.3171  0.0818 -0.0902
    3TMC1     O   41   1.215   3.056  10.386 -0.0299 -0.8530 -0.0699
    3TMC1     H   42   1.419   2.995  10.311 -0.6885  0.0769  1.0202
    3TMC1    H1   43   1.404   3.401  10.456  0.4596 -0.4728  0.6766
    3TMC1    H2   44   1.759   3.239  10.304  0.7903  1.5992  1.3207
    3TMC1    C7   45   1.662   3.402  10.474  0.3412  0.4104 -0.0891
    3TMC1    C8   46   1.662   3.005  10.256  0.3308 -0.1096  1.0210
    3TMC1    O1   47   1.714   3.502  10.426 -0.2020 -0.1317 -0.4104
    3TMC1    O2   48   1.752   3.026  10.178  0.2631  0.2795 -0.3750
    3TMC1    O3   49   1.730   3.301  10.539 -0.3349 -0.2093  0.1146
    3TMC1    H3   50   1.667   3.237  10.579  0.9398 -0.6270  1.4586
    3TMC1    O5   51   1.699   2.980  10.381 -0.2131  0.3017 -0.1318
    3TMC1    H5   52   1.626   2.973  10.446  1.3711 -1.1587  1.4910
    4MPD2     C   53   0.920   3.198  10.806  0.1852  0.7316  0.7379
    4MPD2    C1   54   1.019   3.292  10.823 -0.2625  0.5364 -0.2453
    4MPD2    C2   55   1.123   3.295  10.742 -0.5704  0.3087 -0.3063
    4MPD2    C3   56   1.133   3.207  10.635  0.2000 -0.0735  0.0911
    4MPD2    C4   57   1.037   3.106  10.617  0.0749 -0.2416 -0.3782
    4MPD2    C5   58   0.935   3.100  10.707 -0.0343 -0.3668  0.3315
    4MPD2     H   59   1.200   3.365  10.771 -1.0199  0.3592  0.7646
    4MPD2    H1   60   1.046   3.038  10.533  0.5682  0.1096 -0.6061
    4MPD2    H2   61   0.840   3.184  10.878 -0.8133 -1.4346 -0.7941
    4MPD2    H3   62   0.853   3.030  10.696 -1.9935  2.0264 -0.3968
    4MPD2     N   63   1.243   3.225  10.545  0.3028  0.3131 -0.2974
    4MPD2    H5   64   1.316   3.287  10.578  0.4228 -0.3909  0.7491
    4MPD2    N1   65   1.011   3.375  10.942  0.6388 -0.3842  0.4612
    4MPD2    H7   66   1.063   3.463  10.939  0.9558 -0.5619  0.6942
    5TCq1    O1   67   2.133   0.510  11.843 -0.0805  0.1760 -0.2859
    5TCq1    C1   68   2.052   0.419  11.913 -0.2337 -0.5993  0.8997
    5TCq1    O2   69   2.016   0.444  12.025 -0.3030 -0.0164  0.0744
    5TCq1    C2   70   1.970   0.349  11.820  0.2618 -0.0237 -0.0826
    5TCq1    C3   71   1.839   0.337  11.851  0.0463 -0.1596  0.6693
    5TCq1    C4   72   1.756   0.274  11.764 -0.4819 -0.6059 -0.6676
    5TCq1    C5   73   1.800   0.234  11.648 -0.3529 -0.0574 -0.0391
    5TCq1    C6   74   1.932   0.240  11.612 -0.1945  0.1357 -0.2435
    5TCq1    C7   75   2.023   0.299  11.701  0.1535 -0.5282  0.2914
    5TCq1    C8   76   1.980   0.207  11.474  0.3540  0.0109  0.1591
    5TCq1    O4   77   2.099   0.223  11.450 -0.5467  0.4161 -0.4916
    5TCq1    C9   78   1.615   0.286  11.800 -0.4182  0.4200 -0.1963
    5TCq1    O5   79   1.528   0.220  11.732  0.0091 -0.4133  0.2421
    5TCq1    O6   80   1.586   0.393  11.865 -0.2893 -0.0652  0.5637
    5TCq1    H1   81   2.124   0.496  11.747  0.0377 -1.4823 -0.0507
    5TCq1    H2   82   1.805   0.383  11.943  1.9885  1.8220  0.3928
    5TCq1    H3   83   1.731   0.185  11.580 -4.1396  2.8835  1.7025
    5TCq1    H4   84   2.124   0.322  11.671  0.1925  0.3763  1.1047
    6MPD2     C   85   1.766   0.136  11.185 -0.0645 -0.1166  0.6336
    6MPD2    C1   86   1.881   0.131  11.262  0.4881  0.7224 -0.3524
    6MPD2    C2   87   2.002   0.089  11.209 -0.0731 -0.0221 -0.3261
    6MPD2    C3   88   2.003   0.043  11.080  0.3126  0.2281 -0.5509
    6MPD2    C4   89   1.892   0.057  11.003  0.3123 -0.6424 -0.2479
    6MPD2    C5   90   1.779   0.107  11.054 -0.0003 -0.0478 -0.1826
    6MPD2     H   91   2.089   0.084  11.273  1.3988  0.9956 -2.2266
    6MPD2    H1   92   1.887   0.038  10.897  0.7362 -1.9135 -0.0310
    6MPD2    H2   93   1.671   0.173  11.220 -0.5591 -0.5340 -0.2587
    6MPD2    H3   94   1.687   0.121  10.998 -1.5528  0.7373  2.5526
    6MPD2     N   95   2.118   4.722  11.022  0.5849 -0.2203 -0.3377
    6MPD2    H5   96   2.193   4.709  11.089  0.5212 -0.2740 -0.2762
    6MPD2    N1   97   1.875   0.167  11.397 -0.2986  0.5226 -0.1718
    6MPD2    H7   98   1.783   0.163  11.441 -0.2927  2.2660 -0.0031
    7TCq1    O1   99   3.913   0.263  13.016  0.4612  0.6740 -0.1969
    7TCq1    C1  100   3.951   0.198  13.130 -0.1407 -0.0909 -0.1370
    7TCq1    O2  101   4.036   0.239  13.209  0.8618  0.2121  0.0120
    7TCq1    C2  102   3.926   0.055  13.125  0.1140 -0.4991  0.1034
    7TCq1    C3  103   3.810   0.008  13.087  0.1713  0.8024  0.0670
    7TCq1    C4  104   3.782   4.611  13.091 -0.3531 -0.1651  0.1958
    7TCq1    C5  105   3.871   4.520  13.143  0.4220 -0.2950  0.3614
    7TCq1    C6  106   3.989   4.574  13.194  0.2790  0.0466  0.2136
    7TCq1    C7  107   4.012   4.705  13.187 -0.0245  0.1795 -0.5132
    7TCq1    C8  108   4.072   4.485  13.274  0.4769 -0.2210 -0.1196
    7TCq1    O4  109   4.042   4.368  13.268 -0.2293  0.2292 -0.3076
    7TCq1    C9  110   3.652   4.566  13.065 -0.7477 -0.1813  0.1322
    7TCq1    O5  111   3.565   4.643  13.020 -0.3973  0.2284 -0.1671
    7TCq1    O6  112   3.619   4.464  13.129  0.3797 -0.2013  0.4245
    7TCq1    H1  113   3.866   0.219  12.942  0.0492  0.5780  0.1231
    7TCq1    H2  114   3.734   0.077  13.051 -0.4450  0.5700  0.9232
    7TCq1    H3  115   3.844   4.416  13.148  0.2464 -0.3856 -2.3848
    7TCq1    H4  116   4.102   0.016  13.228 -0.0806  0.6846 -0.9367
    8MPD2     C  117   4.451   4.382  13.614 -0.1098  0.5744 -0.2259
    8MPD2    C1  118   4.361   4.296  13.549 -0.0332 -0.4092 -0.6579
    8MPD2    C2  119   4.262   4.352  13.466 -0.0979  0.8848 -0.2244
    8MPD2    C3  120   4.263   4.484  13.442 -0.1159  0.8160  0.5257
    8MPD2    C4  121   4.346   4.574  13.510  0.0461  0.3364  0.5825
    8MPD2    C5  122   4.435   4.516  13.596  1.0456  0.4064  0.1342
    8MPD2     H  123   4.191   4.292  13.411 -0.5855  1.5636 -0.3436
    8MPD2    H1  124   4.349   4.681  13.496  2.7127  0.1998  0.0414
    8MPD2    H2  125   4.526   4.348  13.685 -0.7442 -0.5919 -0.1120
    8MPD2    H3  126   4.504   4.578  13.652  0.2728  1.3440  0.0679
    8MPD2     N  127   4.172   4.550  13.350  0.3643  0.5428 -0.1196
    8MPD2    H5  128   4.192   4.646  13.324 -2.3366  1.3396  0.6984
    8MPD2    N1  129   4.373   4.152  13.572  0.8881 -0.2145 -0.3619
    8MPD2    H7  130   4.440   4.109  13.635 -0.3751 -0.4323  0.8287
    9TMC1    C1  131   2.007   3.669  11.432 -0.5265  0.3811 -0.1770
    9TMC1    C2  132   1.915   3.570  11.393  0.0393 -0.1413  0.1255
    9TMC1    C3  133   1.840   3.593  11.283 -1.1588  0.9240  0.0596
    9TMC1    C4  134   2.025   3.789  11.367 -0.1081 -0.2467  0.0036
    9TMC1    C5  135   1.945   3.804  11.260  0.5590  0.2202  0.5875
    9TMC1    C6  136   1.855   3.714  11.211 -0.6754 -0.0201  0.0274
    9TMC1     C  137   2.128   3.618  11.488 -0.0067  0.9340 -0.5884
    9TMC1     O  138   2.211   3.708  11.489  0.2353  1.0037  0.4369
    9TMC1     H  139   1.898   3.478  11.447 -1.6559  0.0139 -0.1284
    9TMC1    H1  140   2.099   3.863  11.395 -0.5837 -0.0415  0.7253
    9TMC1    H2  141   1.790   3.744  11.130  0.0484  1.9305  0.1688
    9TMC1    C7  142   1.982   3.908  11.165  0.3021  0.1179  0.1650
    9TMC1    C8  143   1.727   3.505  11.250  0.2748  0.1505 -1.0024
    9TMC1    O1  144   1.972   3.895  11.044  0.2364  0.7502 -0.2678
    9TMC1    O2  145   1.627   3.561  11.205  0.1488  0.1408  0.2692
    9TMC1    O3  146   2.002   4.025  11.222  0.4308  0.9695 -0.4055
    9TMC1    H3  147   1.976   4.017  11.316  3.1795 -0.0185  0.2508
    9TMC1    O5  148   1.719   3.406  11.343  0.2826  0.1414 -0.8733
    9TMC1    H5  149   1.805   3.359  11.351  0.2362 -0.1950 -2.4760
   10MPD2     C  150   2.369   3.469  11.562 -0.9612  0.4854 -0.0354
   10MPD2    C1  151   2.245   3.412  11.563  0.2097  0.4696 -0.4307
   10MPD2    C2  152   2.230   3.282  11.621 -0.1038  0.7877 -0.0927
   10MPD2    C3  153   2.335   3.227  11.695  0.1464 -0.1847 -0.7904
   10MPD2    C4  154   2.450   3.295  11.694  0.2037 -0.4554 -0.0811
   10MPD2    C5  155   2.468   3.407  11.629  0.4725 -0.0825 -0.0290
   10MPD2     H  156   2.132   3.235  11.627 -0.5302  1.6355 -0.3400
   10MPD2    H1  157   2.527   3.246  11.753  0.3298  1.0048  0.9545
   10MPD2    H2  158   2.395   3.562  11.513  1.0474  0.6848  1.4193
   10MPD2    H3  159   2.564   3.458  11.636 -0.1621  1.5021 -3.0462
   10MPD2     N  160   2.330   3.110  11.767 -0.5677  0.3606 -0.1579
   10MPD2    H5  161   2.410   3.086  11.825 -1.1314 -1.3398 -0.1010
   10MPD2    N1  162   2.130   3.482  11.522 -0.5775  0.1111  0.4475
   10MPD2    H7  163   2.041   3.438  11.542 -1.2066  1.2583  0.1445
   11TCq1    O1  164   2.559   2.703  14.329 -0.7453 -0.3158  0.4383
   11TCq1    C1  165   2.573   2.784  14.442  0.3669 -0.2822  0.4468
   11TCq1    O2  166   2.682   2.819  14.483 -0.6514 -0.6819  0.1218
   11TCq1    C2  167   2.461   2.872  14.439  1.0306  0.1236 -0.3503
   11TCq1    C3  168   2.482   3.007  14.427 -0.4313 -0.0265 -0.0334
   11TCq1    C4  169   2.366   3.079  14.404 -0.8450 -0.6219 -0.4367
   11TCq1    C5  170   2.243   3.019  14.413  0.2179  0.4737 -0.5003
   11TCq1    C6  171   2.230   2.891  14.433 -0.2221  0.1984 -0.6618
   11TCq1    C7  172   2.341   2.809  14.440 -0.4846  0.4833 -0.3690
   11TCq1    C8  173   2.098   2.837  14.391 -0.6176 -0.1537 -0.5717
   11TCq1    O4  174   2.002   2.905  14.409 -0.2548  0.0488  0.3102
   11TCq1    C9  175   2.375   3.222  14.413 -0.7956  0.2188  0.7970
   11TCq1    O5  176   2.494   3.268  14.420 -0.5566 -0.4631 -0.2937
   11TCq1    O6  177   2.272   3.289  14.378 -0.0481  0.5380 -0.3433
   11TCq1    H1  178   2.478   2.723  14.278  0.9825 -1.5705 -2.7902
   11TCq1    H2  179   2.578   3.055  14.441  1.1372 -3.1168 -0.1242
   11TCq1    H3  180   2.160   3.088  14.403 -0.4479 -0.2117  0.2717
   11TCq1    H4  181   2.336   2.704  14.466 -0.9532  0.4425 -0.6235
   12MPD2     C  182   1.889   2.686  14.257 -0.3411  0.1369  0.3101
   12MPD2    C1  183   2.025   2.659  14.246  0.3465 -0.3896  0.6498
   12MPD2    C2  184   2.070   2.553  14.163 -0.9104  0.4336 -0.3639
   12MPD2    C3  185   1.983   2.465  14.105 -0.1780 -0.7383 -0.1054
   12MPD2    C4  186   1.853   2.496  14.110  0.4390  0.4564 -0.3750
   12MPD2    C5  187   1.805   2.602  14.183 -0.9694  0.0533  0.5435
   12MPD2     H  188   2.178   2.548  14.151 -0.8751 -4.0548  2.0032
   12MPD2    H1  189   1.775   2.454  14.047 -0.4048  0.6970  0.5042
   12MPD2    H2  190   1.847   2.765  14.319  2.1535  0.5686  1.4593
   12MPD2    H3  191   1.698   2.622  14.188 -0.9472  0.3729 -0.3709
   12MPD2     N  192   2.035   2.358  14.026  1.1952 -0.1031  0.9481
   12MPD2    H5  193   1.968   2.318  13.961  0.9784  1.3595  0.2689
   12MPD2    N1  194   2.123   2.732  14.307 -0.2095 -0.1901  0.0391
   12MPD2    H7  195   2.218   2.722  14.275 -1.1593 -1.3510 -2.4211
   13TCq1    O1  196   1.527   2.526  10.833  0.0439  0.8426  0.7606
   13TCq1    C1  197   1.469   2.613  10.921  0.1296  0.4734  0.1186
   13TCq1    O2  198   1.394   2.581  11.013 -0.4184  0.1061 -0.4473
   13TCq1    C2  199   1.534   2.744  10.914  0.2161  0.6048 -0.0958
   13TCq1    C3  200   1.537   2.800  10.790  0.1217 -0.3836 -0.4228
   13TCq1    C4  201   1.547   2.935  10.780  0.0370  0.3245 -0.2783
   13TCq1    C5  202   1.557   3.019  10.890  0.6297  0.5792 -0.9334
   13TCq1    C6  203   1.549   2.960  11.016 -0.0499  0.2187  0.4949
   13TCq1    C7  204   1.534   2.821  11.027 -0.2184 -0.6861  0.5780
   13TCq1    C8  205   1.540   3.040  11.133  0.0072  0.1058  0.4820
   13TCq1    O4  206   1.569   3.154  11.126  0.0841  0.2846 -0.0295
   13TCq1    C9  207   1.548   2.999  10.649 -0.2606  0.2915 -0.0159
   13TCq1    O5  208   1.525   2.921  10.556 -0.7876  0.7454 -0.3812
   13TCq1    O6  209   1.583   3.117  10.629 -0.2599  0.0117 -0.1196
   13TCq1    H1  210   1.591   2.575  10.776 -1.0519  2.8714  1.2791
   13TCq1    H2  211   1.514   2.742  10.702  2.7492 -0.8907 -0.7701
   13TCq1    H3  212   1.557   3.127  10.886 -3.3544  0.5059 -2.7323
   13TCq1    H4  213   1.562   2.774  11.121  2.3476 -0.2537  0.0400
   14MPD2     C  214   1.410   2.949  11.468  0.5057 -0.6998  0.2220
   14MPD2    C1  215   1.476   3.030  11.375 -0.1054 -0.4411  0.3134
   14MPD2    C2  216   1.517   3.157  11.407  0.4787  0.3585 -0.1487
   14MPD2    C3  217   1.494   3.209  11.531  0.2286  0.0363 -0.7119
   14MPD2    C4  218   1.441   3.129  11.624 -0.2908  0.8569 -0.7269
   14MPD2    C5  219   1.402   3.000  11.597  0.1738  0.3401 -0.3924
   14MPD2     H  220   1.571   3.217  11.334  1.0231 -0.8338 -0.7401
   14MPD2    H1  221   1.427   3.174  11.722  1.0516  2.4089 -1.2287
   14MPD2    H2  222   1.377   2.850  11.438 -3.7120  0.7689  0.0443
   14MPD2    H3  223   1.359   2.935  11.672  1.5925  1.3132  1.2750
   14MPD2     N  224   1.529   3.349  11.553 -0.3602  0.3555 -0.6047
   14MPD2    H5  225   1.560   3.405  11.474 -0.2740  0.6299 -0.3772
   14MPD2    N1  226   1.495   2.975  11.247 -0.0472 -0.0106 -0.0974
   14MPD2    H7  227   1.461   2.881  11.230  0.4956 -0.3182  0.5111
   15TCq1    O1  228   3.265   2.250   1.800 -0.4937 -0.5045  0.1978
   15TCq1    C1  229   3.331   2.362   1.755  0.3598  0.4428 -0.0827
   15TCq1    O2  230   3.296   2.473   1.791 -0.0370  0.6174 -0.9212
   15TCq1    C2  231   3.466   2.322   1.718  0.3192 -0.2009 -0.5816
   15TCq1    C3  232   3.572   2.362   1.798  0.2774 -0.1405  0.0959
   15TCq1    C4  233   3.695   2.302   1.807  0.9059  0.4031 -0.5361
   15TCq1    C5  234   3.713   2.198   1.715  0.0198  0.6125 -0.3221
   15TCq1    C6  235   3.608   2.157   1.640  0.2011 -0.3967  0.5777
   15TCq1    C7  236   3.482   2.208   1.649  0.4452  0.2167 -0.1612
   15TCq1    C8  237   3.631   2.047   1.552  0.5695  0.0654 -0.1610
   15TCq1    O4  238   3.736   1.992   1.572  0.2531 -0.0282  0.7531
   15TCq1    C9  239   3.800   2.323   1.909  0.3810  0.2166  0.3563
   15TCq1    O5  240   3.910   2.255   1.901  0.1236 -0.2892 -0.2548
   15TCq1    O6  241   3.766   2.400   2.007 -0.0929 -0.4095 -0.3675
   15TCq1    H1  242   3.324   2.172   1.804 -0.2807 -0.3827 -0.6097
   15TCq1    H2  243   3.550   2.449   1.858 -0.5980  1.1239 -2.0348
   15TCq1    H3  244   3.798   2.134   1.738 -0.6943 -1.1632 -2.6081
   15TCq1    H4  245   3.398   2.160   1.600  1.0774 -1.6898  0.6016
   16MPD2     C  246   3.482   1.999   1.222 -0.1540  0.1767  0.2792
   16MPD2    C1  247   3.551   1.958   1.327 -0.3390 -0.7469  0.1780
   16MPD2    C2  248   3.610   1.836   1.328  0.0005  0.7693  0.3959
   16MPD2    C3  249   3.607   1.751   1.210 -0.2005  0.4981  0.0365
   16MPD2    C4  250   3.552   1.810   1.097  0.0303  0.2483 -0.5185
   16MPD2    C5  251   3.501   1.937   1.106 -0.8274 -0.6835  0.1992
   16MPD2     H  252   3.660   1.805   1.419  0.9657  0.7369 -0.1466
   16MPD2    H1  253   3.549   1.756   1.003  1.5361 -2.3168  0.9002
   16MPD2    H2  254   3.441   2.097   1.204 -0.4434  0.0401  0.2069
   16MPD2    H3  255   3.458   1.978   1.015 -2.3724 -0.9818  0.7872
   16MPD2     N  256   3.681   1.632   1.206  0.4787  0.3726  0.3934
   16MPD2    H5  257   3.740   1.613   1.287  1.2546  0.6770 -0.0988
   16MPD2    N1  258   3.553   2.054   1.436 -0.1881  0.1371  0.0002
   16MPD2    H7  259   3.491   2.134   1.433 -1.6349 -0.9671  0.2123
   17TMC1    C1  260   1.855   1.231  11.124 -0.0631 -0.0675 -0.0733
   17TMC1    C2  261   1.781   1.145  11.196 -0.5096  0.6515 -0.6903
   17TMC1    C3  262   1.739   1.181  11.324 -0.1675  0.1798  0.4519
   17TMC1    C4  263   1.878   1.361  11.164 -0.2099 -0.6287 -0.0580
   17TMC1    C5  264   1.831   1.391  11.286  0.6609 -0.1844 -0.2586
   17TMC1    C6  265   1.762   1.310  11.366 -0.0718 -0.3380 -0.5217
   17TMC1     C  266   1.905   1.183  10.997 -0.0234  0.9751 -0.0641
   17TMC1     O  267   1.912   1.066  10.976  0.4567 -0.2915  0.0096
   17TMC1     H  268   1.743   1.063  11.136  0.7953 -1.3793  1.2689
   17TMC1    H1  269   1.952   1.429  11.122 -0.2334 -1.7670 -1.9594
   17TMC1    H2  270   1.744   1.330  11.471 -0.6337 -0.0408 -0.6752
   17TMC1    C7  271   1.850   1.520  11.347 -0.0232 -0.2684  0.5111
   17TMC1    C8  272   1.669   1.092  11.421 -0.1308 -0.1618 -0.1083
   17TMC1    O1  273   1.833   1.531  11.466  0.0849 -0.2228  0.7321
   17TMC1    O2  274   1.636   1.132  11.532 -0.1197 -0.1685 -0.3035
   17TMC1    O3  275   1.819   1.610  11.249 -0.0865 -0.3379 -0.1761
   17TMC1    H3  276   1.796   1.573  11.161 -0.7287  0.7626 -0.4654
   17TMC1    O5  277   1.616   0.989  11.357  0.4050  0.0394  0.3192
   17TMC1    H5  278   1.654   0.965  11.270 -0.0453 -1.5070  0.5619
   18MPD2     C  279   1.993   1.182  10.717  0.4210 -0.4458 -0.0237
   18MPD2    C1  280   2.027   1.281  10.807 -0.1497  0.4351  0.0792
   18MPD2    C2  281   2.087   1.388  10.755 -0.5592  0.7400 -0.1300
   18MPD2    C3  282   2.123   1.401  10.626  0.1898 -0.1462  0.5543
   18MPD2    C4  283   2.104   1.298  10.538 -0.0898 -0.5584  0.4368
   18MPD2    C5  284   2.040   1.193  10.587 -0.2434 -0.4148  0.4460
   18MPD2     H  285   2.110   1.464  10.828  1.0238 -1.1061  1.2739
   18MPD2    H1  286   2.121   1.303  10.431 -0.0638 -2.4235  0.3642
   18MPD2    H2  287   1.925   1.102  10.746  0.1984 -0.3388 -0.2432
   18MPD2    H3  288   2.006   1.122  10.513  0.0430 -2.7901  2.5938
   18MPD2     N  289   2.189   1.519  10.575 -0.1689 -0.1653 -0.0080
   18MPD2    H5  290   2.228   1.516  10.481  0.7993 -0.5504  0.4131
   18MPD2    N1  291   1.968   1.285  10.939 -0.4023 -0.3126  0.0436
   18MPD2    H7  292   1.985   1.374  10.983  0.6476 -0.0929 -0.8326
   19TMC2    C1  293   3.251   2.783  13.921 -0.6759 -0.0104  0.0805
   19TMC2    C2  294   3.133   2.849  13.937  0.1505 -0.1897 -0.1467
   19TMC2    C3  295   3.015   2.784  13.925  0.4549 -0.0350 -0.1208
   19TMC2    C4  296   3.243   2.656  13.882 -0.1047 -0.0741 -0.1769
   19TMC2    C5  297   3.119   2.594  13.858  0.5927 -0.1300  0.6572
   19TMC2    C6  298   3.001   2.656  13.882  0.3786 -0.5228  0.1984
   19TMC2     C  299   3.384   2.839  13.940 -0.4841  0.3768  0.5745
   19TMC2     O  300   3.460   2.759  13.981  0.1759 -0.1051 -0.0156
   19TMC2     H  301   3.135   2.950  13.978 -0.0578 -0.6413  0.9775
   19TMC2    H1  302   3.334   2.599  13.870  0.6003  0.9893  0.1643
   19TMC2    H2  303   2.910   2.602  13.856 -0.7980  1.7223 -0.3348
   19TMC2    C7  304   3.111   2.450  13.880  0.0024 -0.1380  0.3146
   19TMC2    C8  305   2.911   2.876  13.873  0.7514  0.7741  0.1738
   19TMC2    O1  306   3.197   2.386  13.818 -0.3467  0.5755  0.6696
   19TMC2    O2  307   2.793   2.833  13.877 -0.5844 -0.0089  0.1426
   19TMC2    O5  308   2.966   2.957  13.778  0.2206  0.4858 -0.2845
   19TMC2    H5  309   3.061   2.982  13.776  0.3801 -0.1047  0.0408
   20MPD2     C  310   3.496   3.191  13.884  0.2086 -0.2795  0.6644
   20MPD2    C1  311   3.498   3.056  13.927  0.1930  0.0347 -0.3414
   20MPD2    C2  312   3.604   3.011  14.000 -0.1335  0.5037  0.8620
   20MPD2    C3  313   3.697   3.095  14.053 -0.0150  0.0847 -0.0787
   20MPD2    C4  314   3.693   3.233  14.011 -0.0006  0.4579  0.0238
   20MPD2    C5  315   3.599   3.272  13.921  0.1690  0.1923 -0.5953
   20MPD2     H  316   3.620   2.904  14.014 -4.1698 -0.3373 -0.9764
   20MPD2    H1  317   3.772   3.303  14.038  0.5296 -0.5827  1.2049
   20MPD2    H2  318   3.415   3.218  13.817 -0.0279 -1.5336  0.4454
   20MPD2    H3  319   3.594   3.376  13.888  3.7365 -0.2024 -2.3390
   20MPD2     N  320   3.808   3.063  14.134 -0.2914  0.1091  0.4259
   20MPD2    H5  321   3.866   3.139  14.168 -0.1827 -0.9205  2.5616
   20MPD2    N1  322   3.400   2.966  13.890  0.0956  0.2076  0.4518
   20MPD2    H7  323   3.324   3.008  13.837  1.9322  1.0696 -1.4787
   21TMC2    C1  324   1.328   3.309  14.234  0.4225  0.1450  0.5856
   21TMC2    C2  325   1.424   3.205  14.254  0.1388  0.7841 -0.6834
   21TMC2    C3  326   1.417   3.143  14.374  0.0366 -0.0299 -0.3618
   21TMC2    C4  327   1.244   3.344  14.336 -0.0850  0.9500  0.2240
   21TMC2    C5  328   1.237   3.270  14.449  0.2560  0.0063  0.4208
   21TMC2    C6  329   1.320   3.163  14.463  0.6229  0.6262  0.0749
   21TMC2     C  330   1.319   3.362  14.097  0.2105 -0.2834 -0.0679
   21TMC2     O  331   1.357   3.286  14.004  0.3607 -0.1425 -0.1121
   21TMC2     H  332   1.495   3.178  14.177  0.2079 -0.1483 -0.2949
   21TMC2    H1  333   1.164   3.417  14.323  0.6824  1.5718 -1.0369
   21TMC2    H2  334   1.328   3.101  14.551 -2.0427  0.1042 -0.0541
   21TMC2    C7  335   1.163   3.298  14.568 -0.0897 -0.4263  0.7612
   21TMC2    C8  336   1.482   3.015  14.391 -1.0392 -0.2859  0.1309
   21TMC2    O1  337   1.150   3.207  14.649  0.0779  0.6950  0.1641
   21TMC2    O2  338   1.443   2.926  14.467 -0.5216 -0.2610  0.5192
   21TMC2    O5  339   1.616   3.047  14.382 -0.1039  0.6116  0.1680
   21TMC2    H5  340   1.619   3.145  14.370 -2.3823  0.6854  0.2520
   22MPD2     C  341   1.304   3.839  14.312 -0.1269  0.5686  0.5270
   22MPD2    C1  342   1.381   3.727  14.351  0.1192 -0.2098  0.1236
   22MPD2    C2  343   1.372   3.611  14.269  0.0280  0.4729 -0.4968
   22MPD2    C3  344   1.279   3.600  14.165  0.2675  0.5707  0.4944
   22MPD2    C4  345   1.209   3.715  14.141 -0.7200  0.1894 -0.2241
   22MPD2    C5  346   1.218   3.832  14.210  0.4850 -0.0572 -0.1706
   22MPD2     H  347   1.442   3.530  14.290  0.2798  0.4282 -1.5415
   22MPD2    H1  348   1.150   3.703  14.051 -1.6114 -0.2987  0.4233
   22MPD2    H2  349   1.304   3.928  14.373  2.9070  2.1871 -1.8878
   22MPD2    H3  350   1.151   3.915  14.189  1.1540  0.7485  0.8765
   22MPD2     N  351   1.269   3.486  14.082 -0.6671  0.5078  0.6487
   22MPD2    H5  352   1.238   3.520  13.991 -1.9677  1.1371  1.3235
   22MPD2    N1  353   1.462   3.735  14.466  0.3511  0.8557  0.2333
   22MPD2    H7  354   1.506   3.648  14.494  0.1837  1.0002  0.9490
   23TMC2    C1  355   2.497   4.194  14.538 -0.0601 -0.4611  0.5120
   23TMC2    C2  356   2.594   4.246  14.466 -0.2203  0.5537  0.6842
   23TMC2    C3  357   2.578   4.240  14.326  0.1738  0.0757  0.8804
   23TMC2    C4  358   2.394   4.117  14.488 -0.4832  0.0587 -0.0712
   23TMC2    C5  359   2.389   4.101  14.353 -0.6122 -0.2418  0.1578
   23TMC2    C6  360   2.484   4.156  14.270  0.1352 -0.6172 -0.0600
   23TMC2     C  361   2.505   4.199  14.686  0.0024  0.6458  0.4867
   23TMC2     O  362   2.600   4.258  14.735  0.1939  0.4296 -0.0589
   23TMC2     H  363   2.693   4.266  14.506  0.0646 -1.1425  0.8042
   23TMC2    H1  364   2.319   4.063  14.545 -2.6383  1.6320 -1.4119
   23TMC2    H2  365   2.475   4.146  14.163 -1.2082 -0.7636  0.0744
   23TMC2    C7  366   2.277   4.032  14.287  0.2415 -0.8980 -0.1877
   23TMC2    C8  367   2.709   4.246  14.257 -0.1296 -0.2823  0.5546
   23TMC2    O1  368   2.299   3.990  14.173  1.0135 -0.4559  0.4566
   23TMC2    O2  369   2.817   4.252  14.312  0.3467  0.0174 -0.2708
   23TMC2    O5  370   2.687   4.233  14.123 -0.4961 -0.3186 -0.5325
   23TMC2    H5  371   2.606   4.278  14.090 -0.3945  0.2006 -0.0767
   24MPD2     C  372   2.314   4.155  15.159  0.5516  0.2501 -0.1622
   24MPD2    C1  373   2.444   4.162  15.117 -0.5098 -0.4721  0.4582
   24MPD2    C2  374   2.468   4.164  14.979  0.5908  0.0127  0.8340
   24MPD2    C3  375   2.368   4.169  14.882 -0.2221 -0.8935  0.6775
   24MPD2    C4  376   2.239   4.153  14.935 -0.8611 -0.4996  0.2025
   24MPD2    C5  377   2.213   4.153  15.069 -0.1181 -0.2879 -0.0886
   24MPD2     H  378   2.572   4.174  14.950  0.2500  2.8291  0.5511
   24MPD2    H1  379   2.151   4.163  14.873 -1.7751  0.7019  1.6946
   24MPD2    H2  380   2.291   4.141  15.264 -0.8967  1.4526 -0.3273
   24MPD2    H3  381   2.109   4.154  15.100  0.5117 -2.4985  2.0561
   24MPD2     N  382   2.388   4.177  14.745  0.4857  0.5745 -0.1704
   24MPD2    H5  383   2.310   4.163  14.681  1.5796 -1.9273 -0.9984
   24MPD2    N1  384   2.554   4.176  15.217  0.2944  0.3026 -0.1722
   24MPD2    H7  385   2.646   4.171  15.174  0.7455  1.2387  0.7072
   25TMC2    C1  386   1.369   1.422  11.365  0.2823  0.8449  0.6489
   25TMC2    C2  387   1.452   1.525  11.329  0.5859 -0.1085 -0.5584
   25TMC2    C3  388   1.457   1.644  11.400 -0.2253  0.2764  0.0476
   25TMC2    C4  389   1.285   1.437  11.469  0.4710  0.7228 -0.3496
   25TMC2    C5  390   1.280   1.562  11.528  0.3809 -0.2174  0.0396
   25TMC2    C6  391   1.368   1.660  11.501  0.1066  0.1044  0.0641
   25TMC2     C  392   1.372   1.307  11.273 -0.0761 -0.4298  0.5364
   25TMC2     O  393   1.479   1.291  11.214  0.2415 -0.3076 -0.3965
   25TMC2     H  394   1.505   1.512  11.236  1.0971 -0.8199 -0.1679
   25TMC2    H1  395   1.211   1.362  11.498 -0.0136  2.0597  1.8815
   25TMC2    H2  396   1.374   1.756  11.550 -2.1270  0.2598  0.0086
   25TMC2    C7  397   1.185   1.592  11.632  0.0740 -0.1390 -0.6820
   25TMC2    C8  398   1.543   1.755  11.355  0.3335  1.2110 -0.0055
   25TMC2    O1  399   1.131   1.487  11.677 -0.3349  0.6194  0.2361
   25TMC2    O2  400   1.560   1.851  11.433  0.0525 -0.0426 -0.0907
   25TMC2    O5  401   1.548   1.762  11.216  0.4143 -0.4801 -0.0867
   25TMC2    H5  402   1.527   1.675  11.175 -0.1112 -1.3028  1.9278
   26MPD2     C  403   1.161   0.858  11.146 -0.1334  0.3638 -0.2625
   26MPD2    C1  404   1.065   0.935  11.210 -0.1076 -0.4136  0.4075
   26MPD2    C2  405   1.097   1.061  11.247 -0.1885  0.5331 -0.3839
   26MPD2    C3  406   1.220   1.116  11.225  0.5566 -0.2036 -0.6930
   26MPD2    C4  407   1.317   1.042  11.157  0.2820 -0.0784  0.1938
   26MPD2    C5  408   1.283   0.916  11.110 -0.2893  0.2374 -0.0531
   26MPD2     H  409   1.028   1.121  11.306  0.7952  1.9631 -0.6713
   26MPD2    H1  410   1.418   1.080  11.152  0.6958 -1.0443  1.2133
   26MPD2    H2  411   1.137   0.766  11.095 -2.3089  1.0765 -0.5383
   26MPD2    H3  412   1.350   0.851  11.055 -0.0808 -0.8827  1.5381
   26MPD2     N  413   1.247   1.244  11.275 -0.9522 -0.1973  0.2105
   26MPD2    H5  414   1.174   1.279  11.336 -1.3962 -1.2956  0.3044
   26MPD2    N1  415   0.940   0.869  11.222 -0.0452  0.0371  0.0550
   26MPD2    H7  416   0.924   0.782  11.172  0.5420 -0.8582  1.4027
   27TMC2    C1  417   0.535   4.452  12.138  0.3154  1.0549 -1.0445
   27TMC2    C2  418   0.516   4.544  12.039 -0.1700 -0.1701  0.0668
   27TMC2    C3  419   0.506   4.675  12.075 -0.2760 -0.1505 -0.2642
   27TMC2    C4  420   0.521   4.486  12.267 -0.5617  0.4026 -0.4536
   27TMC2    C5  421   0.502   4.617  12.294 -0.1885  0.0918 -0.1724
   27TMC2    C6  422   0.494   4.714  12.201  0.0306 -0.3060  0.7261
   27TMC2     C  423   0.474   4.329  12.099  0.7541 -0.2356  0.2152
   27TMC2     O  424   0.480   4.307  11.979  0.5136  0.0706  0.3992
   27TMC2     H  425   0.514   4.523  11.932 -0.0775  2.8233 -0.5053
   27TMC2    H1  426   0.507   4.419  12.352  1.2943  0.2964 -0.2251
   27TMC2    H2  427   0.499   0.086  12.222  2.6306  0.0653 -1.7466
   27TMC2    C7  428   0.463   4.639  12.428 -0.8497  0.1517  0.0776
   27TMC2    C8  429   0.513   0.038  11.970  0.4774  0.0193  0.5854
   27TMC2    O1  430   0.518   4.571  12.514  0.1621 -0.1701  0.7242
   27TMC2    O2  431   0.447   0.140  11.968 -0.1826 -0.1234  0.1382
   27TMC2    O5  432   0.626   0.015  11.909  0.2530  0.1971  0.9489
   27TMC2    H5  433   0.668   4.666  11.940 -1.9453 -0.8261  1.2430
   28MPD2     C  434   0.202   3.903  12.180 -0.2427 -0.7196  0.4075
   28MPD2    C1  435   0.191   3.982  12.293  0.3539 -0.5965 -0.5898
   28MPD2    C2  436   0.266   4.096  12.290 -0.2050 -0.1801  0.1394
   28MPD2    C3  437   0.340   4.137  12.187  0.2116  0.5347  0.2449
   28MPD2    C4  438   0.349   4.050  12.073 -0.6660 -0.0815  0.1649
   28MPD2    C5  439   0.288   3.929  12.080 -0.0505  0.2904 -0.3084
   28MPD2     H  440   0.265   4.165  12.374 -0.9703  0.2716 -0.2488
   28MPD2    H1  441   0.411   4.075  11.988 -2.4591  0.8239 -0.8578
   28MPD2    H2  442   0.145   3.811  12.179 -2.1013  0.4620 -1.3714
   28MPD2    H3  443   0.284   3.869  11.990 -0.3921 -1.5921  0.9400
   28MPD2     N  444   0.394   4.268  12.195 -0.0282 -0.1087  0.3152
   28MPD2    H5  445   0.388   4.308  12.288  2.3299 -0.0963  0.4542
   28MPD2    N1  446   0.096   3.945  12.393 -0.1560 -0.3557 -0.1815
   28MPD2    H7  447   0.042   3.863  12.365 -2.3343  0.2664  2.1795
   29TMC2    C1  448   0.081   1.703  14.526  0.1339  0.2611 -0.4110
   29TMC2    C2  449   0.060   1.718  14.659 -0.1739 -0.2172 -0.2605
   29TMC2    C3  450   0.032   1.838  14.711  0.4664  0.4600  0.2321
   29TMC2    C4  451   0.111   1.813  14.445 -0.0378 -0.1602 -0.5013
   29TMC2    C5  452   0.082   1.935  14.502 -0.7612  0.2461  0.3635
   29TMC2    C6  453   0.045   1.953  14.632 -0.4199  0.0166 -0.4146
   29TMC2     C  454   0.069   1.568  14.462  0.2985  0.0014 -0.2108
   29TMC2     O  455   0.086   1.476  14.538 -0.6538 -0.1758  0.4009
   29TMC2     H  456   0.046   1.627  14.717  1.1657  0.8720  1.7518
   29TMC2    H1  457   0.135   1.793  14.341 -2.2605 -1.7858 -0.6920
   29TMC2    H2  458   0.031   2.054  14.670  0.9927 -0.3486  1.0452
   29TMC2    C7  459   0.107   2.046  14.414 -0.1707  1.0125 -0.2840
   29TMC2    C8  460   0.072   1.853  14.852 -0.9016  0.0071 -0.4604
   29TMC2    O1  461   0.077   2.023  14.299  0.0566  0.5067 -0.3752
   29TMC2    O2  462   0.134   1.949  14.881 -0.3562  0.3411 -0.1100
   29TMC2    O5  463   4.718   1.779  14.932  0.4221  0.1550 -0.5957
   29TMC2    H5  464   4.647   1.728  14.887  0.9008 -1.6099  0.6414
   30MPD2     C  465   4.622   1.256  14.095 -0.4979  0.0876  0.4064
   30MPD2    C1  466   4.677   1.222  14.215 -0.2539 -0.0713  0.1785
   30MPD2    C2  467   4.731   1.325  14.293  0.1421 -0.1277 -0.5179
   30MPD2    C3  468   4.726   1.459  14.252  1.3219 -0.4140 -0.3612
   30MPD2    C4  469   4.679   1.479  14.128 -0.4791 -0.1240 -0.0575
   30MPD2    C5  470   4.633   1.383  14.046 -1.2537  0.5164 -0.1577
   30MPD2     H  471   0.030   1.298  14.392  0.1066  1.1803 -0.1397
   30MPD2    H1  472   4.671   1.583  14.100 -0.0844 -0.3389 -0.9733
   30MPD2    H2  473   4.578   1.177  14.035  1.7990 -1.0734  0.2135
   30MPD2    H3  474   4.603   1.400  13.944  1.6815  0.0903 -1.1173
   30MPD2     N  475   0.022   1.572  14.330 -0.2403  0.4469 -0.0702
   30MPD2    H5  476   0.004   1.664  14.291 -0.8909  0.9708  1.4635
   30MPD2    N1  477   4.697   1.083  14.254  0.4034  0.7909  0.0282
   30MPD2    H7  478   0.010   1.069  14.343 -1.4637  0.7191  1.0009
   31TMC2    C1  479   2.359   0.263  15.667  0.0675 -0.8125  0.4479
   31TMC2    C2  480   2.274   0.343  15.740  0.6569 -0.3055 -0.2799
   31TMC2    C3  481   2.215   0.274  15.841 -0.0263  0.2218  0.6978
   31TMC2    C4  482   2.395   0.137  15.700  0.0505  0.4087 -0.1333
   31TMC2    C5  483   2.341   0.088  15.816 -0.3594 -0.6401  0.8001
   31TMC2    C6  484   2.238   0.143  15.883  0.2952 -0.1210  0.1892
   31TMC2     C  485   2.393   0.318  15.537 -0.4088 -0.2193  0.1625
   31TMC2     O  486   2.328   0.416  15.507 -0.3926 -0.4089 -0.2004
   31TMC2     H  487   2.261   0.450  15.735 -0.1615 -0.3691  0.4494
   31TMC2    H1  488   2.473   0.081  15.650  0.2084 -0.2626  0.8557
   31TMC2    H2  489   2.199   0.103  15.976 -0.0546  1.7993  0.8743
   31TMC2    C7  490   2.402   4.696  15.862  1.4000  0.5005 -0.6561
   31TMC2    C8  491   2.113   0.342  15.925 -0.4018 -0.5080 -0.5528
   31TMC2    O1  492   2.487   4.645  15.792 -0.5660 -0.2770 -0.4778
   31TMC2    O2  493   2.086   0.293  16.034 -0.2909  0.3942 -0.1116
   31TMC2    O5  494   2.023   0.374  15.829  0.3645 -0.2042  0.2400
   31TMC2    H5  495   2.060   0.408  15.745 -3.1425  2.2091 -0.3438
   32MPD2     C  496   2.763   0.418  15.196 -0.5028 -0.1955  0.3392
   32MPD2    C1  497   2.639   0.469  15.199  0.1774 -0.0473  0.2659
   32MPD2    C2  498   2.560   0.424  15.302  0.4459  0.2706  0.2285
   32MPD2    C3  499   2.591   0.317  15.380 -0.0722 -0.0843 -0.1999
   32MPD2    C4  500   2.714   0.257  15.362  0.6861 -0.1169  0.5922
   32MPD2    C5  501   2.803   0.309  15.274 -0.3456 -0.1503 -0.0409
   32MPD2     H  502   2.467   0.478  15.315  0.9561  1.3304 -0.4688
   32MPD2    H1  503   2.748   0.177  15.428 -0.7665 -0.9275  0.3803
   32MPD2    H2  504   2.837   0.449  15.123 -0.6819  2.0101  1.1024
   32MPD2    H3  505   2.902   0.264  15.266  0.3570  1.5593 -0.9430
   32MPD2     N  506   2.517   0.270  15.489  0.2893  0.0403 -1.4603
   32MPD2    H5  507   2.562   0.213  15.560  0.0721 -0.8641 -2.0473
   32MPD2    N1  508   2.606   0.569  15.101 -0.0563 -0.2683 -0.4521
   32MPD2    H7  509   2.680   0.595  15.037 -0.2119  0.0797 -0.4866
   33TMC2    C1  510   2.263   2.560  11.113  0.1009  0.6837  0.4119
   33TMC2    C2  511   2.277   2.547  11.251  0.4307  0.2593  0.1556
   33TMC2    C3  512   2.239   2.650  11.334  0.3911 -0.5415  0.7671
   33TMC2    C4  513   2.214   2.677  11.060 -0.1577  0.1988  0.2454
   33TMC2    C5  514   2.191   2.774  11.156  0.6930  0.8360  0.3718
   33TMC2    C6  515   2.203   2.772  11.293  0.7798  0.0820 -0.8586
   33TMC2     C  516   2.329   2.471  11.018  0.2112  0.0263 -0.4464
   33TMC2     O  517   2.351   2.357  11.061 -0.5996 -0.3632 -0.2972
   33TMC2     H  518   2.301   2.449  11.292  2.3391  0.9859  0.7886
   33TMC2    H1  519   2.218   2.702  10.955 -2.9925  0.8301  0.2823
   33TMC2    H2  520   2.159   2.850  11.354 -1.0106 -0.3360 -1.5953
   33TMC2    C7  521   2.171   2.906  11.091  0.3185  0.1286 -0.3971
   33TMC2    C8  522   2.236   2.618  11.476 -0.0198  0.1328 -0.1037
   33TMC2    O1  523   2.212   3.013  11.141 -0.0502 -0.1596  0.0911
   33TMC2    O2  524   2.226   2.504  11.515  0.8306  0.4145  0.0038
   33TMC2    O5  525   2.262   2.727  11.558  0.2554  0.4780 -0.0660
   33TMC2    H5  526   2.282   2.815  11.518  0.4807  0.4960  0.0878
   34MPD2     C  527   2.606   2.366  10.615  0.3122 -0.1345 -0.3937
   34MPD2    C1  528   2.508   2.285  10.681  0.7769 -0.1451 -0.0077
   34MPD2    C2  529   2.431   2.346  10.777  0.3916  0.0049  0.2534
   34MPD2    C3  530   2.464   2.474  10.811  0.0239  0.0957  0.5858
   34MPD2    C4  531   2.559   2.555  10.750  0.1190  0.0913  0.0902
   34MPD2    C5  532   2.630   2.497  10.655 -0.2648  0.0175  0.3611
   34MPD2     H  533   2.349   2.297  10.827 -0.1910 -0.6950 -1.3798
   34MPD2    H1  534   2.573   2.662  10.761 -0.8665  0.2905 -0.5213
   34MPD2    H2  535   2.654   2.317  10.531  1.1768 -0.5513  0.3362
   34MPD2    H3  536   2.689   2.572  10.602  0.6157 -0.1878  1.0615
   34MPD2     N  537   2.393   2.536  10.914  0.8716 -0.0996 -0.2329
   34MPD2    H5  538   2.402   2.637  10.921  0.2939 -0.2106  2.0577
   34MPD2    N1  539   2.482   2.160  10.629  0.7440 -0.5217  0.4106
   34MPD2    H7  540   2.550   2.124  10.562 -0.7417 -3.2678  0.3660
   35TMC2    C1  541   3.280   4.177  11.598 -0.3594 -0.6498 -0.2402
   35TMC2    C2  542   3.165   4.249  11.598  0.1090 -0.5818  0.0058
   35TMC2    C3  543   3.048   4.176  11.591 -0.3744  0.0339  1.1422
   35TMC2    C4  544   3.278   4.039  11.598 -0.2336 -0.6638 -0.1932
   35TMC2    C5  545   3.157   3.974  11.610  0.0482 -0.5564 -0.5958
   35TMC2    C6  546   3.042   4.042  11.607 -0.1045  0.3111  0.3427
   35TMC2     C  547   3.412   4.255  11.576  0.1732  1.0355  0.4954
   35TMC2     O  548   3.407   4.372  11.545  0.3552 -0.1544 -0.0598
   35TMC2     H  549   3.166   4.356  11.581 -3.3326 -0.3974  0.9662
   35TMC2    H1  550   3.361   3.978  11.565  0.7619  0.3179  0.4744
   35TMC2    H2  551   2.951   3.984  11.595  1.2961 -1.6185 -1.0218
   35TMC2    C7  552   3.155   3.828  11.591 -0.2204  0.7293 -0.9816
   35TMC2    C8  553   2.927   4.248  11.564 -0.8165  0.9028 -0.0590
   35TMC2    O1  554   3.055   3.770  11.560 -0.1158  0.1629  0.4689
   35TMC2    O2  555   2.930   4.368  11.538  0.0435  0.1137 -0.1716
   35TMC2    O5  556   2.814   4.172  11.581 -0.0855  0.0686 -0.4315
   35TMC2    H5  557   2.822   4.079  11.610  1.6408  0.2789 -0.2058
   36MPD2     C  558   3.932   4.247  11.539 -0.0658 -0.2680  0.2112
   36MPD2    C1  559   3.882   4.129  11.585  0.2446  1.1526 -1.2218
   36MPD2    C2  560   3.750   4.116  11.610 -0.2961  0.5696  0.0859
   36MPD2    C3  561   3.663   4.216  11.580 -0.9007  0.0771 -0.5045
   36MPD2    C4  562   3.720   4.339  11.546 -0.2676 -0.6629 -0.8537
   36MPD2    C5  563   3.851   4.344  11.522  0.1516 -0.3203 -0.6735
   36MPD2     H  564   3.699   4.032  11.656  0.1497 -0.0318 -0.5047
   36MPD2    H1  565   3.661   4.425  11.515  0.3605 -0.0847 -0.4478
   36MPD2    H2  566   4.038   4.259  11.519 -0.0133 -0.0367  0.6240
   36MPD2    H3  567   3.894   4.434  11.479  2.6237  0.1563  2.7068
   36MPD2     N  568   3.525   4.185  11.606  0.3377 -0.0036  0.5566
   36MPD2    H5  569   3.513   4.097  11.656 -1.2935 -0.3571 -0.4390
   36MPD2    N1  570   3.971   4.029  11.604  0.8096  0.3082 -0.5645
   36MPD2    H7  571   4.058   4.055  11.557  1.3251  1.3717  0.9644
   37TMC2    C1  572   1.149   4.166  11.797 -0.5413  0.5296  0.0261
   37TMC2    C2  573   1.061   4.094  11.720 -0.7169 -0.1140  0.2976
   37TMC2    C3  574   1.079   4.103  11.582  0.6528 -0.2702  0.6025
   37TMC2    C4  575   1.248   4.242  11.752  0.5865  1.0068  0.2191
   37TMC2    C5  576   1.272   4.240  11.616  0.8787 -0.1019 -0.2048
   37TMC2    C6  577   1.194   4.167  11.533  0.2473  0.4281 -0.7253
   37TMC2     C  578   1.116   4.166  11.936  0.0274 -0.2017  0.2207
   37TMC2     O  579   0.999   4.157  11.969  0.3268  0.2205 -0.7325
   37TMC2     H  580   0.979   4.037  11.762 -0.4003  0.9490  2.3428
   37TMC2    H1  581   1.325   4.295  11.806  1.4984  1.3605 -1.4027
   37TMC2    H2  582   1.231   4.136  11.435 -0.6117  1.3926 -1.3515
   37TMC2    C7  583   1.393   4.310  11.566 -0.2945 -0.5016  0.0248
   37TMC2    C8  584   0.997   4.014  11.504 -0.7222 -0.0439  0.4882
   37TMC2    O1  585   1.490   4.304  11.641  0.5806  0.9111  0.5779
   37TMC2    O2  586   0.913   3.936  11.547  0.4641 -0.2337  0.0964
   37TMC2    O5  587   0.991   4.064  11.376  0.3483 -0.5214 -0.0153
   37TMC2    H5  588   1.053   4.139  11.361  0.3058 -0.1066  1.8267
   38MPD2     C  589   1.250   4.128  12.426  0.5359 -0.3415  0.2513
   38MPD2    C1  590   1.358   4.091  12.346  0.0225  0.4244  0.0242
   38MPD2    C2  591   1.348   4.117  12.204 -0.3454 -0.1237  0.5969
   38MPD2    C3  592   1.235   4.171  12.152 -0.2338 -0.0291 -0.1917
   38MPD2    C4  593   1.127   4.193  12.237  0.2262  0.1444 -0.0049
   38MPD2    C5  594   1.140   4.178  12.367 -0.4277  0.6869 -0.4590
   38MPD2     H  595   1.424   4.074  12.140 -1.3248 -0.6252 -0.2460
   38MPD2    H1  596   1.034   4.239  12.204  0.8171  1.2536 -0.0891
   38MPD2    H2  597   1.248   4.106  12.532 -1.2095  0.2461  0.3399
   38MPD2    H3  598   1.051   4.187  12.428 -0.8537 -0.3437 -0.9286
   38MPD2     N  599   1.229   4.190  12.009 -0.0782  0.2111 -0.2992
   38MPD2    H5  600   1.319   4.190  11.963  0.3253  1.4241  0.4990
   38MPD2    N1  601   1.465   4.013  12.394  0.3753  0.3571  0.2433
   38MPD2    H7  602   1.520   3.984  12.314  0.4983  2.2554 -0.3515
   39TMC2    C1  603   4.503   1.021   1.456 -0.0754 -1.0675  0.7183
   39TMC2    C2  604   4.503   1.080   1.574 -0.2302 -0.1354  0.2963
   39TMC2    C3  605   4.619   1.097   1.644  0.4612 -0.2571  0.2689
   39TMC2    C4  606   4.618   0.975   1.395  0.1023 -0.1218  0.1335
   39TMC2    C5  607   4.732   1.023   1.457 -0.5494  0.0950 -0.0211
   39TMC2    C6  608   0.008   1.072   1.587 -0.5950 -0.3508 -0.0231
   39TMC2     C  609   4.366   0.996   1.407 -0.1585 -0.2133 -0.2061
   39TMC2     O  610   4.270   1.052   1.458 -0.8028 -0.3909  0.2182
   39TMC2     H  611   4.410   1.112   1.621  0.7061  0.4116  1.7652
   39TMC2    H1  612   4.629   0.967   1.288 -0.2356  0.1551  0.0765
   39TMC2    H2  613   0.102   1.094   1.635 -1.6899  1.4866  1.2942
   39TMC2    C7  614   0.121   1.015   1.376  0.3465  0.7484  0.4238
   39TMC2    C8  615   4.605   1.176   1.769 -0.2042  0.4901  0.4144
   39TMC2    O1  616   0.119   0.939   1.280 -0.1634 -0.2042  0.3937
   39TMC2    O2  617   4.497   1.177   1.823  0.1773 -0.1560  0.3412
   39TMC2    O5  618   4.700   1.271   1.780 -0.3544  0.5827 -0.1970
   39TMC2    H5  619   0.035   1.270   1.711  0.1764  0.0890  0.3397
   40MPD2     C  620   4.274   0.718   1.180 -0.4705 -0.1448 -0.2201
   40MPD2    C1  621   4.249   0.828   1.260 -0.3863  0.3550 -0.4026
   40MPD2    C2  622   4.120   0.883   1.262 -0.3502  0.2747  0.7240
   40MPD2    C3  623   4.011   0.817   1.208  0.1130 -0.2767 -0.2699
   40MPD2    C4  624   4.044   0.703   1.139  0.0297 -0.5567 -0.3765
   40MPD2    C5  625   4.172   0.665   1.115  0.2132 -0.3186 -1.0541
   40MPD2     H  626   4.100   0.983   1.298  1.1134  0.3355  1.3596
   40MPD2    H1  627   3.972   0.659   1.071  0.1850 -1.8728  0.3092
   40MPD2    H2  628   4.370   0.667   1.179 -0.5773 -0.3398 -0.4060
   40MPD2    H3  629   4.183   0.570   1.065 -3.6468 -2.0688  1.3987
   40MPD2     N  630   3.880   0.871   1.205  0.2829 -0.4522 -0.4912
   40MPD2    H5  631   3.811   0.820   1.151  0.1776  0.8615 -1.5874
   40MPD2    N1  632   4.360   0.885   1.324  0.3377  0.7771 -0.0780
   40MPD2    H7  633   4.445   0.832   1.308  0.5184  0.4743  1.8809
   41TMC2    C1  634   3.362   3.917  13.911 -0.8783 -0.6074 -0.3660
   41TMC2    C2  635   3.488   3.971  13.913 -0.4381 -0.7295  0.8999
   41TMC2    C3  636   3.551   3.984  13.790 -0.3560  0.1749  0.4850
   41TMC2    C4  637   3.304   3.884  13.792  0.0367  0.0526  0.1086
   41TMC2    C5  638   3.372   3.886  13.672 -0.4685  0.0120  0.0700
   41TMC2    C6  639   3.504   3.936  13.671  0.2854  0.4910 -0.2973
   41TMC2     C  640   3.305   3.867  14.031  0.4345 -0.5715  0.5329
   41TMC2     O  641   3.213   3.789  14.011  1.0783  0.6715 -0.1383
   41TMC2     H  642   3.534   4.013  14.002 -0.8906  0.1246  0.7284
   41TMC2    H1  643   3.200   3.855  13.803  0.3106 -1.1365 -0.4667
   41TMC2    H2  644   3.567   3.959  13.586  0.4633  0.1509 -0.2578
   41TMC2    C7  645   3.325   3.808  13.562 -1.2101 -0.6161 -0.0605
   41TMC2    C8  646   3.663   4.077  13.791  0.7259  0.8088 -0.0994
   41TMC2    O1  647   3.210   3.767  13.579 -0.1871  0.3914  0.5680
   41TMC2    O2  648   3.722   4.104  13.895 -0.0883  0.3731 -0.1207
   41TMC2    O5  649   3.653   4.165  13.688  0.0106 -0.1944 -0.4346
   41TMC2    H5  650   3.581   4.155  13.622 -0.2812 -0.0760 -0.1284
   42MPD2     C  651   3.206   3.806  14.303  0.0088 -0.0607  0.5940
   42MPD2    C1  652   3.291   3.907  14.273 -0.0741  0.0349 -0.8156
   42MPD2    C2  653   3.342   3.978  14.381 -0.1859 -0.2146 -0.8555
   42MPD2    C3  654   3.306   3.959  14.511  0.2491  0.6196  1.5163
   42MPD2    C4  655   3.224   3.851  14.538 -0.0712 -0.2643 -0.0020
   42MPD2    C5  656   3.178   3.774  14.433 -0.1881 -0.5789 -0.2865
   42MPD2     H  657   3.429   4.042  14.373  0.6519 -1.0676  1.5008
   42MPD2    H1  658   3.186   3.822  14.635  0.0311 -0.7166 -0.0971
   42MPD2    H2  659   3.164   3.737  14.231 -0.1160  0.8434 -0.2005
   42MPD2    H3  660   3.108   3.699  14.467  0.7599 -1.2155  0.2492
   42MPD2     N  661   3.342   4.037  14.624 -0.2267 -0.4303 -0.5586
   42MPD2    H5  662   3.311   4.011  14.717  0.9628  0.2953  0.0496
   42MPD2    N1  663   3.338   3.935  14.141  0.2257 -0.2027  0.0044
   42MPD2    H7  664   3.394   4.019  14.131  0.0292 -0.1096 -0.3259
   43TMC2    C1  665   4.569   2.683   0.836  1.1218  0.4791 -0.0038
   43TMC2    C2  666   4.444   2.714   0.883 -0.4988  0.2815  0.9703
   43TMC2    C3  667   4.441   2.776   1.003  0.2330 -0.6197 -0.1826
   43TMC2    C4  668   4.683   2.698   0.908 -0.0924  0.4193  0.1045
   43TMC2    C5  669   4.676   2.751   1.027 -0.4139 -0.2453  1.3724
   43TMC2    C6  670   4.557   2.794   1.072 -0.2661 -0.1582 -0.4389
   43TMC2     C  671   4.584   2.616   0.711 -0.4212 -0.2217  0.1917
   43TMC2     O  672   4.692   2.566   0.691  0.2747 -0.8035 -0.2664
   43TMC2     H  673   4.352   2.713   0.825 -0.2539 -3.2197  0.6921
   43TMC2    H1  674   0.048   2.674   0.869 -0.7101 -0.5916 -0.8542
   43TMC2    H2  675   4.545   2.858   1.159 -0.7529 -0.0320 -0.5975
   43TMC2    C7  676   0.064   2.784   1.096  0.0389 -0.1889  0.1259
   43TMC2    C8  677   4.325   2.830   1.060  0.0957  0.0763 -0.1457
   43TMC2    O1  678   0.161   2.793   1.026  0.8118  0.3143  0.1203
   43TMC2    O2  679   4.323   2.919   1.140  0.1994  0.4303  0.2600
   43TMC2    O5  680   4.241   2.723   1.059  0.0902 -0.1591  0.6153
   43TMC2    H5  681   4.293   2.646   1.028  1.5190  1.2810 -0.5932
   44MPD2     C  682   4.398   2.322   0.325  0.9395  0.4768  0.0602
   44MPD2    C1  683   4.522   2.322   0.380  0.0359  0.7273 -0.1795
   44MPD2    C2  684   4.550   2.420   0.476 -0.1786  0.2024  0.1249
   44MPD2    C3  685   4.453   2.511   0.518 -0.8399  0.0979 -0.0820
   44MPD2    C4  686   4.330   2.512   0.451 -0.5735  0.1119 -0.1657
   44MPD2    C5  687   4.308   2.419   0.357  0.7414  0.2358  0.3050
   44MPD2     H  688   4.640   2.409   0.536 -0.8405 -1.7127  0.7751
   44MPD2    H1  689   4.256   2.587   0.474 -1.2534 -0.5169 -0.3160
   44MPD2    H2  690   4.368   2.252   0.248  1.4392 -0.7969  1.0383
   44MPD2    H3  691   4.207   2.421   0.315  0.9697  1.6699 -0.1788
   44MPD2     N  692   4.468   2.601   0.632  0.0954 -0.6175 -0.1293
   44MPD2    H5  693   4.384   2.650   0.660  1.1752 -0.7097  3.3198
   44MPD2    N1  694   4.626   2.231   0.351  0.4899  0.3289  0.0799
   44MPD2    H7  695   4.706   2.216   0.412  0.0795 -2.1192  0.0052
   45TMC2    C1  696   1.407   3.992   9.798  0.3847  0.2055 -0.4166
   45TMC2    C2  697   1.531   3.935   9.824  0.7430 -0.0248  0.2182
   45TMC2    C3  698   1.626   4.027   9.857 -0.4821 -0.5358 -0.8820
   45TMC2    C4  699   1.381   4.125   9.816 -0.2256 -0.8633  0.8160
   45TMC2    C5  700   1.483   4.210   9.853 -0.4793 -0.3981  0.6691
   45TMC2    C6  701   1.609   4.167   9.863  0.7056  0.2634  0.1064
   45TMC2     C  702   1.306   3.900   9.759 -0.3448  0.1219  0.5479
   45TMC2     O  703   1.346   3.787   9.728 -0.6258 -0.1927  0.0352
   45TMC2     H  704   1.558   3.831   9.811  0.0602 -0.0743 -0.7857
   45TMC2    H1  705   1.282   4.169   9.814 -0.0985 -0.6168 -0.0238
   45TMC2    H2  706   1.692   4.236   9.880  0.6499  0.5527 -0.7939
   45TMC2    C7  707   1.456   4.349   9.889  0.1094  0.4878  0.3358
   45TMC2    C8  708   1.758   3.976   9.877  0.2311  0.3268 -0.1455
   45TMC2    O1  709   1.338   4.372   9.918 -0.6020 -0.2741  0.3312
   45TMC2    O2  710   1.817   3.896   9.807  0.1006 -0.4834  0.2145
   45TMC2    O5  711   1.803   4.021   9.994 -0.6574 -0.1785 -0.0047
   45TMC2    H5  712   1.738   4.079  10.041 -1.4522 -1.6492  0.7228
   46MPD2     C  713   1.055   3.746   9.741  0.1924 -0.4378 -0.2780
   46MPD2    C1  714   1.056   3.885   9.758 -0.4610 -0.4802 -0.1597
   46MPD2    C2  715   0.939   3.952   9.752 -0.1209  0.0981  0.2198
   46MPD2    C3  716   0.821   3.887   9.742  0.3025 -0.0177 -0.8150
   46MPD2    C4  717   0.824   3.753   9.736 -0.8177 -0.3135  0.4468
   46MPD2    C5  718   0.936   3.682   9.729 -0.0916 -0.0752 -0.0949
   46MPD2     H  719   0.947   4.059   9.768 -0.0773  0.2830 -1.0699
   46MPD2    H1  720   0.734   3.694   9.725 -1.6761  0.7647  1.7109
   46MPD2    H2  721   1.142   3.682   9.732  0.0598 -0.4320 -1.7073
   46MPD2    H3  722   0.941   3.574   9.719  2.2246  0.0534 -0.1704
   46MPD2     N  723   0.704   3.957   9.745 -0.9434 -0.2482 -0.0988
   46MPD2    H5  724   0.716   4.058   9.743  1.3080 -0.4863  0.8110
   46MPD2    N1  725   1.180   3.953   9.763  0.1072 -0.4487 -0.4316
   46MPD2    H7  726   1.165   4.049   9.791  0.4016 -0.4649 -0.2242
   47TMC2    C1  727   2.609   0.124   9.299  0.0282  0.2343  0.0202
   47TMC2    C2  728   2.525   0.107   9.191 -0.7316  0.2073 -0.8164
   47TMC2    C3  729   2.394   0.148   9.212  0.3971 -0.6824 -0.5138
   47TMC2    C4  730   2.575   0.179   9.416  0.0749 -0.6445  0.1256
   47TMC2    C5  731   2.445   0.229   9.429 -0.1614  0.2283  0.1508
   47TMC2    C6  732   2.354   0.204   9.332 -0.2962 -0.2172 -0.4274
   47TMC2     C  733   2.748   0.081   9.303  1.3234 -0.0197 -0.2710
   47TMC2     O  734   2.813   0.088   9.199 -0.0284 -0.8485  0.4337
   47TMC2     H  735   2.560   0.046   9.109 -0.5919  0.0870 -0.6688
   47TMC2    H1  736   2.650   0.197   9.491 -2.0853  1.9379  1.6653
   47TMC2    H2  737   2.256   0.250   9.339  0.0695  0.4357  0.3278
   47TMC2    C7  738   2.398   0.289   9.553 -0.3962  0.4757  0.7626
   47TMC2    C8  739   2.302   0.143   9.109 -0.5078 -0.7129  0.3443
   47TMC2    O1  740   2.280   0.313   9.561  0.3462 -0.0084  0.1793
   47TMC2    O2  741   2.187   0.111   9.124 -0.5193  0.2576  0.1512
   47TMC2    O5  742   2.355   0.183   8.992 -0.0374  0.4868 -0.2722
   47TMC2    H5  743   2.450   0.158   8.990 -0.1982  0.0694 -2.8298
   48MPD2     C  744   3.018   4.701   9.354 -0.0902  0.0833 -0.0604
   48MPD2    C1  745   2.905   4.686   9.437 -0.7312 -0.5116 -0.6073
   48MPD2    C2  746   2.904   4.586   9.530 -0.3271 -0.7029 -0.8717
   48MPD2    C3  747   3.018   4.514   9.560  0.7948 -0.5039  0.9042
   48MPD2    C4  748   3.127   4.530   9.479 -0.3020 -0.0171  0.1891
   48MPD2    C5  749   3.129   4.619   9.375  0.3508 -0.7479 -1.1321
   48MPD2     H  750   2.825   4.577   9.604 -0.7410 -1.7895 -1.4453
   48MPD2    H1  751   3.206   4.461   9.504 -0.8363 -0.9775 -0.7885
   48MPD2    H2  752   3.026   0.035   9.271 -0.7205  0.7880  0.4588
   48MPD2    H3  753   3.211   4.632   9.306  2.0173 -0.5248  0.8881
   48MPD2     N  754   3.005   4.420   9.667  0.0863  0.7684  0.2509
   48MPD2    H5  755   2.918   4.425   9.718  1.3128 -1.0373  2.5709
   48MPD2    N1  756   2.784   0.014   9.417 -0.2436 -0.0393 -0.4519
   48MPD2    H7  757   2.709   4.726   9.481  0.1502 -0.7052 -0.2215
   49TMC2    C1  758   1.287   1.897  10.247  0.1203 -0.7050  0.0125
   49TMC2    C2  759   1.233   1.862  10.125  0.1728 -0.7485  0.6160
   49TMC2    C3  760   1.157   1.748  10.111  0.1595  0.0621  0.2468
   49TMC2    C4  761   1.276   1.814  10.354  0.3599  0.0648 -0.7201
   49TMC2    C5  762   1.208   1.701  10.337 -0.5049 -0.3657 -0.8300
   49TMC2    C6  763   1.146   1.674  10.219 -0.5961  0.7042 -0.1796
   49TMC2     C  764   1.326   2.034  10.266  0.0589 -0.0705  0.3756
   49TMC2     O  765   1.378   2.099  10.171  0.3234 -0.2341 -0.0539
   49TMC2     H  766   1.254   1.926  10.040 -1.3665 -2.0683 -0.7652
   49TMC2    H1  767   1.326   1.839  10.447  2.4513  0.3389 -1.9084
   49TMC2    H2  768   1.075   1.593  10.216  0.3927 -0.1285 -1.7527
   49TMC2    C7  769   1.259   1.580  10.413 -0.5646 -0.6842 -0.0163
   49TMC2    C8  770   1.054   1.747  10.014 -0.1745  0.8538 -0.1896
   49TMC2    O1  771   1.236   1.469  10.367 -0.1487 -1.2386 -0.4679
   49TMC2    O2  772   0.996   1.640   9.992  0.3041  0.4036  0.2626
   49TMC2    O5  773   0.983   1.858  10.040  0.7167 -0.2124  0.6408
   49TMC2    H5  774   1.033   1.937  10.068  0.2833 -0.2481  1.5052
   50MPD2     C  775   1.376   2.297  10.384  0.2562 -0.3831  0.2372
   50MPD2    C1  776   1.291   2.204  10.439  0.4350 -0.1012 -0.6264
   50MPD2    C2  777   1.213   2.239  10.547 -0.2549 -0.9195 -0.2461
   50MPD2    C3  778   1.221   2.368  10.608 -0.3790 -0.4137 -0.4543
   50MPD2    C4  779   1.302   2.461  10.542  0.3825 -0.2525  0.5145
   50MPD2    C5  780   1.376   2.426  10.434 -0.1330 -0.3722 -0.6232
   50MPD2     H  781   1.143   2.169  10.591  0.5637 -1.5726  0.0025
   50MPD2    H1  782   1.319   2.557  10.590 -0.5552 -0.1414  0.6225
   50MPD2    H2  783   1.421   2.283  10.286  0.6344  1.4405  0.1561
   50MPD2    H3  784   1.439   2.499  10.386 -1.9836  3.0362  2.1112
   50MPD2     N  785   1.151   2.410  10.720  0.2400 -0.2759  0.7911
   50MPD2    H5  786   1.147   2.509  10.740  0.4236 -0.7735  3.3798
   50MPD2    N1  787   1.285   2.071  10.392  0.0929  0.0643 -0.1674
   50MPD2    H7  788   1.248   1.995  10.449  1.1143  1.0594  1.8358
   51TMC2    C1  789   2.955   0.493   2.166  0.7703  0.4534 -0.0873
   51TMC2    C2  790   3.055   0.442   2.238 -0.4679  0.2462  0.9504
   51TMC2    C3  791   3.134   0.515   2.321 -0.3781 -0.2445  0.2993
   51TMC2    C4  792   2.926   0.622   2.196  0.7044  1.4947  0.4307
   51TMC2    C5  793   2.988   0.687   2.297 -0.8183  0.0797  0.4071
   51TMC2    C6  794   3.095   0.636   2.362 -0.1289  0.7605  0.3629
   51TMC2     C  795   2.895   0.435   2.049  0.5255 -1.0054 -0.0893
   51TMC2     O  796   2.796   0.481   1.993 -0.0194 -0.4861 -0.9400
   51TMC2     H  797   3.097   0.343   2.223 -3.0082 -0.4952 -1.1455
   51TMC2    H1  798   2.849   0.674   2.141  1.2260  0.5469 -1.1868
   51TMC2    H2  799   3.134   0.681   2.452  1.0082  0.3758  0.0592
   51TMC2    C7  800   2.945   0.825   2.324  0.2324  0.5585 -0.8404
   51TMC2    C8  801   3.237   0.442   2.391  0.2255  0.1419 -0.4314
   51TMC2    O1  802   2.831   0.860   2.289  0.6554  0.0652 -0.4851
   51TMC2    O2  803   3.226   0.327   2.431 -0.4142 -0.1167  0.1918
   51TMC2    O5  804   3.326   0.522   2.449  0.2580 -0.3939  0.0387
   51TMC2    H5  805   3.327   0.612   2.409  0.6558  0.2904  1.5611
   52MPD2     C  806   2.880   0.023   1.738  0.5146  0.4729 -0.1965
   52MPD2    C1  807   2.838   0.152   1.717 -0.0927  0.6073 -0.8717
   52MPD2    C2  808   2.856   0.245   1.817  0.5006 -0.1423  0.1161
   52MPD2    C3  809   2.927   0.220   1.934 -0.5408  0.8534 -0.0810
   52MPD2    C4  810   2.991   0.101   1.936  0.0919 -0.1932 -0.5202
   52MPD2    C5  811   2.962   0.000   1.845  0.6109 -0.0941 -0.2339
   52MPD2     H  812   2.820   0.345   1.794  3.5022  0.6749 -1.1265
   52MPD2    H1  813   3.048   0.077   2.025 -1.5259  1.4787  0.9618
   52MPD2    H2  814   2.876   4.680   1.661 -3.3676 -0.1929  0.6516
   52MPD2    H3  815   3.018   4.642   1.857 -0.4620 -0.5687  1.2280
   52MPD2     N  816   2.967   0.319   2.022 -0.1631  0.3865 -0.9353
   52MPD2    H5  817   3.044   0.295   2.083 -1.7847 -0.3249  0.8392
   52MPD2    N1  818   2.792   0.196   1.591 -1.2580 -0.1420  0.6801
   52MPD2    H7  819   2.774   0.296   1.582  1.2401  0.1865 -0.6604
   53TMC2    C1  820   2.073   4.474  11.449 -0.3518 -0.6486 -0.2598
   53TMC2    C2  821   2.145   4.367  11.492 -0.4630  1.2147  0.7614
   53TMC2    C3  822   2.191   4.379  11.620  0.5423  0.3092  0.3367
   53TMC2    C4  823   2.014   4.567  11.538  0.1565 -0.5312 -0.3560
   53TMC2    C5  824   2.062   4.577  11.663  0.5999 -0.2122 -0.1653
   53TMC2    C6  825   2.147   4.478  11.707  0.8661 -0.1107  0.3576
   53TMC2     C  826   1.981   4.456  11.334 -0.6119 -0.2608  0.3343
   53TMC2     O  827   2.037   4.428  11.231  0.5001  0.2118  0.2412
   53TMC2     H  828   2.147   4.277  11.432 -0.7827  0.6834  1.5455
   53TMC2    H1  829   1.956   4.651  11.502 -0.7597 -1.3531 -0.7892
   53TMC2    H2  830   2.180   4.487  11.810 -0.7189 -0.7376  0.9286
   53TMC2    C7  831   1.968   4.633  11.760 -0.8800  0.2035 -0.2851
   53TMC2    C8  832   2.211   4.249  11.677  0.0618 -0.3236  0.1946
   53TMC2    O1  833   1.856   4.632  11.721 -0.2925 -0.4829  0.6114
   53TMC2    O2  834   2.201   4.142  11.620  0.2114 -0.5718  0.2121
   53TMC2    O5  835   2.264   4.264  11.802 -0.3911  0.2665  0.5002
   53TMC2    H5  836   2.294   4.352  11.834 -0.1733  0.0617  0.8632
   54MPD2     C  837   1.717   4.445  11.200  0.3962  0.4702 -0.7311
   54MPD2    C1  838   1.732   4.403  11.333  0.0959  0.5056  0.0704
   54MPD2    C2  839   1.626   4.370  11.410 -0.5389 -0.0493 -0.0572
   54MPD2    C3  840   1.503   4.376  11.360 -0.2114  0.4754 -0.2482
   54MPD2    C4  841   1.488   4.412  11.228 -0.2168  0.4760  0.2016
   54MPD2    C5  842   1.592   4.450  11.148  0.2392  0.1165  0.5727
   54MPD2     H  843   1.650   4.341  11.512 -0.7850 -0.0142  0.0102
   54MPD2    H1  844   1.394   4.419  11.174  0.0531  0.9610 -0.2123
   54MPD2    H2  845   1.806   4.469  11.143  0.7739 -2.4453 -1.3196
   54MPD2    H3  846   1.579   4.482  11.045  1.7191  3.0809  1.3099
   54MPD2     N  847   1.392   4.334  11.428 -0.3323  0.2180  0.0911
   54MPD2    H5  848   1.308   4.336  11.370 -0.1869 -3.3779 -0.2260
   54MPD2    N1  849   1.860   4.409  11.396  0.1337  0.5774  0.2619
   54MPD2    H7  850   1.862   4.397  11.497 -0.1622 -0.2241  0.1729
   55TMC2    C1  851   2.826   2.521   0.169 -0.3132 -0.4638 -0.3055
   55TMC2    C2  852   2.858   2.472   0.045 -0.0708  0.0172 -0.1359
   55TMC2    C3  853   2.919   2.357   0.038  0.9828 -0.5115  0.5166
   55TMC2    C4  854   2.858   2.458   0.290  0.4275 -0.7198  0.1862
   55TMC2    C5  855   2.920   2.336   0.275 -0.7248  0.0719 -0.8691
   55TMC2    C6  856   2.952   2.286   0.151 -0.0151  0.0130 -0.1171
   55TMC2     C  857   2.752   2.644   0.170  0.8375 -0.7579 -0.5776
   55TMC2     O  858   2.685   2.667   0.271 -0.2874  0.1821 -0.1965
   55TMC2     H  859   2.820   2.517  17.688  2.0860  0.3699 -0.8598
   55TMC2    H1  860   2.828   2.495   0.387  0.3219  0.9029 -0.4741
   55TMC2    H2  861   3.004   2.192   0.145 -0.3081 -0.2366  1.1590
   55TMC2    C7  862   2.925   2.247   0.397 -0.2553 -0.0020 -0.0901
   55TMC2    C8  863   2.952   2.300  17.644 -0.0717  0.4231 -0.2985
   55TMC2    O1  864   2.996   2.150   0.376  0.4483 -0.0713 -0.1545
   55TMC2    O2  865   2.965   2.370  17.541  0.1120  0.1507  0.8854
   55TMC2    O5  866   2.932   2.168  17.636 -0.3537  0.1513  0.1207
   55TMC2    H5  867   2.891   2.128  17.716 -1.6368  1.4745  0.1220
   56MPD2     C  868   2.719   2.910  17.637 -0.6163 -0.1769  0.1827
   56MPD2    C1  869   2.705   2.841   0.018 -0.2450 -0.1770 -0.0141
   56MPD2    C2  870   2.603   2.889   0.106  0.3741  1.1735  0.2125
   56MPD2    C3  871   2.512   2.980   0.067 -0.1881  1.2389  0.1536
   56MPD2    C4  872   2.526   3.040  17.680  0.1066  0.2057  0.0105
   56MPD2    C5  873   2.626   3.002  17.594  0.2249  0.3925  0.3107
   56MPD2     H  874   2.592   2.841   0.203  0.6017 -0.0084 -0.3514
   56MPD2    H1  875   2.461   3.118  17.641 -2.7391 -1.5305  1.2711
   56MPD2    H2  876   2.797   2.881  17.567 -1.8819  0.0761 -1.3339
   56MPD2    H3  877   2.625   3.037  17.492 -0.0448  0.1610  0.2362
   56MPD2     N  878   2.418   3.016   0.158  0.1294  0.9734  0.0830
   56MPD2    H5  879   2.401   2.955   0.238 -2.6454  2.6154  0.7785
   56MPD2    N1  880   2.772   2.723   0.056 -0.0082  0.0929 -0.1877
   56MPD2    H7  881   2.846   2.686  17.732 -0.2923 -3.2983  1.6055
   57TMC2    C1  882   2.089   3.207  13.747  0.1552 -0.1274  0.4894
   57TMC2    C2  883   2.086   3.103  13.837  0.1689 -0.2737 -0.3420
   57TMC2    C3  884   2.178   2.998  13.814 -0.4313 -0.2807  0.0985
   57TMC2    C4  885   2.168   3.205  13.639  0.2282  0.2184  0.0388
   57TMC2    C5  886   2.250   3.099  13.610 -0.0632  0.3744  0.1552
   57TMC2    C6  887   2.243   2.993  13.694 -0.6444  0.1476 -0.0817
   57TMC2     C  888   1.994   3.318  13.765  0.1851 -0.6884 -0.0746
   57TMC2     O  889   2.013   3.411  13.687 -0.1929 -0.2913 -0.8789
   57TMC2     H  890   2.024   3.098  13.926 -1.6685  2.4822 -1.4421
   57TMC2    H1  891   2.180   3.289  13.571 -0.9338  0.6697  0.3902
   57TMC2    H2  892   2.293   2.901  13.666 -0.9087  0.3796 -1.3029
   57TMC2    C7  893   2.335   3.107  13.492 -0.4496 -0.8457 -0.5816
   57TMC2    C8  894   2.203   2.892  13.909 -0.2498 -0.1003 -0.3124
   57TMC2    O1  895   2.334   3.210  13.429  0.9069  0.4193 -0.6687
   57TMC2    O2  896   2.277   2.803  13.867 -0.1212  0.6766 -0.6726
   57TMC2    O5  897   2.206   2.949  14.035 -0.1616  0.0733  0.6528
   57TMC2    H5  898   2.192   3.045  14.049  0.2765  0.0408  1.3640
   58MPD2     C  899   1.644   3.581  14.033 -0.7252 -0.1974  0.4113
   58MPD2    C1  900   1.692   3.604  13.908  0.8037  0.1967  0.4018
   58MPD2    C2  901   1.785   3.510  13.854  0.0768 -0.0061 -0.0009
   58MPD2    C3  902   1.813   3.394  13.923 -0.4187 -0.0471 -1.0756
   58MPD2    C4  903   1.761   3.368  14.045 -0.4914  0.9278 -0.0236
   58MPD2    C5  904   1.680   3.466  14.096 -0.2253 -0.3539  0.0715
   58MPD2     H  905   1.834   3.536  13.761 -2.8972  0.0442 -1.5696
   58MPD2    H1  906   1.776   3.281  14.108  1.3263  2.3791  1.5312
   58MPD2    H2  907   1.584   3.649  14.092  0.9921  2.0183 -0.4352
   58MPD2    H3  908   1.659   3.452  14.202 -0.2612 -1.1411 -0.0412
   58MPD2     N  909   1.914   3.300  13.876 -0.1385 -0.1851 -1.1552
   58MPD2    H5  910   1.929   3.217  13.933  1.0892 -0.5754 -2.0525
   58MPD2    N1  911   1.669   3.725  13.835 -0.1460  0.6113  0.1554
   58MPD2    H7  912   1.709   3.728  13.742  0.8995  1.4934  0.6215
   59TMC2    C1  913   4.519   3.584  12.870 -0.3591  0.1213  0.5980
   59TMC2    C2  914   4.640   3.532  12.901  0.0262  0.5449  0.4461
   59TMC2    C3  915   4.684   3.418  12.832  0.0870 -0.3229 -0.0846
   59TMC2    C4  916   4.453   3.535  12.763 -0.0234  0.4596 -0.1716
   59TMC2    C5  917   4.492   3.414  12.708  0.2702 -0.2653 -0.4680
   59TMC2    C6  918   4.613   3.362  12.730 -0.2633  0.1127  0.0175
   59TMC2     C  919   4.461   3.695  12.939  0.3742  0.0218 -0.0356
   59TMC2     O  920   4.367   3.750  12.889  0.2109  0.3264 -0.1820
   59TMC2     H  921   4.706   3.565  12.980 -0.6576  2.0981  0.3828
   59TMC2    H1  922   4.354   3.572  12.740  0.6063  1.5173 -1.2282
   59TMC2    H2  923   4.650   3.276  12.675 -0.7594  0.7022 -1.2380
   59TMC2    C7  924   4.420   3.357  12.595  0.3266  0.6954  0.3891
   59TMC2    C8  925   0.072   3.359  12.889  0.0313  0.8052 -0.1437
   59TMC2    O1  926   4.414   3.236  12.593  0.0194 -0.1052 -0.0393
   59TMC2    O2  927   0.140   3.420  12.971 -0.3467  0.0206 -0.2755
   59TMC2    O5  928   0.062   3.224  12.898  0.3567 -0.5051 -0.3207
   59TMC2    H5  929   4.728   3.192  12.835 -2.2934  1.9827  1.2595
   60MPD2     C  930   4.458   3.946  13.083 -0.1278  0.6508 -0.2864
   60MPD2    C1  931   4.531   3.838  13.127  0.0656  0.1049 -0.9768
   60MPD2    C2  932   4.606   3.855  13.240  0.0512 -0.4052 -0.4988
   60MPD2    C3  933   4.610   3.984  13.308 -0.1619 -0.3601 -0.8841
   60MPD2    C4  934   4.532   4.090  13.256 -0.0470 -0.2381  0.5546
   60MPD2    C5  935   4.453   4.063  13.153 -0.0286 -0.5289 -0.2017
   60MPD2     H  936   4.675   3.774  13.260 -0.4136 -1.4509 -3.1100
   60MPD2    H1  937   4.532   4.189  13.301 -0.8332 -0.3223  0.7380
   60MPD2    H2  938   4.384   3.941  13.003 -1.6627  0.3877  1.1395
   60MPD2    H3  939   4.395   4.139  13.102  0.2971 -1.1455 -1.4970
   60MPD2     N  940   4.698   4.009  13.412  0.2299 -0.2891 -0.4003
   60MPD2    H5  941   4.714   4.104  13.445  1.6267 -0.1046 -1.6399
   60MPD2    N1  942   4.527   3.715  13.057 -0.2452  0.4208  0.6922
   60MPD2    H7  943   4.596   3.648  13.089 -0.9394  0.3698  2.0687
   61TMC2    C1  944   3.632   4.695  15.208 -0.2658  0.8130 -0.0845
   61TMC2    C2  945   3.588   4.674  15.335  0.7850 -0.6615  0.4814
   61TMC2    C3  946   3.579   0.051  15.411 -0.0374  1.1819  0.5103
   61TMC2    C4  947   3.637   0.082  15.153 -0.5415 -0.7769  0.4256
   61TMC2    C5  948   3.602   0.188  15.226  0.3548  0.3300  0.1598
   61TMC2    C6  949   3.580   0.182  15.364 -0.7199 -0.2974 -0.8292
   61TMC2     C  950   3.674   4.585  15.127  0.2332 -0.1338 -0.0706
   61TMC2     O  951   3.634   4.469  15.151  0.6372  0.0360 -0.2493
   61TMC2     H  952   3.579   4.572  15.371 -0.0197 -0.2812  1.3466
   61TMC2    H1  953   3.649   0.107  15.048  1.1079 -0.8483  0.5876
   61TMC2    H2  954   3.555   0.267  15.426 -0.1121 -1.9365  1.6907
   61TMC2    C7  955   3.607   0.317  15.155 -0.2252 -0.0294  0.9587
   61TMC2    C8  956   3.561   0.040  15.557 -0.0636  0.5332 -0.0033
   61TMC2    O1  957   3.701   0.346  15.079 -0.1445  0.2742  0.0280
   61TMC2    O2  958   3.530   0.130  15.633  0.6543 -0.0361 -0.1272
   61TMC2    O5  959   3.660   4.685  15.584  0.5154 -0.1849 -0.0911
   61TMC2    H5  960   3.682   4.615  15.519  0.0102  1.1092 -1.6276
   62MPD2     C  961   3.728   4.420  14.878  0.0065  0.0724  0.2062
   62MPD2    C1  962   3.787   4.539  14.910 -0.2249  0.0701  0.1281
   62MPD2    C2  963   3.886   4.590  14.826 -0.2641 -1.0751  0.2257
   62MPD2    C3  964   3.924   4.525  14.710 -0.5004  0.1596  0.8547
   62MPD2    C4  965   3.853   4.416  14.672  0.7213 -0.3385  0.9926
   62MPD2    C5  966   3.760   4.362  14.758 -0.3005  0.2894  0.1246
   62MPD2     H  967   3.928   4.686  14.855 -0.7703 -0.7835 -0.0070
   62MPD2    H1  968   3.886   4.362  14.584  2.6866  1.7527  0.4568
   62MPD2    H2  969   3.652   4.373  14.939 -0.8624  0.7233 -0.3784
   62MPD2    H3  970   3.699   4.277  14.732 -1.8868  1.1349  1.0539
   62MPD2     N  971   4.014   4.587  14.620  0.6798 -0.1008 -0.1294
   62MPD2    H5  972   4.016   4.550  14.526 -1.0624  0.3738 -0.3525
   62MPD2    N1  973   3.765   4.620  15.028 -0.3087  0.1602 -0.6941
   62MPD2    H7  974   3.797   4.717  15.031  2.4176 -0.6555 -2.9390
   63TMC2    C1  975   3.011   0.012  10.456 -0.5804  0.0269 -0.7476
   63TMC2    C2  976   3.118   4.709  10.533  0.0410 -0.0114 -0.1098
   63TMC2    C3  977   3.231   0.053  10.528  0.2223 -0.2001 -0.5020
   63TMC2    C4  978   3.009   0.115  10.362  0.8074 -0.4378  0.3786
   63TMC2    C5  979   3.124   0.193  10.358 -0.0350  0.5186 -0.4101
   63TMC2    C6  980   3.229   0.164  10.441 -0.4291 -0.3140 -0.6094
   63TMC2     C  981   2.901   4.649  10.438  0.7284 -0.0472 -0.0550
   63TMC2     O  982   2.825   4.659  10.347 -0.6188  0.0715  0.0137
   63TMC2     H  983   3.116   4.629  10.606  0.6431  1.7913  1.9056
   63TMC2    H1  984   2.914   0.147  10.322  0.8286  1.9178  2.2070
   63TMC2    H2  985   3.321   0.221  10.434 -0.8041  0.5144  1.3395
   63TMC2    C7  986   3.112   0.323  10.299  0.1361  0.0961 -0.1774
   63TMC2    C8  987   3.349   0.037  10.618  0.6239  0.5094  0.5300
   63TMC2    O1  988   3.008   0.341  10.236 -0.3903 -0.0915  0.4170
   63TMC2    O2  989   3.354   4.696  10.710  0.3400  0.2729  0.0775
   63TMC2    O5  990   3.455   0.088  10.557 -0.5227 -0.5946 -0.2688
   63TMC2    H5  991   3.447   0.093  10.459 -1.9042 -0.6261 -0.1523
   64MPD2     C  992   2.615   4.266  10.619 -0.4240 -0.2694  0.2858
   64MPD2    C1  993   2.707   4.299  10.714  0.6203  0.6259  0.5725
   64MPD2    C2  994   2.792   4.412  10.690 -0.4448 -0.5046 -0.3322
   64MPD2    C3  995   2.786   4.480  10.573  0.1016 -0.0221 -0.2839
   64MPD2    C4  996   2.694   4.440  10.478  0.1273 -0.6012  0.1834
   64MPD2    C5  997   2.615   4.333  10.499 -0.4408  0.1170  0.7467
   64MPD2     H  998   2.857   4.436  10.773  1.1240 -0.1760 -1.6668
   64MPD2    H1  999   2.685   4.480  10.377 -0.6553  1.7034  1.1687
   64MPD2    H2 1000   2.534   4.195  10.634 -1.0558  0.6236  1.0555
   64MPD2    H3 1001   2.541   4.305  10.425 -1.5006 -0.7152  2.1304
   64MPD2     N 1002   2.881   4.574  10.547  0.0490 -0.8827 -0.0433
   64MPD2    H5 1003   2.943   4.597  10.624  0.0143 -3.9275  0.8862
   64MPD2    N1 1004   2.721   4.237  10.836 -0.6100 -0.0385 -0.2010
   64MPD2    H7 1005   2.773   4.281  10.911  1.7867 -1.0691 -1.2735
   65TMC2    C1 1006   4.190   4.395  15.496  0.9058 -1.0231 -0.1727
   65TMC2    C2 1007   4.178   4.315  15.391  0.0598  0.1681  0.4022
   65TMC2    C3 1008   4.101   4.358  15.291 -0.2412  1.1351  0.3620
   65TMC2    C4 1009   4.131   4.519  15.508  0.2763  0.5067 -0.6866
   65TMC2    C5 1010   4.049   4.560  15.409 -1.0767  0.1043 -0.3035
   65TMC2    C6 1011   4.042   4.486  15.295  0.3751  1.1936  0.7450
   65TMC2     C 1012   4.248   4.345  15.628 -0.5787  0.0891 -0.0788
   65TMC2     O 1013   4.282   4.423  15.718 -0.4915  0.0414 -0.2484
   65TMC2     H 1014   4.244   4.232  15.372  1.7094  1.4939  0.3148
   65TMC2    H1 1015   4.143   4.574  15.601 -1.7925 -2.5940  1.3805
   65TMC2    H2 1016   4.006   4.529  15.202 -0.0037 -1.0726 -0.1433
   65TMC2    C7 1017   3.996   4.692  15.406 -0.0303  0.3498 -0.0009
   65TMC2    C8 1018   4.136   4.300  15.164 -0.7051  0.0001  1.0296
   65TMC2    O1 1019   3.937   4.715  15.304 -0.1852  0.0664 -0.4491
   65TMC2    O2 1020   4.251   4.276  15.131  0.1611  0.2618 -0.2367
   65TMC2    O5 1021   4.042   4.335  15.073 -0.4521 -0.2787  0.9615
   65TMC2    H5 1022   3.955   4.339  15.118 -2.0331  0.3671 -2.1620
   66MPD2     C 1023   4.351   4.182  15.845 -0.0453  0.0219 -0.3064
   66MPD2    C1 1024   4.271   4.131  15.743  0.4420 -0.3824 -0.3329
   66MPD2    C2 1025   4.254   3.994  15.736  0.3495 -0.3326 -0.3394
   66MPD2    C3 1026   4.309   3.906  15.835  0.1831 -0.1332 -0.0319
   66MPD2    C4 1027   4.378   3.961  15.941  0.3337 -0.0466 -0.9927
   66MPD2    C5 1028   4.403   4.093  15.939 -1.1315 -0.3792 -0.1114
   66MPD2     H 1029   4.196   3.957  15.652  1.0516  0.9624 -1.3929
   66MPD2    H1 1030   4.423   3.901  16.019  1.2439  1.7416 -0.1480
   66MPD2    H2 1031   4.364   4.287  15.869 -2.8708  0.3909 -0.3982
   66MPD2    H3 1032   4.451   4.142  16.023  0.9179 -2.4874 -0.0340
   66MPD2     N 1033   4.279   3.772  15.848  0.6860 -0.1763  0.1473
   66MPD2    H5 1034   4.315   3.723  15.929 -0.6033 -1.7635 -0.2421
   66MPD2    N1 1035   4.224   4.210  15.629 -0.2503 -0.7154 -0.4998
   66MPD2    H7 1036   4.179   4.156  15.556 -1.0019 -0.5547 -0.1522
   67TMC2    C1 1037   0.232   3.638  14.591 -0.8391 -0.3393 -0.6286
   67TMC2    C2 1038   0.141   3.740  14.595 -0.2041 -0.3683 -0.6985
   67TMC2    C3 1039   0.144   3.831  14.702  0.0583 -0.7895  0.1782
   67TMC2    C4 1040   0.319   3.636  14.699  0.7220  0.5502 -0.2119
   67TMC2    C5 1041   0.323   3.731  14.794  0.0694 -0.5273  0.3041
   67TMC2    C6 1042   0.237   3.831  14.800 -1.0464  0.3314  0.5563
   67TMC2     C 1043   0.235   3.525  14.502 -0.1852 -0.2022 -0.4545
   67TMC2     O 1044   0.308   3.434  14.530  0.5732 -0.5851 -0.5750
   67TMC2     H 1045   0.061   3.748  14.522  0.0638  0.2718 -0.9196
   67TMC2    H1 1046   0.398   3.562  14.702  3.1658  3.1454 -0.7441
   67TMC2    H2 1047   0.237   3.915  14.869  0.3001  0.6441  0.1799
   67TMC2    C7 1048   0.434   3.734  14.894  0.1394  0.7338 -0.8440
   67TMC2    C8 1049   0.057   3.947  14.674 -0.3942  0.5895  0.2793
   67TMC2    O1 1050   0.544   3.697  14.863  0.3908  0.0516  0.1081
   67TMC2    O2 1051   0.013   3.975  14.565  0.1453  0.1683  0.5110
   67TMC2    O5 1052   4.733   3.969  14.793 -0.5676 -0.1165  0.6853
   67TMC2    H5 1053   0.050   3.925  14.865 -0.5610  1.0994  1.4270
   68MPD2     C 1054   0.225   3.367  14.266  0.7279  0.3744  0.3989
   68MPD2    C1 1055   0.117   3.448  14.306  0.0767  0.1989 -0.6094
   68MPD2    C2 1056   0.001   3.454  14.230  0.2800  0.6490  0.4944
   68MPD2    C3 1057   4.718   3.365  14.128  0.4229  0.2639 -0.0363
   68MPD2    C4 1058   0.085   3.277  14.097  0.2771 -0.4196  0.8747
   68MPD2    C5 1059   0.210   3.287  14.157  0.0061 -0.1512  0.4173
   68MPD2     H 1060   4.655   3.521  14.259 -1.2313 -0.2780 -1.5318
   68MPD2    H1 1061   0.079   3.207  14.014 -0.0253  1.5973 -0.8132
   68MPD2    H2 1062   0.324   3.373  14.309 -1.0658  0.1145  4.5773
   68MPD2    H3 1063   0.292   3.220  14.135  0.0399 -0.0383  0.1974
   68MPD2     N 1064   4.606   3.374  14.047 -0.3362 -0.0591 -0.4574
   68MPD2    H5 1065   4.526   3.419  14.090  0.6452  1.7055 -0.5083
   68MPD2    N1 1066   0.134   3.539  14.410 -0.4808  0.6918  0.1154
   68MPD2    H7 1067   0.069   3.616  14.418 -0.4683  0.7470 -0.2901
   69TMC2    C1 1068   1.964   0.103  12.558 -0.0254 -0.8489  0.9219
   69TMC2    C2 1069   1.987   0.128  12.689 -0.2177 -0.5945 -0.1687
   69TMC2    C3 1070   2.112   0.147  12.733 -0.3696 -0.4455  0.1498
   69TMC2    C4 1071   2.064   0.106  12.469 -0.2057  0.1851 -0.0287
   69TMC2    C5 1072   2.190   0.144  12.508 -0.0750 -0.2185  0.7965
   69TMC2    C6 1073   2.216   0.155  12.644  0.3242 -0.3488  0.0792
   69TMC2     C 1074   1.842   0.034  12.532  0.1923  0.5250  0.0738
   69TMC2     O 1075   1.744   0.055  12.600  0.3742 -0.1168 -0.5943
   69TMC2     H 1076   1.915   0.100  12.766  0.0315 -1.5890 -0.2953
   69TMC2    H1 1077   2.051   0.073  12.367  0.2567  1.8504 -0.6242
   69TMC2    H2 1078   2.313   0.175  12.688 -1.3441  1.6206  2.9041
   69TMC2    C7 1079   2.308   0.148  12.418 -0.2005  0.1672 -0.6691
   69TMC2    C8 1080   2.128   0.184  12.875  0.3025 -0.0870 -0.1434
   69TMC2    O1 1081   2.289   0.102  12.306 -0.1181 -0.2355  0.0402
   69TMC2    O2 1082   2.241   0.190  12.926  0.2356 -0.0945 -0.3009
   69TMC2    O5 1083   2.027   0.267  12.891 -0.0831 -1.3571  0.1370
   69TMC2    H5 1084   1.955   0.256  12.826 -0.2273 -1.4538  0.3138
   70MPD2     C 1085   1.809   4.496  12.280 -0.3840 -0.1480  0.0500
   70MPD2    C1 1086   1.771   4.577  12.385 -0.5093 -0.5846 -0.4731
   70MPD2    C2 1087   1.643   4.566  12.444  0.4177 -0.0464 -0.0054
   70MPD2    C3 1088   1.562   4.456  12.414 -0.9027 -0.0712  0.0882
   70MPD2    C4 1089   1.610   4.371  12.315 -0.1676 -0.0135 -0.5834
   70MPD2    C5 1090   1.727   4.395  12.242 -0.4772 -0.4230 -0.0701
   70MPD2     H 1091   1.604   4.638  12.516  1.9304 -0.0936  0.8617
   70MPD2    H1 1092   1.564   4.274  12.301 -0.4705  0.0893 -0.2890
   70MPD2    H2 1093   1.895   4.507  12.214  0.4589  1.2314  1.3655
   70MPD2    H3 1094   1.765   4.332  12.163 -0.0449 -1.7324  1.1923
   70MPD2     N 1095   1.443   4.423  12.479 -0.7424  0.5051  0.2123
   70MPD2    H5 1096   1.407   4.330  12.461  0.6369 -0.0989  0.6069
   70MPD2    N1 1097   1.856   4.680  12.421 -0.1980  0.7409  0.7394
   70MPD2    H7 1098   1.943   4.674  12.367 -0.7198  0.3696 -0.0577
   71TMC2    C1 1099   4.010   4.421   1.486 -0.0103 -0.1216 -0.3855
   71TMC2    C2 1100   4.112   4.341   1.538 -0.2480  0.0573 -0.0082
   71TMC2    C3 1101   4.075   4.243   1.627  0.0402 -0.2958 -0.2353
   71TMC2    C4 1102   3.884   4.406   1.525  0.4882  0.7053 -0.6806
   71TMC2    C5 1103   3.857   4.297   1.613 -0.4365  0.6056  0.2374
   71TMC2    C6 1104   3.953   4.225   1.675  0.4338 -0.1094 -0.5346
   71TMC2     C 1105   4.040   4.535   1.401  0.1493  0.6739 -0.3114
   71TMC2     O 1106   3.947   4.591   1.345 -0.3629 -0.8167 -0.1861
   71TMC2     H 1107   4.198   4.328   1.473 -0.2164  0.0185  0.0413
   71TMC2    H1 1108   3.799   4.457   1.480  0.6448  1.2231 -0.3871
   71TMC2    H2 1109   3.925   4.141   1.739 -2.3996 -0.4388 -2.1851
   71TMC2    C7 1110   3.721   4.259   1.643 -0.9602 -0.6946  0.0442
   71TMC2    C8 1111   4.173   4.144   1.661 -0.4900 -0.0815  0.0956
   71TMC2    O1 1112   3.695   4.145   1.680  0.0513  0.0254  0.3197
   71TMC2    O2 1113   4.137   4.034   1.704 -0.0692  0.0134 -0.0700
   71TMC2    O5 1114   4.298   4.194   1.660 -0.2481  0.0809 -0.5895
   71TMC2    H5 1115   4.304   4.290   1.639  2.6042  0.1593  0.5315
   72MPD2     C 1116   4.344   0.149   1.163 -0.2995  0.5027  0.7488
   72MPD2    C1 1117   4.213   0.118   1.149  0.6874 -0.5408 -0.0412
   72MPD2    C2 1118   4.160   0.006   1.207  0.0509 -0.4430  0.2266
   72MPD2    C3 1119   4.228   4.681   1.310 -0.0109  0.6017 -0.0124
   72MPD2    C4 1120   4.362   4.714   1.325  0.2276  0.0235  0.0039
   72MPD2    C5 1121   4.422   0.075   1.251 -0.1000 -0.1221 -0.1889
   72MPD2     H 1122   4.056   4.717   1.190 -0.2542  0.6041  0.7088
   72MPD2    H1 1123   4.434   4.664   1.389  0.5316  1.4282  0.7377
   72MPD2    H2 1124   4.399   0.232   1.120 -1.5116 -0.7645 -3.1879
   72MPD2    H3 1125   4.527   0.092   1.273  0.0085  0.0331 -0.8286
   72MPD2     N 1126   4.173   4.573   1.394  0.4329  0.2277  0.2593
   72MPD2    H5 1127   4.245   4.527   1.448  1.3201 -0.1383 -1.2385
   72MPD2    N1 1128   4.128   0.181   1.056 -0.7111  0.5160  0.0993
   72MPD2    H7 1129   4.030   0.155   1.050  0.1770 -3.0527  1.1656
   73TMC2    C1 1130   3.624   2.341  13.806  0.3904  0.7660  0.5291
   73TMC2    C2 1131   3.529   2.334  13.906  0.1665  0.1677  0.0761
   73TMC2    C3 1132   3.568   2.306  14.033  0.5011 -0.1901 -0.3079
   73TMC2    C4 1133   3.751   2.316  13.842 -0.1808  0.7588 -0.3940
   73TMC2    C5 1134   3.790   2.283  13.965  0.6882 -0.6304  0.1333
   73TMC2    C6 1135   3.699   2.288  14.069  0.2687  0.1755 -0.7590
   73TMC2     C 1136   3.613   2.444  13.703 -0.1498 -0.1306 -0.4417
   73TMC2     O 1137   3.717   2.497  13.675 -0.2238 -0.2590 -0.1502
   73TMC2     H 1138   3.429   2.367  13.882 -0.2243 -2.0257 -1.2200
   73TMC2    H1 1139   3.830   2.307  13.768  1.3599  1.5196  1.1530
   73TMC2    H2 1140   3.723   2.267  14.173  1.3980  0.4231 -0.9663
   73TMC2    C7 1141   3.899   2.353  14.009  0.4000  0.2259  0.4649
   73TMC2    C8 1142   3.480   2.345  14.144  0.0489 -0.5917 -0.5933
   73TMC2    O1 1143   3.971   2.321  14.104 -0.0212  0.5522  0.2214
   73TMC2    O2 1144   3.508   2.401  14.249 -0.0018 -0.0167 -0.0396
   73TMC2    O5 1145   3.368   2.277  14.110  0.0707 -0.1266 -0.5446
   73TMC2    H5 1146   3.392   2.224  14.031  1.2830  0.8513 -0.8321
   74MPD2     C 1147   3.364   2.844  13.498 -0.4005 -0.5470  0.8692
   74MPD2    C1 1148   3.486   2.840  13.562 -0.1488  0.1997  0.2140
   74MPD2    C2 1149   3.521   2.721  13.621  0.1008 -0.3284  0.1137
   74MPD2    C3 1150   3.446   2.602  13.606  0.1576 -0.7265 -0.2775
   74MPD2    C4 1151   3.324   2.622  13.548  0.3035 -0.4142  0.4202
   74MPD2    C5 1152   3.282   2.738  13.489  0.3390  0.1972 -0.2335
   74MPD2     H 1153   3.606   2.721  13.689  0.4506  2.4020 -0.3085
   74MPD2    H1 1154   3.253   2.541  13.537 -0.7103  0.7180 -1.4444
   74MPD2    H2 1155   3.328   2.929  13.441 -0.6291 -1.1749  0.0831
   74MPD2    H3 1156   3.187   2.758  13.440  0.8142 -2.3885 -2.2135
   74MPD2     N 1157   3.484   2.485  13.676  0.5520 -0.6373  0.4828
   74MPD2    H5 1158   3.405   2.421  13.683  0.7132 -1.1201 -2.2754
   74MPD2    N1 1159   3.555   2.962  13.572 -0.5224 -0.2611  0.2031
   74MPD2    H7 1160   3.513   3.049  13.540  0.8820  0.7522  1.1398
   75TMC2    C1 1161   4.450   3.301  13.904 -0.6991 -0.4255 -0.7012
   75TMC2    C2 1162   4.369   3.272  14.009 -0.1521 -0.0976 -0.2704
   75TMC2    C3 1163   4.232   3.285  13.990  0.2884 -0.1935 -0.0372
   75TMC2    C4 1164   4.400   3.343  13.779  0.0880 -0.4127 -0.3032
   75TMC2    C5 1165   4.264   3.364  13.776  0.6596 -0.4041 -0.0971
   75TMC2    C6 1166   4.176   3.339  13.878 -0.1310  0.1308  0.4397
   75TMC2     C 1167   4.589   3.321  13.924 -0.5724  0.4141 -0.5458
   75TMC2     O 1168   4.670   3.271  13.846 -0.4752  0.2962 -0.6305
   75TMC2     H 1169   4.406   3.251  14.109 -1.3511  0.9421  0.4014
   75TMC2    H1 1170   4.464   3.361  13.693 -2.4624 -1.4226 -2.4349
   75TMC2    H2 1171   4.070   3.347  13.862 -0.1812  2.1149  1.7993
   75TMC2    C7 1172   4.215   3.423  13.659  0.1755 -0.3938  0.3664
   75TMC2    C8 1173   4.139   3.242  14.084  0.0422  0.7637 -0.1351
   75TMC2    O1 1174   4.242   3.381  13.549  0.4252 -0.1535  0.6402
   75TMC2    O2 1175   4.029   3.292  14.080  0.0878 -0.4853 -0.4780
   75TMC2    O5 1176   4.159   3.110  14.085 -0.3113  0.1873  0.3046
   75TMC2    H5 1177   4.253   3.089  14.102  0.0813  1.9686  0.4098
   76TMC2    C1 1178   3.061   3.610  11.896  0.2158  0.1193 -0.1511
   76TMC2    C2 1179   2.955   3.531  11.860  0.2140  0.6343 -0.3902
   76TMC2    C3 1180   2.979   3.393  11.861 -0.4514 -0.3915 -0.4400
   76TMC2    C4 1181   3.191   3.562  11.927  0.6895  0.2536 -0.2550
   76TMC2    C5 1182   3.202   3.423  11.934  0.1186  0.3815 -0.3359
   76TMC2    C6 1183   3.100   3.337  11.894 -0.3803 -0.1186  0.1119
   76TMC2     C 1184   3.022   3.748  11.916 -0.5553  0.0619 -0.4124
   76TMC2     O 1185   2.908   3.782  11.903  0.3549  0.0194 -0.3608
   76TMC2     H 1186   2.854   3.567  11.848  0.9162  2.7715  0.2202
   76TMC2    H1 1187   3.270   3.625  11.965  1.3159 -2.2217  2.5386
   76TMC2    H2 1188   3.110   3.229  11.907  0.5742 -0.2061 -1.3132
   76TMC2    C7 1189   3.317   3.360  11.994  0.4808 -0.6989 -0.9037
   76TMC2    C8 1190   2.876   3.303  11.813 -0.6115  0.4131 -0.3107
   76TMC2    O1 1191   3.331   3.241  11.964 -0.7367 -0.1745  0.2756
   76TMC2    O2 1192   2.871   3.182  11.834  0.1851  0.0802  0.4536
   76TMC2    O5 1193   2.794   3.369  11.725 -0.3113 -0.0165 -0.3667
   76TMC2    H5 1194   2.825   3.460  11.705  0.2178 -0.2525 -0.6186
   77MPD2     C 1195   3.147   4.239  12.037 -0.4676 -0.2721  0.0783
   77MPD2    C1 1196   3.034   4.198  11.971  0.1612 -0.1162  0.8014
   77MPD2    C2 1197   3.024   4.065  11.953 -0.4711  0.5218 -0.6604
   77MPD2    C3 1198   3.131   3.974  11.972  0.6113 -0.5306 -0.0244
   77MPD2    C4 1199   3.249   4.026  12.028  1.1441 -0.0901 -0.1149
   77MPD2    C5 1200   3.248   4.154  12.061 -0.1170  0.8443 -0.1220
   77MPD2     H 1201   2.929   4.018  11.931  0.4662 -0.6726 -2.1528
   77MPD2    H1 1202   3.334   3.966  12.059  1.3421  0.3384  0.1659
   77MPD2    H2 1203   3.158   4.341  12.071  3.3306 -1.2497  1.7668
   77MPD2    H3 1204   3.337   4.193  12.109 -0.1055  2.2652 -1.2981
   77MPD2     N 1205   3.126   3.826  11.962  0.7818 -1.2349  0.3219
   77MPD2    H5 1206   3.217   3.782  11.969  0.7463 -1.3854 -0.1424
   77MPD2    N1 1207   2.934   4.283  11.927 -0.7437  0.2186 -0.1523
   77MPD2    H7 1208   2.845   4.239  11.909 -0.2507 -0.7270 -0.2688
   78TMC2    C1 1209   3.264   4.229   1.248 -0.1695 -0.3460 -0.1294
   78TMC2    C2 1210   3.228   4.361   1.217 -0.7861 -0.8976 -0.1525
   78TMC2    C3 1211   3.325   4.459   1.222 -0.3029  0.8338  0.0006
   78TMC2    C4 1212   3.395   4.197   1.273 -0.5752 -0.5590 -0.4056
   78TMC2    C5 1213   3.488   4.293   1.257  0.5547 -0.1060  0.1067
   78TMC2    C6 1214   3.458   4.425   1.232 -0.5972  0.3575  0.0961
   78TMC2     C 1215   3.155   4.134   1.259  0.7364 -0.4518 -0.0395
   78TMC2     O 1216   3.043   4.168   1.219 -0.3916 -0.1106 -0.3584
   78TMC2     H 1217   3.127   4.398   1.206 -1.1512 -1.5733  0.9129
   78TMC2    H1 1218   3.418   4.093   1.297 -0.2411 -0.6155 -0.9584
   78TMC2    H2 1219   3.528   4.507   1.224  0.2957 -0.5818 -1.7079
   78TMC2    C7 1220   3.635   4.273   1.266 -0.0314 -0.9621  0.6219
   78TMC2    C8 1221   3.288   4.598   1.228 -0.0067  0.4656 -0.0461
   78TMC2    O1 1222   3.708   4.368   1.240 -0.4634 -0.2780 -0.3174
   78TMC2    O2 1223   3.356   4.681   1.289 -0.4354  0.3953 -0.3619
   78TMC2    O5 1224   3.185   4.617   1.138 -0.1980  0.5062  0.7866
   78TMC2    H5 1225   3.156   4.539   1.087 -1.2711  2.3535 -1.4246
   79MPD1     C 1226   2.981   3.651   1.362 -0.4152 -0.5492 -0.0463
   79MPD1    C1 1227   2.914   3.757   1.303  0.0318  0.6604 -0.1368
   79MPD1    C2 1228   2.979   3.880   1.282 -0.8313  0.4284 -0.6410
   79MPD1    C3 1229   3.109   3.887   1.308  0.1791 -0.0475  0.7707
   79MPD1    C4 1230   3.174   3.774   1.349  0.4677  0.5887  0.7220
   79MPD1    C5 1231   3.113   3.654   1.368 -0.2294 -0.1936  0.4645
   79MPD1     H 1232   2.915   3.961   1.249 -1.6718  0.4546  1.0560
   79MPD1    H1 1233   3.282   3.770   1.361  0.3239  0.2603  1.8960
   79MPD1    H2 1234   2.933   3.556   1.383  0.3780 -1.1027 -0.7217
   79MPD1    H3 1235   3.163   3.572   1.418  1.2971 -1.2731 -2.8599
   79MPD1     N 1236   3.192   4.009   1.308 -0.7574 -0.1681  0.0561
   79MPD1    H5 1237   3.287   3.997   1.341 -1.1014  0.2906  1.2239
   79MPD1    N1 1238   2.777   3.758   1.297 -0.0195  0.1779  0.4792
   79MPD1    H6 1239   2.750   3.664   1.267 -2.4811  0.4346  1.9339
   79MPD1    H7 1240   2.741   3.811   1.219  1.9991 -0.8169 -1.1446
   80TMC2    C1 1241   1.811   3.172  11.767  0.0953 -0.2396 -0.1198
   80TMC2    C2 1242   1.848   3.106  11.655 -0.4184  0.6455 -0.1234
   80TMC2    C3 1243   1.796   2.976  11.637  0.1018 -0.2390  0.8564
   80TMC2    C4 1244   1.720   3.115  11.855  0.4022  0.7470 -0.3124
   80TMC2    C5 1245   1.668   2.989  11.832  0.0808 -0.0616  0.3244
   80TMC2    C6 1246   1.710   2.914  11.727  0.4553  0.2332  0.1647
   80TMC2     C 1247   1.831   3.314  11.772  0.0478  0.1074  0.9000
   80TMC2     O 1248   1.880   3.356  11.669  0.5975  0.0137 -0.0335
   80TMC2     H 1249   1.917   3.151  11.583 -0.0897 -0.3428 -0.4238
   80TMC2    H1 1250   1.692   3.167  11.946 -0.0169  3.4762 -1.9957
   80TMC2    H2 1251   1.657   2.820  11.717  0.1084  0.7686 -2.9557
   80TMC2    C7 1252   1.572   2.920  11.921 -0.4674 -0.5382 -0.1456
   80TMC2    C8 1253   1.851   2.904  11.523 -0.7972  0.4541 -0.4598
   80TMC2    O1 1254   1.501   2.842  11.863  0.2558 -0.0370  0.3369
   80TMC2    O2 1255   1.782   2.831  11.456  0.0823 -0.0984 -0.2140
   80TMC2    O5 1256   1.976   2.876  11.558 -0.2170 -0.5048  0.4941
   80TMC2    H5 1257   2.021   2.934  11.623 -2.7354  2.9405 -0.8441
   81MPD2     C 1258   1.885   3.610  11.824  0.5224  0.5034 -0.0413
   81MPD2    C1 1259   1.838   3.516  11.919 -0.2910 -0.2799  0.1613
   81MPD2    C2 1260   1.818   3.567  12.045 -0.0249  0.0455  0.1616
   81MPD2    C3 1261   1.842   3.702  12.074  0.5576  0.2279 -0.5327
   81MPD2    C4 1262   1.872   3.788  11.974  0.1597  0.3000  0.1544
   81MPD2    C5 1263   1.894   3.742  11.852 -0.5796  0.0767  0.2743
   81MPD2     H 1264   1.792   3.497  12.123  1.4780  1.5818  2.0424
   81MPD2    H1 1265   1.896   3.893  11.984 -0.0814  0.3997 -0.2809
   81MPD2    H2 1266   1.892   3.588  11.718  1.5175 -0.6719  0.2748
   81MPD2    H3 1267   1.914   3.810  11.770 -0.9129  1.0475  0.9973
   81MPD2     N 1268   1.818   3.756  12.203 -0.4456 -0.0065 -0.5225
   81MPD2    H5 1269   1.820   3.857  12.207  3.3557 -0.2158  2.6513
   81MPD2    N1 1270   1.813   3.379  11.890  0.2200 -0.1569 -0.3527
   81MPD2    H7 1271   1.768   3.323  11.961 -2.2325  0.6484 -1.3010
   82TMC2    C1 1272   4.689   3.369  11.013 -0.1231 -0.0511  0.2237
   82TMC2    C2 1273   0.062   3.380  10.929 -0.7195 -0.4195  0.4991
   82TMC2    C3 1274   0.181   3.314  10.958  0.4755  0.4213  0.1917
   82TMC2    C4 1275   4.706   3.280  11.123 -1.0876 -0.0767  0.0682
   82TMC2    C5 1276   0.084   3.199  11.129 -0.1715  0.3838  0.8423
   82TMC2    C6 1277   0.195   3.215  11.054 -0.1364 -0.0234  0.1281
   82TMC2     C 1278   4.559   3.364  10.936  0.4030 -0.7805 -0.3510
   82TMC2     O 1279   4.559   3.419  10.827  0.0104 -0.1503 -0.6877
   82TMC2     H 1280   0.050   3.453  10.849 -0.6590 -4.0995 -2.8874
   82TMC2    H1 1281   4.618   3.265  11.184 -2.2432  1.2045 -1.2735
   82TMC2    H2 1282   0.290   3.174  11.086 -0.4039 -0.3219  0.5390
   82TMC2    C7 1283   0.063   3.076  11.192 -0.3780  0.0233  0.0493
   82TMC2    C8 1284   0.281   3.355  10.864 -0.1089  0.6632 -0.6327
   82TMC2    O1 1285   4.727   3.091  11.285 -0.2759  0.2544 -0.4240
   82TMC2    O2 1286   0.288   3.470  10.829  0.2492 -0.3161 -0.6178
   82TMC2    O5 1287   0.377   3.276  10.888  0.2529  0.1071  0.0270
   82TMC2    H5 1288   0.363   3.179  10.897  1.8010 -0.0766  0.3934
   83MPD2     C 1289   4.066   3.249  10.848  0.3177 -0.2819  0.4440
   83MPD2    C1 1290   4.172   3.261  10.764 -0.8890 -0.2129 -0.0469
   83MPD2    C2 1291   4.299   3.286  10.810 -0.1329  0.5358  0.0466
   83MPD2    C3 1292   4.327   3.274  10.948 -0.2935  0.4488 -0.3928
   83MPD2    C4 1293   4.214   3.251  11.028  0.5395  0.1520  0.2644
   83MPD2    C5 1294   4.085   3.247  10.980 -0.0394 -0.1057  0.7894
   83MPD2     H 1295   4.377   3.304  10.736 -1.3263 -1.7976 -1.7758
   83MPD2    H1 1296   4.230   3.252  11.135 -0.9890 -1.9964  0.4927
   83MPD2    H2 1297   3.962   3.233  10.822  0.1077 -0.0865  1.1600
   83MPD2    H3 1298   4.005   3.234  11.052 -2.1338 -1.4043 -1.7698
   83MPD2     N 1299   4.451   3.307  11.008 -0.2155  0.2119  0.2383
   83MPD2    H5 1300   4.460   3.317  11.109 -0.9633  0.3178  0.2884
   83MPD2    N1 1301   4.135   3.259  10.628  0.6556  0.4327 -0.1812
   83MPD2    H7 1302   4.037   3.242  10.610  1.4450 -0.8565 -3.2996
   84TMC2    C1 1303   0.973   2.569  11.052 -0.3393 -0.4730  0.3318
   84TMC2    C2 1304   0.844   2.534  11.078  0.3888  0.7098  0.3828
   84TMC2    C3 1305   0.792   2.426  11.007 -0.2669 -0.2123 -0.6504
   84TMC2    C4 1306   1.039   2.519  10.941 -1.0437  0.0943 -0.1394
   84TMC2    C5 1307   0.984   2.418  10.873 -0.3925 -0.2857  0.2625
   84TMC2    C6 1308   0.861   2.362  10.901  0.4935 -1.1281  0.0122
   84TMC2     C 1309   1.032   2.681  11.118 -0.2743 -0.4042 -0.0873
   84TMC2     O 1310   0.990   2.698  11.233  0.5671 -0.3019  0.4427
   84TMC2     H 1311   0.806   2.570  11.173  0.9924 -1.3917  1.4320
   84TMC2    H1 1312   1.139   2.552  10.917 -0.7408 -1.9961 -1.7853
   84TMC2    H2 1313   0.820   2.273  10.856 -0.0646  0.6826 -3.1302
   84TMC2    C7 1314   1.071   2.331  10.791  0.6587  0.0472 -0.4101
   84TMC2    C8 1315   0.694   2.347  11.082 -0.2556  0.1636 -0.5206
   84TMC2    O1 1316   1.056   2.210  10.789  0.5863  0.6764  0.3916
   84TMC2    O2 1317   0.662   2.375  11.198 -0.2002 -0.0597 -0.0502
   84TMC2    O5 1318   0.607   2.299  10.991 -0.2242 -0.4394 -0.3512
   84TMC2    H5 1319   0.627   2.311  10.895 -0.9288  1.1146 -0.2903
   85TMC2    C1 1320   2.108   0.840  16.228  0.2873  0.3663 -0.6717
   85TMC2    C2 1321   1.986   0.878  16.179  0.0317  0.3563  0.3195
   85TMC2    C3 1322   1.982   0.993  16.108  0.4988 -0.0173  0.0445
   85TMC2    C4 1323   2.224   0.895  16.199  0.2430  0.4413 -0.4539
   85TMC2    C5 1324   2.218   0.994  16.109 -0.0213 -0.2376 -0.4767
   85TMC2    C6 1325   2.100   1.047  16.061 -0.1981  0.1910  0.4033
   85TMC2     C 1326   2.126   0.726  16.317  0.2371  0.0456  0.1444
   85TMC2     O 1327   2.230   0.719  16.382  0.0777  0.2535  0.2675
   85TMC2     H 1328   1.894   0.841  16.222 -0.4516  1.2782  0.0806
   85TMC2    H1 1329   2.321   0.853  16.222 -0.2636  0.3365  1.4987
   85TMC2    H2 1330   2.094   1.138  16.001 -0.0174  0.6907  1.1434
   85TMC2    C7 1331   2.348   1.035  16.051 -0.3633  1.1122 -0.4707
   85TMC2    C8 1332   1.862   1.064  16.082  0.4568  0.1648  0.2150
   85TMC2    O1 1333   2.450   0.996  16.103  0.4493 -0.3354 -0.2172
   85TMC2    O2 1334   1.860   1.190  16.079 -0.1523 -0.0049  0.1585
   85TMC2    O5 1335   1.757   0.979  16.106 -0.8628 -0.2001  0.1230
   85TMC2    H5 1336   1.779   0.884  16.115 -1.0134 -0.3776 -1.3483
   86MPD2     C 1337   1.960   0.284  16.509 -0.7286 -1.1002  0.1348
   86MPD2    C1 1338   1.879   0.322  16.407  0.3356  0.7738  0.3545
   86MPD2    C2 1339   1.901   0.442  16.354 -0.7668  0.6878 -0.3375
   86MPD2    C3 1340   2.005   0.526  16.385  0.1591 -0.0465 -0.4058
   86MPD2    C4 1341   2.089   0.488  16.483  0.5565  0.1949  0.2543
   86MPD2    C5 1342   2.068   0.370  16.544 -0.5438 -0.0009 -0.1858
   86MPD2     H 1343   1.835   0.472  16.273 -0.9504  3.0982  0.7086
   86MPD2    H1 1344   2.170   0.551  16.521  1.8643 -1.1912 -0.2362
   86MPD2    H2 1345   1.951   0.193  16.566  0.1380 -2.5013 -1.9685
   86MPD2    H3 1346   2.124   0.345  16.634  0.8681  0.4792 -0.9333
   86MPD2     N 1347   2.015   0.646  16.315 -0.1743 -0.2680 -0.4178
   86MPD2    H5 1348   1.944   0.666  16.245  2.5671  0.1555 -3.0934
   86MPD2    N1 1349   1.781   0.238  16.354  0.0300  0.6786 -0.0830
   86MPD2    H7 1350   1.736   0.259  16.266  1.5831  0.4285 -0.9369
   87TMC2    C1 1351   4.046   3.197   1.082 -0.0995 -0.2570 -0.3165
   87TMC2    C2 1352   3.917   3.152   1.102  0.7249  0.6485  0.0135
   87TMC2    C3 1353   3.831   3.240   1.165  0.5691  0.3268 -0.2063
   87TMC2    C4 1354   4.096   3.317   1.119 -0.0769 -0.2585 -0.4587
   87TMC2    C5 1355   4.010   3.396   1.195  0.0947 -0.3296  0.7039
   87TMC2    C6 1356   3.877   3.364   1.218 -0.0727 -0.0697 -0.6993
   87TMC2     C 1357   4.110   3.138   0.964  0.2173  0.4831 -0.5104
   87TMC2     O 1358   4.047   3.065   0.886 -0.2572  0.6707  0.0775
   87TMC2     H 1359   3.892   3.058   1.054 -0.2699  1.0823 -0.2971
   87TMC2    H1 1360   4.187   3.357   1.076  1.6218 -1.6442  1.8225
   87TMC2    H2 1361   3.800   3.426   1.262  0.9405 -0.5900  1.8149
   87TMC2    C7 1362   4.036   3.534   1.210 -0.1070  0.3797 -0.0189
   87TMC2    C8 1363   3.724   3.178   1.237 -0.1618  0.4876 -0.1489
   87TMC2    O1 1364   3.962   3.602   1.279  0.3231 -0.1858 -0.1780
   87TMC2    O2 1365   3.684   3.218   1.345 -0.3001 -0.1663 -0.4010
   87TMC2    O5 1366   3.682   3.064   1.173  0.0893  0.0353 -0.2773
   87TMC2    H5 1367   3.694   3.074   1.076 -0.2830 -1.7414 -0.5088
   88MPD2     C 1368   4.292   3.747   1.075 -0.1533 -0.4733  1.2913
   88MPD2    C1 1369   4.167   3.706   1.095 -0.1220  0.6737 -0.1654
   88MPD2    C2 1370   4.059   3.780   1.053 -0.4813  0.4471 -0.3618
   88MPD2    C3 1371   4.082   3.902   1.004  0.8081 -0.3218  0.4414
   88MPD2    C4 1372   4.204   3.949   0.979  0.7168 -0.1282 -0.2574
   88MPD2    C5 1373   4.307   3.863   1.009 -0.3564 -0.2076 -0.4288
   88MPD2     H 1374   3.960   3.744   1.078 -0.3057 -0.5882 -1.1566
   88MPD2    H1 1375   4.223   4.046   0.933  4.4653 -0.1695  1.1437
   88MPD2    H2 1376   4.381   3.690   1.099  1.1552  0.8135 -0.4806
   88MPD2    H3 1377   4.411   3.886   0.987 -0.3266 -0.4842 -0.5780
   88MPD2     N 1378   3.980   3.999   0.990 -0.0645  0.0055 -0.1432
   88MPD2    H5 1379   4.004   4.098   0.985  0.4555 -0.0997  0.2094
   88MPD2    N1 1380   4.147   3.570   1.142 -0.1589 -0.5716  0.1887
   88MPD2    H7 1381   4.226   3.506   1.145  0.7353  0.6693  3.5001
   89TMC2    C1 1382   0.681   1.627   1.252  0.0001 -0.3152  0.4972
   89TMC2    C2 1383   0.630   1.683   1.374  0.2615  0.0999  1.0569
   89TMC2    C3 1384   0.635   1.821   1.374  0.0593  0.4396 -0.1367
   89TMC2    C4 1385   0.724   1.699   1.143  0.6719  0.6172  0.3456
   89TMC2    C5 1386   0.720   1.831   1.150  0.7480 -0.1369 -0.3236
   89TMC2    C6 1387   0.671   1.894   1.264  0.1988  0.3881  0.9586
   89TMC2     C 1388   0.677   1.483   1.228 -0.3621  0.1868  0.3662
   89TMC2     O 1389   0.743   1.442   1.131 -0.3215  0.1178  0.4915
   89TMC2     H 1390   0.581   1.630   1.455 -1.6056  0.5955  0.2662
   89TMC2    H1 1391   0.740   1.654   1.045 -0.5908  1.7938 -0.4061
   89TMC2    H2 1392   0.661   2.002   1.274 -0.6983  0.4037 -0.2105
   89TMC2    C7 1393   0.726   1.907   1.022 -0.8940 -0.3594 -0.6082
   89TMC2    C8 1394   0.553   1.900   1.471 -0.5669  0.3768  0.7716
   89TMC2    O1 1395   0.807   1.864   0.942  0.0087  0.2376  0.3631
   89TMC2    O2 1396   0.495   2.006   1.454 -0.6328  0.0248 -0.4181
   89TMC2    O5 1397   0.550   1.831   1.587 -0.0676 -0.0783  0.2326
   89TMC2    H5 1398   0.627   1.772   1.603  1.0336  0.7987 -1.7637
   90MPD2     C 1399   0.369   1.065   1.226  0.2722  0.4024  0.2101
   90MPD2    C1 1400   0.323   1.147   1.329  0.9780 -0.0773 -0.1241
   90MPD2    C2 1401   0.398   1.262   1.350  0.0085  0.3442 -0.0532
   90MPD2    C3 1402   0.508   1.295   1.275 -0.1305  0.3270 -0.2352
   90MPD2    C4 1403   0.550   1.209   1.174 -0.6702 -0.0317  0.3737
   90MPD2    C5 1404   0.471   1.099   1.147 -0.1726  0.4285 -0.3641
   90MPD2     H 1405   0.362   1.331   1.426 -1.5404  0.0324 -0.5075
   90MPD2    H1 1406   0.641   1.228   1.118  0.4324  1.3903  2.6382
   90MPD2    H2 1407   0.334   0.968   1.192  0.8565  0.3138 -0.1546
   90MPD2    H3 1408   0.504   1.023   1.076 -0.7012  0.8283 -1.0300
   90MPD2     N 1409   0.566   1.422   1.287  0.0024 -0.2783  0.2901
   90MPD2    H5 1410   0.505   1.488   1.333  0.8485  0.5691  0.2012
   90MPD2    N1 1411   0.204   1.123   1.402 -0.1374 -0.0795  0.2123
   90MPD2    H7 1412   0.184   1.191   1.474 -2.4606 -1.1262  0.5410
   91TMC2    C1 1413   2.002   1.683  16.994 -0.1656  0.2004  0.6265
   91TMC2    C2 1414   2.050   1.738  16.876  0.1884  0.1366 -0.3804
   91TMC2    C3 1415   1.965   1.817  16.795  0.7330  0.0829 -0.0991
   91TMC2    C4 1416   1.870   1.695  17.030 -0.6669  0.0920 -0.1691
   91TMC2    C5 1417   1.793   1.769  16.948 -0.7660 -0.0809 -0.1461
   91TMC2    C6 1418   1.834   1.838  16.833 -0.2183 -0.1585 -0.1809
   91TMC2     C 1419   2.089   1.599  17.083  0.2550 -0.2828 -0.3725
   91TMC2     O 1420   2.035   1.554  17.180  0.0762 -0.1138  0.2948
   91TMC2     H 1421   2.148   1.707  16.842 -0.0783  0.4866 -1.4686
   91TMC2    H1 1422   1.830   1.634  17.109  1.5563 -0.3637  0.6081
   91TMC2    H2 1423   1.762   1.895  16.776  1.2372  1.0543 -0.7975
   91TMC2    C7 1424   1.656   1.735  16.958 -0.2160  0.3375  0.0635
   91TMC2    C8 1425   2.014   1.884  16.672 -0.3445  0.8553  0.0688
   91TMC2    O1 1426   1.615   1.692  17.065 -0.0158  0.1475 -0.5850
   91TMC2    O2 1427   1.940   1.900  16.579 -0.3026  0.0345  0.6788
   91TMC2    O5 1428   2.150   1.869  16.672  0.2885  0.1527  0.0505
   91TMC2    H5 1429   2.176   1.866  16.766  0.5025 -2.8540 -0.1315
   92MPD2     C 1430   2.319   1.461  17.212  0.5114 -0.5687 -0.3243
   92MPD2    C1 1431   2.337   1.560  17.119 -0.0662 -0.4333 -0.4598
   92MPD2    C2 1432   2.459   1.611  17.089  0.5269 -0.5139  0.0228
   92MPD2    C3 1433   2.572   1.547  17.132 -0.4361 -0.0804  0.3049
   92MPD2    C4 1434   2.558   1.432  17.199 -0.3665  0.2292  0.6775
   92MPD2    C5 1435   2.434   1.393  17.246  0.1270  0.0230  0.6262
   92MPD2     H 1436   2.461   1.695  17.021  0.9863 -0.4035  0.1716
   92MPD2    H1 1437   2.645   1.370  17.218  1.1939  1.9586 -0.7596
   92MPD2    H2 1438   2.224   1.427  17.251  0.7111 -0.1830  0.4788
   92MPD2    H3 1439   2.426   1.300  17.301 -1.7786  0.3418  0.8962
   92MPD2     N 1440   2.695   1.599  17.083 -0.0154  0.8780  0.2441
   92MPD2    H5 1441   2.686   1.687  17.033 -1.3635  0.5993  0.0016
   92MPD2    N1 1442   2.223   1.623  17.058 -0.0649  0.0356  0.6308
   92MPD2    H7 1443   2.238   1.686  16.980 -1.4463  1.2676  1.3607
   93TMC2    C1 1444   3.917   1.641  14.012  0.3785 -0.2956  0.2443
   93TMC2    C2 1445   3.813   1.701  14.078  0.1955  0.4338 -0.1463
   93TMC2    C3 1446   3.829   1.837  14.103  1.0182 -0.3084  0.4548
   93TMC2    C4 1447   4.035   1.710  13.983  0.0849 -0.8075 -0.4811
   93TMC2    C5 1448   4.052   1.833  14.042 -0.7306 -0.7354 -0.1766
   93TMC2    C6 1449   3.952   1.902  14.100 -0.5661 -0.0232  0.6546
   93TMC2     C 1450   3.902   1.521  13.936 -0.0401 -0.4822 -0.0086
   93TMC2     O 1451   3.983   1.499  13.846 -0.2123 -0.3886  0.4652
   93TMC2     H 1452   3.718   1.652  14.089  1.3093 -1.7841 -0.3650
   93TMC2    H1 1453   4.116   1.667  13.925  0.7232  0.6177 -0.6306
   93TMC2    H2 1454   3.969   1.997  14.150 -1.8230  0.6613 -0.2211
   93TMC2    C7 1455   4.188   1.885  14.037 -0.9203  0.4197  0.1940
   93TMC2    C8 1456   3.723   1.920  14.169 -0.3047 -0.0530  0.1577
   93TMC2    O1 1457   4.276   1.801  14.024  0.2521  0.6887  0.0291
   93TMC2    O2 1458   3.747   2.016  14.244 -0.2891 -0.3503 -0.1497
   93TMC2    O5 1459   3.598   1.864  14.148 -0.1048  0.1328  0.2188
   93TMC2    H5 1460   3.596   1.794  14.079  1.0877  0.6972 -0.3953
   94MPD2     C 1461   3.776   1.297  13.766  0.0615 -0.4044 -0.8328
   94MPD2    C1 1462   3.716   1.354  13.880  0.5003  0.1617 -0.0026
   94MPD2    C2 1463   3.599   1.301  13.916 -0.3360 -0.3643 -0.0899
   94MPD2    C3 1464   3.538   1.188  13.865 -0.0533  0.3502  0.0406
   94MPD2    C4 1465   3.596   1.126  13.756 -0.7960  0.3431 -0.4817
   94MPD2    C5 1466   3.715   1.176  13.714  0.2570  0.7515  0.0111
   94MPD2     H 1467   3.547   1.357  13.993 -0.8719 -1.1242  0.0938
   94MPD2    H1 1468   3.540   1.053  13.699 -2.2814  0.6635  0.5559
   94MPD2    H2 1469   3.868   1.330  13.720  0.6456 -0.4329  0.3191
   94MPD2    H3 1470   3.765   1.121  13.635  0.6196 -1.3275  1.6854
   94MPD2     N 1471   3.410   1.141  13.906  0.7622 -0.3012  0.4744
   94MPD2    H5 1472   3.378   1.053  13.865  1.1958 -0.3867  0.3262
   94MPD2    N1 1473   3.774   1.467  13.949  0.0920  0.4627 -0.0131
   94MPD2    H7 1474   3.718   1.510  14.022  0.0544 -0.4061  0.4805
   95TMC2    C1 1475   3.756   3.100  16.571 -0.5454 -0.1552 -0.4873
   95TMC2    C2 1476   3.782   2.966  16.587 -0.2027  0.5926 -0.7896
   95TMC2    C3 1477   3.691   2.901  16.669  0.7600  0.4591 -0.8432
   95TMC2    C4 1478   3.643   3.157  16.621  0.3500  0.6972  0.1915
   95TMC2    C5 1479   3.552   3.090  16.697 -1.2139 -0.1138  0.2744
   95TMC2    C6 1480   3.580   2.955  16.728  0.9559  0.1365  0.5227
   95TMC2     C 1481   3.852   3.180  16.502  0.3071  0.5282  0.5569
   95TMC2     O 1482   3.901   3.118  16.409  0.2066  0.0749 -0.2514
   95TMC2     H 1483   3.873   2.917  16.555  1.5032  1.4393  2.8593
   95TMC2    H1 1484   3.613   3.258  16.599 -0.6229  0.5827  0.9931
   95TMC2    H2 1485   3.521   2.880  16.780  2.2274 -0.7700  0.6677
   95TMC2    C7 1486   3.451   3.172  16.755  0.1308 -0.5684 -0.1769
   95TMC2    C8 1487   3.741   2.776  16.725  0.0979 -0.7903 -1.2276
   95TMC2    O1 1488   3.416   3.280  16.709  0.3065 -0.5002  0.3134
   95TMC2    O2 1489   3.658   2.693  16.763  0.3999  0.1257  0.7077
   95TMC2    O5 1490   3.848   2.806  16.795 -0.2127 -0.0803  0.4261
   95TMC2    H5 1491   3.870   2.901  16.780  0.9636 -0.4208  0.0514
   96MPD2     C 1492   4.118   3.595  16.373 -0.2588  0.0980 -0.6097
   96MPD2    C1 1493   4.079   3.483  16.303  0.2333  0.2302  0.5067
   96MPD2    C2 1494   3.998   3.390  16.368  0.0538 -0.7664 -0.3781
   96MPD2    C3 1495   3.950   3.409  16.494  0.6480  0.2971  0.4498
   96MPD2    C4 1496   3.975   3.529  16.560  0.0723  0.1284 -0.4795
   96MPD2    C5 1497   4.054   3.618  16.494  0.0320 -0.0300  0.3531
   96MPD2     H 1498   3.959   3.304  16.314 -0.7637  0.9176 -2.4911
   96MPD2    H1 1499   3.931   3.547  16.658  0.6915 -2.0022  0.1955
   96MPD2    H2 1500   4.182   3.678  16.342  2.8988 -2.5829 -1.2602
   96MPD2    H3 1501   4.082   3.715  16.535 -2.5203  0.9966 -0.3128
   96MPD2     N 1502   3.867   3.309  16.554 -0.3042  0.7806  0.2810
   96MPD2    H5 1503   3.821   3.322  16.643 -1.5684 -1.5558 -0.0228
   96MPD2    N1 1504   4.144   3.464  16.178 -0.1010 -0.5284  0.2501
   96MPD2    H7 1505   4.208   3.532  16.137  0.7939 -2.0556 -0.8644
   97TMC2    C1 1506   0.873   1.404  17.671  0.0567 -0.0012 -0.0394
   97TMC2    C2 1507   0.768   1.480  17.633  0.2089  0.1936  0.3210
   97TMC2    C3 1508   0.788   1.618  17.620 -0.6701 -0.1128  0.4173
   97TMC2    C4 1509   0.993   1.464  17.712 -0.0276  0.3563 -0.6553
   97TMC2    C5 1510   1.006   1.602  17.695  0.1121  0.5034  0.4769
   97TMC2    C6 1511   0.901   1.677  17.651 -0.2452  0.0495  0.2339
   97TMC2     C 1512   0.839   1.269  17.720  0.3204  0.5628 -0.0484
   97TMC2     O 1513   0.722   1.247   0.016 -0.0946 -0.0668  0.1437
   97TMC2     H 1514   0.672   1.430  17.627  1.4178 -2.0346 -0.4990
   97TMC2    H1 1515   1.073   1.403   0.017 -1.3896 -1.1014 -0.1264
   97TMC2    H2 1516   0.905   1.780  17.619 -0.0983  0.8580  2.8573
   97TMC2    C7 1517   1.119   1.675   0.003 -0.0006 -0.0995  0.9134
   97TMC2    C8 1518   0.676   1.699  17.585  0.2294 -0.2796  0.3020
   97TMC2    O1 1519   1.108   1.794   0.004 -0.3651 -0.3969 -0.3679
   97TMC2    O2 1520   0.647   1.746  17.476  0.2778 -0.8604  0.5777
   97TMC2    O5 1521   0.670   1.780  17.698  0.2497  0.1836  0.0368
   97TMC2    H5 1522   0.709   1.727   0.036 -0.3002 -2.4826 -1.6064
   98MPD2     C 1523   0.953   0.760   0.062  0.7934 -0.0373  0.1584
   98MPD2    C1 1524   0.832   0.830   0.049 -0.3526 -0.7840 -0.0708
   98MPD2    C2 1525   0.827   0.965   0.018 -0.2048 -0.2844 -0.3981
   98MPD2    C3 1526   0.947   1.033  17.718 -0.1891  0.5133  0.0897
   98MPD2    C4 1527   1.063   0.964  17.717 -0.0145  0.2773 -0.2650
   98MPD2    C5 1528   1.063   0.825   0.015 -0.5305  0.4832 -0.4436
   98MPD2     H 1529   0.737   1.026   0.022 -1.2990 -1.7589 -2.4539
   98MPD2    H1 1530   1.153   1.015  17.686 -0.1985 -0.9079 -2.8062
   98MPD2    H2 1531   0.965   0.657   0.091 -2.0846 -0.2485  0.6592
   98MPD2    H3 1532   1.161   0.779   0.016 -0.9802 -0.4814 -0.4808
   98MPD2     N 1533   0.951   1.175  17.710  0.3161 -0.1660 -0.0187
   98MPD2    H5 1534   1.040   1.208  17.675 -1.1121  3.0947 -0.5636
   98MPD2    N1 1535   0.725   0.751   0.093 -0.1058  0.1209  0.0068
   98MPD2    H7 1536   0.737   0.650   0.092 -0.3202  0.1158 -2.1707
   99TMC2    C1 1537   0.147   3.022   1.906 -0.7418  0.1953 -0.2467
   99TMC2    C2 1538   0.227   3.037   2.010 -0.2824  0.6517 -0.4615
   99TMC2    C3 1539   0.184   3.014   2.139 -0.1113 -0.5941 -0.2443
   99TMC2    C4 1540   0.017   3.003   1.928  0.4204  0.0592 -0.0325
   99TMC2    C5 1541   4.712   2.964   2.050  0.1107 -0.3771  1.3088
   99TMC2    C6 1542   0.056   2.975   2.159 -0.0121  0.5151  0.3426
   99TMC2     C 1543   0.197   3.029   1.772  0.6648 -1.0035 -0.2130
   99TMC2     O 1544   0.296   3.099   1.752 -0.2042 -0.0422 -0.4126
   99TMC2     H 1545   0.331   3.065   2.003 -0.1723  0.0322 -1.3426
   99TMC2    H1 1546   4.674   2.990   1.852  0.0514 -1.3083  0.5924
   99TMC2    H2 1547   0.029   2.949   2.261 -0.1005 -1.9836 -0.3323
   99TMC2    C7 1548   4.564   2.959   2.075 -0.4572 -0.3291  0.6686
   99TMC2    C8 1549   0.283   2.964   2.237  0.3574  0.3354  0.1832
   99TMC2    O1 1550   4.542   3.026   2.177 -0.0165  0.5955  0.9482
   99TMC2    O2 1551   0.392   2.914   2.211 -0.1016  0.8475  0.5731
   99TMC2    O5 1552   0.233   3.003   2.354 -0.5672 -0.3196 -0.2398
   99TMC2    H5 1553   0.163   3.072   2.356 -0.4292 -0.1682 -0.7033
  100MPD2     C 1554   0.295   2.956   1.516 -0.1421 -0.6460  0.1614
  100MPD2    C1 1555   0.161   2.947   1.546 -0.6086  0.4935 -0.6315
  100MPD2    C2 1556   0.078   2.897   1.443 -0.0206 -0.1477  0.2878
  100MPD2    C3 1557   0.121   2.876   1.318 -0.5929 -0.6408 -0.4244
  100MPD2    C4 1558   0.252   2.909   1.291  0.0543 -0.3268  0.3934
  100MPD2    C5 1559   0.339   2.941   1.388  0.1814  0.1593 -0.7042
  100MPD2     H 1560   4.706   2.879   1.457 -0.0905 -0.0420 -0.1130
  100MPD2    H1 1561   0.279   2.906   1.186 -0.2328  1.4862  0.2705
  100MPD2    H2 1562   0.370   2.983   1.590 -1.9681  1.1630  1.3575
  100MPD2    H3 1563   0.445   2.950   1.370  0.1438 -0.2682 -1.1335
  100MPD2     N 1564   0.034   2.818   1.225 -0.7117 -0.4064  0.0312
  100MPD2    H5 1565   4.673   2.791   1.249 -1.1329 -0.6271 -1.8413
  100MPD2    N1 1566   0.117   2.967   1.680  0.4132 -0.3821  0.1376
  100MPD2    H7 1567   0.034   2.919   1.712  0.3052 -0.6105 -0.4790
  101TMC2    C1 1568   0.474   4.683  12.979  0.1654 -0.0929 -0.2527
  101TMC2    C2 1569   0.402   0.060  13.026 -1.2388 -0.6349 -1.1015
  101TMC2    C3 1570   0.412   0.163  12.939  0.1133  0.4941 -0.1275
  101TMC2    C4 1571   0.552   4.685  12.870 -0.7147  0.1706  0.9336
  101TMC2    C5 1572   0.560   0.062  12.792  0.2485  0.0315  0.1497
  101TMC2    C6 1573   0.480   0.172  12.814 -0.0592 -0.0007  0.0522
  101TMC2     C 1574   0.459   4.558  13.061 -0.3955 -0.3876 -0.4554
  101TMC2     O 1575   0.412   4.570  13.172 -0.5912 -0.4734 -0.8501
  101TMC2     H 1576   0.348   0.054  13.119 -0.1688  0.0061 -0.4342
  101TMC2    H1 1577   0.628   4.611  12.847  0.9461  1.2142  3.0260
  101TMC2    H2 1578   0.487   0.263  12.755  2.4326 -0.8874 -1.0301
  101TMC2    C7 1579   0.661   0.062  12.689 -0.2922  0.5284 -0.7010
  101TMC2    C8 1580   0.337   0.286  12.980 -0.9103 -0.2384 -0.2770
  101TMC2    O1 1581   0.764   4.734  12.717  0.4767 -0.0405 -0.4081
  101TMC2    O2 1582   0.271   0.354  12.902  0.1974  0.3481  0.3655
  101TMC2    O5 1583   0.359   0.305  13.108  0.0724  0.0985  0.4458
  101TMC2    H5 1584   0.427   0.249  13.152 -0.0161  0.3409  0.8900
  102MPD2     C 1585   0.658   4.257  13.029  0.4268 -0.4362 -0.7400
  102MPD2    C1 1586   0.558   4.342  13.080  0.1194  0.1083  0.2042
  102MPD2    C2 1587   0.499   4.301  13.204 -0.1899  0.0206 -0.0034
  102MPD2    C3 1588   0.525   4.179  13.256  0.6864  0.4689  0.5301
  102MPD2    C4 1589   0.618   4.096  13.198 -0.2586  0.6473 -0.4114
  102MPD2    C5 1590   0.690   4.138  13.088  0.6777  0.1526 -0.4005
  102MPD2     H 1591   0.415   4.355  13.246  0.2319 -0.0594  0.9413
  102MPD2    H1 1592   0.642   3.996  13.233  0.0164  1.4229  1.6325
  102MPD2    H2 1593   0.718   4.277  12.941 -0.6588  0.9716 -1.1657
  102MPD2    H3 1594   0.774   4.081  13.051  0.1129 -0.3958 -0.8297
  102MPD2     N 1595   0.440   4.136  13.361  0.0320 -0.2479  0.1202
  102MPD2    H5 1596   0.372   4.196  13.405  2.8574  1.9712  1.4663
  102MPD2    N1 1597   0.531   4.454  13.010 -0.1460 -0.6097 -0.5270
  102MPD2    H7 1598   0.578   4.454  12.920 -2.2206 -0.6803 -1.6087
  103TMC2    C1 1599   3.658   3.720  12.623  0.0264  0.0967  0.1167
  103TMC2    C2 1600   3.775   3.796  12.595  0.0840  0.5780  0.0960
  103TMC2    C3 1601   3.792   3.903  12.677 -0.2026  0.1949  0.4729
  103TMC2    C4 1602   3.581   3.750  12.734 -0.3694  0.6440  0.1964
  103TMC2    C5 1603   3.623   3.840  12.826  0.0347 -0.1741 -0.5608
  103TMC2    C6 1604   3.733   3.919  12.796 -0.9406 -0.5359  0.2615
  103TMC2     C 1605   3.594   3.646  12.512  0.5355  0.1241 -0.0029
  103TMC2     O 1606   3.474   3.651  12.502 -0.2901  0.1367 -0.0750
  103TMC2     H 1607   3.837   3.767  12.511 -0.8822  0.1262 -0.4744
  103TMC2    H1 1608   3.490   3.693  12.744 -0.4497  0.7199 -0.0968
  103TMC2    H2 1609   3.780   3.980  12.872  0.6482 -2.6183  0.9601
  103TMC2    C7 1610   3.578   3.826  12.960  0.2187  0.2738 -0.5335
  103TMC2    C8 1611   3.884   4.008  12.649  0.4405  0.8042  0.2076
  103TMC2    O1 1612   3.660   3.849  13.048 -0.9456 -0.3529  0.4559
  103TMC2    O2 1613   3.962   4.072  12.722  0.3452  0.2997  0.3006
  103TMC2    O5 1614   3.860   4.037  12.519  1.0398  0.3934  0.6937
  103TMC2    H5 1615   3.779   3.996  12.481  1.8664 -1.1701  0.6145
  104MPD2     C 1616   3.727   3.378  12.305  0.5101 -0.1754  0.2007
  104MPD2    C1 1617   3.652   3.486  12.330  0.6404  0.5350  0.1717
  104MPD2    C2 1618   3.537   3.510  12.249 -0.8360  0.1263  0.0579
  104MPD2    C3 1619   3.493   3.420  12.158 -0.1062 -0.5584  0.1044
  104MPD2    C4 1620   3.566   3.300  12.147  1.0698  0.7050  0.0959
  104MPD2    C5 1621   3.676   3.281  12.222 -0.1184  0.4905  0.7232
  104MPD2     H 1622   3.477   3.598  12.273 -0.1720  0.7973 -0.7144
  104MPD2    H1 1623   3.543   3.229  12.068  0.4712 -1.9707  2.6898
  104MPD2    H2 1624   3.804   3.338  12.369 -0.3140  1.4190  2.1879
  104MPD2    H3 1625   3.735   3.190  12.216 -0.9905 -0.1326  1.5494
  104MPD2     N 1626   3.374   3.444  12.081  0.0302  0.1732 -0.3649
  104MPD2    H5 1627   3.334   3.536  12.098 -0.4410  0.3015 -2.1838
  104MPD2    N1 1628   3.683   3.567  12.439  0.6850 -0.6577 -0.0020
  104MPD2    H7 1629   3.771   3.546  12.486  1.6463  1.4997 -0.8223
  105TMC2    C1 1630   4.314   2.724   0.168 -0.4168  0.3051  0.0289
  105TMC2    C2 1631   4.179   2.723   0.166 -0.4627  0.5073  1.3533
  105TMC2    C3 1632   4.112   2.821   0.244  0.7704  0.0754  0.0970
  105TMC2    C4 1633   4.381   2.828   0.236 -0.5130 -0.4138  0.1684
  105TMC2    C5 1634   4.312   2.925   0.311  0.0696  0.3992  0.2389
  105TMC2    C6 1635   4.170   2.926   0.311  0.3142 -0.1282 -0.1107
  105TMC2     C 1636   4.376   2.669   0.053 -0.1830  0.9926  0.2614
  105TMC2     O 1637   4.314   2.580  17.728  0.4677  0.5331  0.1362
  105TMC2     H 1638   4.136   2.633   0.123  2.5957  0.8248 -2.3534
  105TMC2    H1 1639   4.489   2.840   0.236 -0.6243  0.6333  0.2400
  105TMC2    H2 1640   4.117   3.000   0.370  4.2131  2.1360  0.5347
  105TMC2    C7 1641   4.393   2.997   0.409  0.1260 -0.1314  0.1192
  105TMC2    C8 1642   3.966   2.827   0.246  0.0965  0.2163 -0.0072
  105TMC2    O1 1643   4.514   3.009   0.395 -0.3733  0.2177 -0.4106
  105TMC2    O2 1644   3.913   2.876   0.345  0.9109 -0.0598 -1.0487
  105TMC2    O5 1645   3.919   2.712   0.187 -0.0013 -0.3359 -0.1206
  105TMC2    H5 1646   3.969   2.689   0.106 -0.0503 -1.1436  0.0832
  106MPD2     C 1647   4.718   2.729  17.412 -0.3616 -0.0359  0.1433
  106MPD2    C1 1648   4.725   2.830  17.501 -0.0648  0.4160  0.0509
  106MPD2    C2 1649   4.652   2.833  17.610 -0.6510  0.2941  0.2175
  106MPD2    C3 1650   4.552   2.734  17.627 -0.5424 -0.0797 -0.2416
  106MPD2    C4 1651   4.542   2.627  17.535 -0.4078  0.2008  0.8310
  106MPD2    C5 1652   4.623   2.629  17.431 -0.3978  0.1491  0.1809
  106MPD2     H 1653   4.652   2.920  17.676 -2.2671  1.2911 -1.1017
  106MPD2    H1 1654   4.472   2.544  17.541 -0.2012  0.0169  0.6921
  106MPD2    H2 1655   0.031   2.731  17.314 -2.1748 -4.1162 -0.7985
  106MPD2    H3 1656   4.604   2.557  17.352  0.8213  0.3608 -0.3143
  106MPD2     N 1657   4.476   2.747   0.012  0.1467 -0.1170 -0.5396
  106MPD2    H5 1658   4.481   2.839   0.055 -0.0507 -0.6529  0.6309
  106MPD2    N1 1659   0.075   2.944  17.482  0.2189  0.4223 -0.0040
  106MPD2    H7 1660   0.068   3.014  17.555  0.5131  1.5361 -1.0546
  107TMC2    C1 1661   0.999   3.225  11.710 -0.1420 -0.4880 -0.2823
  107TMC2    C2 1662   1.069   3.318  11.791 -0.8671 -0.5005  0.0153
  107TMC2    C3 1663   1.166   3.384  11.731  0.1562 -0.4693 -0.0069
  107TMC2    C4 1664   1.021   3.206  11.578  0.4525 -0.2382  0.6481
  107TMC2    C5 1665   1.124   3.283  11.523 -0.0471  0.1648 -0.5778
  107TMC2    C6 1666   1.195   3.371  11.596 -0.5322 -0.6471 -0.3589
  107TMC2     C 1667   0.873   3.184  11.763 -0.5988 -0.2852 -0.6746
  107TMC2     O 1668   0.852   3.219  11.881 -0.8104 -0.1084  0.0507
  107TMC2     H 1669   1.042   3.334  11.895 -0.6440  1.0104 -0.1519
  107TMC2    H1 1670   0.966   3.128  11.526  0.7647 -0.3415  0.4713
  107TMC2    H2 1671   1.275   3.428  11.549 -0.1749 -0.5474  0.3787
  107TMC2    C7 1672   1.151   3.266  11.385 -0.6681 -0.5958 -0.0929
  107TMC2    C8 1673   1.209   3.508  11.791  0.0421 -0.2717  0.4517
  107TMC2    O1 1674   1.212   3.354  11.325 -0.1096 -0.1096 -0.1631
  107TMC2    O2 1675   1.200   3.617  11.731 -0.3041 -0.3534 -0.6241
  107TMC2    O5 1676   1.228   3.481  11.920  0.1229  0.4854  0.2219
  107TMC2    H5 1677   1.263   3.389  11.926 -1.5519 -0.2018 -0.5837
  108MPD2     C 1678   0.568   3.032  11.608  0.1273  0.5942 -0.1365
  108MPD2    C1 1679   0.642   3.094  11.705  0.0084  0.0461  0.1589
  108MPD2    C2 1680   0.578   3.133  11.824 -0.1209  0.3850 -0.4347
  108MPD2    C3 1681   0.441   3.116  11.849  0.4837 -1.1116  0.0731
  108MPD2    C4 1682   0.374   3.046  11.744 -0.0279  0.2345  0.3076
  108MPD2    C5 1683   0.436   3.008  11.629  0.4050 -0.0413 -0.4574
  108MPD2     H 1684   0.637   3.189  11.896  1.5018 -0.6294 -0.9463
  108MPD2    H1 1685   0.267   3.034  11.745 -0.3829  3.1037 -1.1318
  108MPD2    H2 1686   0.605   2.997  11.512 -0.0931  1.1039 -0.4047
  108MPD2    H3 1687   0.375   2.962  11.552 -0.9932  0.8939  0.1044
  108MPD2     N 1688   0.373   3.133  11.969 -0.0939  0.2913  0.0183
  108MPD2    H5 1689   0.282   3.090  11.975  0.2149 -0.0202  2.8593
  108MPD2    N1 1690   0.779   3.122  11.684 -0.2197  0.2417 -0.0837
  108MPD2    H7 1691   0.823   3.089  11.598  2.0504 -0.4960  1.3448
  109TMC2    C1 1692   4.720   4.414   0.075 -0.1928 -0.0164 -0.6392
  109TMC2    C2 1693   4.723   4.368  17.681 -0.2182 -0.5602  0.4790
  109TMC2    C3 1694   0.113   4.358  17.624  0.1589 -0.4311 -0.2528
  109TMC2    C4 1695   0.100   4.452   0.140  0.6125 -0.2165 -0.2437
  109TMC2    C5 1696   0.220   4.452   0.077 -0.1005 -0.3359  0.2046
  109TMC2    C6 1697   0.229   4.403  17.683 -0.3378  1.0061 -0.1507
  109TMC2     C 1698   4.584   4.440   0.131 -0.0952 -0.1113 -0.2762
  109TMC2     O 1699   4.496   4.448   0.046  0.2393 -0.2822 -0.1176
  109TMC2     H 1700   4.630   4.351  17.629 -0.9442  0.7740  1.3412
  109TMC2    H1 1701   0.081   4.499   0.237  1.4685  0.5251 -0.4341
  109TMC2    H2 1702   0.326   4.386  17.639 -0.0666  1.3405  0.3164
  109TMC2    C7 1703   0.317   4.545   0.135 -0.7923  0.5264 -0.0433
  109TMC2    C8 1704   0.109   4.343  17.475 -0.0407  0.3970  0.2654
  109TMC2    O1 1705   0.277   4.619   0.228 -0.3539 -0.6844 -0.6210
  109TMC2    O2 1706   0.025   4.281  17.413  0.0571 -0.2114 -0.2546
  109TMC2    O5 1707   0.204   4.415  17.412 -1.0478  0.1083 -0.3907
  109TMC2    H5 1708   0.243   4.483  17.470 -0.5096 -0.2150 -0.3743
  110MPD2     C 1709   4.231   4.457   0.489 -0.1065  0.2985  0.4384
  110MPD2    C1 1710   4.351   4.454   0.554  0.8031 -0.5339 -0.4630
  110MPD2    C2 1711   4.461   4.480   0.473 -0.2603 -0.5931  0.5942
  110MPD2    C3 1712   4.456   4.454   0.338 -0.3241  0.0802  0.2397
  110MPD2    C4 1713   4.330   4.425   0.283 -0.2645  0.0947  0.8787
  110MPD2    C5 1714   4.222   4.439   0.359  0.3041 -0.2560  0.1904
  110MPD2     H 1715   4.563   4.483   0.509 -1.1085  0.1851  2.9354
  110MPD2    H1 1716   4.327   4.397   0.178  0.0346  0.8465  0.6680
  110MPD2    H2 1717   4.138   4.456   0.544 -0.3780  1.7514  0.0011
  110MPD2    H3 1718   4.120   4.420   0.328  0.6291  1.6784 -2.0390
  110MPD2     N 1719   4.578   4.453   0.268  0.0350 -0.0583 -0.0388
  110MPD2    H5 1720   4.657   4.467   0.330  1.1525 -1.4446 -1.1749
  110MPD2    N1 1721   4.344   4.452   0.695  1.0407  0.6162  0.7849
  110MPD2    H7 1722   4.256   4.438   0.744  1.5193 -0.2781  1.3690
  111TMC2    C1 1723   0.604   4.137  11.435  0.5228  0.0842  0.7481
  111TMC2    C2 1724   0.470   4.153  11.484 -0.2619 -0.0697  0.6875
  111TMC2    C3 1725   0.448   4.238  11.595  0.2673  0.6338  0.1800
  111TMC2    C4 1726   0.703   4.221  11.485 -0.2170  0.1788 -0.0064
  111TMC2    C5 1727   0.675   4.291  11.600  0.5490  0.1681  0.3101
  111TMC2    C6 1728   0.551   4.304  11.660 -0.6604  0.1043  0.2688
  111TMC2     C 1729   0.622   4.084  11.297 -0.2681 -0.2146 -0.4140
  111TMC2     O 1730   0.708   4.139  11.222  0.2554 -1.1725 -0.5805
  111TMC2     H 1731   0.385   4.110  11.433  0.7418 -0.7342 -0.4381
  111TMC2    H1 1732   0.802   4.216  11.440 -0.6699  1.1616 -1.0695
  111TMC2    H2 1733   0.538   4.369  11.745 -0.7579  0.4218  0.0130
  111TMC2    C7 1734   0.793   4.357  11.673  0.0628 -0.1609 -0.6572
  111TMC2    C8 1735   0.310   4.257  11.643  0.0048 -0.1942 -0.0853
  111TMC2    O1 1736   0.800   4.353  11.794 -0.4510 -0.2444 -0.3257
  111TMC2    O2 1737   0.221   4.223  11.567  0.5257  0.7899 -0.1679
  111TMC2    O5 1738   0.306   4.252  11.775 -0.3264  0.6590 -0.4043
  111TMC2    H5 1739   0.393   4.256  11.820  0.1315  1.4646 -1.3767
  112MPD2     C 1740   0.632   3.723  10.954 -0.6804  0.2345 -0.0555
  112MPD2    C1 1741   0.732   3.800  11.008  0.1676  0.4277  0.6310
  112MPD2    C2 1742   0.701   3.878  11.108  0.3042  0.7151  0.3371
  112MPD2    C3 1743   0.569   3.892  11.165 -0.6599 -0.2141  0.0745
  112MPD2    C4 1744   0.474   3.808  11.115 -0.8681 -0.2185  0.5644
  112MPD2    C5 1745   0.508   3.724  11.016  0.6783  0.7225  0.4058
  112MPD2     H 1746   0.784   3.937  11.144  0.3619 -0.2279  1.7799
  112MPD2    H1 1747   0.370   3.808  11.146 -0.5323 -3.5025  1.7201
  112MPD2    H2 1748   0.635   3.666  10.862  0.1068 -0.3589  0.3324
  112MPD2    H3 1749   0.426   3.660  10.985  1.1823  0.5543 -0.5585
  112MPD2     N 1750   0.533   3.986  11.260  0.1861 -0.1075 -0.6433
  112MPD2    H5 1751   0.454   3.962  11.319 -0.2123 -1.2436 -1.6579
  112MPD2    N1 1752   0.862   3.816  10.953  0.0572  0.7482  0.2465
  112MPD2    H7 1753   0.926   3.884  10.993  2.7657 -0.1693 -2.5072
  113TMC2    C1 1754   3.379   2.610   0.824  0.9681 -0.0768  0.3997
  113TMC2    C2 1755   3.280   2.701   0.786 -0.5090 -0.6220  0.3339
  113TMC2    C3 1756   3.179   2.649   0.712 -0.4888  0.6132 -0.1464
  113TMC2    C4 1757   3.372   2.472   0.794 -0.1565 -0.4216  1.1359
  113TMC2    C5 1758   3.265   2.430   0.727  0.1425 -0.2928  0.4418
  113TMC2    C6 1759   3.160   2.513   0.688 -0.4764 -0.6029  0.5262
  113TMC2     C 1760   3.481   2.664   0.917  0.0064 -0.2029  0.5052
  113TMC2     O 1761   3.461   2.774   0.959 -0.0757  0.2718  0.2351
  113TMC2     H 1762   3.278   2.804   0.818  0.1278 -0.4976 -0.0337
  113TMC2    H1 1763   3.443   2.401   0.835 -0.9448 -2.5467 -1.1958
  113TMC2    H2 1764   3.069   2.480   0.640  1.0927 -2.2997 -1.3242
  113TMC2    C7 1765   3.234   2.289   0.721 -0.5615 -0.6325  0.5422
  113TMC2    C8 1766   3.064   2.738   0.684 -0.0719  0.4637  0.4370
  113TMC2    O1 1767   3.184   2.243   0.621 -0.5198  0.2132 -0.3034
  113TMC2    O2 1768   3.012   2.806   0.770 -0.2032  0.1767  0.0608
  113TMC2    O5 1769   3.031   2.725   0.550  0.0097  0.1210 -0.3809
  113TMC2    H5 1770   3.097   2.678   0.495 -0.0695 -1.0802  0.5617
  114MPD2     C 1771   3.924   2.632   1.201  0.2155 -0.3328 -0.3896
  114MPD2    C1 1772   3.827   2.740   1.210 -0.8509 -0.1098 -0.2377
  114MPD2    C2 1773   3.720   2.731   1.119  0.5543 -0.2766  0.2527
  114MPD2    C3 1774   3.702   2.619   1.027 -0.6132 -0.2847  0.2339
  114MPD2    C4 1775   3.805   2.526   1.026 -0.3708  0.8105  0.0440
  114MPD2    C5 1776   3.911   2.539   1.110  0.0007 -0.0462  0.3723
  114MPD2     H 1777   3.635   2.795   1.139 -0.4787 -1.9800  1.3332
  114MPD2    H1 1778   3.804   2.452   0.946  0.8966 -0.3864  1.1368
  114MPD2    H2 1779   4.005   2.628   1.273  0.1965 -2.1522 -0.4918
  114MPD2    H3 1780   3.993   2.470   1.096 -0.2317  0.1538 -2.0009
  114MPD2     N 1781   3.588   2.588   0.948  0.3380  0.1942 -0.7462
  114MPD2    H5 1782   3.589   2.499   0.899 -0.8364 -0.1209 -0.1944
  114MPD2    N1 1783   3.824   2.840   1.313  0.0591 -0.1479  0.2172
  114MPD2    H7 1784   3.745   2.901   1.324  1.5992  1.5608  1.7576
  115TMC2    C1 1785   4.116   0.679  17.252  0.0044  0.2072  0.5745
  115TMC2    C2 1786   4.055   0.699  17.132 -0.1926  0.7786 -0.0754
  115TMC2    C3 1787   4.055   0.827  17.082 -0.4106 -0.3828 -0.1617
  115TMC2    C4 1788   4.177   0.786  17.320  0.7193  0.6984  0.0559
  115TMC2    C5 1789   4.175   0.909  17.265  0.0461  0.0707 -0.3216
  115TMC2    C6 1790   4.110   0.938  17.144  0.5184  1.0885 -0.3892
  115TMC2     C 1791   4.153   0.541  17.298 -0.0350  0.3526 -0.5091
  115TMC2     O 1792   4.093   0.449  17.245  0.1548 -0.3831  0.5476
  115TMC2     H 1793   4.011   0.614  17.081 -0.1832  0.9341 -0.3423
  115TMC2    H1 1794   4.223   0.771  17.417 -1.0967 -0.6956  0.6985
  115TMC2    H2 1795   4.117   1.034  17.095 -0.2010  1.1441 -0.3822
  115TMC2    C7 1796   4.236   1.016  17.346 -0.2517  0.2921 -0.4432
  115TMC2    C8 1797   3.978   0.850  16.968 -0.3291 -0.2990  0.2856
  115TMC2    O1 1798   4.273   0.993  17.462 -0.2221 -0.5414 -0.5598
  115TMC2    O2 1799   3.900   0.944  16.970  0.9523 -0.6276  0.8963
  115TMC2    O5 1800   4.063   0.829  16.870 -0.5417 -0.4544  0.1982
  115TMC2    H5 1801   4.130   0.761  16.892 -1.1382 -0.7490  1.1007
  116MPD2     C 1802   4.345   0.182  17.606  0.2667 -0.3419  0.1101
  116MPD2    C1 1803   4.263   0.172  17.499 -0.0107 -0.2802  0.7263
  116MPD2    C2 1804   4.214   0.285  17.438  0.1693 -0.3571 -0.5407
  116MPD2    C3 1805   4.256   0.412  17.478 -0.0074  0.6739 -0.7706
  116MPD2    C4 1806   4.349   0.421  17.582  0.6419  0.3390 -0.2510
  116MPD2    C5 1807   4.386   0.307  17.645 -0.0862 -0.3376 -0.1415
  116MPD2     H 1808   4.129   0.278  17.372  0.8458  0.5056 -1.4949
  116MPD2    H1 1809   4.386   0.519  17.609  1.2453  0.2367 -0.6846
  116MPD2    H2 1810   4.387   0.098  17.660  0.8649  0.8680  1.5227
  116MPD2    H3 1811   4.457   0.312  17.727 -1.1294 -2.0205  0.8657
  116MPD2     N 1812   4.235   0.530  17.415 -0.4981  0.1989 -0.1406
  116MPD2    H5 1813   4.289   0.612  17.438 -0.8427  0.4069 -0.0865
  116MPD2    N1 1814   4.232   0.038  17.469  0.6364  0.3836  0.2315
  116MPD2    H7 1815   4.274   4.697  17.524  0.6976  1.3900  1.5459
  117TMC2    C1 1816   3.083   1.572  13.842 -0.3290  0.1663 -0.9852
  117TMC2    C2 1817   3.209   1.545  13.890  0.5337 -0.8263 -0.7847
  117TMC2    C3 1818   3.315   1.631  13.867 -0.0323  0.3464 -0.2169
  117TMC2    C4 1819   3.070   1.692  13.773 -0.1527  0.1780  0.8029
  117TMC2    C5 1820   3.166   1.786  13.764  0.2870 -0.0715 -0.4399
  117TMC2    C6 1821   3.298   1.756  13.800 -0.8233 -0.0836  0.0097
  117TMC2     C 1822   2.985   1.570  13.954 -0.2937  0.0568  0.0962
  117TMC2     O 1823   3.039   1.571  14.064  0.2820  0.0595 -0.2425
  117TMC2     H 1824   3.213   1.454  13.948  1.7721 -0.9410 -1.0477
  117TMC2    H1 1825   2.981   1.725  13.721  0.0106  0.1337  0.4979
  117TMC2    H2 1826   3.372   1.835  13.792 -0.5395 -0.3325  0.1895
  117TMC2    C7 1827   3.138   1.926  13.790 -0.2044  0.1775  0.1814
  117TMC2    C8 1828   3.399   1.639  13.986 -0.7295 -0.7022 -0.2024
  117TMC2    O1 1829   3.214   2.015  13.747 -0.1081 -0.6197 -0.2817
  117TMC2    O2 1830   3.513   1.687  13.985  0.1394 -0.1704  1.1211
  117TMC2    O5 1831   3.308   1.652  14.088 -0.4169 -0.5279 -0.4152
  117TMC2    H5 1832   3.218   1.627  14.059 -0.8450  0.5491  0.0100
  118MPD2     C 1833   2.896   2.021  14.050  0.2827  0.1303  0.1255
  118MPD2    C1 1834   2.996   2.039  13.957 -0.0430  0.9166  0.0588
  118MPD2    C2 1835   3.035   2.170  13.927  0.5443 -0.2789 -0.2318
  118MPD2    C3 1836   2.972   2.276  13.986 -0.0104 -0.1055  0.1853
  118MPD2    C4 1837   2.874   2.257  14.082  0.2004 -0.0669  0.4197
  118MPD2    C5 1838   2.842   2.126  14.112 -0.3424  0.0107  0.1083
  118MPD2     H 1839   3.113   2.191  13.856  0.3083  0.7538 -0.1856
  118MPD2    H1 1840   2.840   2.346  14.136  0.4136  0.3617 -0.1539
  118MPD2    H2 1841   2.877   1.919  14.082 -0.4980  0.3942  0.4992
  118MPD2    H3 1842   2.769   2.107  14.190 -2.0806  0.8553 -1.2985
  118MPD2     N 1843   3.005   2.413  13.963 -0.4970 -0.1157 -0.4073
  118MPD2    H5 1844   2.948   2.482  14.011 -2.1715 -0.4821 -1.8816
  118MPD2    N1 1845   3.046   1.923  13.890  0.0418  0.2671 -0.3185
  118MPD2    H7 1846   3.000   1.835  13.911  0.4284  0.3489  0.8676
  119TMC2    C1 1847   1.772   3.117  13.335  0.1364 -0.4905  0.7999
  119TMC2    C2 1848   1.873   3.033  13.386 -0.2249  0.0129 -0.6910
  119TMC2    C3 1849   1.843   2.899  13.392 -0.1442 -0.4398 -0.7138
  119TMC2    C4 1850   1.653   3.068  13.281  0.4989  0.2487 -0.2270
  119TMC2    C5 1851   1.633   2.927  13.298 -0.4774 -0.1278 -0.4317
  119TMC2    C6 1852   1.725   2.842  13.352 -0.0395 -0.0161  0.2051
  119TMC2     C 1853   1.781   3.263  13.332 -0.9971 -0.1932  0.1880
  119TMC2     O 1854   1.673   3.316  13.320  0.3720  0.9198  0.3000
  119TMC2     H 1855   1.962   3.084  13.423 -0.4650  0.2416 -0.4263
  119TMC2    H1 1856   1.587   3.136  13.228 -0.5529 -0.0529  0.7047
  119TMC2    H2 1857   1.698   2.739  13.373 -0.0056  0.1127  0.8791
  119TMC2    C7 1858   1.494   2.879  13.314  0.4349 -0.2006 -0.1217
  119TMC2    C8 1859   1.928   2.809  13.463 -0.5310  0.1035  0.4526
  119TMC2    O1 1860   1.477   2.760  13.291 -0.3709  0.1462  0.6564
  119TMC2    O2 1861   1.883   2.729  13.542  0.1284  0.4186  0.3211
  119TMC2    O5 1862   2.054   2.860  13.463  0.0649 -0.5421  0.4031
  119TMC2    H5 1863   2.061   2.925  13.389 -1.1826 -1.8839 -0.8891
  120MPD2     C 1864   2.013   3.716  13.376  0.2008  0.1538  0.4807
  120MPD2    C1 1865   1.881   3.675  13.401  0.1472  0.1674 -0.5101
  120MPD2    C2 1866   1.848   3.543  13.390  0.5950  0.0383  0.6552
  120MPD2    C3 1867   1.940   3.449  13.357  0.6873  0.1195 -0.0601
  120MPD2    C4 1868   2.070   3.486  13.338  0.5603  0.5272 -0.4370
  120MPD2    C5 1869   2.109   3.617  13.345 -0.3190 -0.0468 -0.0838
  120MPD2     H 1870   1.744   3.512  13.399  0.8576 -0.7402  0.9861
  120MPD2    H1 1871   2.146   3.416  13.304  0.0613 -0.4542  0.4472
  120MPD2    H2 1872   2.040   3.821  13.377 -0.9509  0.4379  1.6231
  120MPD2    H3 1873   2.210   3.645  13.317 -1.3801  2.8207 -1.0478
  120MPD2     N 1874   1.911   3.312  13.351  0.2330 -0.4380 -0.3243
  120MPD2    H5 1875   1.989   3.249  13.333  1.2397  0.9209 -0.6705
  120MPD2    N1 1876   1.785   3.768  13.454 -0.6100 -0.2245 -0.1598
  120MPD2    H7 1877   1.823   3.849  13.501  1.0965 -1.0951 -0.0317
  121TMC2    C1 1878   2.972   4.507  13.947 -0.0735  0.2791 -0.4827
  121TMC2    C2 1879   3.103   4.545  13.942 -0.1303 -0.4493 -0.3976
  121TMC2    C3 1880   3.165   4.564  14.062  0.7577 -0.2356  0.3503
  121TMC2    C4 1881   2.893   4.528  14.061 -0.2004 -0.5239  0.2745
  121TMC2    C5 1882   2.962   4.548  14.179 -0.9599 -0.3294 -0.1381
  121TMC2    C6 1883   3.098   4.556  14.179  0.0120 -0.3351 -1.1036
  121TMC2     C 1884   2.901   4.488  13.821 -0.5481  0.2042  0.3545
  121TMC2     O 1885   2.813   4.403  13.826 -0.2400 -0.7704 -0.0992
  121TMC2     H 1886   3.155   4.548  13.847  0.3830  0.5492 -0.0891
  121TMC2    H1 1887   2.785   4.521  14.052 -0.3098 -0.3720  1.5069
  121TMC2    H2 1888   3.156   4.587  14.266 -0.3297  0.2284 -1.0711
  121TMC2    C7 1889   2.899   4.584  14.306 -0.1981 -0.0317  0.3285
  121TMC2    C8 1890   3.303   4.603  14.062  0.8074 -0.6547  0.4769
  121TMC2    O1 1891   2.979   4.583  14.398 -0.1456  0.3266 -0.4993
  121TMC2    O2 1892   3.366   4.650  13.967 -0.1668 -0.0397  0.4352
  121TMC2    O5 1893   3.365   4.528  14.155 -0.3976  0.3169 -0.3848
  121TMC2    H5 1894   3.307   4.478  14.215 -0.6316  0.9170 -0.1080
  122MPD2     C 1895   2.770   4.546  13.561 -0.2799 -0.6164 -0.1769
  122MPD2    C1 1896   2.880   4.619  13.611 -0.0844  0.0531 -0.1255
  122MPD2    C2 1897   2.939   4.724  13.539  0.9459 -0.0756 -0.0503
  122MPD2    C3 1898   2.900   0.013  13.412  0.3504  0.6054 -0.3584
  122MPD2    C4 1899   2.795   4.670  13.356  0.3005 -0.6503  0.4237
  122MPD2    C5 1900   2.733   4.572  13.432  0.5085  0.1133  0.4842
  122MPD2     H 1901   3.028   0.039  13.577 -1.0081  3.1428  0.4125
  122MPD2    H1 1902   2.766   4.678  13.252 -0.7513 -0.5622  0.7269
  122MPD2    H2 1903   2.726   4.466  13.620 -0.5533  0.6105  1.2871
  122MPD2    H3 1904   2.663   4.505  13.385  1.9842 -1.3588  0.4156
  122MPD2     N 1905   2.971   0.107  13.325  0.3888 -0.2650  0.0043
  122MPD2    H5 1906   2.955   0.105  13.225  2.1060  3.4042 -0.3256
  122MPD2    N1 1907   2.942   4.583  13.734 -0.3078  0.0178  0.4563
  122MPD2    H7 1908   3.017   4.640  13.772 -0.5437 -0.2769  1.3573
  123TMC2    C1 1909   2.037   2.814   9.430 -0.5749 -0.0722  0.4718
  123TMC2    C2 1910   2.137   2.905   9.440  1.1038 -0.1741 -0.4286
  123TMC2    C3 1911   2.132   3.012   9.360 -0.3182 -0.3765  0.0681
  123TMC2    C4 1912   1.936   2.837   9.336 -0.4216 -1.3105 -0.2310
  123TMC2    C5 1913   1.923   2.961   9.279  0.7746 -0.8168  0.4352
  123TMC2    C6 1914   2.027   3.045   9.275 -0.8813 -0.2288 -0.1818
  123TMC2     C 1915   2.020   2.724   9.539  0.3019  0.5985 -0.6063
  123TMC2     O 1916   2.115   2.700   9.612  0.1388 -0.7275  0.1668
  123TMC2     H 1917   2.215   2.893   9.515  0.3561 -2.7694 -0.0641
  123TMC2    H1 1918   1.857   2.764   9.320 -1.1006 -0.5739 -0.2124
  123TMC2    H2 1919   2.021   3.140   9.223 -1.6857 -1.2439 -1.9414
  123TMC2    C7 1920   1.792   3.023   9.301 -0.5208 -0.0275  0.2466
  123TMC2    C8 1921   2.252   3.096   9.344 -0.2628 -0.1198  0.0522
  123TMC2    O1 1922   1.713   2.946   9.357 -0.2463 -0.3026  0.0374
  123TMC2    O2 1923   2.238   3.199   9.285 -0.9394 -0.3232  0.1089
  123TMC2    O5 1924   2.356   3.006   9.337 -0.4373  0.5680  0.1784
  123TMC2    H5 1925   2.333   2.912   9.352  1.8894  0.0978  0.7978
  124MPD2     C 1926   1.699   2.492   9.870 -0.4819  0.3495  0.3235
  124MPD2    C1 1927   1.620   2.560   9.779 -0.5642  1.2618  0.6567
  124MPD2    C2 1928   1.691   2.619   9.670  0.4888  0.3913 -0.1649
  124MPD2    C3 1929   1.831   2.620   9.660  0.3616  0.0213  0.4605
  124MPD2    C4 1930   1.908   2.551   9.751 -0.0158 -0.3514  0.3407
  124MPD2    C5 1931   1.837   2.492   9.854 -0.1633 -0.4209 -0.0175
  124MPD2     H 1932   1.634   2.683   9.603  0.2284 -0.0591 -0.3766
  124MPD2    H1 1933   2.015   2.536   9.739  0.3024  2.2225  0.1493
  124MPD2    H2 1934   1.665   2.447   9.962 -1.2831 -2.3771 -1.3103
  124MPD2    H3 1935   1.895   2.437   9.927  2.7045 -0.3428 -2.2300
  124MPD2     N 1936   1.886   2.687   9.551 -0.0239 -0.0895  0.5672
  124MPD2    H5 1937   1.821   2.736   9.490 -0.1396 -3.3446 -1.9184
  124MPD2    N1 1938   1.482   2.576   9.805 -0.1766 -0.0103  0.3916
  124MPD2    H7 1939   1.449   2.533   9.890  0.4044 -3.0069 -0.9152
  125TMC2    C1 1940   1.936   0.140  10.232 -0.8981 -0.1706  0.0242
  125TMC2    C2 1941   1.845   0.210  10.304  0.0389 -0.3774  0.1468
  125TMC2    C3 1942   1.873   0.335  10.334 -0.0760  0.6143 -0.1107
  125TMC2    C4 1943   2.055   0.196  10.190 -0.6052 -0.1156  0.6014
  125TMC2    C5 1944   2.080   0.326  10.223  0.4707  0.1330  0.0476
  125TMC2    C6 1945   1.994   0.404  10.299  0.5900 -0.1588  0.7137
  125TMC2     C 1946   1.923   4.732  10.218 -0.8823  0.1281  0.3098
  125TMC2     O 1947   1.858   4.677  10.308  0.1864 -0.2089  0.2740
  125TMC2     H 1948   1.754   0.162  10.337  0.3423 -1.2717 -0.3315
  125TMC2    H1 1949   2.138   0.145  10.143  0.2871  1.9194  0.0145
  125TMC2    H2 1950   2.027   0.503  10.329  1.5539 -0.4196  0.5250
  125TMC2    C7 1951   2.206   0.380  10.170  0.0230  0.9494  0.1557
  125TMC2    C8 1952   1.800   0.386  10.447  0.3883  0.0766  0.1179
  125TMC2    O1 1953   2.265   0.447  10.253  0.2835 -0.2253 -0.0118
  125TMC2    O2 1954   1.735   0.318  10.524 -0.1401  0.1043  0.3106
  125TMC2    O5 1955   1.835   0.511  10.458  0.3417  0.5201  0.3182
  125TMC2    H5 1956   1.850   0.554  10.372  1.1640  0.0133  0.2002
  126MPD1     C 1957   1.994   4.329   9.907 -0.3701  0.0823 -0.4756
  126MPD1    C1 1958   2.025   4.443   9.841  0.4910 -0.1651  0.6294
  126MPD1    C2 1959   2.035   4.559   9.912  0.1476 -0.6357 -0.2794
  126MPD1    C3 1960   1.988   4.569  10.040 -0.2624 -0.2482  0.1891
  126MPD1    C4 1961   1.939   4.457  10.104 -0.2910  0.0152  0.5866
  126MPD1    C5 1962   1.956   4.338  10.038 -0.0449 -0.6232  0.4914
  126MPD1     H 1963   2.069   4.649   9.861 -0.2724 -1.1601 -1.4768
  126MPD1    H1 1964   1.902   4.452  10.206 -1.4373  3.0924  0.3168
  126MPD1    H2 1965   1.991   4.228   9.867 -1.1601  0.0567 -0.3520
  126MPD1    H3 1966   1.919   4.245  10.079  1.4951 -0.6336  1.8424
  126MPD1     N 1967   1.981   4.697  10.097  0.0047 -0.7388  0.9506
  126MPD1    H5 1968   2.014   0.046  10.048 -1.4413 -0.5871  0.2433
  126MPD1    N1 1969   2.082   4.441   9.712  0.1508 -0.2387 -0.2686
  126MPD1    H6 1970   2.062   4.526   9.660 -0.1381 -0.7119 -0.9318
  126MPD1    H7 1971   2.041   4.359   9.667  1.1110 -1.4916  1.1632
  127TMC2    C1 1972   2.547   3.545  10.487 -0.2248 -0.1863 -0.2647
  127TMC2    C2 1973   2.627   3.542  10.600 -0.2109  0.4169 -0.1960
  127TMC2    C3 1974   2.563   3.523  10.718 -0.3274  0.2883  0.5861
  127TMC2    C4 1975   2.419   3.497  10.492  0.8832 -0.2857  0.1588
  127TMC2    C5 1976   2.368   3.451  10.613  0.3102 -0.1008  0.1627
  127TMC2    C6 1977   2.438   3.466  10.732 -0.0904  0.2951 -0.6741
  127TMC2     C 1978   2.596   3.619  10.370 -0.0272  0.0603 -0.2680
  127TMC2     O 1979   2.712   3.662  10.373  0.0486  0.3335  0.7545
  127TMC2     H 1980   2.730   3.576  10.590  0.0300 -0.1095  0.4816
  127TMC2    H1 1981   2.356   3.499  10.404  0.9733  2.8698  0.1578
  127TMC2    H2 1982   2.399   3.446  10.831 -0.8674  0.1684 -1.0036
  127TMC2    C7 1983   2.248   3.377  10.624 -0.0615 -0.4117  0.1113
  127TMC2    C8 1984   2.628   3.553  10.851 -0.4571 -0.1698 -0.3283
  127TMC2    O1 1985   2.175   3.369  10.526 -0.3181 -0.2786 -0.4136
  127TMC2    O2 1986   2.721   3.481  10.887  0.0105 -0.2357  0.3999
  127TMC2    O5 1987   2.539   3.620  10.929  0.2473 -0.0037 -0.1802
  127TMC2    H5 1988   2.479   3.682  10.882  1.5965  1.2737 -0.2202
  128MPD2     C 1989   2.402   3.724  10.077 -0.2269  0.3477 -0.6765
  128MPD2    C1 1990   2.513   3.709  10.152 -0.3337  0.1906 -0.3385
  128MPD2    C2 1991   2.631   3.770  10.116  0.4240 -0.0609 -0.3255
  128MPD2    C3 1992   2.640   3.856  10.006  0.2440 -0.2251 -0.0501
  128MPD2    C4 1993   2.528   3.867   9.924 -0.5977  0.7011 -0.3850
  128MPD2    C5 1994   2.416   3.789   9.953 -1.1252  0.2261  0.2287
  128MPD2     H 1995   2.719   3.766  10.180 -0.4139 -0.9645  0.7747
  128MPD2    H1 1996   2.521   3.923   9.831  0.8054  1.2148 -0.1862
  128MPD2    H2 1997   2.305   3.686  10.107 -0.1869  0.6366 -0.1776
  128MPD2    H3 1998   2.329   3.801   9.890 -1.2345  0.1684  0.3684
  128MPD2     N 1999   2.760   3.932   9.984 -0.5397 -0.0889  0.7031
  128MPD2    H5 2000   2.836   3.919  10.050 -0.5258 -5.3954 -0.3304
  128MPD2    N1 2001   2.498   3.632  10.269  0.0710 -0.3730 -0.1923
  128MPD2    H7 2002   2.402   3.605  10.286  0.4157 -2.1905 -1.1309
  129TMC2    C1 2003   2.052   4.136   1.626 -0.3127  0.2957 -0.0956
  129TMC2    C2 2004   2.173   4.132   1.686  0.6800  0.4334  0.8662
  129TMC2    C3 2005   2.187   4.053   1.801  0.1144 -0.1525  0.1498
  129TMC2    C4 2006   1.947   4.067   1.674  0.6114 -0.6145  0.1692
  129TMC2    C5 2007   1.972   3.994   1.789  0.2911 -0.5535 -0.2030
  129TMC2    C6 2008   2.088   3.980   1.854  0.0986  0.2781  0.4133
  129TMC2     C 2009   2.020   4.238   1.521 -0.9592 -0.4260  0.1006
  129TMC2     O 2010   1.912   4.225   1.466 -0.3995 -0.7820 -0.0456
  129TMC2     H 2011   2.259   4.183   1.643 -0.0505 -0.3492 -1.4903
  129TMC2    H1 2012   1.853   4.077   1.621  1.6729 -1.4591 -1.8967
  129TMC2    H2 2013   2.111   3.908   1.933  3.7602  1.5549  0.5330
  129TMC2    C7 2014   1.859   3.912   1.824 -0.1364  0.6751 -0.1316
  129TMC2    C8 2015   2.327   4.043   1.840  0.3847 -0.3796  0.3693
  129TMC2    O1 2016   1.764   3.908   1.745  0.3953 -0.0086 -0.4002
  129TMC2    O2 2017   2.426   4.070   1.774 -0.1041  0.3047  0.2008
  129TMC2    O5 2018   2.332   4.047   1.975 -0.4849 -0.2235 -0.3435
  129TMC2    H5 2019   2.243   4.057   2.016  0.6782 -0.2533  2.1656
  130MPD2     C 2020   2.008   4.446   1.308  0.2194 -0.5146 -0.3798
  130MPD2    C1 2021   2.093   4.443   1.414  0.3169  0.3670 -0.1290
  130MPD2    C2 2022   2.186   4.544   1.422  0.1858  0.1418 -0.3378
  130MPD2    C3 2023   2.200   4.646   1.329  0.4031  0.0604  0.2553
  130MPD2    C4 2024   2.097   4.652   1.232 -0.2672  0.5892  0.7455
  130MPD2    C5 2025   2.006   4.551   1.228 -0.0074 -0.1568  0.0297
  130MPD2     H 2026   2.261   4.539   1.500  0.6347  3.8155 -0.5348
  130MPD2    H1 2027   2.077   0.004   1.169  0.6136  0.0633 -0.2538
  130MPD2    H2 2028   1.917   4.388   1.317  0.4183 -0.6893  0.5936
  130MPD2    H3 2029   1.925   4.555   1.157  0.5693 -0.5617 -0.6511
  130MPD2     N 2030   2.310   0.002   1.336 -0.6138  0.2790  0.0590
  130MPD2    H5 2031   2.370   0.005   1.418  1.1896  0.0541 -1.2560
  130MPD2    N1 2032   2.100   4.343   1.510  0.1620  0.3098  0.4596
  130MPD2    H7 2033   2.166   4.361   1.586  0.5150  1.0034 -0.0103
  131TMC2    C1 2034   1.299   3.568   9.449  0.4324  0.4943  0.3542
  131TMC2    C2 2035   1.426   3.568   9.401  0.2977 -0.2582 -1.4230
  131TMC2    C3 2036   1.467   3.684   9.342 -0.3468 -0.0017 -0.4343
  131TMC2    C4 2037   1.219   3.682   9.447 -0.9752  0.3703  0.0999
  131TMC2    C5 2038   1.275   3.794   9.399 -0.0016 -0.3449 -0.0561
  131TMC2    C6 2039   1.397   3.798   9.340 -0.2592  0.0965  0.6644
  131TMC2     C 2040   1.253   3.444   9.514 -0.1378 -0.4107  0.0388
  131TMC2     O 2041   1.342   3.370   9.552 -0.0994 -0.5914 -0.0894
  131TMC2     H 2042   1.484   3.477   9.393  0.5406 -0.0183 -2.3845
  131TMC2    H1 2043   1.134   3.697   9.512  0.7581 -0.7927  2.6599
  131TMC2    H2 2044   1.428   3.881   9.278 -0.3332 -0.7070 -0.4570
  131TMC2    C7 2045   1.199   3.916   9.411  0.7509  0.5583  0.4102
  131TMC2    C8 2046   1.589   3.684   9.257  0.0522 -0.2761  0.0449
  131TMC2    O1 2047   1.076   3.903   9.403 -0.6370  0.6107 -0.4379
  131TMC2    O2 2048   1.607   3.771   9.173 -0.6030 -0.2409 -0.0116
  131TMC2    O5 2049   1.680   3.589   9.295 -0.5227 -0.0762 -0.3382
  131TMC2    H5 2050   1.648   3.543   9.375  0.5906  2.0875  1.3807
  132MPD2     C 2051   0.900   3.350   9.564 -0.1643  0.5251 -0.0307
  132MPD2    C1 2052   1.035   3.333   9.576  0.4253  0.0223 -0.1177
  132MPD2    C2 2053   1.091   3.215   9.631  0.5626 -0.4602 -0.4739
  132MPD2    C3 2054   1.008   3.120   9.688 -0.4500  0.3596  0.6034
  132MPD2    C4 2055   0.873   3.133   9.655  0.6411 -0.0117  0.7330
  132MPD2    C5 2056   0.820   3.245   9.606  0.2322  0.6354 -0.0389
  132MPD2     H 2057   1.199   3.207   9.637  0.4651  0.0263  1.9785
  132MPD2    H1 2058   0.806   3.054   9.687  0.0268  0.4639  0.6029
  132MPD2    H2 2059   0.860   3.439   9.517  0.1917 -0.1977 -1.7003
  132MPD2    H3 2060   0.714   3.249   9.582  0.7932 -2.2721 -2.9936
  132MPD2     N 2061   1.064   3.009   9.749 -0.0658  0.3827  0.0101
  132MPD2    H5 2062   1.165   3.010   9.759  0.0488 -2.5029 -0.8032
  132MPD2    N1 2063   1.118   3.433   9.521  0.2461  0.3091 -0.1220
  132MPD2    H7 2064   1.069   3.506   9.471 -0.3740  0.6789  1.0410
  133TMC2    C1 2065   0.744   0.187   9.620  0.6477  0.4009  0.4782
  133TMC2    C2 2066   0.776   0.282   9.724  0.2138 -0.1262  0.0570
  133TMC2    C3 2067   0.907   0.319   9.727  0.0875 -0.2351  0.6926
  133TMC2    C4 2068   0.839   0.139   9.538  1.0334  0.4840 -0.4523
  133TMC2    C5 2069   0.964   0.193   9.530  0.0560  0.3775 -0.2203
  133TMC2    C6 2070   1.000   0.268   9.639 -0.0455  0.0654 -0.6133
  133TMC2     C 2071   0.653   0.084   9.657  0.1762 -0.3592 -0.2747
  133TMC2     O 2072   0.643   4.718   9.590 -0.0890  0.7983 -0.2468
  133TMC2     H 2073   0.711   0.327   9.798  2.1463  0.6350  1.3088
  133TMC2    H1 2074   0.815   0.066   9.462  1.4723  2.0185 -2.0558
  133TMC2    H2 2075   1.105   0.286   9.660  0.0598  0.2255 -1.2852
  133TMC2    C7 2076   1.058   0.122   9.449 -1.0231 -0.5853 -0.1686
  133TMC2    C8 2077   0.922   0.447   9.795 -0.4087 -0.6071 -0.0146
  133TMC2    O1 2078   1.029   0.015   9.396 -0.0849  0.5890  0.2590
  133TMC2    O2 2079   0.838   0.491   9.871 -0.0678  0.3280 -0.3058
  133TMC2    O5 2080   0.977   0.519   9.691 -0.1597 -0.8775 -0.0448
  133TMC2    H5 2081   1.049   0.482   9.635 -1.2160 -1.2049 -1.1847
  134MPD2     C 2082   0.372   0.109   9.878  0.1505  0.3550 -0.0893
  134MPD2    C1 2083   0.464   0.043   9.804  0.0318  0.1220  0.8389
  134MPD2    C2 2084   0.449   4.644   9.777  0.5219 -0.6612 -0.4190
  134MPD2    C3 2085   0.340   4.572   9.825  0.3017 -0.9827 -0.6626
  134MPD2    C4 2086   0.243   4.641   9.888  0.5142  0.5429 -0.2936
  134MPD2    C5 2087   0.258   0.044   9.921 -0.2791  0.4914 -0.1792
  134MPD2     H 2088   0.529   4.588   9.731  0.4734 -1.0420 -0.0405
  134MPD2    H1 2089   0.150   4.594   9.920  2.3433 -1.6577  1.8091
  134MPD2    H2 2090   0.395   0.211   9.905 -0.6764 -0.0413  2.0967
  134MPD2    H3 2091   0.194   0.089   9.996  1.3543  1.2581  0.7543
  134MPD2     N 2092   0.323   4.434   9.804  0.5954 -0.0361  0.0269
  134MPD2    H5 2093   0.240   4.392   9.844 -0.1712  0.8085 -0.6805
  134MPD2    N1 2094   0.570   0.122   9.761 -0.0784 -0.2519 -0.2240
  134MPD2    H7 2095   0.581   0.211   9.810  0.4277 -0.9410  0.9046
  135TMC2    C1 2096   2.462   1.458   9.851 -1.1842 -0.0238 -0.4759
  135TMC2    C2 2097   2.457   1.454   9.990 -0.0672 -0.0972  0.5975
  135TMC2    C3 2098   2.339   1.434  10.058 -0.0317  0.6739 -0.3676
  135TMC2    C4 2099   2.343   1.435   9.788 -0.6710  0.4560  0.4272
  135TMC2    C5 2100   2.229   1.415   9.857  0.6656 -0.8603  0.5387
  135TMC2    C6 2101   2.220   1.410   9.995 -0.5443  0.6494  0.1441
  135TMC2     C 2102   2.591   1.436   9.783  0.1284 -0.4245 -0.2574
  135TMC2     O 2103   2.693   1.473   9.839 -0.1370  0.3417  0.5624
  135TMC2     H 2104   2.549   1.483  10.041  0.9362 -0.6488 -0.9207
  135TMC2    H1 2105   2.345   1.451   9.681 -0.7394  1.9494  0.6481
  135TMC2    H2 2106   2.127   1.423  10.048 -1.7764  0.8050 -2.0675
  135TMC2    C7 2107   2.108   1.396   9.770 -0.8690 -0.6818 -0.0083
  135TMC2    C8 2108   2.334   1.422  10.205 -0.0007 -0.3048  0.1916
  135TMC2    O1 2109   2.128   1.408   9.646 -0.6855 -0.5008 -1.0110
  135TMC2    O2 2110   2.236   1.443  10.279 -0.2518  0.3177 -0.1644
  135TMC2    O5 2111   2.432   1.337  10.241  0.0896 -0.1713  0.5983
  135TMC2    H5 2112   2.499   1.329  10.170  0.0400  3.3466  0.1380
  136MPD2     C 2113   2.822   1.376   9.582  1.0974 -0.0116 -0.2442
  136MPD2    C1 2114   2.692   1.335   9.569 -0.1945 -0.3857  0.2787
  136MPD2    C2 2115   2.648   1.259   9.460  0.6151  0.4066  0.7209
  136MPD2    C3 2116   2.743   1.220   9.372 -0.1479  1.2346 -0.4365
  136MPD2    C4 2117   2.875   1.266   9.380  0.0951 -0.2597 -0.3948
  136MPD2    C5 2118   2.913   1.355   9.479 -0.4959  0.0341 -0.1577
  136MPD2     H 2119   2.544   1.238   9.441  0.0660  2.0023  1.9609
  136MPD2    H1 2120   2.941   1.254   9.294  1.2015  2.0146  0.1265
  136MPD2    H2 2121   2.852   1.430   9.672  0.5105  1.6934 -1.0718
  136MPD2    H3 2122   3.015   1.389   9.479 -0.0929 -1.1677  0.7013
  136MPD2     N 2123   2.720   1.128   9.263  1.3154 -0.0190  0.6294
  136MPD2    H5 2124   2.797   1.109   9.199  1.6016 -0.3006  1.0580
  136MPD2    N1 2125   2.581   1.377   9.656  0.1973 -0.5558  0.3640
  136MPD2    H7 2126   2.489   1.345   9.629  0.9850 -3.4777  1.1352
  137TMC2    C1 2127   2.568   0.027  10.085  0.6402  0.9404 -0.1106
  137TMC2    C2 2128   2.706   0.058  10.096 -0.9126  0.5171  0.0430
  137TMC2    C3 2129   2.781   0.061   9.980  0.3708  0.3512  0.1069
  137TMC2    C4 2130   2.509   0.017   9.962 -0.5890  0.4824  0.3428
  137TMC2    C5 2131   2.589   0.025   9.852 -0.1801  0.3018  0.7182
  137TMC2    C6 2132   2.725   0.045   9.857 -0.6731  0.8991  0.4747
  137TMC2     C 2133   2.482   0.042  10.199  0.6694  0.4000  0.1939
  137TMC2     O 2134   2.362   0.039  10.169 -0.7502  0.3509  0.2324
  137TMC2     H 2135   2.750   0.101  10.185 -2.2179  0.6193  0.6345
  137TMC2    H1 2136   2.402   0.010   9.946 -0.6079 -1.8205  1.4540
  137TMC2    H2 2137   2.784   0.071   9.770  1.1475  0.2376  1.5027
  137TMC2    C7 2138   2.539   4.720   9.726 -0.1140 -0.7697 -0.1523
  137TMC2    C8 2139   2.925   0.053   9.997  0.0069  0.0552 -0.7071
  137TMC2    O1 2140   2.617   4.677   9.641  0.2200 -0.2233  0.0996
  137TMC2    O2 2141   3.001   0.077   9.906 -0.0969  0.0279 -0.3491
  137TMC2    O5 2142   2.955   4.706  10.103 -0.1867  0.2568 -0.1642
  137TMC2    H5 2143   2.881   4.691  10.165  1.0092  0.4528  1.3037
  138MPD2     C 2144   2.523   0.035  10.555 -0.3093  0.5266  0.4544
  138MPD2    C1 2145   2.495   0.085  10.438 -0.2437 -0.2533 -0.1178
  138MPD2    C2 2146   2.408   0.190  10.428 -0.1821  0.1167  0.6778
  138MPD2    C3 2147   2.366   0.256  10.542 -0.4876  0.6736  0.1542
  138MPD2    C4 2148   2.392   0.205  10.666 -0.0501  0.2540  0.4489
  138MPD2    C5 2149   2.472   0.089  10.671 -0.2680 -0.2628  0.4125
  138MPD2     H 2150   2.395   0.245  10.335  1.5813 -0.2580  0.2071
  138MPD2    H1 2151   2.364   0.247  10.762 -0.3630  0.4879  0.2555
  138MPD2    H2 2152   2.602   4.694  10.557  0.7674  1.7199  2.6344
  138MPD2    H3 2153   2.492   0.044  10.768  4.6870  1.7092  0.3334
  138MPD2     N 2154   2.306   0.389  10.529  0.3029 -0.5316  0.3085
  138MPD2    H5 2155   2.284   0.425  10.436 -0.6774  1.4061  1.2994
  138MPD2    N1 2156   2.548   0.030  10.319 -0.6594  0.2850  0.1903
  138MPD2    H7 2157   2.633   4.710  10.317 -0.9225 -0.0535 -1.7763
  139TMC2    C1 2158   2.867   2.776  13.450 -0.1999  0.2413 -0.1090
  139TMC2    C2 2159   2.951   2.829  13.357 -0.1453  0.0413  0.2514
  139TMC2    C3 2160   2.986   2.960  13.361 -0.3051 -0.2010  0.1049
  139TMC2    C4 2161   2.790   2.859  13.535 -0.2690 -0.7461  0.2363
  139TMC2    C5 2162   2.822   2.993  13.531 -0.3245  0.6469  0.3260
  139TMC2    C6 2163   2.914   3.044  13.443  1.3243  0.2466 -0.0056
  139TMC2     C 2164   2.882   2.632  13.463 -0.5321  0.1352  0.0258
  139TMC2     O 2165   2.955   2.580  13.380 -0.7555  0.7939 -0.4382
  139TMC2     H 2166   3.002   2.765  13.287 -0.9813 -0.8521  0.4568
  139TMC2    H1 2167   2.721   2.813  13.604 -0.0783  0.5570  1.2857
  139TMC2    H2 2168   2.945   3.148  13.443 -2.5065  1.4015 -1.4106
  139TMC2    C7 2169   2.749   3.093  13.605 -0.3541 -0.5223 -0.2575
  139TMC2    C8 2170   3.063   3.025  13.256  0.5307 -0.2031 -0.0439
  139TMC2    O1 2171   2.772   3.204  13.564  0.8078 -0.4136 -0.0122
  139TMC2    O2 2172   3.076   2.966  13.148  0.1296 -0.1804  0.4109
  139TMC2    O5 2173   3.136   3.122  13.310 -0.6437  0.0142 -0.1935
  139TMC2    H5 2174   3.151   3.128  13.407 -2.6650 -0.0573  0.1119
  140MPD2     C 2175   2.706   2.419  13.688 -0.2829  0.6855 -0.3615
  140MPD2    C1 2176   2.793   2.442  13.588 -0.4664 -0.0937 -0.0115
  140MPD2    C2 2177   2.870   2.348  13.530 -0.5168 -1.4194  0.5835
  140MPD2    C3 2178   2.861   2.218  13.580  0.3251 -0.2490 -0.6325
  140MPD2    C4 2179   2.760   2.187  13.673  0.1061  0.8897  0.2389
  140MPD2    C5 2180   2.693   2.289  13.734  0.4340 -0.1729 -0.7698
  140MPD2     H 2181   2.945   2.372  13.455 -0.6416  3.0257  1.8647
  140MPD2    H1 2182   2.739   2.089  13.714 -0.5391  0.5836 -0.8344
  140MPD2    H2 2183   2.646   2.500  13.728 -0.0045  0.3959  0.6618
  140MPD2    H3 2184   2.619   2.279  13.813 -2.0399  1.8249 -2.8253
  140MPD2     N 2185   2.942   2.118  13.516 -0.0661 -0.6162 -0.3492
  140MPD2    H5 2186   3.004   2.158  13.445 -0.5987 -1.4468 -1.2852
  140MPD2    N1 2187   2.791   2.578  13.550 -0.2493  0.2089 -0.0978
  140MPD2    H7 2188   2.727   2.641  13.596 -1.4419 -0.4537 -0.8407
  141TMC2    C1 2189   3.400   4.233  14.756  0.0855 -0.8976 -0.2064
  141TMC2    C2 2190   3.400   4.156  14.872  0.7799 -0.0214 -0.2366
  141TMC2    C3 2191   3.399   4.216  14.991  0.2850  0.4160 -0.3030
  141TMC2    C4 2192   3.389   4.368  14.755 -0.1631  0.0578  0.4311
  141TMC2    C5 2193   3.375   4.427  14.881 -0.8069 -0.3610  0.0098
  141TMC2    C6 2194   3.402   4.353  14.998  0.1865 -0.3384 -0.1011
  141TMC2     C 2195   3.393   4.165  14.622 -0.4078  0.3127  0.5817
  141TMC2     O 2196   3.411   4.235  14.525 -0.0456 -0.0685 -0.2981
  141TMC2     H 2197   3.407   4.048  14.884  1.2355  0.0854  0.4467
  141TMC2    H1 2198   3.366   4.424  14.666 -2.1185  1.3639  1.7572
  141TMC2    H2 2199   3.406   4.406  15.092 -0.1863 -2.4726  1.1093
  141TMC2    C7 2200   3.386   4.567  14.887 -0.3675  0.4380  0.7913
  141TMC2    C8 2201   3.437   4.137  15.103 -0.2548 -0.1690 -0.8292
  141TMC2    O1 2202   3.361   4.627  14.987  0.6608 -0.1539 -0.3230
  141TMC2    O2 2203   3.477   4.020  15.096 -0.5338 -0.2915  0.3977
  141TMC2    O5 2204   3.348   4.184  15.200 -0.4001 -0.4722 -0.2259
  141TMC2    H5 2205   3.302   4.270  15.194  1.8617  0.7613  0.2215
  142TMC2    C1 2206   0.957   2.837   9.430  0.2932 -0.2443  0.4689
  142TMC2    C2 2207   0.856   2.910   9.368 -0.4939 -0.3515 -0.5779
  142TMC2    C3 2208   0.895   3.009   9.284 -0.2878  0.3132 -0.3105
  142TMC2    C4 2209   1.091   2.851   9.400  0.1536  0.3304 -0.1752
  142TMC2    C5 2210   1.127   2.953   9.317  0.0606  0.6799 -0.2035
  142TMC2    C6 2211   1.028   3.033   9.258 -0.1445  1.0907 -0.5256
  142TMC2     C 2212   0.909   2.716   9.507 -0.0964 -0.4588 -0.0771
  142TMC2     O 2213   0.786   2.718   9.524 -0.4753  0.0070  0.2665
  142TMC2     H 2214   0.753   2.875   9.364  0.1162 -1.9382 -2.3883
  142TMC2    H1 2215   1.165   2.808   9.466  0.0498  0.6052  0.1197
  142TMC2    H2 2216   1.044   3.105   9.179 -0.8743  2.7389  0.8127
  142TMC2    C7 2217   1.263   2.997   9.319  0.6860  0.2352  0.3462
  142TMC2    C8 2218   0.801   3.051   9.186  0.3049 -0.0914  0.1799
  142TMC2    O1 2219   1.342   2.927   9.383 -0.6065  0.4389 -0.1855
  142TMC2    O2 2220   0.824   3.085   9.073  0.1803  0.1549  0.1583
  142TMC2    O5 2221   0.687   3.063   9.253 -0.1323  0.3558  0.1349
  142TMC2    H5 2222   0.679   3.037   9.347  2.7028 -1.6426 -0.1590
  143MPD2     C 2223   0.962   2.260   9.747 -0.4757 -0.6960 -0.3420
  143MPD2    C1 2224   0.851   2.346   9.747  0.3617  0.5514 -0.0920
  143MPD2    C2 2225   0.871   2.466   9.671 -0.4561  0.4025 -0.3941
  143MPD2    C3 2226   0.985   2.500   9.610 -0.2032  0.8140 -0.8316
  143MPD2    C4 2227   1.093   2.414   9.615 -0.2237 -0.8061 -0.5270
  143MPD2    C5 2228   1.070   2.292   9.674  0.3803  0.4616 -0.1296
  143MPD2     H 2229   0.792   2.541   9.668 -1.7475 -0.9120  0.5967
  143MPD2    H1 2230   1.194   2.429   9.577 -0.6046  1.0254 -0.8268
  143MPD2    H2 2231   0.962   2.176   9.816  0.2371  1.0727  1.8411
  143MPD2    H3 2232   1.149   2.218   9.664 -0.8411 -0.8232 -0.2072
  143MPD2     N 2233   1.003   2.620   9.538 -0.3702  0.0105  1.0186
  143MPD2    H5 2234   1.090   2.633   9.487 -0.9654 -1.0606 -0.2719
  143MPD2    N1 2235   0.734   2.323   9.823  0.3494  0.0130  0.3813
  143MPD2    H7 2236   0.738   2.239   9.880 -2.4389  0.0126  0.5544
  144TMC2    C1 2237   4.182   1.550   0.935 -0.1291 -0.2680 -0.0467
  144TMC2    C2 2238   4.287   1.484   0.886 -0.5714  0.2925 -0.4879
  144TMC2    C3 2239   4.415   1.510   0.935  0.5167  0.4719  0.4277
  144TMC2    C4 2240   4.187   1.627   1.052  0.5828  0.1669 -0.2380
  144TMC2    C5 2241   4.315   1.644   1.098  0.4458  0.6641 -0.4609
  144TMC2    C6 2242   4.430   1.581   1.050  0.8572 -0.4747  0.4127
  144TMC2     C 2243   4.059   1.539   0.864 -0.0712 -1.1750 -0.9283
  144TMC2     O 2244   4.041   1.438   0.796 -0.2179  0.3426 -0.0827
  144TMC2     H 2245   4.266   1.430   0.795 -1.1864 -0.6977  0.2558
  144TMC2    H1 2246   4.105   1.667   1.109  0.0372 -0.7199 -0.4056
  144TMC2    H2 2247   4.527   1.594   1.095  1.1942 -1.8519  0.0972
  144TMC2    C7 2248   4.324   1.705   1.233 -0.1333 -0.2005 -0.5221
  144TMC2    C8 2249   4.517   1.414   0.902  0.0582  0.9059  0.1384
  144TMC2    O1 2250   4.440   1.706   1.273 -0.3741 -0.1255  0.0753
  144TMC2    O2 2251   4.498   1.299   0.861  0.2970 -0.5401  0.2270
  144TMC2    O5 2252   4.634   1.482   0.887 -0.2248 -0.2317 -0.1643
  144TMC2    H5 2253   4.614   1.578   0.890 -1.7370 -0.5068 -1.1818
  145MPD2     C 2254   3.613   1.734   0.700  0.0693 -0.6954  0.0276
  145MPD2    C1 2255   3.666   1.611   0.671 -0.2143 -0.1839 -0.1028
  145MPD2    C2 2256   3.790   1.582   0.728 -0.2832  0.0275  0.1337
  145MPD2    C3 2257   3.850   1.670   0.821 -0.1358  0.2408 -0.0341
  145MPD2    C4 2258   3.793   1.791   0.840  0.0209  0.3985  0.4625
  145MPD2    C5 2259   3.672   1.825   0.780  0.8047  0.4329 -0.1792
  145MPD2     H 2260   3.833   1.484   0.712  0.1910  0.0168  1.4950
  145MPD2    H1 2261   3.839   1.861   0.909  0.4337  0.7929 -0.2081
  145MPD2    H2 2262   3.520   1.775   0.662 -0.3625 -1.4800  0.2423
  145MPD2    H3 2263   3.629   1.923   0.795  0.8355  0.6275 -1.3462
  145MPD2     N 2264   3.975   1.650   0.879 -0.3120  0.0257 -0.1168
  145MPD2    H5 2265   4.021   1.723   0.931  0.3476 -0.5300  0.0775
  145MPD2    N1 2266   3.609   1.515   0.585  0.5935 -0.1165 -0.1602
  145MPD2    H7 2267   3.658   1.428   0.567 -1.9961 -1.4726 -0.7041
  146TMC2    C1 2268   0.446   0.841  12.955  0.1593  1.3757 -0.0592
  146TMC2    C2 2269   0.367   0.903  12.855  0.6053 -0.1944 -0.1338
  146TMC2    C3 2270   0.342   0.826  12.747  0.9649 -0.3845  0.2223
  146TMC2    C4 2271   0.526   0.732  12.944  0.0392  0.5375 -0.1965
  146TMC2    C5 2272   0.510   0.676  12.819  0.1343  0.4071  0.3675
  146TMC2    C6 2273   0.422   0.716  12.720 -0.0808 -0.7523 -0.2157
  146TMC2     C 2274   0.438   0.908  13.082 -0.6337 -0.7664  0.3276
  146TMC2     O 2275   0.408   1.029  13.080 -0.5847  0.0461 -0.0121
  146TMC2     H 2276   0.301   0.986  12.876 -0.5994 -1.1785 -0.0523
  146TMC2    H1 2277   0.607   0.707  13.012  1.6393 -1.4061 -2.8262
  146TMC2    H2 2278   0.423   0.655  12.630 -0.5576 -0.2498 -0.5648
  146TMC2    C7 2279   0.567   0.543  12.805 -0.0719 -0.0094 -0.0118
  146TMC2    C8 2280   0.238   0.870  12.658 -0.0515  0.1078  0.7035
  146TMC2    O1 2281   0.564   0.498  12.692 -0.6189 -0.6767  0.0265
  146TMC2    O2 2282   0.229   0.984  12.619  0.4114  0.0360 -0.1386
  146TMC2    O5 2283   0.201   0.762  12.591  0.3646 -0.3993  0.0773
  146TMC2    H5 2284   0.211   0.679  12.642 -1.1557 -0.3250  0.4942
  147MPD2     C 2285   0.954   0.224  12.911  0.8693 -0.6979  0.4483
  147MPD2    C1 2286   0.886   0.257  13.027 -0.0425 -0.6361 -0.2848
  147MPD2    C2 2287   0.779   0.345  13.029  0.0428 -1.4338  0.2405
  147MPD2    C3 2288   0.721   0.388  12.917  0.3527 -0.3733 -0.0144
  147MPD2    C4 2289   0.784   0.351  12.797 -0.9332 -0.1497 -0.3261
  147MPD2    C5 2290   0.898   0.272  12.795  0.2384  0.0096 -0.6960
  147MPD2     H 2291   0.739   0.393  13.117 -0.3188  0.4030 -0.9351
  147MPD2    H1 2292   0.758   0.384  12.697  1.1509 -0.3481 -0.9316
  147MPD2    H2 2293   1.037   0.155  12.900 -0.8054 -2.6266 -0.2229
  147MPD2    H3 2294   0.953   0.252  12.704  1.4228  0.3462 -0.0591
  147MPD2     N 2295   0.621   0.488  12.921  0.1728  0.5141  0.2485
  147MPD2    H5 2296   0.586   0.518  13.012 -1.4726  0.3276 -0.3153
  147MPD2    N1 2297   0.945   0.207  13.143 -0.2519  0.0155  0.0202
  147MPD2    H7 2298   1.027   0.146  13.138  0.5864  1.1913 -0.4920
  148TMC2    C1 2299   1.474   3.631  10.035  0.6162  0.1942  0.3535
  148TMC2    C2 2300   1.610   3.637  10.010 -0.3978 -0.2320  0.0636
  148TMC2    C3 2301   1.656   3.542   9.920  0.5807  0.0130 -0.0662
  148TMC2    C4 2302   1.391   3.556   9.956  0.8336  0.3895  0.1957
  148TMC2    C5 2303   1.446   3.456   9.879 -0.3286 -0.1009  0.0969
  148TMC2    C6 2304   1.581   3.447   9.854 -0.4830  0.0329  0.3548
  148TMC2     C 2305   1.439   3.682  10.169  0.6451 -0.3764  0.4237
  148TMC2     O 2306   1.525   3.748  10.222 -0.5374 -0.2992  0.2898
  148TMC2     H 2307   1.678   3.691  10.075 -0.1423  0.2747 -0.6187
  148TMC2    H1 2308   1.284   3.556   9.970  0.7435  0.6884 -0.5036
  148TMC2    H2 2309   1.618   3.377   9.780 -1.9318 -1.5662  1.1348
  148TMC2    C7 2310   1.367   3.334   9.894 -0.0161 -0.0804 -0.2558
  148TMC2    C8 2311   1.788   3.558   9.864 -0.5044 -0.3892 -0.5399
  148TMC2    O1 2312   1.246   3.330   9.906  0.1894  0.3561  0.2892
  148TMC2    O2 2313   1.881   3.597   9.937 -0.6650  0.0207  0.2792
  148TMC2    O5 2314   1.796   3.537   9.732  0.3775  0.6069 -0.3742
  148TMC2    H5 2315   1.709   3.529   9.688  0.1528 -2.5904  0.6268
  149MPD2     C 2316   1.356   3.690  10.459 -0.4864 -0.0091 -0.5118
  149MPD2    C1 2317   1.286   3.623  10.353  0.4315  0.2818 -0.6434
  149MPD2    C2 2318   1.170   3.554  10.375  0.7850 -0.0475  1.4172
  149MPD2    C3 2319   1.120   3.561  10.502  0.8268 -0.3227  0.0577
  149MPD2    C4 2320   1.182   3.625  10.606  0.1861 -0.0353 -0.2671
  149MPD2    C5 2321   1.304   3.683  10.582  0.7665 -0.3769 -0.1022
  149MPD2     H 2322   1.122   3.501  10.294  1.3364 -0.0874  1.1172
  149MPD2    H1 2323   1.125   3.638  10.698  0.2541  0.0731 -0.2404
  149MPD2    H2 2324   1.451   3.739  10.442  1.0578 -2.9990 -0.4968
  149MPD2    H3 2325   1.355   3.731  10.664  1.4318  0.9541 -1.3112
  149MPD2     N 2326   0.997   3.517  10.539 -0.2115 -0.3046  0.3138
  149MPD2    H5 2327   0.972   3.537  10.635  1.9357 -0.2811  0.8586
  149MPD2    N1 2328   1.331   3.617  10.215  0.3959 -0.5351 -0.0984
  149MPD2    H7 2329   1.269   3.568  10.151 -0.6340  0.8722 -0.1973
  150TMC2    C1 2330   2.687   3.460  12.577  0.4568  0.1974 -0.5650
  150TMC2    C2 2331   2.653   3.591  12.554  0.1690  0.1752  0.2717
  150TMC2    C3 2332   2.766   3.673  12.539  0.4135  0.0404  0.6701
  150TMC2    C4 2333   2.815   3.411  12.581 -0.1135 -0.7880 -0.5889
  150TMC2    C5 2334   2.922   3.499  12.567 -0.6558  0.4419 -0.0107
  150TMC2    C6 2335   2.897   3.627  12.546  0.3471 -0.5431  0.5130
  150TMC2     C 2336   2.586   3.376  12.522  0.1481  0.4867  0.4352
  150TMC2     O 2337   2.618   3.295  12.443 -0.1120  0.3241  0.0882
  150TMC2     H 2338   2.554   3.629  12.576 -1.1145 -0.9038 -3.4766
  150TMC2    H1 2339   2.831   3.304  12.579 -3.5574 -1.2878 -1.9893
  150TMC2    H2 2340   2.977   3.697  12.523 -0.8921  0.4412 -0.7760
  150TMC2    C7 2341   3.059   3.461  12.548 -0.0548  0.0793 -0.8488
  150TMC2    C8 2342   2.740   3.815  12.522  0.5673  0.5204 -0.3600
  150TMC2    O1 2343   3.129   3.527  12.469  0.5389  0.1630  0.0760
  150TMC2    O2 2344   2.829   3.896  12.525  0.0343 -0.4189  0.4873
  150TMC2    O5 2345   2.611   3.841  12.495  0.8686  0.2936 -0.3344
  150TMC2    H5 2346   2.559   3.767  12.456 -0.4292  0.8158  0.3976
  151MPD2     C 2347   2.101   3.213  12.530  0.3450 -0.2452 -0.7406
  151MPD2    C1 2348   2.203   3.189  12.446 -0.0014 -0.2619  0.4901
  151MPD2    C2 2349   2.319   3.259  12.452 -0.1472 -0.0820 -0.1069
  151MPD2    C3 2350   2.335   3.353  12.550 -0.4130 -0.3145  0.1002
  151MPD2    C4 2351   2.228   3.382  12.630 -0.3779 -0.1684 -0.2738
  151MPD2    C5 2352   2.110   3.314  12.620  0.6715  0.4412 -0.0003
  151MPD2     H 2353   2.403   3.243  12.386 -1.1829 -1.0334 -1.1811
  151MPD2    H1 2354   2.231   3.459  12.706 -0.1680 -1.4486  1.0144
  151MPD2    H2 2355   2.008   3.161  12.514  0.7022 -0.4101 -2.2912
  151MPD2    H3 2356   2.016   3.336  12.669 -0.2217 -3.3132  0.0227
  151MPD2     N 2357   2.465   3.407  12.578 -0.1748 -0.1031 -0.1736
  151MPD2    H5 2358   2.463   3.472  12.656  1.6824  1.3854 -1.3677
  151MPD2    N1 2359   2.187   3.083  12.346  0.1452 -1.1845 -0.2557
  151MPD2    H7 2360   2.104   3.026  12.343  1.1950 -2.7041 -0.0242
  152TMC2    C1 2361   2.610   2.737  12.806  0.2879 -0.2006  0.1115
  152TMC2    C2 2362   2.656   2.679  12.691 -0.0928  0.1397 -0.4970
  152TMC2    C3 2363   2.760   2.749  12.621  0.4726  0.3320 -0.2951
  152TMC2    C4 2364   2.653   2.852  12.857 -0.9712  0.0634 -0.5853
  152TMC2    C5 2365   2.763   2.905  12.797  0.2918 -0.2101 -0.1825
  152TMC2    C6 2366   2.817   2.859  12.681  0.5473 -0.2718 -0.0930
  152TMC2     C 2367   2.491   2.695  12.867  0.5470 -0.1970  0.4031
  152TMC2     O 2368   2.426   2.762  12.946 -0.4393  0.0764  0.0852
  152TMC2     H 2369   2.603   2.599  12.640  2.3128 -1.9566  0.2649
  152TMC2    H1 2370   2.621   2.897  12.951  0.6196 -0.0389  0.0055
  152TMC2    H2 2371   2.890   2.916  12.625 -1.3801  0.8830 -1.4138
  152TMC2    C7 2372   2.778   3.046  12.834 -0.3551  0.1483  0.9281
  152TMC2    C8 2373   2.818   2.695  12.505 -0.0576  0.3506  0.0409
  152TMC2    O1 2374   2.672   3.104  12.852 -0.2450 -0.5516 -0.0069
  152TMC2    O2 2375   2.914   2.752  12.458  0.1904  0.0619 -0.4584
  152TMC2    O5 2376   2.774   2.578  12.470  0.1768 -0.2225 -0.2388
  152TMC2    H5 2377   2.692   2.542  12.510 -0.5737  1.8791  0.1005
  153MPD2     C 2378   2.322   2.375  12.866  0.0886 -1.0475  0.2107
  153MPD2    C1 2379   2.338   2.509  12.859 -0.9384 -0.2172 -0.0575
  153MPD2    C2 2380   2.225   2.591  12.878  0.1175  0.2263 -0.1817
  153MPD2    C3 2381   2.101   2.541  12.890 -0.1898  0.0998 -0.4171
  153MPD2    C4 2382   2.088   2.404  12.902  0.3626 -0.6011  0.1067
  153MPD2    C5 2383   2.192   2.327  12.878  0.3466  0.1021 -0.5196
  153MPD2     H 2384   2.226   2.695  12.848  0.5585  0.2891  0.0561
  153MPD2    H1 2385   1.989   2.362  12.913 -1.5319  3.5894 -0.7342
  153MPD2    H2 2386   2.406   2.307  12.862 -0.5548 -1.7244 -1.8501
  153MPD2    H3 2387   2.183   2.219  12.882  0.4433  0.0075 -2.6331
  153MPD2     N 2388   1.990   2.629  12.877 -0.3753  0.1578 -0.9561
  153MPD2    H5 2389   2.007   2.729  12.869  2.1099 -0.1287  0.6616
  153MPD2    N1 2390   2.466   2.562  12.842 -0.1199 -0.5660  0.7220
  153MPD2    H7 2391   2.538   2.500  12.805 -0.6129 -1.5103  1.3400
  154TMC2    C1 2392   3.736   2.733   0.601  0.2446  0.1473 -0.3648
  154TMC2    C2 2393   3.839   2.762   0.679  0.5820 -0.1996  0.6588
  154TMC2    C3 2394   3.956   2.690   0.655  0.3354  0.5741 -1.0374
  154TMC2    C4 2395   3.737   2.640   0.507 -1.0962  0.4549 -0.3254
  154TMC2    C5 2396   3.851   2.566   0.492  0.1869 -0.7679 -0.8472
  154TMC2    C6 2397   3.968   2.592   0.559  0.2120 -0.5999 -0.8015
  154TMC2     C 2398   3.633   2.833   0.610 -0.0614  0.2587  0.4431
  154TMC2     O 2399   3.637   2.919   0.693 -0.3119 -0.4733  0.3439
  154TMC2     H 2400   3.844   2.840   0.754 -0.3355 -1.3546  1.9162
  154TMC2    H1 2401   3.647   2.620   0.450 -0.8119 -0.6411 -0.3781
  154TMC2    H2 2402   4.057   2.535   0.534 -1.6634 -3.2805 -1.3638
  154TMC2    C7 2403   3.865   2.462   0.384  0.0712 -0.6678  0.4368
  154TMC2    C8 2404   4.071   2.777   0.663  0.3323 -0.1444  0.1157
  154TMC2    O1 2405   3.963   2.384   0.394  0.2690 -0.3019  0.3433
  154TMC2    O2 2406   4.083   2.896   0.626  0.9488 -0.4745 -0.1722
  154TMC2    O5 2407   4.168   2.691   0.688 -0.7333 -0.2290  0.1397
  154TMC2    H5 2408   4.125   2.610   0.720 -0.7137 -0.7894 -1.2622
  155MPD2     C 2409   3.357   2.928   0.386 -0.2487  0.2264 -0.3029
  155MPD2    C1 2410   3.423   2.911   0.508 -0.5322 -0.2689  0.0143
  155MPD2    C2 2411   3.364   2.969   0.622  0.4912  0.4954  0.0596
  155MPD2    C3 2412   3.243   3.042   0.615 -0.2977  0.3065 -0.0014
  155MPD2    C4 2413   3.174   3.033   0.496 -0.1937  0.1043 -0.0834
  155MPD2    C5 2414   3.232   2.981   0.382  0.1298 -0.5723  0.4052
  155MPD2     H 2415   3.424   2.962   0.713  1.4666 -1.2696 -0.7063
  155MPD2    H1 2416   3.077   3.078   0.476  0.9684  3.1233  0.9669
  155MPD2    H2 2417   3.403   2.893   0.294  2.7505  1.5138  0.6927
  155MPD2    H3 2418   3.183   2.981   0.286  2.5810  2.7713 -0.8522
  155MPD2     N 2419   3.178   3.108   0.729 -0.5162 -0.2053 -0.1381
  155MPD2    H5 2420   3.233   3.118   0.814 -0.6121 -0.3901 -0.0546
  155MPD2    N1 2421   3.552   2.845   0.506  0.3641 -0.1115 -0.3340
  155MPD2    H7 2422   3.585   2.796   0.424  1.1666  0.5123 -0.3796
  156TMC2    C1 2423   1.778   0.535  12.275 -0.2949  0.0059  0.4507
  156TMC2    C2 2424   1.652   0.493  12.285  0.2857 -0.2438  0.2849
  156TMC2    C3 2425   1.566   0.522  12.179 -0.1950 -0.0738  0.7078
  156TMC2    C4 2426   1.817   0.614  12.167 -0.7217  0.7840 -0.3387
  156TMC2    C5 2427   1.727   0.636  12.069 -0.4309  0.6662  0.2742
  156TMC2    C6 2428   1.595   0.592  12.064  0.3777 -0.2954 -0.0629
  156TMC2     C 2429   1.875   0.492  12.375  0.0729  0.0608 -0.6136
  156TMC2     O 2430   1.848   0.466  12.491  0.0178  0.0045  0.1058
  156TMC2     H 2431   1.618   0.431  12.367 -0.3696 -2.0281 -1.3379
  156TMC2    H1 2432   1.918   0.649  12.152 -0.7783  1.7462  1.5677
  156TMC2    H2 2433   1.519   0.607  11.988  0.8519  0.1298 -0.4590
  156TMC2    C7 2434   1.787   0.690  11.944  0.5391 -0.3979  0.3815
  156TMC2    C8 2435   1.440   0.460  12.188  0.9466 -0.4613  0.1091
  156TMC2    O1 2436   1.898   0.742  11.961  0.1809 -0.3770 -0.7030
  156TMC2    O2 2437   1.375   0.443  12.291 -0.6231 -0.1161 -0.2589
  156TMC2    O5 2438   1.423   0.408  12.067  0.1067  0.0866 -0.0293
  156TMC2    H5 2439   1.500   0.411  12.006 -1.0681  0.4793 -1.4797
  157MPD2     C 2440   2.230   0.472  12.277  0.4576 -0.5923  0.5921
  157MPD2    C1 2441   2.131   0.486  12.368  0.6345  0.7556  0.0098
  157MPD2    C2 2442   2.154   0.482  12.499 -0.0063  0.7111  0.1896
  157MPD2    C3 2443   2.284   0.492  12.553  0.1182  0.2081 -0.0510
  157MPD2    C4 2444   2.383   0.482  12.464 -0.7134 -0.1782 -0.2948
  157MPD2    C5 2445   2.362   0.459  12.330  0.2045  0.4132 -0.0590
  157MPD2     H 2446   2.078   0.499  12.575 -0.1043 -0.7147  0.4090
  157MPD2    H1 2447   2.489   0.497  12.482 -1.0612  0.7270  1.0146
  157MPD2    H2 2448   2.219   0.483  12.170 -0.5272  1.5355  0.9164
  157MPD2    H3 2449   2.452   0.462  12.269  1.1727  0.1347  1.3431
  157MPD2     N 2450   2.303   0.517  12.694 -0.0320 -0.1747  1.2194
  157MPD2    H5 2451   2.219   0.533  12.748 -0.5732 -1.0789  0.6630
  157MPD2    N1 2452   2.001   0.497  12.311 -0.2918 -0.0974 -0.4923
  157MPD2    H7 2453   1.988   0.498  12.211 -0.2565  1.6623 -0.4786
  158TMC2    C1 2454   3.321   4.168  13.323  0.7018  0.0605 -0.7914
  158TMC2    C2 2455   3.412   4.209  13.227  0.3875  0.1145 -0.2033
  158TMC2    C3 2456   3.365   4.215  13.098 -0.1284 -0.9759 -0.3368
  158TMC2    C4 2457   3.195   4.131  13.286  0.2069 -0.4120  0.0408
  158TMC2    C5 2458   3.157   4.132  13.155  0.0473 -0.7570 -0.6523
  158TMC2    C6 2459   3.245   4.162  13.059  0.1872 -0.0885  0.6477
  158TMC2     C 2460   3.365   4.171  13.461 -0.4507 -0.2619  0.0066
  158TMC2     O 2461   3.479   4.197  13.494 -0.3012 -0.3308 -0.1472
  158TMC2     H 2462   3.502   4.257  13.263  0.3469 -0.6874  0.9551
  158TMC2    H1 2463   3.119   4.128  13.363  0.6027  1.3395  0.4951
  158TMC2    H2 2464   3.208   4.164  12.957  1.0205 -1.0871  0.3212
  158TMC2    C7 2465   3.020   4.140  13.120  0.9742 -0.2880  1.1078
  158TMC2    C8 2466   3.456   4.221  12.987  0.4175  0.0806  0.5320
  158TMC2    O1 2467   2.992   4.190  13.013  0.1090  0.0613  0.1112
  158TMC2    O2 2468   3.433   4.168  12.882 -0.0526  0.0691 -0.0702
  158TMC2    O5 2469   3.580   4.233  13.036  0.1805  0.4622 -0.0289
  158TMC2    H5 2470   3.599   4.315  13.086  0.5240  0.3558  0.0194
  159MPD2     C 2471   3.238   4.251  13.954  0.0351 -0.5251 -0.3749
  159MPD2    C1 2472   3.136   4.178  13.890  0.1811  0.6720 -0.5507
  159MPD2    C2 2473   3.148   4.147  13.756 -0.1356 -0.7138  0.7349
  159MPD2    C3 2474   3.258   4.188  13.681 -0.1371 -0.6863  0.9865
  159MPD2    C4 2475   3.344   4.275  13.743 -0.7864 -1.0253  0.6755
  159MPD2    C5 2476   3.333   4.311  13.878  0.5128  0.9577  0.8693
  159MPD2     H 2477   3.083   4.072  13.711 -1.8030  1.4510 -0.4842
  159MPD2    H1 2478   3.428   4.320  13.691 -0.7691 -2.2804 -0.4055
  159MPD2    H2 2479   3.222   4.283  14.056  0.4878  0.8346 -0.7249
  159MPD2    H3 2480   3.399   4.381  13.929  1.4788  0.3751  0.4156
  159MPD2     N 2481   3.259   4.151  13.548 -0.3830  0.2163 -0.0534
  159MPD2    H5 2482   3.167   4.118  13.522 -1.1565  2.2228  0.1321
  159MPD2    N1 2483   3.023   4.128  13.966  0.1627  0.1177 -0.1292
  159MPD2    H7 2484   3.031   4.145  14.066  0.3044 -0.0858 -0.1050
  160TMC2    C1 2485   2.448   2.014   1.546 -0.1323 -0.7836  0.6229
  160TMC2    C2 2486   2.516   1.939   1.641 -0.1512 -0.7747  0.5691
  160TMC2    C3 2487   2.651   1.900   1.605  0.0088 -0.1812  0.1216
  160TMC2    C4 2488   2.506   2.059   1.429  0.0698 -0.1168 -0.0175
  160TMC2    C5 2489   2.638   2.021   1.403  0.7450 -0.2726  0.1300
  160TMC2    C6 2490   2.704   1.937   1.486  0.3746  0.6349 -0.2492
  160TMC2     C 2491   2.307   2.046   1.574 -0.1644 -0.1972  0.4178
  160TMC2     O 2492   2.255   1.985   1.666 -0.2518 -0.4919 -0.4192
  160TMC2     H 2493   2.467   1.889   1.724  1.0631 -4.3273 -0.8635
  160TMC2    H1 2494   2.459   2.118   1.351  2.3970  1.8918  0.0903
  160TMC2    H2 2495   2.802   1.896   1.465  0.1736  0.1773 -0.3095
  160TMC2    C7 2496   2.698   2.051   1.279 -0.7914  0.0978  0.2829
  160TMC2    C8 2497   2.731   1.805   1.681 -0.0074  0.8714 -0.8746
  160TMC2    O1 2498   2.776   1.971   1.233  0.0995  0.0487 -0.3202
  160TMC2    O2 2499   2.849   1.820   1.695 -0.6137  0.2952  0.3604
  160TMC2    O5 2500   2.654   1.710   1.724 -0.4470  0.4985  0.5642
  160TMC2    H5 2501   2.562   1.731   1.695 -0.1427  0.4016 -0.4509
  161MPD2     C 2502   2.048   2.204   1.638 -0.6110  0.0264 -0.3764
  161MPD2    C1 2503   2.138   2.232   1.538 -0.8403 -0.2950 -0.0892
  161MPD2    C2 2504   2.113   2.350   1.471  0.4618 -0.3807  0.2380
  161MPD2    C3 2505   2.001   2.428   1.498 -0.3286 -0.2976 -0.2838
  161MPD2    C4 2506   1.908   2.388   1.589  0.3401  0.1165 -0.5234
  161MPD2    C5 2507   1.940   2.276   1.663  0.2134 -0.0188  0.7235
  161MPD2     H 2508   2.184   2.388   1.397  2.4806  0.3872  2.5602
  161MPD2    H1 2509   1.814   2.434   1.617 -0.0093  0.2016 -1.8519
  161MPD2    H2 2510   2.054   2.111   1.695  0.6908  1.2969  1.5809
  161MPD2    H3 2511   1.873   2.240   1.741  1.1248 -1.4772  0.8376
  161MPD2     N 2512   1.977   2.547   1.423 -0.6508 -0.0732 -0.1441
  161MPD2    H5 2513   2.028   2.553   1.335 -1.9734  1.3215 -0.8105
  161MPD2    N1 2514   2.254   2.154   1.508 -0.0467 -0.1167  0.4767
  161MPD2    H7 2515   2.306   2.197   1.432  0.6280  1.5956  1.9150
  162TMC2    C1 2516   0.465   4.335   1.385 -0.4246  0.0723 -0.0892
  162TMC2    C2 2517   0.359   4.393   1.457  0.1977 -0.0114 -0.7699
  162TMC2    C3 2518   0.391   4.442   1.578  0.1793 -0.1005  0.5483
  162TMC2    C4 2519   0.591   4.330   1.436 -0.0441 -0.7365  0.6362
  162TMC2    C5 2520   0.617   4.372   1.567 -0.3189 -0.1545 -0.2331
  162TMC2    C6 2521   0.515   4.428   1.631  0.4030 -0.0560 -0.2822
  162TMC2     C 2522   0.454   4.299   1.243 -0.3163  0.9051 -0.3138
  162TMC2     O 2523   0.560   4.272   1.183 -0.4841 -0.0833  0.2238
  162TMC2     H 2524   0.259   4.412   1.420  0.1568 -0.1761 -0.7444
  162TMC2    H1 2525   0.677   4.297   1.378  1.5134  1.5542  1.6525
  162TMC2    H2 2526   0.534   4.464   1.732 -0.4093  0.6176 -0.3680
  162TMC2    C7 2527   0.748   4.371   1.630  0.7165  0.4987  0.1109
  162TMC2    C8 2528   0.282   4.455   1.669 -0.3919 -0.0366 -0.6475
  162TMC2    O1 2529   0.762   4.454   1.723 -0.0712  0.1126  0.2879
  162TMC2    O2 2530   0.181   4.387   1.667 -0.1197 -0.5012 -0.4600
  162TMC2    O5 2531   0.311   4.567   1.737  0.1561  0.1281  0.0874
  162TMC2    H5 2532   0.388   4.611   1.695  1.6327 -1.3018  1.2986
  163MPD2     C 2533   0.210   4.277   0.787 -0.1731 -0.3719 -0.3912
  163MPD2    C1 2534   0.335   4.225   0.812 -0.1730 -0.9467  0.5482
  163MPD2    C2 2535   0.384   4.243   0.944  0.9900  0.4848 -0.7615
  163MPD2    C3 2536   0.300   4.290   1.045  0.6931 -0.0491  0.0408
  163MPD2    C4 2537   0.163   4.324   1.017  0.2239 -0.2101  0.1243
  163MPD2    C5 2538   0.123   4.311   0.887  0.1938 -0.0120 -0.6475
  163MPD2     H 2539   0.485   4.214   0.968 -0.2758 -2.6052  0.7948
  163MPD2    H1 2540   0.099   4.368   1.092 -1.7016 -0.0855 -1.5615
  163MPD2    H2 2541   0.159   4.255   0.694 -2.5243 -0.7584  0.9946
  163MPD2    H3 2542   0.021   4.334   0.860  0.4956  1.7692 -0.2443
  163MPD2     N 2543   0.330   4.319   1.182 -0.2865  0.1659  0.0700
  163MPD2    H5 2544   0.251   4.350   1.238 -0.8674  1.0336 -1.2317
  163MPD2    N1 2545   0.412   4.186   0.704  0.2376 -0.3824 -0.2924
  163MPD2    H7 2546   0.360   4.189   0.618 -0.9760 -0.1199  0.4550
  164TMC2    C1 2547   0.924   3.469  11.138 -0.0568 -0.2855 -0.3315
  164TMC2    C2 2548   1.047   3.514  11.175 -0.1732  0.1404  0.0079
  164TMC2    C3 2549   1.052   3.608  11.273  0.3520 -0.2137  0.5049
  164TMC2    C4 2550   0.806   3.501  11.196 -0.0470  0.2288  0.2968
  164TMC2    C5 2551   0.812   3.594  11.292 -0.4416 -0.1044 -0.6030
  164TMC2    C6 2552   0.935   3.650  11.335 -0.0728  0.4087  0.5574
  164TMC2     C 2553   0.919   3.366  11.045  0.6138  0.1555  0.1111
  164TMC2     O 2554   0.831   3.285  11.073  0.6109 -0.5161  0.2765
  164TMC2     H 2555   1.136   3.474  11.128 -0.0907  1.5112 -1.0114
  164TMC2    H1 2556   0.714   3.456  11.160  1.1228 -0.8730 -1.3100
  164TMC2    H2 2557   0.930   3.736  11.399 -2.2568 -0.8901  2.1300
  164TMC2    C7 2558   0.686   3.650  11.350  0.2300  0.5635  0.2286
  164TMC2    C8 2559   1.174   3.673  11.301  0.5024 -0.0826  0.3561
  164TMC2    O1 2560   0.584   3.601  11.308 -0.3638 -0.2140 -0.7087
  164TMC2    O2 2561   1.174   3.793  11.318 -0.2429 -0.1356  1.0308
  164TMC2    O5 2562   1.281   3.593  11.328 -0.9128  0.3921 -0.0827
  164TMC2    H5 2563   1.256   3.499  11.319 -2.6322  1.0181 -1.8283
  165TMC2    C1 2564   2.606   1.415   2.303  0.0034  0.3197  0.6909
  165TMC2    C2 2565   2.471   1.406   2.329 -0.1250 -0.0575  0.1162
  165TMC2    C3 2566   2.400   1.518   2.306  0.1393  0.1265 -0.7973
  165TMC2    C4 2567   2.667   1.533   2.266  0.0243 -0.4757 -0.0576
  165TMC2    C5 2568   2.584   1.635   2.222  0.5745 -0.0545  0.2199
  165TMC2    C6 2569   2.448   1.629   2.242  0.4460 -0.0837  0.1176
  165TMC2     C 2570   2.690   1.305   2.356  0.1314  0.2013  0.2675
  165TMC2     O 2571   2.642   1.191   2.356  0.8182  0.6545  0.5446
  165TMC2     H 2572   2.429   1.313   2.366  1.4944 -0.7361  0.2270
  165TMC2    H1 2573   2.775   1.537   2.257  0.0181  0.4719  0.2246
  165TMC2    H2 2574   2.389   1.719   2.239  0.6401  0.0588  0.7002
  165TMC2    C7 2575   2.644   1.751   2.164  0.2213 -0.3145 -0.1264
  165TMC2    C8 2576   2.256   1.511   2.303 -0.2051  0.8862 -0.5924
  165TMC2    O1 2577   2.765   1.733   2.137  0.4502  0.3267  0.3297
  165TMC2    O2 2578   2.184   1.610   2.288 -0.0891  0.7998 -0.0512
  165TMC2    O5 2579   2.225   1.387   2.278  0.4574  0.1827  0.4464
  165TMC2    H5 2580   2.289   1.313   2.271 -1.3377 -1.3415  0.0399
  166MPD2     C 2581   3.140   1.093   2.471  0.2048  0.7913 -0.8585
  166MPD2    C1 2582   3.022   1.038   2.420 -0.4765 -0.9024  0.2564
  166MPD2    C2 2583   2.913   1.116   2.391 -0.5568  1.3028  0.3465
  166MPD2    C3 2584   2.922   1.254   2.420 -0.5728 -0.2441  1.0433
  166MPD2    C4 2585   3.042   1.308   2.468 -0.4799 -0.0615 -0.2188
  166MPD2    C5 2586   3.146   1.225   2.504 -0.0779 -0.1014  0.2044
  166MPD2     H 2587   2.822   1.079   2.343 -0.4884 -1.5196  2.3707
  166MPD2    H1 2588   3.058   1.414   2.483 -1.2658 -0.1472  1.1847
  166MPD2    H2 2589   3.228   1.031   2.484 -0.3633  0.2244  0.2925
  166MPD2    H3 2590   3.242   1.267   2.531 -0.7277  0.9476  0.8480
  166MPD2     N 2591   2.817   1.343   2.391  0.2175 -0.1767 -0.2388
  166MPD2    H5 2592   2.838   1.441   2.410 -0.5592  0.3602 -2.1381
  166MPD2    N1 2593   3.041   0.905   2.377  0.0871  0.2614  0.5063
  166MPD2    H7 2594   3.132   0.862   2.392  0.6271  1.2187 -0.0504
  167TMC2    C1 2595   0.133   4.464  13.055  0.1541  1.0133 -0.8316
  167TMC2    C2 2596   0.108   4.492  13.189 -0.0855 -0.0865  0.5537
  167TMC2    C3 2597   0.111   4.376  13.267  0.8266  0.2777 -0.0998
  167TMC2    C4 2598   0.151   4.340  13.003 -0.3294  0.2519 -0.0830
  167TMC2    C5 2599   0.140   4.228  13.086  0.0753 -0.0466  0.5628
  167TMC2    C6 2600   0.124   4.247  13.218 -0.2013 -0.6671  0.5057
  167TMC2     C 2601   0.108   4.577  12.967  0.4196 -0.0711  0.2804
  167TMC2     O 2602   0.046   4.672  13.021  0.4923  0.3547  0.0782
  167TMC2     H 2603   0.083   4.589  13.229 -1.9229  0.0854 -1.0257
  167TMC2    H1 2604   0.152   4.308  12.900 -0.1522 -0.7543  0.2280
  167TMC2    H2 2605   0.113   4.158  13.279 -0.0298  0.0118  1.5327
  167TMC2    C7 2606   0.188   4.092  13.047 -0.2222  0.1406  0.0845
  167TMC2    C8 2607   0.051   4.375  13.402 -0.7009  0.8489 -0.4864
  167TMC2    O1 2608   0.176   4.004  13.129  0.0324 -0.4164 -0.2740
  167TMC2    O2 2609   0.004   4.276  13.455 -0.0082  0.5240  0.4385
  167TMC2    O5 2610   0.036   4.499  13.451  0.1184 -0.2218  0.3458
  167TMC2    H5 2611   0.105   4.556  13.412 -0.1640  0.3574  0.6871
  168MPD2     C 2612   0.096   0.051  12.755  0.3649  0.3169  0.2336
  168MPD2    C1 2613   0.176   4.667  12.752 -0.3561  0.2710  0.0730
  168MPD2    C2 2614   0.260   4.652  12.640 -0.3854  0.3459 -1.2250
  168MPD2    C3 2615   0.280   0.014  12.546 -0.0277 -0.2251  0.1674
  168MPD2    C4 2616   0.195   0.128  12.553 -0.3083  0.2585 -0.3179
  168MPD2    C5 2617   0.107   0.139  12.652  0.4585 -1.0618  0.6497
  168MPD2     H 2618   0.322   4.563  12.635 -0.4336  0.1100  2.3789
  168MPD2    H1 2619   0.201   0.202  12.474 -0.0722 -0.5471 -1.0619
  168MPD2    H2 2620   0.035   0.080  12.839  1.1273 -2.0330  1.6083
  168MPD2    H3 2621   0.055   0.233  12.663 -0.2748 -1.1130 -2.3431
  168MPD2     N 2622   0.373   0.005  12.440  0.0323  0.4037 -0.2548
  168MPD2    H5 2623   0.363   0.065  12.359  1.7116 -1.6665 -1.9579
  168MPD2    N1 2624   0.171   4.568  12.848 -0.3916 -0.3047 -0.3166
  168MPD2    H7 2625   0.234   4.490  12.832  2.3001  1.3976  1.9597
  169MPD1     C 2626   1.814   3.701   8.692 -0.3104 -0.2583  0.1604
  169MPD1    C1 2627   1.781   3.590   8.757  0.8604  0.1624  0.6529
  169MPD1    C2 2628   1.818   3.584   8.898 -0.7680 -0.2028  0.1344
  169MPD1    C3 2629   1.899   3.689   8.954  0.3805  0.2002  0.0089
  169MPD1    C4 2630   1.922   3.799   8.875 -0.3983  0.2348  0.0493
  169MPD1    C5 2631   1.879   3.802   8.746  0.4827  0.2250  0.1180
  169MPD1     H 2632   1.792   3.491   8.947  2.8198 -0.2957  1.8616
  169MPD1    H1 2633   1.971   3.888   8.913 -2.2581  0.8742  0.9158
  169MPD1    H2 2634   1.776   3.718   8.592  0.6814 -1.6950 -0.4597
  169MPD1    H3 2635   1.905   3.889   8.687  2.0131  0.6679  1.4644
  169MPD1     N 2636   1.930   3.673   9.086 -0.3538 -0.3302  0.5789
  169MPD1    H5 2637   1.897   3.593   9.139 -1.0049 -0.8895 -0.6746
  169MPD1    N1 2638   1.700   3.496   8.696  0.5807 -0.1432 -0.3828
  169MPD1    H6 2639   1.712   3.403   8.736  2.0384  0.7166  1.1343
  169MPD1    H7 2640   1.718   3.482   8.597 -1.1278  0.5824 -0.8054
  170MPD1     C 2641   1.680   1.076  13.136  0.3108 -0.3056  0.7870
  170MPD1    C1 2642   1.717   1.016  13.255  0.1616  0.1793  0.2324
  170MPD1    C2 2643   1.690   1.092  13.368  0.0898 -0.1666 -0.2396
  170MPD1    C3 2644   1.661   1.230  13.367  0.4187 -0.4029  0.0370
  170MPD1    C4 2645   1.646   1.287  13.230 -0.2418 -0.2277 -0.4591
  170MPD1    C5 2646   1.641   1.206  13.117  0.1653  0.0619 -0.5835
  170MPD1     H 2647   1.716   1.038  13.458 -0.0851  1.8736  1.0448
  170MPD1    H1 2648   1.617   1.390  13.209  0.2518  0.3763  1.8344
  170MPD1    H2 2649   1.688   1.024  13.040  1.9090 -0.1753  0.8375
  170MPD1    H3 2650   1.624   1.242  13.017  1.6138  1.5959 -0.2678
  170MPD1     N 2651   1.623   1.302  13.482  0.4895  0.0653  0.8735
  170MPD1    H5 2652   1.598   1.255  13.568  0.6733 -2.4369 -0.4313
  170MPD1    N1 2653   1.750   0.877  13.268 -0.2747  0.2944 -0.4414
  170MPD1    H6 2654   1.804   0.860  13.353 -2.5082 -0.0730  0.9014
  170MPD1    H7 2655   1.784   0.833  13.184 -0.1671 -1.8786  0.7422
  171MPD1     C 2656   4.621   2.916  15.459 -0.3487  0.1080 -0.3265
  171MPD1    C1 2657   4.719   2.902  15.559  0.0561 -0.4406  0.1053
  171MPD1    C2 2658   4.720   2.781  15.630 -0.5119  0.4879  0.0197
  171MPD1    C3 2659   4.648   2.671  15.593  0.0150 -0.7624  0.9179
  171MPD1    C4 2660   4.551   2.679  15.494  0.5856 -0.0781 -0.2915
  171MPD1    C5 2661   4.535   2.809  15.432  0.2339  0.2554  0.5657
  171MPD1     H 2662   0.061   2.758  15.706  0.8924  1.7552 -0.9670
  171MPD1    H1 2663   4.505   2.588  15.456 -3.6660  2.4376 -1.1219
  171MPD1    H2 2664   4.605   3.009  15.406  0.9278 -1.1184 -2.8249
  171MPD1    H3 2665   4.471   2.815  15.345  1.5980 -1.0007 -0.5323
  171MPD1     N 2666   4.675   2.555  15.663  0.5605 -0.2353 -0.6686
  171MPD1    H5 2667   0.013   2.563  15.734 -0.1552 -2.3184  0.3035
  171MPD1    N1 2668   0.090   2.991  15.580  0.6784 -0.6328 -0.6657
  171MPD1    H6 2669   0.069   3.087  15.553 -1.0274 -0.5681  0.9357
  171MPD1    H7 2670   0.135   2.983  15.671  0.0946 -0.3762 -0.3548
  172MPD1     C 2671   4.052   0.996   0.467  0.1765  0.2661  0.4311
  172MPD1    C1 2672   4.053   1.068   0.349 -0.0420 -0.9299  0.0534
  172MPD1    C2 2673   4.063   1.202   0.359  1.0270 -0.0290  0.2894
  172MPD1    C3 2674   4.088   1.266   0.480 -1.4297 -0.3901 -0.7160
  172MPD1    C4 2675   4.084   1.194   0.597 -0.7607 -0.5066  0.0564
  172MPD1    C5 2676   4.065   1.057   0.587  0.1842 -0.0324 -0.7278
  172MPD1     H 2677   4.033   1.261   0.273 -2.5258  0.2533  1.7418
  172MPD1    H1 2678   4.106   1.243   0.692 -1.7506 -1.8485  0.9868
  172MPD1    H2 2679   4.031   0.889   0.469 -2.2077  0.6498 -2.7007
  172MPD1    H3 2680   4.067   0.998   0.678  1.9054 -1.3413 -1.6259
  172MPD1     N 2681   4.105   1.408   0.491 -0.5596  0.1664 -0.4369
  172MPD1    H5 2682   4.124   1.440   0.586  4.6340  1.6214 -1.9718
  172MPD1    N1 2683   4.015   0.999   0.236  0.4029 -1.0088  0.1407
  172MPD1    H6 2684   4.038   1.053   0.153  0.1226  2.1182  2.0708
  172MPD1    H7 2685   4.091   0.932   0.242  1.7452  0.5707  0.9644
  173MPD1     C 2686   0.497   2.351  14.096  0.6875  0.0511 -0.1984
  173MPD1    C1 2687   0.597   2.357  14.192  0.0006 -0.4592  0.2450
  173MPD1    C2 2688   0.625   2.253  14.268  0.2109  0.1163 -0.0063
  173MPD1    C3 2689   0.540   2.142  14.278  0.5035 -0.2474  1.7109
  173MPD1    C4 2690   0.430   2.134  14.195 -0.2510  0.5510 -0.4692
  173MPD1    C5 2691   0.413   2.238  14.109 -0.4512  0.3682 -0.1669
  173MPD1     H 2692   0.708   2.246  14.336 -0.4037  0.9132  0.8208
  173MPD1    H1 2693   0.355   2.056  14.184 -2.5731  2.4226  1.8830
  173MPD1    H2 2694   0.465   2.435  14.035  2.1568  0.3737 -0.5193
  173MPD1    H3 2695   0.327   2.241  14.042 -1.3507 -1.6055  0.8923
  173MPD1     N 2696   0.579   2.043  14.368 -0.1414  0.4238  0.3765
  173MPD1    H5 2697   0.664   2.049  14.423  0.0981 -0.6078  0.1187
  173MPD1    N1 2698   0.693   2.458  14.176  0.4864 -0.6848  0.0524
  173MPD1    H6 2699   0.741   2.476  14.264 -0.0633 -2.4781  0.7234
  173MPD1    H7 2700   0.645   2.546  14.161  1.7931 -0.2715 -1.7618
  174MPD1     C 2701   1.275   1.575  14.261  0.1874  0.5425  0.5725
  174MPD1    C1 2702   1.232   1.509  14.371 -0.7909 -0.2893 -0.4925
  174MPD1    C2 2703   1.131   1.573  14.456  0.6281  0.2500 -0.1457
  174MPD1    C3 2704   1.061   1.681  14.408 -0.1719  0.4488  0.8573
  174MPD1    C4 2705   1.123   1.755  14.301 -0.1282  0.3440 -0.0707
  174MPD1    C5 2706   1.229   1.698  14.234 -0.4268  0.2827  0.0969
  174MPD1     H 2707   1.090   1.525  14.544  0.9855  2.1452  1.0508
  174MPD1    H1 2708   1.088   1.850  14.263 -1.7139 -0.1558  0.1270
  174MPD1    H2 2709   1.344   1.536  14.186  0.5510 -1.0638  1.7479
  174MPD1    H3 2710   1.263   1.748  14.144 -1.0199 -0.1440 -0.3732
  174MPD1     N 2711   0.941   1.727  14.471  0.1363 -0.0734  0.3076
  174MPD1    H5 2712   0.899   1.810  14.430  1.8428  1.4300  1.6264
  174MPD1    N1 2713   1.290   1.387  14.408  0.1380  0.6719  0.1211
  174MPD1    H6 2714   1.227   1.327  14.460  0.3820 -2.1895 -2.8528
  174MPD1    H7 2715   1.308   1.333  14.323  0.2319 -0.2399  0.7148
  175MPD1     C 2716   3.676   2.657  15.574  0.5745  0.0039  0.1605
  175MPD1    C1 2717   3.663   2.521  15.598 -0.3571  1.0680 -0.5992
  175MPD1    C2 2718   3.657   2.480  15.732  0.3487 -0.1542  0.4990
  175MPD1    C3 2719   3.652   2.572  15.837 -0.3206  0.0541  0.0184
  175MPD1    C4 2720   3.653   2.707  15.810  0.4977  0.2496  0.0584
  175MPD1    C5 2721   3.657   2.749  15.679 -0.3547  0.1416 -0.5164
  175MPD1     H 2722   3.635   2.375  15.750 -1.1110 -0.2011 -1.4880
  175MPD1    H1 2723   3.648   2.782  15.889 -1.8403 -1.3640  1.4390
  175MPD1    H2 2724   3.699   2.694  15.475  0.9783 -1.7772 -0.4225
  175MPD1    H3 2725   3.669   2.856  15.666 -0.0511  0.2796  0.8812
  175MPD1     N 2726   3.635   2.539  15.978  0.1389  0.0484  0.7417
  175MPD1    H5 2727   3.606   2.608  16.047  0.2430  2.4819 -1.6470
  175MPD1    N1 2728   3.680   2.438  15.492 -0.2992  0.0313 -0.2931
  175MPD1    H6 2729   3.631   2.351  15.509  0.5840 -0.2452  0.8487
  175MPD1    H7 2730   3.650   2.483  15.405 -1.2776 -0.7771 -0.3648
  176MPD1     C 2731   0.786   4.333  16.800 -0.2057  0.4570  0.2452
  176MPD1    C1 2732   0.817   4.465  16.776 -0.1216  0.5073 -0.7082
  176MPD1    C2 2733   0.760   4.557  16.861 -0.1579  0.3387 -0.7251
  176MPD1    C3 2734   0.685   4.512  16.973  0.2781 -0.7757 -0.9926
  176MPD1    C4 2735   0.660   4.383  16.998 -0.6666  0.2858 -0.4025
  176MPD1    C5 2736   0.707   4.287  16.909 -0.8346 -0.5260 -0.2971
  176MPD1     H 2737   0.760   4.663  16.838  0.9466  0.7034  0.9429
  176MPD1    H1 2738   0.616   4.345  17.090  1.3336 -2.4021 -0.5767
  176MPD1    H2 2739   0.822   4.252  16.737 -2.2512  0.1270 -0.4918
  176MPD1    H3 2740   0.694   4.181  16.929  0.9429 -0.6132  0.3666
  176MPD1     N 2741   0.631   4.616  17.056 -0.5133 -0.1000 -0.0074
  176MPD1    H5 2742   0.651   4.713  17.036  1.0356 -0.4955 -0.3794
  176MPD1    N1 2743   0.906   4.503  16.678 -0.7828  0.0586 -0.1369
  176MPD1    H6 2744   0.892   4.459  16.587  0.2246 -0.5933  0.0233
  176MPD1    H7 2745   0.900   4.604  16.665  0.1038  0.0791 -0.4452
  177MPD1     C 2746   3.626   4.075  10.384 -1.0694  0.2639  0.2946
  177MPD1    C1 2747   3.634   4.168  10.281  0.4121  0.1747  0.2216
  177MPD1    C2 2748   3.540   4.170  10.185 -0.4120  0.2718 -1.0158
  177MPD1    C3 2749   3.437   4.080  10.182 -0.3163  0.2520 -0.2699
  177MPD1    C4 2750   3.418   3.999  10.291  0.3512 -0.4104 -0.7374
  177MPD1    C5 2751   3.519   3.996  10.389 -0.1870 -1.0097  0.5207
  177MPD1     H 2752   3.552   4.232  10.097 -0.7390 -2.0212 -2.6847
  177MPD1    H1 2753   3.345   3.919  10.296 -0.8765  0.7792  0.1180
  177MPD1    H2 2754   3.704   4.072  10.458 -1.4431  0.8096  0.7129
  177MPD1    H3 2755   3.512   3.926  10.472  0.0166 -0.6635  0.8297
  177MPD1     N 2756   3.349   4.093  10.076  0.2341  0.3147  0.0013
  177MPD1    H5 2757   3.375   4.164  10.009 -0.5310  0.5626 -0.0326
  177MPD1    N1 2758   3.751   4.247  10.275  0.2874 -0.0983  0.0914
  177MPD1    H6 2759   3.787   4.254  10.370 -0.2032  0.6906  0.2255
  177MPD1    H7 2760   3.733   4.342  10.241  0.2136  0.0961  0.6750
  178MPD1     C 2761   0.832   0.362   0.383 -0.1124  0.0865  0.3459
  178MPD1    C1 2762   0.903   0.478   0.374  0.1615 -0.1576  0.4176
  178MPD1    C2 2763   1.007   0.489   0.285  0.2272  0.0724 -0.4816
  178MPD1    C3 2764   1.036   0.385   0.203 -0.1896  0.7586 -0.7959
  178MPD1    C4 2765   0.974   0.266   0.217  1.0379 -0.3331 -0.5516
  178MPD1    C5 2766   0.869   0.250   0.306 -0.1002 -0.7793 -0.4968
  178MPD1     H 2767   1.056   0.586   0.279  1.5177 -0.5693 -0.5119
  178MPD1    H1 2768   0.993   0.189   0.143  0.3270 -1.9499  0.9574
  178MPD1    H2 2769   0.746   0.354   0.448 -0.4533  0.6299 -0.0348
  178MPD1    H3 2770   0.815   0.156   0.312  0.3843 -1.0205  0.1038
  178MPD1     N 2771   1.127   0.393   0.095 -0.7021  0.0846 -0.1012
  178MPD1    H5 2772   1.145   0.306   0.045 -1.0660  0.4766 -0.9152
  178MPD1    N1 2773   0.864   0.588   0.443  0.1443 -0.6454 -0.5646
  178MPD1    H6 2774   0.929   0.666   0.432 -0.7343 -0.2533 -2.9048
  178MPD1    H7 2775   0.848   0.574   0.543 -1.1984  0.4611 -0.6378
  179MPD1     C 2776   1.125   2.999  15.260  0.7014 -0.1044  0.2110
  179MPD1    C1 2777   1.225   3.046  15.345  0.3133 -0.7527  0.3480
  179MPD1    C2 2778   1.178   3.101  15.465  0.3157  0.0310  0.2412
  179MPD1    C3 2779   1.041   3.133  15.488  0.7692  0.6498  0.7412
  179MPD1    C4 2780   0.949   3.092  15.393  0.2978 -0.1524  0.2494
  179MPD1    C5 2781   0.994   3.027  15.284 -0.1603 -0.3428 -0.4506
  179MPD1     H 2782   1.239   3.123  15.551 -0.1449  1.8160  0.0991
  179MPD1    H1 2783   0.842   3.100  15.405  0.2941 -0.2836  0.3001
  179MPD1    H2 2784   1.143   2.934  15.174  1.2954 -0.6419  0.7447
  179MPD1    H3 2785   0.923   2.978  15.218 -0.2447 -0.1610 -0.4940
  179MPD1     N 2786   0.986   3.197  15.601  0.2770 -0.2459 -0.0504
  179MPD1    H5 2787   0.885   3.198  15.600  0.2796  1.3210  1.1575
  179MPD1    N1 2788   1.356   3.012  15.330 -0.8051  0.1056  0.1960
  179MPD1    H6 2789   1.412   3.083  15.377  0.3187  0.3603 -1.5342
  179MPD1    H7 2790   1.384   3.023  15.233  1.6369  1.3912  1.0473
  180MPD1     C 2791   1.458   0.669  15.273 -0.0529 -0.1052  0.3298
  180MPD1    C1 2792   1.419   0.711  15.151  1.0762  0.6967  0.0683
  180MPD1    C2 2793   1.302   0.667  15.097  0.7699 -0.4581 -0.4955
  180MPD1    C3 2794   1.224   0.576  15.173  0.2821 -0.1429 -0.2729
  180MPD1    C4 2795   1.267   0.530  15.294 -0.7571 -0.6798 -0.1304
  180MPD1    C5 2796   1.383   0.581  15.346  0.4002 -0.7886  1.0317
  180MPD1     H 2797   1.275   0.693  14.995  0.2718 -2.6285 -0.9040
  180MPD1    H1 2798   1.216   0.445  15.339 -0.2273 -0.1128  1.5270
  180MPD1    H2 2799   1.545   0.707  15.325  0.0047  0.9413 -0.5263
  180MPD1    H3 2800   1.420   0.543  15.440  1.0868  0.5793  1.3264
  180MPD1     N 2801   1.106   0.530  15.108  0.3352  0.5089 -0.0918
  180MPD1    H5 2802   1.087   0.571  15.017  0.5246 -0.8786 -0.7599
  180MPD1    N1 2803   1.473   0.826  15.090 -0.6221  1.0655 -0.6916
  180MPD1    H6 2804   1.574   0.836  15.104 -0.4477 -0.1334 -1.1110
  180MPD1    H7 2805   1.456   0.816  14.990  0.8292  3.8767 -1.2093
  181MPD1     C 2806   1.742   1.479  10.163  0.7052 -0.0920  0.2971
  181MPD1    C1 2807   1.820   1.532  10.263  0.3033 -0.6253 -0.6676
  181MPD1    C2 2808   1.925   1.622  10.224 -0.8420  0.1368  0.2560
  181MPD1    C3 2809   1.947   1.657  10.092  0.0205 -0.0924  0.4331
  181MPD1    C4 2810   1.862   1.603  10.004 -0.0061  0.1490 -0.2297
  181MPD1    C5 2811   1.764   1.511  10.033  0.3008 -0.5872 -0.1992
  181MPD1     H 2812   1.981   1.659  10.309 -0.5915  0.1221  0.0962
  181MPD1    H1 2813   1.883   1.613   9.898 -2.4044  1.3568 -0.5819
  181MPD1    H2 2814   1.668   1.404  10.190  1.0891  0.0611  1.8079
  181MPD1    H3 2815   1.728   1.452   9.950  2.8168  1.1173 -2.4906
  181MPD1     N 2816   2.054   1.738  10.049  0.0308  0.0851  0.2097
  181MPD1    H5 2817   2.067   1.743   9.948  0.9522 -1.6860  0.2390
  181MPD1    N1 2818   1.817   1.473  10.389 -0.3643  0.0029  0.2830
  181MPD1    H6 2819   1.724   1.438  10.411 -0.8751 -1.0792 -3.6447
  181MPD1    H7 2820   1.834   1.552  10.451  0.6290  0.4908 -0.6001
  182MPD1     C 2821   3.575   0.252   1.620  0.3568 -1.0600  0.2188
  182MPD1    C1 2822   3.542   0.214   1.496  0.5878  0.3583 -0.1791
  182MPD1    C2 2823   3.481   0.305   1.410 -0.1008  0.0446 -0.3489
  182MPD1    C3 2824   3.446   0.429   1.452 -0.3491 -1.6661 -0.5414
  182MPD1    C4 2825   3.463   0.466   1.582 -0.0648 -0.0894  0.0595
  182MPD1    C5 2826   3.529   0.371   1.665 -0.5775 -0.0993  0.2424
  182MPD1     H 2827   3.484   0.283   1.304  1.2690  0.6209 -0.4323
  182MPD1    H1 2828   3.435   0.559   1.630  1.6267  0.5893 -0.2499
  182MPD1    H2 2829   3.625   0.188   1.691  1.0513 -0.0435  0.6416
  182MPD1    H3 2830   3.549   0.390   1.769  0.7022 -2.2307  0.3896
  182MPD1     N 2831   3.377   0.516   1.367 -0.4850  0.1649  0.2683
  182MPD1    H5 2832   3.351   0.604   1.412 -0.9388 -1.0863  2.4452
  182MPD1    N1 2833   3.589   0.087   1.447 -0.3082 -0.2705 -0.7250
  182MPD1    H6 2834   3.526   0.047   1.378  0.3508 -2.8856  0.1738
  182MPD1    H7 2835   3.591   0.024   1.527  0.2059  2.4525  1.4051
  183MPD1     C 2836   3.495   1.511   9.043  0.2416 -0.7190 -0.0454
  183MPD1    C1 2837   3.504   1.636   9.102 -0.5136 -0.0207  0.4658
  183MPD1    C2 2838   3.576   1.648   9.220  0.5313  0.1030 -0.3391
  183MPD1    C3 2839   3.623   1.529   9.282  0.6177 -0.0122  0.5723
  183MPD1    C4 2840   3.607   1.407   9.226  0.6874 -0.1345  0.1486
  183MPD1    C5 2841   3.548   1.398   9.102 -0.3538  0.0297 -0.6216
  183MPD1     H 2842   3.580   1.741   9.276  0.3577  0.6302 -1.2067
  183MPD1    H1 2843   3.636   1.318   9.281 -0.1922 -1.0979 -0.9408
  183MPD1    H2 2844   3.445   1.502   8.948 -1.9071  0.8639  0.9387
  183MPD1    H3 2845   3.528   1.302   9.055  0.9139  0.0031 -1.1009
  183MPD1     N 2846   3.689   1.546   9.413  0.2527 -0.4541 -0.7446
  183MPD1    H5 2847   3.688   1.641   9.448 -1.1596 -1.3725  1.7389
  183MPD1    N1 2848   3.441   1.752   9.037 -0.2691 -0.4138 -0.1133
  183MPD1    H6 2849   3.467   1.767   8.940  0.7454 -1.2292  0.0423
  183MPD1    H7 2850   3.471   1.839   9.082  1.0576 -0.2126 -1.3909
  184MPD1     C 2851   2.991   3.817  10.889 -0.2985  0.2937  0.0690
  184MPD1    C1 2852   3.111   3.875  10.849 -0.5561 -0.0767 -0.2495
  184MPD1    C2 2853   3.115   3.952  10.735  0.3933 -0.9227  0.0061
  184MPD1    C3 2854   2.994   3.981  10.662 -0.1696 -0.9813  0.7660
  184MPD1    C4 2855   2.874   3.923  10.705 -0.3667  0.4640 -0.4199
  184MPD1    C5 2856   2.875   3.841  10.818 -0.1297 -0.4003 -0.4791
  184MPD1     H 2857   3.211   3.989  10.703  0.1385  0.6013  1.0186
  184MPD1    H1 2858   2.778   3.939  10.659 -0.0033  0.6559 -1.1037
  184MPD1    H2 2859   2.974   3.760  10.979 -0.5482 -2.4863 -1.7336
  184MPD1    H3 2860   2.781   3.809  10.862 -0.5337 -0.1376 -1.1646
  184MPD1     N 2861   2.986   4.065  10.551  0.0136  0.2851  0.1414
  184MPD1    H5 2862   2.906   4.067  10.489 -1.2660  2.9521  1.8584
  184MPD1    N1 2863   3.229   3.859  10.928 -0.6528 -0.3885  0.2859
  184MPD1    H6 2864   3.212   3.871  11.027 -2.7845 -0.4535 -0.0693
  184MPD1    H7 2865   3.310   3.915  10.903  0.1555 -1.8512 -0.3441
  185MPD1     C 2866   2.309   4.250  10.082  0.7714  0.0333 -0.2505
  185MPD1    C1 2867   2.379   4.368  10.088  0.1378 -0.2273 -0.1383
  185MPD1    C2 2868   2.517   4.373  10.119 -0.0498 -0.2643 -0.5350
  185MPD1    C3 2869   2.587   4.257  10.147 -0.2686  0.1773  0.2156
  185MPD1    C4 2870   2.515   4.139  10.166  0.4212  0.0437  0.3010
  185MPD1    C5 2871   2.378   4.133  10.120  0.1282  0.2252  0.1165
  185MPD1     H 2872   2.573   4.465  10.114  0.7659 -0.5678  3.3731
  185MPD1    H1 2873   2.560   4.047  10.201  0.8523  0.8995  1.9694
  185MPD1    H2 2874   2.202   4.238  10.066  0.6784 -1.3174  1.3479
  185MPD1    H3 2875   2.321   4.043  10.141 -0.9592  1.3968  2.2226
  185MPD1     N 2876   2.721   4.258  10.182 -0.2783  0.0168 -0.1135
  185MPD1    H5 2877   2.756   4.174  10.225 -0.0876 -0.5329 -1.3426
  185MPD1    N1 2878   2.307   4.480  10.052 -0.7108  0.1584 -0.0447
  185MPD1    H6 2879   2.333   4.564  10.102  1.3611  0.1245 -1.0311
  185MPD1    H7 2880   2.206   4.475  10.062 -0.4767 -1.5723  1.4423
  186MPD1     C 2881   1.117   4.582  15.843  0.5431  0.1990 -1.3774
  186MPD1    C1 2882   1.047   4.567  15.960 -0.0897  0.0820 -0.0562
  186MPD1    C2 2883   1.097   4.479  16.050 -0.1361 -0.4611  1.1649
  186MPD1    C3 2884   1.223   4.415  16.035 -0.3735 -0.2440  0.1168
  186MPD1    C4 2885   1.290   4.432  15.919 -0.4447 -0.5614 -0.1444
  186MPD1    C5 2886   1.240   4.517  15.820 -0.1764 -0.0365 -0.3528
  186MPD1     H 2887   1.049   4.464  16.146  0.9842  3.1716  2.2744
  186MPD1    H1 2888   1.389   4.390  15.904 -0.0706  0.5406 -0.8380
  186MPD1    H2 2889   1.080   4.633  15.754 -0.1267 -0.3244 -1.4045
  186MPD1    H3 2890   1.293   4.528  15.726 -1.8429 -1.6274 -1.4774
  186MPD1     N 2891   1.280   4.321  16.127  0.1764  0.0748 -0.1007
  186MPD1    H5 2892   1.364   4.276  16.090  0.5757 -0.9647  2.0912
  186MPD1    N1 2893   0.917   4.628  15.979 -0.1249  0.4842  0.4173
  186MPD1    H6 2894   0.909   4.641  16.080 -0.1931  0.1160  0.4594
  186MPD1    H7 2895   0.920   4.721  15.939 -3.4475  0.4485  0.0894
  187MPD1     C 2896   0.132   0.914   0.318 -0.1821 -0.4941  0.3333
  187MPD1    C1 2897   0.146   0.789   0.260 -0.0145  0.1120  0.4386
  187MPD1    C2 2898   0.178   0.777   0.131  0.3666 -0.2657 -1.0186
  187MPD1    C3 2899   0.213   0.886   0.057 -0.1038  0.6348 -0.1505
  187MPD1    C4 2900   0.223   1.011   0.120 -0.3576  0.3471  0.1207
  187MPD1    C5 2901   0.172   1.025   0.250  0.2651 -0.0799 -0.4377
  187MPD1     H 2902   0.180   0.676   0.091  2.5385 -0.1885 -1.0866
  187MPD1    H1 2903   0.256   1.101   0.070  0.7345  0.0239  0.2794
  187MPD1    H2 2904   0.100   0.932   0.420 -0.8842 -1.6614  0.3176
  187MPD1    H3 2905   0.176   1.122   0.299 -2.5366 -0.4808  0.5850
  187MPD1     N 2906   0.234   0.875  17.652 -0.4865  0.5706 -0.1576
  187MPD1    H5 2907   0.255   0.963  17.604 -0.4165  0.3201 -0.5898
  187MPD1    N1 2908   0.095   0.679   0.328 -0.0468  0.0984 -0.3135
  187MPD1    H6 2909   0.096   0.680   0.430 -0.2547 -2.2570 -0.2978
  187MPD1    H7 2910   0.117   0.586   0.294  2.5894  0.1109  1.3396
  188MPD1     C 2911   0.925   0.273  11.172 -0.7787  0.2072 -0.2435
  188MPD1    C1 2912   0.803   0.254  11.112  0.2028  0.2251  0.5812
  188MPD1    C2 2913   0.804   0.204  10.984 -0.0964 -0.5267 -0.3547
  188MPD1    C3 2914   0.919   0.156  10.924  0.6364 -0.8267 -0.1278
  188MPD1    C4 2915   1.041   0.170  10.991  0.0959 -0.2779 -0.0736
  188MPD1    C5 2916   1.047   0.237  11.110  0.0584 -0.2030 -0.2775
  188MPD1     H 2917   0.711   0.195  10.929 -0.5979  0.6704  0.2915
  188MPD1    H1 2918   1.139   0.148  10.950  1.0365 -0.1819  2.1590
  188MPD1    H2 2919   0.929   0.331  11.263  0.5532  0.4394 -0.4509
  188MPD1    H3 2920   1.145   0.267  11.148 -0.4242 -1.2393  1.7979
  188MPD1     N 2921   0.913   0.083  10.802 -0.1536  0.0378 -0.3936
  188MPD1    H5 2922   1.005   0.046  10.777  0.4891  1.0076  0.5187
  188MPD1    N1 2923   0.689   0.311  11.163  0.1253 -0.4714  0.2315
  188MPD1    H6 2924   0.667   0.308  11.263 -0.0069  1.8323  0.2713
  188MPD1    H7 2925   0.609   0.275  11.111 -0.5187 -0.3826  1.1613
  189MPD1     C 2926   2.252   1.989   0.676  0.5779  0.8422 -0.4982
  189MPD1    C1 2927   2.173   1.898   0.610  0.0184  0.4370 -0.9980
  189MPD1    C2 2928   2.055   1.939   0.543  0.3203  0.6290 -0.2728
  189MPD1    C3 2929   2.019   2.072   0.544 -0.7773 -0.2905  0.4644
  189MPD1    C4 2930   2.110   2.163   0.587  0.0589 -0.0741  0.5007
  189MPD1    C5 2931   2.219   2.124   0.654  0.0410 -0.7474  0.9932
  189MPD1     H 2932   1.997   1.859   0.497  1.0061 -0.2822  0.4536
  189MPD1    H1 2933   2.094   2.268   0.567 -1.2991 -0.1709  1.0411
  189MPD1    H2 2934   2.337   1.976   0.743  1.8623  0.2186 -2.2556
  189MPD1    H3 2935   2.286   2.198   0.698 -2.3228  1.8203  0.2777
  189MPD1     N 2936   1.899   2.106   0.480  0.0505  0.3463  0.3468
  189MPD1    H5 2937   1.842   2.032   0.439  0.6248  0.2808 -0.3314
  189MPD1    N1 2938   2.219   1.767   0.620 -0.0886  0.2389 -0.0549
  189MPD1    H6 2939   2.203   1.737   0.524 -2.8608  1.1466  0.1393
  189MPD1    H7 2940   2.321   1.769   0.630 -0.0323  0.4555 -0.6755
  190MPD1     C 2941   0.852   0.033  15.110  0.4216 -0.0657 -0.1746
  190MPD1    C1 2942   0.986   0.041  15.071 -0.0733 -0.8407 -0.5214
  190MPD1    C2 2943   1.085   0.067  15.168 -0.0579 -0.7107  0.4484
  190MPD1    C3 2944   1.048   0.107  15.296 -0.4326 -0.3556  0.0406
  190MPD1    C4 2945   0.915   0.103  15.327  0.0879  0.8962  0.3730
  190MPD1    C5 2946   0.822   0.058  15.237 -0.0704 -0.6121  0.0658
  190MPD1     H 2947   1.189   0.069  15.138  0.3090  0.5417  1.8071
  190MPD1    H1 2948   0.874   0.123  15.426  0.2008 -3.2275  1.2491
  190MPD1    H2 2949   0.775   4.730  15.043 -0.3975 -1.7315  1.6828
  190MPD1    H3 2950   0.718   0.049  15.266  0.1709 -2.3849  0.3682
  190MPD1     N 2951   1.152   0.142  15.390  0.1427 -0.7587 -1.1174
  190MPD1    H5 2952   1.247   0.125  15.357  1.2054  1.7567  0.6392
  190MPD1    N1 2953   1.038   0.000  14.948 -0.6967 -0.0677  0.7016
  190MPD1    H6 2954   1.114   0.064  14.925 -1.7134  1.1162  0.5913
  190MPD1    H7 2955   0.967   4.712  14.878 -0.6382 -0.4195  0.7523
  191MPD1     C 2956   0.522   2.676  11.539  0.2026  0.0175  0.5446
  191MPD1    C1 2957   0.547   2.583  11.443  0.4550 -0.2697  0.8757
  191MPD1    C2 2958   0.520   2.450  11.475 -0.4367 -0.2487  0.6276
  191MPD1    C3 2959   0.462   2.416  11.604 -0.6026  0.3848  0.6277
  191MPD1    C4 2960   0.431   2.518  11.689  0.0868 -0.1900  0.1816
  191MPD1    C5 2961   0.467   2.644  11.659 -0.9687  0.1596  0.4787
  191MPD1     H 2962   0.536   2.368  11.405  1.8491  0.5497  0.2158
  191MPD1    H1 2963   0.378   2.500  11.782 -1.4376 -1.1838 -0.8929
  191MPD1    H2 2964   0.558   2.776  11.515  0.1374  0.7083  3.3167
  191MPD1    H3 2965   0.450   2.718  11.736 -2.9274 -1.5538  1.6912
  191MPD1     N 2966   0.435   2.281  11.629  0.3514 -0.0637 -0.1389
  191MPD1    H5 2967   0.442   2.218  11.549  2.0796  1.0045 -0.8285
  191MPD1    N1 2968   0.594   2.619  11.316  0.4184 -0.2016 -0.2606
  191MPD1    H6 2969   0.526   2.676  11.265 -0.2402 -0.4963  0.2890
  191MPD1    H7 2970   0.613   2.535  11.262 -1.2679 -0.3006 -0.7010
  192MPD1     C 2971   0.189   1.391  11.310  0.1822  0.2883  0.8559
  192MPD1    C1 2972   0.187   1.521  11.263  0.2567  0.3782  0.4620
  192MPD1    C2 2973   0.232   1.620  11.348 -0.0701 -0.6735 -0.1621
  192MPD1    C3 2974   0.259   1.592  11.479 -0.6956  0.0788  0.0330
  192MPD1    C4 2975   0.242   1.468  11.531  0.7200  0.4199  0.1159
  192MPD1    C5 2976   0.209   1.367  11.444 -0.5179 -0.1332 -0.2780
  192MPD1     H 2977   0.240   1.721  11.310 -0.9508 -0.6881 -0.3770
  192MPD1    H1 2978   0.246   1.437  11.635  0.2703 -0.0618 -0.0096
  192MPD1    H2 2979   0.173   1.304  11.248 -1.8793  1.1305  0.1866
  192MPD1    H3 2980   0.199   1.266  11.482  0.1544  0.7697  2.3300
  192MPD1     N 2981   0.312   1.683  11.574  0.5209  0.2055  0.4828
  192MPD1    H5 2982   0.305   1.650  11.670 -0.1601  0.1438  0.4140
  192MPD1    N1 2983   0.188   1.535  11.123  0.3486 -0.3125  0.5550
  192MPD1    H6 2984   0.119   1.468  11.091  1.0559 -1.2999  1.0989
  192MPD1    H7 2985   0.158   1.628  11.093 -0.8536 -0.6878  0.5897
  193MPD1     C 2986   4.526   2.154  15.993  0.0008  0.7026  0.0165
  193MPD1    C1 2987   4.494   2.271  16.055 -0.2437 -0.3929 -0.3875
  193MPD1    C2 2988   4.579   2.314  16.152  0.0877 -0.0154  0.2698
  193MPD1    C3 2989   4.687   2.239  16.197  0.6373  0.0292  0.4802
  193MPD1    C4 2990   4.722   2.123  16.130 -0.3507 -0.1985  0.7119
  193MPD1    C5 2991   4.639   2.084  16.028 -0.1730 -0.0549 -0.0908
  193MPD1     H 2992   4.560   2.412  16.195 -0.5136  0.0850 -0.2347
  193MPD1    H1 2993   0.072   2.062  16.159  0.8837  0.2981 -1.8183
  193MPD1    H2 2994   4.469   2.112  15.911 -0.6891 -0.9563  1.3429
  193MPD1    H3 2995   4.664   1.995  15.972  0.5681 -0.0744  0.2656
  193MPD1     N 2996   0.032   2.284  16.308  0.4262 -0.4026 -0.0703
  193MPD1    H5 2997   0.117   2.230  16.320  1.9377  1.6157 -1.6415
  193MPD1    N1 2998   4.396   2.356  16.000  0.2946 -0.5560  0.0767
  193MPD1    H6 2999   4.331   2.301  15.944 -0.5467  0.3091  0.2133
  193MPD1    H7 3000   4.344   2.409  16.070 -1.3138 -1.3293 -0.5352
  194MPD1     C 3001   2.439   3.968  16.310 -0.0360  0.4203  0.3326
  194MPD1    C1 3002   2.354   4.000  16.409 -0.6828  0.8968  0.0791
  194MPD1    C2 3003   2.374   3.939  16.532 -0.0469 -0.3562 -0.2480
  194MPD1    C3 3004   2.471   3.844  16.556 -0.3681 -0.2098 -0.0408
  194MPD1    C4 3005   2.543   3.795  16.445 -0.0405 -0.2349 -0.2647
  194MPD1    C5 3006   2.510   3.853  16.326  0.1347  0.0791  0.4137
  194MPD1     H 3007   2.317   3.979  16.616  0.6738 -0.2618  0.1948
  194MPD1    H1 3008   2.619   3.719  16.453  0.5051  0.3858  0.5556
  194MPD1    H2 3009   2.450   4.034  16.225 -1.5848  1.3897  0.8990
  194MPD1    H3 3010   2.575   3.816  16.247  0.4764  0.0192  0.7173
  194MPD1     N 3011   2.481   3.786  16.688  0.7433  0.4454 -0.1506
  194MPD1    H5 3012   2.540   3.704  16.700  1.1409  0.7519 -0.0461
  194MPD1    N1 3013   2.276   4.114  16.400 -0.0406  0.2441 -0.8601
  194MPD1    H6 3014   2.233   4.143  16.312  0.2694 -0.1651 -1.1431
  194MPD1    H7 3015   2.201   4.107  16.469 -0.8068  2.3572 -1.4519
  195MPD1     C 3016   4.659   1.041  17.015  0.2818 -0.5607 -0.4605
  195MPD1    C1 3017   4.623   0.912  17.037 -0.0796 -0.0275 -0.2405
  195MPD1    C2 3018   4.574   0.884  17.164 -0.5603  1.0069  1.0227
  195MPD1    C3 3019   4.620   0.961  17.269 -0.3713 -0.2102  0.7852
  195MPD1    C4 3020   4.670   1.089  17.239  0.5476 -0.1661  0.0963
  195MPD1    C5 3021   4.678   1.131  17.113  0.2869 -0.0406 -0.3545
  195MPD1     H 3022   4.514   0.796  17.182 -0.2248  0.0445 -2.5647
  195MPD1    H1 3023   4.685   1.165  17.315  0.4015  1.3688 -1.4040
  195MPD1    H2 3024   4.675   1.072  16.913  0.2046 -0.7380 -0.5263
  195MPD1    H3 3025   4.712   1.232  17.098  1.0542 -0.0392  1.4416
  195MPD1     N 3026   4.606   0.926  17.409  0.7071 -0.0492 -0.6698
  195MPD1    H5 3027   4.647   0.995  17.472  0.0205 -1.4500  1.3149
  195MPD1    N1 3028   4.579   0.832  16.932  0.2668 -0.1449 -0.1814
  195MPD1    H6 3029   4.579   0.733  16.954  2.9576  0.2720  1.5855
  195MPD1    H7 3030   4.638   0.852  16.852  0.4810 -0.0438  0.0057
  196MPD1     C 3031   3.398   4.622   0.775  0.4485  0.0728  0.1363
  196MPD1    C1 3032   3.423   4.683   0.657  0.4432  0.7073  0.4345
  196MPD1    C2 3033   3.539   0.026   0.655  0.2230  0.3948 -0.0278
  196MPD1    C3 3034   3.609   0.060   0.770  0.7731 -0.2739  0.9241
  196MPD1    C4 3035   3.574   0.001   0.885  0.2935  0.6034  0.2242
  196MPD1    C5 3036   3.473   4.638   0.890  0.8200 -0.8203 -0.5663
  196MPD1     H 3037   3.574   0.067   0.560  0.2238 -1.6717 -0.9139
  196MPD1    H1 3038   3.630   0.021   0.977  0.0237  3.5819 -0.2458
  196MPD1    H2 3039   3.337   4.533   0.785 -1.5456  1.1776 -2.3424
  196MPD1    H3 3040   3.449   4.580   0.978 -0.6072 -0.9617 -1.0453
  196MPD1     N 3041   3.719   0.151   0.771 -0.4899  0.3324 -0.2997
  196MPD1    H5 3042   3.773   0.167   0.855 -2.6304 -0.5022  1.2636
  196MPD1    N1 3043   3.352   4.638   0.548 -0.2968 -0.5228 -0.2158
  196MPD1    H6 3044   3.255   4.614   0.570 -0.4565 -1.4375 -1.9165
  196MPD1    H7 3045   3.361   4.695   0.464  0.1568  0.9765  0.8566
  197MPD1     C 3046   3.228   2.273  17.349 -0.7145 -0.1377 -0.1894
  197MPD1    C1 3047   3.347   2.216  17.388 -0.5658  0.0456  0.0087
  197MPD1    C2 3048   3.458   2.242  17.310 -0.2700  0.0808  0.1822
  197MPD1    C3 3049   3.454   2.330  17.198  0.1219  0.3036 -0.4087
  197MPD1    C4 3050   3.334   2.393  17.166  0.2955 -0.1103  0.5602
  197MPD1    C5 3051   3.221   2.357  17.243 -0.5669  0.2773  0.0308
  197MPD1     H 3052   3.549   2.185  17.323 -1.1238 -1.3025  0.0671
  197MPD1    H1 3053   3.329   2.472  17.092 -0.7563 -0.1411  0.5887
  197MPD1    H2 3054   3.143   2.276  17.415  0.3692 -1.8188  1.2674
  197MPD1    H3 3055   3.126   2.405  17.221 -0.7733  0.0335  0.4027
  197MPD1     N 3056   3.576   2.363  17.128 -0.2838  0.3468 -0.1516
  197MPD1    H5 3057   3.573   2.418  17.042 -1.0605  0.1083 -0.2795
  197MPD1    N1 3058   3.356   2.147  17.509  0.4982 -0.1381 -0.1420
  197MPD1    H6 3059   3.402   2.057  17.498  1.5918  0.6389 -2.0129
  197MPD1    H7 3060   3.266   2.133  17.553  0.1622 -3.9216 -2.0124
  198MPD1     C 3061   0.605   1.456  15.630 -0.1079 -0.3793 -0.3873
  198MPD1    C1 3062   0.694   1.563  15.630 -0.0360  0.3160 -0.0102
  198MPD1    C2 3063   0.795   1.577  15.722 -0.0947 -0.0337 -0.4376
  198MPD1    C3 3064   0.819   1.483  15.820  0.0953  0.0699  0.4505
  198MPD1    C4 3065   0.734   1.373  15.817  0.3182  0.1329  0.4107
  198MPD1    C5 3066   0.635   1.359  15.723 -0.4913  0.4833  0.5298
  198MPD1     H 3067   0.848   1.672  15.720 -1.5527  0.8039  1.1061
  198MPD1    H1 3068   0.750   1.286  15.879  0.2102  0.9053  1.5294
  198MPD1    H2 3069   0.525   1.440  15.559 -0.1612 -0.6542 -0.2639
  198MPD1    H3 3070   0.580   1.266  15.711  0.2221  0.1385 -0.0539
  198MPD1     N 3071   0.922   1.505  15.919  0.1534  0.2176  0.0283
  198MPD1    H5 3072   0.991   1.576  15.897  2.4270 -2.6950 -2.1489
  198MPD1    N1 3073   0.687   1.652  15.520 -0.8700  0.5058 -0.4683
  198MPD1    H6 3074   0.593   1.656  15.482 -1.2351 -0.1474  0.3478
  198MPD1    H7 3075   0.729   1.745  15.525  1.5579 -0.5141 -1.5187
  199MPD1     C 3076   3.110   2.948  10.465  0.4988 -0.7837  0.5755
  199MPD1    C1 3077   3.099   2.961  10.330 -0.3223 -0.1820  0.0687
  199MPD1    C2 3078   2.980   2.926  10.261 -0.5250 -0.1327  0.3409
  199MPD1    C3 3079   2.867   2.887  10.336 -0.0612 -0.2695 -0.1269
  199MPD1    C4 3080   2.887   2.855  10.468  0.1543  0.4477  0.0825
  199MPD1    C5 3081   3.009   2.883  10.528 -0.0049  0.4848  0.1373
  199MPD1     H 3082   2.977   2.950  10.156 -2.1225 -0.1991  0.3713
  199MPD1    H1 3083   2.807   2.804  10.521  1.7660 -2.0218  0.1573
  199MPD1    H2 3084   3.199   2.978  10.518  1.4485 -0.3818 -1.2265
  199MPD1    H3 3085   3.026   2.858  10.632  0.8845  0.4319 -0.0167
  199MPD1     N 3086   2.740   2.866  10.278  0.0863 -0.3648 -0.6080
  199MPD1    H5 3087   2.664   2.818  10.326 -0.6705 -2.1575 -3.5955
  199MPD1    N1 3088   3.217   3.004  10.265 -0.3647  0.4302  0.5195
  199MPD1    H6 3089   3.271   3.064  10.327  1.4431  0.8828 -1.4854
  199MPD1    H7 3090   3.195   3.039  10.171 -1.5474  0.9146  0.9741
  200MPD1     C 3091   1.712   2.581  15.361  0.7802  0.5777  0.1372
  200MPD1    C1 3092   1.841   2.555  15.329 -0.0646 -0.0840  0.1937
  200MPD1    C2 3093   1.943   2.660  15.332 -0.2748  0.4775  0.3492
  200MPD1    C3 3094   1.914   2.782  15.387  0.6112 -0.2335  0.6087
  200MPD1    C4 3095   1.784   2.798  15.432 -0.1861 -0.4351  0.1262
  200MPD1    C5 3096   1.688   2.706  15.411 -0.2627 -0.3533  0.4732
  200MPD1     H 3097   2.046   2.645  15.301 -0.5222  0.4778 -0.4540
  200MPD1    H1 3098   1.751   2.891  15.477  0.7592  0.3597 -0.8088
  200MPD1    H2 3099   1.631   2.510  15.363  1.1978  0.1560  2.1306
  200MPD1    H3 3100   1.586   2.728  15.441 -0.6031 -0.5318 -0.5494
  200MPD1     N 3101   2.006   2.892  15.380 -0.0401 -0.9329  0.0663
  200MPD1    H5 3102   2.093   2.860  15.339  0.3084  0.8548 -0.5880
  200MPD1    N1 3103   1.871   2.428  15.272 -0.0044 -0.2229  0.4753
  200MPD1    H6 3104   1.800   2.363  15.304  0.8089 -1.8650 -1.0740
  200MPD1    H7 3105   1.963   2.403  15.306  0.1472  0.4648  0.5791
  201MPD1     C 3106   4.553   1.818  12.740 -0.1914 -0.6107 -0.1549
  201MPD1    C1 3107   4.578   1.717  12.650  0.1998 -0.5378  0.3819
  201MPD1    C2 3108   4.658   1.611  12.694 -0.3482  0.0780 -0.2011
  201MPD1    C3 3109   4.708   1.608  12.825  0.5918  0.3829  0.7704
  201MPD1    C4 3110   4.683   1.714  12.912 -1.0871  0.0398  1.0307
  201MPD1    C5 3111   4.601   1.816  12.869 -1.2952 -0.0499  1.2761
  201MPD1     H 3112   4.680   1.528  12.629 -1.0438  0.4089 -0.8517
  201MPD1    H1 3113   4.715   1.713  13.015 -1.0973 -0.5419  1.0272
  201MPD1    H2 3114   4.505   1.910  12.707  0.8932  0.2568  0.6969
  201MPD1    H3 3115   4.578   1.900  12.933  0.6417 -0.0210  1.9118
  201MPD1     N 3116   0.027   1.484  12.868 -0.2732 -0.0481 -0.3231
  201MPD1    H5 3117   0.012   1.402  12.810 -0.5021  0.7665 -1.4181
  201MPD1    N1 3118   4.557   1.737  12.508 -0.1468  0.1089 -0.0497
  201MPD1    H6 3119   4.468   1.784  12.493  0.1610  0.4724 -0.7352
  201MPD1    H7 3120   4.544   1.651  12.456 -0.4301 -0.0983  0.3638
  202MPD1     C 3121   3.502   0.619   9.304  0.0220  1.0345  0.3589
  202MPD1    C1 3122   3.490   0.496   9.361 -0.4721 -0.3724 -0.1696
  202MPD1    C2 3123   3.586   0.470   9.457 -0.1663  0.1233 -0.0849
  202MPD1    C3 3124   3.668   0.569   9.516 -0.4736 -0.6162  0.4850
  202MPD1    C4 3125   3.669   0.700   9.456  0.2440  0.0728 -0.0070
  202MPD1    C5 3126   3.581   0.723   9.356  0.0886  0.1938  0.5553
  202MPD1     H 3127   3.583   0.366   9.488 -2.2292  0.0612 -0.4725
  202MPD1    H1 3128   3.737   0.772   9.500  0.5417  0.3232 -0.8908
  202MPD1    H2 3129   3.441   0.655   9.223  0.3326  1.4369  0.3036
  202MPD1    H3 3130   3.589   0.818   9.305 -0.2304 -0.0857 -0.0184
  202MPD1     N 3131   3.746   0.558   9.639 -0.2041  0.0261  0.4237
  202MPD1    H5 3132   3.798   0.642   9.665 -0.1453 -0.2523  1.1968
  202MPD1    N1 3133   3.440   0.392   9.283  0.0754  0.0145  0.8533
  202MPD1    H6 3134   3.359   0.437   9.241  0.2900 -0.0033  0.4152
  202MPD1    H7 3135   3.410   0.309   9.333 -0.3388 -0.3013  0.0889
  203MPD1     C 3136   3.333   1.969  12.962  0.2895 -0.4368  0.1378
  203MPD1    C1 3137   3.416   1.863  12.988 -0.7540 -0.0515  0.7813
  203MPD1    C2 3138   3.392   1.741  12.929  0.1930  0.3216  0.2137
  203MPD1    C3 3139   3.274   1.714  12.866  0.0171  0.7807  0.4501
  203MPD1    C4 3140   3.187   1.820  12.839  0.5259 -0.3294  0.0923
  203MPD1    C5 3141   3.216   1.944  12.897 -0.4988 -0.2243 -0.3883
  203MPD1     H 3142   3.465   1.662  12.942 -1.9981 -1.9611 -1.2850
  203MPD1    H1 3143   3.098   1.807  12.779  1.1664  0.5281 -1.0508
  203MPD1    H2 3144   3.350   2.070  12.998  0.2064 -1.0517  1.8658
  203MPD1    H3 3145   3.137   2.017  12.895 -0.8994 -0.6591 -0.4097
  203MPD1     N 3146   3.255   1.583  12.813 -0.1620  0.4970  0.0628
  203MPD1    H5 3147   3.320   1.514  12.850 -0.8386 -0.7349 -1.0392
  203MPD1    N1 3148   3.535   1.894  13.049  0.5418  0.5146 -0.3278
  203MPD1    H6 3149   3.526   1.970  13.116 -0.0465 -0.0514  0.2361
  203MPD1    H7 3150   3.572   1.810  13.093 -3.0453 -0.6652  0.4081
  204MPD1     C 3151   1.922   3.269  17.540 -0.1124  0.5326  0.0833
  204MPD1    C1 3152   2.007   3.246  17.440 -0.3408 -0.2540 -0.6347
  204MPD1    C2 3153   2.093   3.136  17.435  0.1280 -0.3388  0.0815
  204MPD1    C3 3154   2.088   3.043  17.541  0.4800  0.0700  0.6349
  204MPD1    C4 3155   1.995   3.063  17.641 -0.6822 -0.3721  0.3728
  204MPD1    C5 3156   1.920   3.178  17.639 -1.2659  0.1483  0.2019
  204MPD1     H 3157   2.157   3.126  17.349 -0.9842  0.3704 -0.8183
  204MPD1    H1 3158   1.973   2.999  17.726 -0.9853 -2.2224 -1.1009
  204MPD1    H2 3159   1.857   3.356  17.544 -2.1194 -0.8991 -1.2836
  204MPD1    H3 3160   1.843   3.191  17.714 -1.7182  3.3713 -0.8290
  204MPD1     N 3161   2.194   2.945  17.535 -0.0322  0.1462 -0.1626
  204MPD1    H5 3162   2.268   2.951  17.466 -0.4750  0.1556 -0.6388
  204MPD1    N1 3163   2.017   3.348  17.340  0.4315 -0.1913  0.0778
  204MPD1    H6 3164   2.068   3.317  17.258  2.5593  2.5194  0.3982
  204MPD1    H7 3165   1.926   3.384  17.310 -0.3611 -1.7947  0.5581
  205MPD1     C 3166   3.106   1.419   0.861  0.1460  0.5946  0.5175
  205MPD1    C1 3167   3.172   1.526   0.797 -0.0788 -0.6341  0.0425
  205MPD1    C2 3168   3.110   1.578   0.686  0.0344  0.6448 -0.0376
  205MPD1    C3 3169   2.983   1.529   0.640 -0.2622  0.3413 -0.5011
  205MPD1    C4 3170   2.922   1.430   0.705  0.4416 -0.0969 -0.0741
  205MPD1    C5 3171   2.980   1.374   0.817  0.2142 -0.5243 -0.7699
  205MPD1     H 3172   3.172   1.652   0.636 -2.6908  1.4828 -2.1772
  205MPD1    H1 3173   2.818   1.415   0.678  0.7102 -0.7710 -0.7136
  205MPD1    H2 3174   3.154   1.368   0.943 -1.0746 -2.7870 -0.8814
  205MPD1    H3 3175   2.920   1.310   0.880  1.9340 -1.2864  0.0939
  205MPD1     N 3176   2.923   1.581   0.523 -0.0026 -0.1814  0.1549
  205MPD1    H5 3177   2.838   1.535   0.491  0.3392 -1.1338  0.6091
  205MPD1    N1 3178   3.296   1.556   0.847 -0.0010  0.4392  0.5172
  205MPD1    H6 3179   3.297   1.541   0.948  1.1752 -1.4505  0.2253
  205MPD1    H7 3180   3.317   1.651   0.818 -1.4498  0.5122 -0.2692
  206MPD1     C 3181   3.162   3.389  16.474  0.1482  0.2237 -0.1010
  206MPD1    C1 3182   3.026   3.409  16.470 -0.1734  0.3974  0.0386
  206MPD1    C2 3183   2.983   3.516  16.399 -0.1418 -0.4396 -0.0022
  206MPD1    C3 3184   3.074   3.597  16.332 -0.5237 -0.3687  1.1272
  206MPD1    C4 3185   3.211   3.566  16.342  0.2169 -0.4117 -0.2154
  206MPD1    C5 3186   3.252   3.457  16.404  0.1694 -0.8228  0.0349
  206MPD1     H 3187   2.876   3.529  16.388 -0.3528 -2.5706 -0.6310
  206MPD1    H1 3188   3.276   3.642  16.301 -0.9670  0.5652 -0.3103
  206MPD1    H2 3189   3.204   3.312  16.537  0.6148 -1.5419 -2.5701
  206MPD1    H3 3190   3.357   3.431  16.415  0.4904  0.9132  1.0362
  206MPD1     N 3191   3.044   3.722  16.262 -0.2623  0.4540  0.1140
  206MPD1    H5 3192   3.124   3.771  16.223  0.3888 -0.7687 -0.0819
  206MPD1    N1 3193   2.939   3.329  16.541  0.3146 -0.0546 -0.7920
  206MPD1    H6 3194   2.846   3.372  16.545  0.1495 -0.5792  1.0123
  206MPD1    H7 3195   2.969   3.312  16.637 -1.6564  2.3093  0.2528
  207MPD1     C 3196   4.621   2.879  10.228 -0.0315 -0.4575  0.3233
  207MPD1    C1 3197   4.702   2.898  10.117  0.4791 -0.0525  0.3007
  207MPD1    C2 3198   0.059   2.794  10.085  0.5614 -0.3518  0.0273
  207MPD1    C3 3199   0.069   2.684  10.165 -0.2269  0.0161 -0.5057
  207MPD1    C4 3200   4.726   2.677  10.281 -0.1075 -0.0753 -0.4398
  207MPD1    C5 3201   4.639   2.772  10.315 -0.1350 -0.0562  0.3901
  207MPD1     H 3202   0.128   2.801  10.002  1.1474 -1.6133  0.4107
  207MPD1    H1 3203   0.004   2.596  10.352  1.1437  0.9751  0.5486
  207MPD1    H2 3204   4.537   2.946  10.237  2.0831  2.2656 -0.2488
  207MPD1    H3 3205   4.573   2.774  10.402 -0.6608 -0.1161 -0.0101
  207MPD1     N 3206   0.146   2.570  10.129 -0.4876  0.4079  0.1144
  207MPD1    H5 3207   0.154   2.505  10.207 -0.1007  1.4527  0.9390
  207MPD1    N1 3208   4.663   2.996  10.025 -0.5208  0.0496 -0.4132
  207MPD1    H6 3209   0.005   3.029   9.967 -1.4485  0.1852 -1.5495
  207MPD1    H7 3210   4.627   3.082  10.066  1.2851  0.4572  0.3100
  208MPD1     C 3211   2.530   0.142  17.459 -0.0543 -0.2706  0.4042
  208MPD1    C1 3212   2.609   0.251  17.436 -0.9509  0.9330 -0.5761
  208MPD1    C2 3213   2.662   0.317  17.547  0.6987 -0.0900  0.2947
  208MPD1    C3 3214   2.626   0.283  17.678  0.1171  0.0161 -0.8431
  208MPD1    C4 3215   2.539   0.177  17.698 -0.1697 -0.9603  0.2969
  208MPD1    C5 3216   2.502   0.098  17.585 -0.2298 -0.1484 -0.0614
  208MPD1     H 3217   2.725   0.404  17.528 -1.4034  1.8674  2.2922
  208MPD1    H1 3218   2.513   0.135   0.059 -0.9702 -0.7201  0.1810
  208MPD1    H2 3219   2.490   0.085  17.376  0.5788  1.0047 -0.7808
  208MPD1    H3 3220   2.445   0.009  17.606  1.1135 -1.1765 -0.7970
  208MPD1     N 3221   2.667   0.383   0.041 -0.1063 -0.0855 -0.3181
  208MPD1    H5 3222   2.731   0.456   0.013 -0.0537 -0.4003 -1.0130
  208MPD1    N1 3223   2.653   0.277  17.303  0.2483  0.2262 -0.5457
  208MPD1    H6 3224   2.580   0.249  17.239 -2.1042  0.9212  1.8537
  208MPD1    H7 3225   2.658   0.378  17.298 -1.1514  0.2890 -0.3956
  209MPD1     C 3226   0.786   1.062  10.871 -0.5193  0.3008  0.0072
  209MPD1    C1 3227   0.690   1.119  10.791 -0.0529  0.1618  0.2234
  209MPD1    C2 3228   0.679   1.255  10.792 -0.4001 -0.2225  0.6993
  209MPD1    C3 3229   0.749   1.337  10.886  0.0503  0.8114 -0.2491
  209MPD1    C4 3230   0.839   1.276  10.974 -1.0781  0.4419 -0.0669
  209MPD1    C5 3231   0.852   1.141  10.958  0.5077  0.7934  0.0969
  209MPD1     H 3232   0.614   1.309  10.724 -0.8591 -0.2943  1.0782
  209MPD1    H1 3233   0.916   1.322  11.036 -0.1526 -1.8254  0.4870
  209MPD1    H2 3234   0.805   0.955  10.875 -0.0774  0.3080 -1.7083
  209MPD1    H3 3235   0.939   1.093  11.002  1.0456  1.1228 -0.5986
  209MPD1     N 3236   0.741   1.474  10.878 -0.3310 -0.2134 -0.4086
  209MPD1    H5 3237   0.686   1.518  10.805  1.2670  0.2403 -1.3179
  209MPD1    N1 3238   0.625   1.044  10.693  0.8190 -0.4348 -0.9323
  209MPD1    H6 3239   0.541   1.098  10.672  1.2450 -0.2963 -2.3207
  209MPD1    H7 3240   0.593   0.958  10.737 -0.7674  1.1515  0.9857
  210MPD1     C 3241   0.796   2.152  11.620  0.0678 -0.5682  0.4132
  210MPD1    C1 3242   0.871   2.206  11.516 -0.5321  0.0797  0.4765
  210MPD1    C2 3243   0.858   2.154  11.387 -0.6078 -0.4640 -0.2014
  210MPD1    C3 3244   0.793   2.037  11.372  0.0272 -0.7076  0.0180
  210MPD1    C4 3245   0.745   1.973  11.480  0.1209  0.5606  0.8246
  210MPD1    C5 3246   0.747   2.026  11.603 -0.8505 -0.7922 -0.4858
  210MPD1     H 3247   0.911   2.201  11.304  1.9258 -0.3924  1.4607
  210MPD1    H1 3248   0.693   1.879  11.470  2.1873 -0.4661 -0.1694
  210MPD1    H2 3249   0.793   2.191  11.721 -3.7192 -1.2287  0.5617
  210MPD1    H3 3250   0.690   1.967  11.673  0.8569 -0.4033  1.2404
  210MPD1     N 3251   0.779   1.966  11.247  0.4011  0.2588  0.3363
  210MPD1    H5 3252   0.726   1.880  11.254  0.9036 -0.1202 -0.4994
  210MPD1    N1 3253   0.927   2.336  11.533  0.2270 -0.3288  0.2701
  210MPD1    H6 3254   0.946   2.359  11.630 -2.3714  0.3127  0.6336
  210MPD1    H7 3255   1.001   2.354  11.465  1.7986 -1.3491  1.7138
  211MPD1     C 3256   3.779   1.554  16.913  0.3150 -0.0274  0.3536
  211MPD1    C1 3257   3.726   1.660  16.847 -0.6242  0.2657 -0.1714
  211MPD1    C2 3258   3.591   1.675  16.851 -0.2646  0.2691 -0.4464
  211MPD1    C3 3259   3.507   1.604  16.940  0.2687  0.4278 -0.1714
  211MPD1    C4 3260   3.568   1.512  17.022  0.1266  0.3206 -0.1023
  211MPD1    C5 3261   3.704   1.489  17.007 -0.6420 -0.4924  0.0447
  211MPD1     H 3262   3.551   1.747  16.781 -0.3706  0.7953  0.1609
  211MPD1    H1 3263   3.509   1.452  17.091  0.7248 -0.7392 -0.5198
  211MPD1    H2 3264   3.886   1.535  16.915  0.5447  1.2599  0.0789
  211MPD1    H3 3265   3.757   1.414  17.064 -0.4784 -0.4201 -0.0121
  211MPD1     N 3266   3.381   1.663  16.961 -0.5335  0.4167  0.0349
  211MPD1    H5 3267   3.350   1.724  16.886 -0.4066  0.4980  0.0472
  211MPD1    N1 3268   3.803   1.728  16.759 -0.1528 -0.4374 -0.2889
  211MPD1    H6 3269   3.900   1.716  16.786 -0.5017 -2.5444  0.0496
  211MPD1    H7 3270   3.784   1.828  16.754 -0.5827 -0.5764 -1.3461
  212MPD1     C 3271   2.264   4.632  16.597  0.2396  0.0158  0.0863
  212MPD1    C1 3272   2.207   4.704  16.696  0.0446 -0.0900  0.1686
  212MPD1    C2 3273   2.095   4.646  16.756  0.3385  0.4712 -0.0743
  212MPD1    C3 3274   2.061   4.513  16.737  0.7975  0.1324  0.3789
  212MPD1    C4 3275   2.128   4.438  16.651  0.4257  1.4589  0.5518
  212MPD1    C5 3276   2.230   4.499  16.580 -0.1736  0.0059 -0.0677
  212MPD1     H 3277   2.027   4.710  16.811  0.5372  1.8798 -1.4299
  212MPD1    H1 3278   2.097   4.336  16.632 -0.1303  0.9940  4.0328
  212MPD1    H2 3279   2.345   4.672  16.538 -0.0442  0.3908 -0.0493
  212MPD1    H3 3280   2.288   4.443  16.508  1.8193 -0.2708  1.7929
  212MPD1     N 3281   1.958   4.444  16.814  0.1608 -0.0978  0.7402
  212MPD1    H5 3282   1.939   4.350  16.780 -0.5062  0.2403  0.1851
  212MPD1    N1 3283   2.241   0.101  16.715 -0.0486  0.2326  0.1614
  212MPD1    H6 3284   2.240   0.123  16.815 -0.1288 -0.6995  0.3675
  212MPD1    H7 3285   2.336   0.113  16.682 -0.1981 -1.4043 -0.8722
  213MPD1     C 3286   0.633   0.389  15.906 -0.7351 -0.3159  0.3445
  213MPD1    C1 3287   0.671   0.429  15.780 -0.0956  0.5702 -0.6458
  213MPD1    C2 3288   0.592   0.532  15.738 -0.1259  0.3669  0.3240
  213MPD1    C3 3289   0.458   0.541  15.777  0.0617 -0.0133 -0.2202
  213MPD1    C4 3290   0.408   0.469  15.884 -0.1845 -0.4438  0.5665
  213MPD1    C5 3291   0.505   0.401  15.956  0.3444  0.4665 -0.1886
  213MPD1     H 3292   0.635   0.586  15.655  0.8958  0.1068  0.6820
  213MPD1    H1 3293   0.310   0.475  15.929  1.0402  0.2267  3.1332
  213MPD1    H2 3294   0.706   0.320  15.948 -0.3150  0.2457  0.5297
  213MPD1    H3 3295   0.479   0.357  16.052 -1.0422  0.7572 -0.4418
  213MPD1     N 3296   0.382   0.628  15.697  0.0229 -0.0520 -0.7939
  213MPD1    H5 3297   0.432   0.674  15.622 -0.5501  1.0986 -0.4747
  213MPD1    N1 3298   0.802   0.420  15.745  0.2752  0.0266  0.2801
  213MPD1    H6 3299   0.808   0.434  15.644 -3.3736 -2.3790 -0.2555
  213MPD1    H7 3300   0.819   0.320  15.756  0.3277 -0.1375 -1.2225
  214MPD1     C 3301   4.201   0.391  15.447  0.7329 -0.0531  0.6315
  214MPD1    C1 3302   4.272   0.394  15.330  0.8053 -0.1655  0.2113
  214MPD1    C2 3303   4.396   0.449  15.335  0.6535 -0.2531 -0.2579
  214MPD1    C3 3304   4.438   0.512  15.448 -0.7035 -0.1109 -0.1937
  214MPD1    C4 3305   4.358   0.516  15.560 -0.2694 -0.2698  0.3061
  214MPD1    C5 3306   4.239   0.449  15.562 -0.3692  0.6731 -0.7537
  214MPD1     H 3307   4.463   0.435  15.251  1.1774  0.9316 -0.0363
  214MPD1    H1 3308   4.376   0.567  15.653 -2.6390  2.0865 -0.5403
  214MPD1    H2 3309   4.105   0.341  15.448  0.8196 -0.1709  2.8446
  214MPD1    H3 3310   4.171   0.458  15.645 -1.5729 -1.1292 -1.5230
  214MPD1     N 3311   4.561   0.578  15.465  0.8201 -0.5669 -0.5239
  214MPD1    H5 3312   4.580   0.621  15.555  0.4636 -1.5113 -0.0014
  214MPD1    N1 3313   4.225   0.326  15.221  0.7617  0.4946  0.1975
  214MPD1    H6 3314   4.270   0.339  15.130  1.5274 -1.1012  0.3538
  214MPD1    H7 3315   4.127   0.342  15.201  0.5462 -0.8683  0.1553
  215MPD1     C 3316   0.125   0.835  11.147 -0.3221 -1.3653  0.4747
  215MPD1    C1 3317   0.155   0.858  11.279  0.3929 -0.3048  0.1515
  215MPD1    C2 3318   0.248   0.948  11.305 -0.0004  0.1680 -0.5763
  215MPD1    C3 3319   0.314   1.012  11.202 -0.8106  0.5854  0.2709
  215MPD1    C4 3320   0.286   0.985  11.074  0.5383 -0.4643 -0.8365
  215MPD1    C5 3321   0.190   0.892  11.044  0.6813 -0.1418  0.3876
  215MPD1     H 3322   0.266   0.962  11.411 -0.4420 -0.2659 -0.4481
  215MPD1    H1 3323   0.343   1.030  10.993 -1.8267  1.6463 -1.3226
  215MPD1    H2 3324   0.046   0.765  11.121 -1.3307  0.2916 -0.9442
  215MPD1    H3 3325   0.159   0.881  10.941  2.8823  0.6862 -0.3670
  215MPD1     N 3326   0.422   1.094  11.235  0.3006  0.6557  0.3547
  215MPD1    H5 3327   0.450   1.095  11.332  2.9099  1.4534 -0.3849
  215MPD1    N1 3328   0.063   0.814  11.371 -0.3019 -1.2688  0.4551
  215MPD1    H6 3329   0.030   0.723  11.341  1.2282 -1.6672 -0.0167
  215MPD1    H7 3330   0.105   0.813  11.464  0.0931  2.0681  0.3038
  216MPD1     C 3331   0.954   3.656   0.373  0.1438  0.2830 -0.6544
  216MPD1    C1 3332   1.039   3.762   0.396 -0.0549 -0.1953  0.6138
  216MPD1    C2 3333   1.135   3.790   0.304 -0.6870  0.0287  0.9797
  216MPD1    C3 3334   1.164   3.710   0.201  0.3254  0.4175  0.2248
  216MPD1    C4 3335   1.082   3.604   0.177 -0.2241 -0.7348 -0.1211
  216MPD1    C5 3336   0.981   3.572   0.264  0.0325  0.5287  0.0815
  216MPD1     H 3337   1.188   3.884   0.316  1.4943 -1.2884  1.6461
  216MPD1    H1 3338   1.102   3.544   0.088  0.6444 -2.1877  1.0467
  216MPD1    H2 3339   0.859   3.640   0.423  0.7138 -0.8269  0.0688
  216MPD1    H3 3340   0.933   3.476   0.247 -1.0952  1.3619 -1.3643
  216MPD1     N 3341   1.275   3.751   0.127 -0.4705  0.4078  0.5950
  216MPD1    H5 3342   1.313   3.840   0.157  2.6764 -1.0974  1.0978
  216MPD1    N1 3343   0.996   3.859   0.487  0.7231 -0.0174  0.0513
  216MPD1    H6 3344   0.953   3.818   0.570 -1.8482 -0.5473 -1.5585
  216MPD1    H7 3345   1.071   3.920   0.518  0.1258  0.5530  0.3751
  217MPD1     C 3346   1.927   0.523   9.084 -0.6518 -0.2478  0.7211
  217MPD1    C1 3347   2.024   0.443   9.146  0.1698  0.0788 -0.0736
  217MPD1    C2 3348   2.144   0.500   9.190 -0.0419 -0.2032 -0.3590
  217MPD1    C3 3349   2.172   0.628   9.154 -0.6582  0.1231 -0.9495
  217MPD1    C4 3350   2.075   0.709   9.103 -1.4141  0.1887 -0.3177
  217MPD1    C5 3351   1.953   0.654   9.065 -0.3446 -0.9397 -0.2809
  217MPD1     H 3352   2.207   0.446   9.260 -1.6472 -1.0300  0.4476
  217MPD1    H1 3353   2.096   0.813   9.083  0.2966  0.1114  1.0844
  217MPD1    H2 3354   1.830   0.480   9.060  0.1247  0.1870 -3.1277
  217MPD1    H3 3355   1.875   0.707   9.011  0.3391 -2.1311 -2.4162
  217MPD1     N 3356   2.294   0.690   9.175  0.1753 -0.2319 -0.0752
  217MPD1    H5 3357   2.306   0.787   9.147 -0.3887  0.3531  1.7610
  217MPD1    N1 3358   1.999   0.309   9.187 -0.0037 -0.5164  0.6778
  217MPD1    H6 3359   2.078   0.247   9.170  0.7200 -0.0521  2.3773
  217MPD1    H7 3360   1.917   0.263   9.147  0.5027 -2.1727  1.5369
  218MPD1     C 3361   4.313   2.407  13.011 -0.0723  0.8834 -0.2155
  218MPD1    C1 3362   4.394   2.470  12.922  1.1107  0.2315 -0.0401
  218MPD1    C2 3363   4.519   2.426  12.905 -0.8364 -0.0254 -0.4609
  218MPD1    C3 3364   4.563   2.309  12.952 -0.1347  0.2880 -0.3472
  218MPD1    C4 3365   4.474   2.240  13.039  0.3782 -0.1764 -1.0684
  218MPD1    C5 3366   4.351   2.288  13.062 -0.7352  0.7197 -0.3037
  218MPD1     H 3367   4.590   2.479  12.843 -0.7978  1.2003  0.6354
  218MPD1    H1 3368   4.503   2.142  13.074  0.2050 -0.5550 -1.9773
  218MPD1    H2 3369   4.216   2.448  13.035  0.3196  0.2140  2.5171
  218MPD1    H3 3370   4.291   2.226  13.126 -1.1373  0.8437 -0.5594
  218MPD1     N 3371   4.685   2.256  12.912 -0.1758 -0.6383  0.1233
  218MPD1    H5 3372   4.729   2.320  12.846 -2.0837 -0.5475 -1.0685
  218MPD1    N1 3373   4.346   2.594  12.870  0.2427 -0.1248  0.3276
  218MPD1    H6 3374   4.245   2.587  12.865  0.0305  1.1946  3.2348
  218MPD1    H7 3375   4.393   2.622  12.784 -0.4917 -1.8660 -0.6465
  219MPD1     C 3376   0.089   2.118  11.989 -1.4918 -0.3821 -1.1335
  219MPD1    C1 3377   0.071   2.219  12.073  0.3047  0.2905  0.2650
  219MPD1    C2 3378   0.087   2.194  12.206  0.0476 -0.0762 -0.3062
  219MPD1    C3 3379   0.116   2.061  12.251  0.6425 -0.2491  0.2907
  219MPD1    C4 3380   0.138   1.964  12.160  0.3660  1.4944  0.2392
  219MPD1    C5 3381   0.120   1.987  12.033 -0.2178 -0.3708 -0.1534
  219MPD1     H 3382   0.075   2.272  12.280  0.1490 -0.4354  0.0924
  219MPD1    H1 3383   0.154   1.865  12.201  0.8908  0.9580 -1.2700
  219MPD1    H2 3384   0.074   2.125  11.881  0.1783  0.8571 -1.2830
  219MPD1    H3 3385   0.121   1.898  11.971  0.9906  0.2711 -1.0632
  219MPD1     N 3386   0.134   2.019  12.384 -0.2039  1.0274  0.1533
  219MPD1    H5 3387   0.146   1.921  12.404 -3.6823  1.0307  2.2132
  219MPD1    N1 3388   0.062   2.354  12.030 -0.6978 -0.0408  0.0479
  219MPD1    H6 3389   0.003   2.360  11.948  0.2656  1.5593 -0.5354
  219MPD1    H7 3390   0.029   2.413  12.106  1.1746  0.8197  0.1911
  220MPD1     C 3391   4.569   2.426   9.926  0.2163 -0.0535  0.8621
  220MPD1    C1 3392   4.618   2.308   9.866  0.0144 -0.8232  0.6180
  220MPD1    C2 3393   4.671   2.211   9.945 -1.0370 -0.8778  0.6454
  220MPD1    C3 3394   4.687   2.235  10.085  0.0315 -0.8499  0.1818
  220MPD1    C4 3395   4.641   2.355  10.141 -0.1382 -0.2153 -0.1997
  220MPD1    C5 3396   4.570   2.436  10.062 -0.2264 -0.5198  0.6447
  220MPD1     H 3397   4.705   2.121   9.896  1.4225 -0.5462  1.7409
  220MPD1    H1 3398   4.645   2.381  10.246  1.6936 -0.2250 -0.2545
  220MPD1    H2 3399   4.531   2.512   9.872 -0.6460 -1.6861 -1.1341
  220MPD1    H3 3400   4.510   2.517  10.102 -1.3462 -0.5618 -0.9681
  220MPD1     N 3401   0.027   2.138  10.155  0.3782 -0.1138  0.1440
  220MPD1    H5 3402   0.043   2.052  10.104 -0.4020 -0.3271  0.2589
  220MPD1    N1 3403   4.583   2.276   9.728 -0.2515  0.0903 -0.6377
  220MPD1    H6 3404   4.645   2.210   9.681 -1.3437  0.1971 -2.2180
  220MPD1    H7 3405   4.581   2.367   9.682  1.4606  0.8189  0.7469
  221MPD1     C 3406   1.742   1.454  16.674 -0.3940  0.0920 -0.2535
  221MPD1    C1 3407   1.855   1.501  16.601 -0.5850  0.1004 -0.0571
  221MPD1    C2 3408   1.980   1.467  16.653 -1.1303  0.0843 -0.1269
  221MPD1    C3 3409   1.992   1.413  16.781 -0.9945  0.3464  0.3913
  221MPD1    C4 3410   1.877   1.391  16.855 -0.1013 -0.2540 -0.2702
  221MPD1    C5 3411   1.754   1.412  16.801  0.1658 -1.0344 -0.0411
  221MPD1     H 3412   2.067   1.485  16.591 -2.1931 -0.0651 -1.6630
  221MPD1    H1 3413   1.875   1.344  16.953  0.2815 -0.7886 -0.5209
  221MPD1    H2 3414   1.641   1.478  16.640 -0.5648 -0.0820  0.1351
  221MPD1    H3 3415   1.665   1.395  16.860 -0.2890 -3.5904 -1.4398
  221MPD1     N 3416   2.118   1.383  16.830 -0.0868 -0.4767 -0.3944
  221MPD1    H5 3417   2.118   1.324  16.913  1.6869 -1.1489 -0.8568
  221MPD1    N1 3418   1.837   1.538  16.470 -0.0035 -0.1160  0.5725
  221MPD1    H6 3419   1.919   1.579  16.428  0.5337 -1.3498  0.4124
  221MPD1    H7 3420   1.759   1.599  16.447  0.2182 -0.9768 -2.3539
  222MPD1     C 3421   2.836   0.748  17.268 -0.6889  0.1349 -0.3991
  222MPD1    C1 3422   2.748   0.650  17.227  0.4825 -0.3580  0.7792
  222MPD1    C2 3423   2.646   0.617  17.306  0.2606 -0.4206 -0.1652
  222MPD1    C3 3424   2.620   0.679  17.425 -0.4509  0.3306 -0.1136
  222MPD1    C4 3425   2.714   0.767  17.468  0.0412 -0.0108  0.4493
  222MPD1    C5 3426   2.816   0.804  17.389 -0.2460  0.4739 -0.0765
  222MPD1     H 3427   2.578   0.542  17.268 -0.9171  0.4368  0.2722
  222MPD1    H1 3428   2.709   0.815  17.565 -0.7372  0.9234 -0.0635
  222MPD1    H2 3429   2.926   0.770  17.211  0.3976 -1.5752  0.6636
  222MPD1    H3 3430   2.885   0.880  17.423 -3.5248  2.4680  2.1713
  222MPD1     N 3431   2.519   0.641  17.513 -0.0086  0.0773 -0.2533
  222MPD1    H5 3432   2.517   0.696  17.599 -0.2754 -0.3647  0.0257
  222MPD1    N1 3433   2.794   0.577  17.116 -0.2564  0.5243  0.4921
  222MPD1    H6 3434   2.868   0.618  17.059 -1.0525  0.9767 -0.2166
  222MPD1    H7 3435   2.714   0.547  17.061 -0.0146  0.9967 -0.1184
  223MPD1     C 3436   1.605   0.061  17.719  0.1395  0.2893 -0.1273
  223MPD1    C1 3437   1.600   0.186   0.045  0.3107  0.4197 -0.1344
  223MPD1    C2 3438   1.722   0.250   0.056 -0.1103  0.2759  0.3371
  223MPD1    C3 3439   1.833   0.210  17.715 -0.3001 -0.5992 -0.0194
  223MPD1    C4 3440   1.827   0.098  17.637  0.1016 -0.6184  0.5771
  223MPD1    C5 3441   1.710   0.024  17.642  0.0054 -0.6108 -0.6988
  223MPD1     H 3442   1.733   0.338   0.118  0.6410  0.5602 -0.1994
  223MPD1    H1 3443   1.910   0.061  17.579  0.6213  2.4600 -0.6546
  223MPD1    H2 3444   1.524   4.723  17.730  1.5302 -1.4701 -1.4128
  223MPD1    H3 3445   1.711   4.663  17.590 -0.6500 -0.9230 -0.1420
  223MPD1     N 3446   1.947   0.285  17.720 -0.1953 -0.3965  0.2360
  223MPD1    H5 3447   1.963   0.346   0.065 -0.5799 -1.3879  1.0660
  223MPD1    N1 3448   1.506   0.203   0.146  0.2151 -0.4371 -0.2281
  223MPD1    H6 3449   1.413   0.170   0.122  0.1832 -0.9090  0.5192
  223MPD1    H7 3450   1.491   0.298   0.181 -0.2718 -0.9570  0.9949
  224MPD1     C 3451   3.214   1.366   8.581  0.1359 -0.6852  0.5015
  224MPD1    C1 3452   3.143   1.479   8.600 -0.0390 -0.5802  0.1695
  224MPD1    C2 3453   3.100   1.517   8.723  0.2224  0.2574  0.1594
  224MPD1    C3 3454   3.127   1.436   8.830 -0.0876  0.3000  0.2695
  224MPD1    C4 3455   3.191   1.323   8.810 -0.1911 -0.3606 -0.0540
  224MPD1    C5 3456   3.224   1.278   8.688 -0.8057  0.2267 -0.1411
  224MPD1     H 3457   3.061   1.617   8.741 -0.0814  0.0531  0.6348
  224MPD1    H1 3458   3.212   1.260   8.896  0.2232  0.9042  0.7781
  224MPD1    H2 3459   3.272   1.341   8.493  0.3365 -2.1181  1.0345
  224MPD1    H3 3460   3.276   1.183   8.680  1.0850  1.3275 -0.9813
  224MPD1     N 3461   3.097   1.463   8.963  0.6293  0.5191 -0.2630
  224MPD1    H5 3462   3.136   1.395   9.028 -0.2175  0.9395  0.6829
  224MPD1    N1 3463   3.149   1.582   8.500  0.7924 -0.3621  0.0132
  224MPD1    H6 3464   3.148   1.546   8.405  0.0176 -1.3216  0.3840
  224MPD1    H7 3465   3.077   1.653   8.499 -0.6645 -1.8142  1.0826
  225MPD1     C 3466   0.207   2.790  12.250  0.6974 -0.4499  0.1237
  225MPD1    C1 3467   0.151   2.701  12.160  0.3608 -0.6732 -0.8428
  225MPD1    C2 3468   0.021   2.674  12.165 -0.1655  0.0548  0.4044
  225MPD1    C3 3469   4.672   2.727  12.262  0.0078  0.5086 -0.5165
  225MPD1    C4 3470   4.733   2.814  12.350  0.3856 -0.2568  0.7433
  225MPD1    C5 3471   0.134   2.847  12.348  0.1582  0.0572 -0.1115
  225MPD1     H 3472   4.720   2.591  12.105 -1.2549  1.2171 -0.5678
  225MPD1    H1 3473   4.670   2.867  12.421  0.3146  1.5489 -0.6473
  225MPD1    H2 3474   0.305   2.835  12.236  1.5545 -1.4720  2.7472
  225MPD1    H3 3475   0.176   2.924  12.412  0.1843 -0.3659  0.3867
  225MPD1     N 3476   4.534   2.700  12.277  0.2711  0.1495 -0.2086
  225MPD1    H5 3477   4.483   2.760  12.340 -0.1729 -1.7172  1.2159
  225MPD1    N1 3478   0.220   2.658  12.051 -0.8231  0.5358 -0.2341
  225MPD1    H6 3479   0.207   2.558  12.034  0.2394  0.4950 -0.8449
  225MPD1    H7 3480   0.321   2.667  12.066 -0.7039  2.7012 -2.2674
  226MPD1     C 3481   3.132   3.258   9.910 -0.4819 -0.7131  0.4581
  226MPD1    C1 3482   3.040   3.164   9.935 -0.1512  0.6632  0.0662
  226MPD1    C2 3483   3.085   3.034   9.936 -0.4005 -0.0464 -0.3599
  226MPD1    C3 3484   3.220   3.003   9.934  0.3056 -0.5998  0.3561
  226MPD1    C4 3485   3.308   3.104   9.930  0.2868  1.0565  0.7016
  226MPD1    C5 3486   3.268   3.235   9.924 -0.3901 -0.0299 -0.4797
  226MPD1     H 3487   3.017   2.950   9.943  0.7615 -0.9323  0.2985
  226MPD1    H1 3488   3.413   3.081   9.931 -0.0883 -0.7229 -1.7723
  226MPD1    H2 3489   3.098   3.360   9.897  2.8849  0.2128 -0.9779
  226MPD1    H3 3490   3.346   3.310   9.910  0.9998 -1.6302 -1.2801
  226MPD1     N 3491   3.256   2.870   9.936 -0.5844 -0.2295 -0.3095
  226MPD1    H5 3492   3.190   2.793   9.932  0.0652 -0.7718 -0.5877
  226MPD1    N1 3493   2.903   3.191   9.919  0.5141  0.3263  0.4138
  226MPD1    H6 3494   2.840   3.119   9.954  0.5813 -0.5348 -1.2493
  226MPD1    H7 3495   2.874   3.282   9.954  1.1678  0.6050  0.2320
  227MPD1     C 3496   3.071   2.083   9.366 -0.3145  0.1458 -0.7100
  227MPD1    C1 3497   3.206   2.066   9.372 -0.2207  0.6178 -0.8061
  227MPD1    C2 3498   3.275   2.160   9.451 -0.6846  0.3291  0.1655
  227MPD1    C3 3499   3.218   2.269   9.511 -0.0281  0.0275 -0.5303
  227MPD1    C4 3500   3.079   2.287   9.493 -0.3997  0.0725  0.6482
  227MPD1    C5 3501   3.009   2.190   9.424 -0.2132 -0.0840  0.2097
  227MPD1     H 3502   3.382   2.143   9.462 -0.8455 -1.3213 -0.8408
  227MPD1    H1 3503   3.019   2.352   9.555 -1.4450  0.7096 -1.0271
  227MPD1    H2 3504   3.010   2.015   9.308  0.0008 -0.9625  0.2638
  227MPD1    H3 3505   2.901   2.193   9.414 -0.4128 -0.1288  2.4507
  227MPD1     N 3506   3.297   2.348   9.598  0.5998  0.1303 -0.6981
  227MPD1    H5 3507   3.396   2.332   9.613  0.3795 -0.9325 -0.4250
  227MPD1    N1 3508   3.272   1.965   9.307  0.2308  0.3347  0.2495
  227MPD1    H6 3509   3.368   1.989   9.282 -0.1010  1.3933  0.0052
  227MPD1    H7 3510   3.229   1.951   9.216  1.2564  0.1426 -0.2174
  228MPD1     C 3511   1.663   4.450  13.186  0.1042  1.0491  0.4753
  228MPD1    C1 3512   1.569   4.500  13.096 -0.2103  0.3599  0.7005
  228MPD1    C2 3513   1.465   4.579  13.133  0.2249 -0.1573 -0.2030
  228MPD1    C3 3514   1.451   4.609  13.267 -0.3257 -0.5208 -0.0909
  228MPD1    C4 3515   1.543   4.571  13.363  0.0287  0.1647  0.3806
  228MPD1    C5 3516   1.651   4.499  13.322 -0.0936  0.0514  1.2096
  228MPD1     H 3517   1.397   4.612  13.056  0.3751 -1.1207 -0.7551
  228MPD1    H1 3518   1.542   4.611  13.464 -2.2494  0.7232  0.1319
  228MPD1    H2 3519   1.745   4.386  13.156  0.1379  1.9489 -1.4076
  228MPD1    H3 3520   1.731   4.467  13.388  1.2737  1.7003  0.3583
  228MPD1     N 3521   1.328   4.669  13.299  0.1709 -0.2904 -0.3801
  228MPD1    H5 3522   1.269   4.689  13.219  0.6799 -1.5323 -1.0741
  228MPD1    N1 3523   1.589   4.466  12.965 -0.3319  0.4136 -0.4270
  228MPD1    H6 3524   1.548   4.533  12.900 -1.5183 -0.6281 -0.7602
  228MPD1    H7 3525   1.689   4.470  12.948  0.0427 -0.7525  1.5851
  229MPD1     C 3526   1.070   4.379  15.137 -0.2990 -0.3298  0.4908
  229MPD1    C1 3527   0.944   4.333  15.165  0.8214  0.3368 -0.0884
  229MPD1    C2 3528   0.928   4.210  15.222  0.7718  0.5445 -0.3731
  229MPD1    C3 3529   1.041   4.140  15.259  0.5649 -0.2373 -0.1272
  229MPD1    C4 3530   1.166   4.187  15.229 -0.5439 -0.6016  0.3380
  229MPD1    C5 3531   1.177   4.304  15.162  0.5571  0.6466 -0.2785
  229MPD1     H 3532   0.830   4.168  15.241  0.4075  1.5559 -0.0320
  229MPD1    H1 3533   1.258   4.134  15.249  0.3523  0.8153 -0.0297
  229MPD1    H2 3534   1.096   4.463  15.073 -2.1344  0.2439  0.5080
  229MPD1    H3 3535   1.277   4.336  15.138  1.6677 -3.0467 -0.5681
  229MPD1     N 3536   1.038   4.018  15.329 -0.2063 -0.4000  0.4852
  229MPD1    H5 3537   1.125   3.978  15.363 -0.5440 -0.3634  1.3769
  229MPD1    N1 3538   0.834   4.407  15.107  0.1442  0.2137  0.1438
  229MPD1    H6 3539   0.762   4.403  15.179  1.9395  1.5747  1.9934
  229MPD1    H7 3540   0.858   4.503  15.086  0.5058  0.3151  1.0067
  230MPD1     C 3541   1.012   3.649  16.238 -0.1770 -0.3233 -0.2622
  230MPD1    C1 3542   1.126   3.610  16.173  0.1799  0.6415  0.2061
  230MPD1    C2 3543   1.123   3.620  16.034 -0.0307 -0.7034  0.0451
  230MPD1    C3 3544   1.010   3.648  15.965  0.4580  0.6007 -0.2420
  230MPD1    C4 3545   0.889   3.666  16.029 -0.4305 -0.5605  0.2502
  230MPD1    C5 3546   0.900   3.670  16.166  0.0508  0.4371  0.1795
  230MPD1     H 3547   1.217   3.619  15.980  0.7053  3.6414  1.2226
  230MPD1    H1 3548   0.793   3.685  15.982 -0.1031  0.4321 -0.0186
  230MPD1    H2 3549   1.009   3.673  16.343 -0.9093  1.8330 -0.7710
  230MPD1    H3 3550   0.811   3.694  16.224 -2.9102 -2.8536 -2.9783
  230MPD1     N 3551   1.015   3.656  15.822 -0.9447  0.3647 -0.1983
  230MPD1    H5 3552   1.110   3.669  15.788 -1.2282  3.0874  0.0079
  230MPD1    N1 3553   1.245   3.602  16.244  0.4784  0.6442 -0.4236
  230MPD1    H6 3554   1.236   3.566  16.339 -1.9357 -0.4972 -1.0722
  230MPD1    H7 3555   1.312   3.559  16.181 -2.5613 -2.0823 -1.8355
  231MPD1     C 3556   3.976   0.716  15.466  0.5063  0.0728  0.1445
  231MPD1    C1 3557   3.978   0.694  15.331 -0.3460 -0.3103  0.2205
  231MPD1    C2 3558   4.099   0.720  15.268 -0.0856 -0.1275 -0.9714
  231MPD1    C3 3559   4.195   0.793  15.341 -0.1739 -0.4256  0.3032
  231MPD1    C4 3560   4.183   0.817  15.470 -0.6632 -0.7081 -0.1603
  231MPD1    C5 3561   4.073   0.775  15.535 -0.9477 -0.3605  0.2042
  231MPD1     H 3562   4.126   0.683  15.169  0.3333  1.3769 -1.4239
  231MPD1    H1 3563   4.256   0.878  15.522 -2.8405  1.7567  0.0555
  231MPD1    H2 3564   3.883   0.689  15.515  0.1009 -0.0456 -0.6989
  231MPD1    H3 3565   4.061   0.797  15.640 -1.7762 -2.9865  0.6725
  231MPD1     N 3566   4.310   0.822  15.272  0.4496  0.3480 -0.4008
  231MPD1    H5 3567   4.321   0.808  15.172  0.1631 -1.0713 -0.2263
  231MPD1    N1 3568   3.872   0.619  15.271  0.5363  0.1418 -0.3134
  231MPD1    H6 3569   3.788   0.630  15.328 -0.3152  0.0292 -1.5445
  231MPD1    H7 3570   3.854   0.666  15.182 -0.3812  0.0830 -0.1527
  232MPD1     C 3571   1.315   3.353   0.402 -0.3317  0.5900  0.2780
  232MPD1    C1 3572   1.344   3.342   0.267 -0.0900  0.1622 -0.0930
  232MPD1    C2 3573   1.244   3.297   0.181  0.8067 -0.8359  0.2488
  232MPD1    C3 3574   1.120   3.259   0.235  0.0251 -0.3081  0.3880
  232MPD1    C4 3575   1.099   3.261   0.369 -0.1666 -0.2338 -0.1771
  232MPD1    C5 3576   1.198   3.308   0.452  0.0330  0.0607  0.2662
  232MPD1     H 3577   1.252   3.283   0.074 -1.6551  0.5351 -0.1211
  232MPD1    H1 3578   1.005   3.230   0.415  0.6486 -1.1417  0.9165
  232MPD1    H2 3579   1.382   3.394   0.477 -1.0495 -0.7340  1.6466
  232MPD1    H3 3580   1.173   3.320   0.557 -2.4983  2.6748 -0.6227
  232MPD1     N 3581   1.010   3.217   0.163  0.3361 -0.1119 -0.5970
  232MPD1    H5 3582   0.938   3.171   0.217  1.8105 -2.2325 -0.4235
  232MPD1    N1 3583   1.477   3.363   0.235 -0.2887  0.1015 -0.5369
  232MPD1    H6 3584   1.487   3.441   0.171  0.4751  0.9843  0.6733
  232MPD1    H7 3585   1.514   3.280   0.188 -0.0577 -0.8106  1.2525
  233MPD1     C 3586   2.287   1.380   1.956 -0.2402  0.0104 -0.3140
  233MPD1    C1 3587   2.320   1.245   1.934 -1.3589  0.7449 -0.0460
  233MPD1    C2 3588   2.450   1.211   1.946 -0.1170  0.6978 -0.0475
  233MPD1    C3 3589   2.551   1.310   1.948  0.3317  0.6039  0.2115
  233MPD1    C4 3590   2.511   1.440   1.956 -0.4980  0.0287  0.8210
  233MPD1    C5 3591   2.382   1.471   1.958 -0.3657  0.3276 -0.9929
  233MPD1     H 3592   2.481   1.107   1.943 -1.1629  0.3301  1.5850
  233MPD1    H1 3593   2.587   1.513   1.983 -0.5504  0.9271 -1.4642
  233MPD1    H2 3594   2.184   1.414   1.965  0.8899  3.4807 -0.5156
  233MPD1    H3 3595   2.354   1.575   1.973  2.0979  0.7775  0.3238
  233MPD1     N 3596   2.690   1.282   1.960 -0.6162  0.3982 -0.5461
  233MPD1    H5 3597   2.747   1.366   1.967  2.0814 -1.3707 -1.1875
  233MPD1    N1 3598   2.225   1.150   1.954  0.6223  0.5954 -0.2083
  233MPD1    H6 3599   2.253   1.057   1.922  0.2549  1.2332 -2.3794
  233MPD1    H7 3600   2.145   1.172   1.895 -0.8964 -2.4410  0.7005
  234MPD1     C 3601   3.662   0.212  10.302 -0.6939  0.3184  0.3493
  234MPD1    C1 3602   3.545   0.190  10.222 -0.6632 -0.4680 -0.1225
  234MPD1    C2 3603   3.499   0.304  10.146  0.2642  0.6299  0.3342
  234MPD1    C3 3604   3.583   0.417  10.130 -0.6040  0.8420  0.3399
  234MPD1    C4 3605   3.696   0.430  10.205  0.4755  1.0785  0.0611
  234MPD1    C5 3606   3.728   0.329  10.294  0.0980 -0.3759 -0.1206
  234MPD1     H 3607   3.408   0.281  10.090  0.2145 -0.3633  0.8188
  234MPD1    H1 3608   3.762   0.516  10.200  0.0274  1.4295  0.1774
  234MPD1    H2 3609   3.690   0.133  10.370 -3.7986 -0.4327  0.7594
  234MPD1    H3 3610   3.814   0.342  10.359 -1.2200  1.9040  1.1711
  234MPD1     N 3611   3.549   0.519  10.027  0.6993  0.2531  0.2258
  234MPD1    H5 3612   3.480   0.496   9.956 -0.7665  0.2349  1.6546
  234MPD1    N1 3613   3.458   0.085  10.259 -0.7232  0.1442  0.0233
  234MPD1    H6 3614   3.374   0.071  10.204  1.1387 -2.2890 -2.2129
  234MPD1    H7 3615   3.513   4.733  10.253 -1.4488 -0.4364  1.6360
  235MPD1     C 3616   0.770   2.402  10.443 -0.2150  0.1835  0.3179
  235MPD1    C1 3617   0.695   2.473  10.351  0.3441 -0.3369 -0.0705
  235MPD1    C2 3618   0.757   2.507  10.236 -0.1016  0.3280  0.0024
  235MPD1    C3 3619   0.889   2.473  10.209  0.1773  0.3098 -0.4441
  235MPD1    C4 3620   0.972   2.411  10.310 -0.2132 -0.4019  0.4550
  235MPD1    C5 3621   0.909   2.390  10.428 -0.1123 -0.5722  0.2762
  235MPD1     H 3622   0.714   2.568  10.158  1.1859 -0.2277 -1.1399
  235MPD1    H1 3623   1.078   2.393  10.300 -0.3904 -1.4230  0.4499
  235MPD1    H2 3624   0.737   2.353  10.534 -0.5002  1.9736  1.1893
  235MPD1    H3 3625   0.979   2.338  10.492 -1.6826 -1.0645  1.5992
  235MPD1     N 3626   0.938   2.514  10.089 -0.5791 -0.1123 -0.1193
  235MPD1    H5 3627   0.877   2.571  10.032  0.2633  0.3472 -0.5651
  235MPD1    N1 3628   0.579   2.535  10.393 -0.2216  0.3888 -0.1261
  235MPD1    H6 3629   0.531   2.462  10.445 -0.9932  0.4583 -0.7412
  235MPD1    H7 3630   0.527   2.566  10.311 -0.3824  1.0442  0.2267
  236MPD1     C 3631   0.018   3.865  10.529 -0.3445  0.5329 -0.2498
  236MPD1    C1 3632   0.134   3.880  10.455 -0.1288 -0.0527  0.4066
  236MPD1    C2 3633   0.255   3.813  10.478 -0.1633  0.0836  0.4670
  236MPD1    C3 3634   0.246   3.713  10.577  0.5199  0.7479 -0.4935
  236MPD1    C4 3635   0.127   3.692  10.643  0.4349 -0.6053  0.4341
  236MPD1    C5 3636   0.017   3.775  10.629 -0.4372 -0.1902  0.4170
  236MPD1     H 3637   0.350   3.824  10.427  0.2097 -0.0419  1.1362
  236MPD1    H1 3638   0.114   3.615  10.718 -0.8835  0.2594  1.0906
  236MPD1    H2 3639   4.655   3.913  10.519 -1.2196 -0.5059  3.2409
  236MPD1    H3 3640   4.664   3.753  10.690  0.6389  0.6793  2.2771
  236MPD1     N 3641   0.356   3.628  10.607 -0.0350  0.0774 -0.0667
  236MPD1    H5 3642   0.337   3.564  10.683 -1.1466  0.6079  0.1068
  236MPD1    N1 3643   0.130   3.994  10.376  0.2168  0.5079  0.4521
  236MPD1    H6 3644   0.204   3.983  10.306 -1.9686 -0.3098 -1.7335
  236MPD1    H7 3645   0.041   3.999  10.327  0.3637 -1.7049 -0.0470
  237MPD1     C 3646   0.096   2.453  14.743 -0.4715 -0.1186  0.0097
  237MPD1    C1 3647   0.073   2.421  14.876 -0.4444 -0.3279 -0.1373
  237MPD1    C2 3648   4.715   2.317  14.897 -0.8812  0.0939 -0.5916
  237MPD1    C3 3649   4.631   2.268  14.793  0.1177 -0.7086  1.4987
  237MPD1    C4 3650   4.640   2.321  14.670 -0.0062  0.1632  0.0890
  237MPD1    C5 3651   0.014   2.412  14.649  0.0429 -0.3832 -0.6528
  237MPD1     H 3652   4.701   2.273  14.995 -1.7595 -2.6381 -1.9647
  237MPD1    H1 3653   4.580   2.288  14.587  0.3862 -3.4175  1.2252
  237MPD1    H2 3654   0.177   2.522  14.722 -0.1316 -0.0206  1.6105
  237MPD1    H3 3655   0.037   2.446  14.549 -2.3562  0.3280 -0.9696
  237MPD1     N 3656   4.528   2.170  14.806 -0.1973  0.1347  0.2134
  237MPD1    H5 3657   4.470   2.150  14.724  0.2906 -1.8794  0.3473
  237MPD1    N1 3658   0.178   2.453  14.965 -0.8111 -0.2134 -0.2573
  237MPD1    H6 3659   0.138   2.469  15.057  1.1700  2.1457  0.2069
  237MPD1    H7 3660   0.216   2.541  14.933  0.6495 -0.4713  0.7581
  238MPD1     C 3661   1.258   1.509  15.486  0.7762 -0.0047  0.3526
  238MPD1    C1 3662   1.125   1.473  15.519  0.2102  1.3659 -0.0778
  238MPD1    C2 3663   1.096   1.341  15.502 -1.1774 -0.1648 -0.0210
  238MPD1    C3 3664   1.191   1.252  15.452  0.8497  0.1260  0.2518
  238MPD1    C4 3665   1.316   1.293  15.427 -0.1048 -0.7143 -0.7560
  238MPD1    C5 3666   1.352   1.420  15.458 -0.2138 -0.0450  0.1242
  238MPD1     H 3667   0.993   1.308  15.504 -1.6824  1.4730  1.3603
  238MPD1    H1 3668   1.394   1.239  15.375  0.0242 -2.5692  1.3445
  238MPD1    H2 3669   1.294   1.611  15.496  0.3649  0.0868  0.8422
  238MPD1    H3 3670   1.455   1.454  15.448 -0.2839  0.1942  0.2112
  238MPD1     N 3671   1.156   1.122  15.399  0.0306  0.4442  0.1048
  238MPD1    H5 3672   1.219   1.066  15.342 -1.0832  0.2100 -0.8982
  238MPD1    N1 3673   1.029   1.576  15.529 -0.2253 -0.0290  0.3880
  238MPD1    H6 3674   0.946   1.542  15.577 -0.9360 -0.8431 -1.4152
  238MPD1    H7 3675   1.056   1.668  15.562 -1.0666  0.4528 -0.2849
  239MPD1     C 3676   1.850   1.720  14.988  0.1935  0.1494 -0.2915
  239MPD1    C1 3677   1.871   1.857  14.953 -1.1263 -0.0696 -0.2565
  239MPD1    C2 3678   1.797   1.899  14.841 -0.0569 -0.0054  0.4276
  239MPD1    C3 3679   1.734   1.811  14.752  0.2745  0.2311 -0.2399
  239MPD1    C4 3680   1.734   1.673  14.767 -0.1409 -0.5388  0.0146
  239MPD1    C5 3681   1.788   1.633  14.894 -0.5230 -0.0028 -0.6654
  239MPD1     H 3682   1.812   2.003  14.814  0.5157 -0.1912  0.0275
  239MPD1    H1 3683   1.701   1.604  14.691 -0.5879  0.6881 -0.9106
  239MPD1    H2 3684   1.884   1.689  15.086 -0.1423 -0.3952 -0.3483
  239MPD1    H3 3685   1.788   1.528  14.922 -0.6908  0.4744  1.1529
  239MPD1     N 3686   1.665   1.863  14.638 -0.6190 -0.5696  0.0984
  239MPD1    H5 3687   1.624   1.798  14.572  0.5541 -0.1231 -1.0693
  239MPD1    N1 3688   1.928   1.939  15.053 -0.6315  0.0660 -0.3190
  239MPD1    H6 3689   1.965   2.027  15.017 -0.2328  1.1595  2.8021
  239MPD1    H7 3690   2.003   1.892  15.104  0.2184  2.4455  0.5976
  240MPD1     C 3691   0.772   1.815  14.037 -0.2650  0.2821 -0.8547
  240MPD1    C1 3692   0.891   1.748  14.021  0.1194  0.3917 -0.2027
  240MPD1    C2 3693   0.908   1.637  14.097 -1.0118 -0.5620  0.1122
  240MPD1    C3 3694   0.805   1.583  14.174 -0.6574 -0.4355  0.3826
  240MPD1    C4 3695   0.687   1.643  14.180 -0.0210  0.0049  0.7659
  240MPD1    C5 3696   0.666   1.759  14.106  0.0206 -0.5074 -0.4850
  240MPD1     H 3697   1.001   1.580  14.093  0.8648  2.5666 -0.7413
  240MPD1    H1 3698   0.618   1.617  14.259  1.5737 -1.1860  1.7712
  240MPD1    H2 3699   0.752   1.909  13.986  1.7698  0.0776 -2.0105
  240MPD1    H3 3700   0.579   1.819  14.130  1.0997  0.8366  0.0500
  240MPD1     N 3701   0.829   1.462  14.252 -0.6001 -0.0312 -0.5580
  240MPD1    H5 3702   0.924   1.437  14.275  0.4722  2.2537 -2.5386
  240MPD1    N1 3703   1.000   1.809  13.951 -0.4428 -0.2827  0.5870
  240MPD1    H6 3704   0.966   1.845  13.862 -1.6263 -3.2982 -0.2057
  240MPD1    H7 3705   1.068   1.738  13.926 -0.1461  0.5553 -0.9437
  241MPD1     C 3706   1.240   1.391  15.093 -0.1300  0.8649 -0.2122
  241MPD1    C1 3707   1.293   1.381  14.965 -0.3262 -0.4533  0.0430
  241MPD1    C2 3708   1.217   1.327  14.866  0.3321  0.1373  0.0006
  241MPD1    C3 3709   1.087   1.293  14.886  0.0706  0.5163 -0.1218
  241MPD1    C4 3710   1.031   1.306  15.008  0.2298  0.5804  0.8051
  241MPD1    C5 3711   1.107   1.362  15.106  0.6621  0.5220 -0.0254
  241MPD1     H 3712   1.248   1.317  14.762 -0.6910 -0.5803 -0.2379
  241MPD1    H1 3713   0.932   1.270  15.036  0.7479 -1.4374 -0.0019
  241MPD1    H2 3714   1.301   1.424  15.176  4.4132 -1.4073 -2.7005
  241MPD1    H3 3715   1.070   1.361  15.208 -1.6005 -0.2146 -0.8427
  241MPD1     N 3716   0.997   1.244  14.787 -0.2786 -0.2753  1.1076
  241MPD1    H5 3717   0.908   1.221  14.831 -1.9763  0.6657 -1.8707
  241MPD1    N1 3718   1.432   1.401  14.937 -0.0423  0.1515  0.1173
  241MPD1    H6 3719   1.471   1.480  14.987  0.1743 -0.7434  1.3635
  241MPD1    H7 3720   1.456   1.411  14.839 -1.3412 -0.3461 -0.2547
  242MPD1     C 3721   0.382   3.692  16.290 -0.1413  0.8317 -0.6464
  242MPD1    C1 3722   0.470   3.799  16.317  0.0309 -0.2900 -0.0523
  242MPD1    C2 3723   0.539   3.859  16.218 -0.3388  0.3176 -0.1767
  242MPD1    C3 3724   0.511   3.818  16.090 -0.5438  0.6489 -0.9694
  242MPD1    C4 3725   0.414   3.730  16.056 -0.0623 -0.9590 -0.6926
  242MPD1    C5 3726   0.344   3.672  16.161  0.0721  0.4788  0.5141
  242MPD1     H 3727   0.619   3.926  16.249  0.6758 -2.3416  2.8553
  242MPD1    H1 3728   0.395   3.688  15.959 -0.3663  0.2716 -1.1708
  242MPD1    H2 3729   0.333   3.637  16.370 -1.0296  0.2367 -1.5977
  242MPD1    H3 3730   0.274   3.593  16.135 -0.8068  1.2803  0.4743
  242MPD1     N 3731   0.593   3.865  15.982  0.2834 -0.6882  0.3979
  242MPD1    H5 3732   0.572   3.816  15.896 -2.3570  2.2732 -0.6425
  242MPD1    N1 3733   0.517   3.813  16.451 -0.2405 -0.7939 -0.5674
  242MPD1    H6 3734   0.552   3.908  16.462  0.3401 -0.7236 -2.8262
  242MPD1    H7 3735   0.435   3.810  16.510  0.6635  0.4295  0.7286
  243MPD1     C 3736   1.314   3.205  17.571 -0.7885 -0.3431 -0.6216
  243MPD1    C1 3737   1.441   3.245  17.611  0.1119  0.6567  0.3350
  243MPD1    C2 3738   1.542   3.160  17.565  0.0378 -0.4651  0.4727
  243MPD1    C3 3739   1.525   3.029  17.524 -0.0907  0.3595  0.0713
  243MPD1    C4 3740   1.394   2.987  17.517 -0.8108 -0.3876 -0.7554
  243MPD1    C5 3741   1.291   3.078  17.541  0.4071 -0.6031 -0.2541
  243MPD1     H 3742   1.641   3.204  17.559 -0.5042  0.7866  0.7647
  243MPD1    H1 3743   1.368   2.884  17.494 -2.1055 -0.7327  2.3100
  243MPD1    H2 3744   1.221   3.262  17.571 -0.0502  0.8743  0.3550
  243MPD1    H3 3745   1.187   3.049  17.528 -0.4033  3.1055 -2.0850
  243MPD1     N 3746   1.638   2.953  17.500 -0.0216  0.2280  0.1412
  243MPD1    H5 3747   1.728   2.992  17.527 -0.7977  2.7970 -1.0807
  243MPD1    N1 3748   1.462   3.380  17.644 -0.1724 -0.5480 -0.7407
  243MPD1    H6 3749   1.555   3.396  17.683 -0.3692 -0.2089 -0.4091
  243MPD1    H7 3750   1.383   3.436  17.677 -0.1698 -0.0232 -1.6272
  244MPD1     C 3751   2.215   2.167   0.152  0.3397  1.3013 -0.4023
  244MPD1    C1 3752   2.247   2.153   0.018  0.3801 -0.2463  0.2137
  244MPD1    C2 3753   2.203   2.254  17.666  0.1484  0.7359  0.1462
  244MPD1    C3 3754   2.134   2.361  17.714 -0.1026  0.0673 -0.5741
  244MPD1    C4 3755   2.108   2.376   0.117  0.1790 -0.4909 -0.4906
  244MPD1    C5 3756   2.154   2.277   0.201  0.3451 -0.3261  0.3363
  244MPD1     H 3757   2.208   2.239  17.559  0.9290 -0.3886  0.3345
  244MPD1    H1 3758   2.070   2.465   0.164 -1.4608 -1.4946  0.1014
  244MPD1    H2 3759   2.240   2.092   0.226  1.4177  0.7007 -1.3728
  244MPD1    H3 3760   2.147   2.291   0.308 -0.4039  1.3663  0.0794
  244MPD1     N 3761   2.098   2.459  17.622  1.0156 -0.4508  0.1905
  244MPD1    H5 3762   2.132   2.453  17.526  3.0474 -0.3196  0.8950
  244MPD1    N1 3763   2.303   2.031  17.706  0.2151 -0.0231 -0.2693
  244MPD1    H6 3764   2.348   2.054  17.618  2.4019  1.0556  1.1160
  244MPD1    H7 3765   2.368   1.978   0.030  0.1411 -2.4012 -2.3556
  245MPD1     C 3766   4.549   3.198  13.095  0.1104  0.0238  0.5448
  245MPD1    C1 3767   4.635   3.218  13.196  0.0156  0.3590 -0.0674
  245MPD1    C2 3768   4.608   3.316  13.286 -0.0897  0.0386  0.6249
  245MPD1    C3 3769   4.507   3.409  13.263 -0.6702 -0.4596 -0.5700
  245MPD1    C4 3770   4.427   3.399  13.150  0.7515  0.1128 -0.3545
  245MPD1    C5 3771   4.456   3.289  13.065 -0.0197  0.1905  1.6121
  245MPD1     H 3772   4.679   3.334  13.366 -0.5000  2.1989  0.5256
  245MPD1    H1 3773   4.351   3.467  13.115  0.6176  0.2672  0.2337
  245MPD1    H2 3774   4.550   3.111  13.030  2.3201  0.1504  0.4112
  245MPD1    H3 3775   4.393   3.285  12.977  2.6445 -0.6714 -0.2352
  245MPD1     N 3776   4.489   3.513  13.354  0.7454  0.0534 -0.2629
  245MPD1    H5 3777   4.558   3.523  13.427 -0.6085 -0.7801  1.1287
  245MPD1    N1 3778   0.005   3.126  13.213  0.3228 -0.4304 -0.2507
  245MPD1    H6 3779   0.030   3.099  13.118  0.2654 -4.1653  0.8031
  245MPD1    H7 3780   0.086   3.163  13.262  0.3203 -1.8326  0.8304
  246MPD1     C 3781   1.466   0.104   9.161 -0.4343  0.3164 -0.7566
  246MPD1    C1 3782   1.495   0.200   9.262 -0.8023  0.0079  0.4257
  246MPD1    C2 3783   1.383   0.240   9.337 -0.0750  0.5035 -0.1532
  246MPD1    C3 3784   1.266   0.165   9.335  0.3694 -0.3561  0.6146
  246MPD1    C4 3785   1.257   0.051   9.251 -0.8157  0.1518  0.8086
  246MPD1    C5 3786   1.340   0.045   9.146  0.1324  0.2050  0.0191
  246MPD1     H 3787   1.387   0.329   9.399  0.2510  0.1235  0.3733
  246MPD1    H1 3788   1.174   4.716   9.236  0.8173 -1.7036  0.3724
  246MPD1    H2 3789   1.543   0.072   9.092  0.2439 -2.6257  1.4190
  246MPD1    H3 3790   1.333   4.701   9.071  1.2175 -0.2230  0.3489
  246MPD1     N 3791   1.174   0.196   9.428 -0.0005  0.6563  0.3328
  246MPD1    H5 3792   1.180   0.286   9.474  1.9572  0.5921  0.1929
  246MPD1    N1 3793   1.617   0.268   9.260 -0.1855  0.3911  0.7097
  246MPD1    H6 3794   1.642   0.306   9.351 -1.3255 -0.3260  1.3160
  246MPD1    H7 3795   1.693   0.227   9.206 -2.0284 -0.3130 -1.3572
  247MPD1     C 3796   3.020   3.193  17.043  0.0478  0.6571 -0.1147
  247MPD1    C1 3797   3.048   3.261  16.927  0.8677 -0.1024 -0.3813
  247MPD1    C2 3798   3.170   3.237  16.863  0.6724  0.3214  0.3387
  247MPD1    C3 3799   3.258   3.139  16.911  0.5496 -0.1744 -0.6329
  247MPD1    C4 3800   3.228   3.075  17.029  1.0540  0.9157  0.3115
  247MPD1    C5 3801   3.111   3.104  17.095 -0.1586 -0.5347 -0.1391
  247MPD1     H 3802   3.201   3.277  16.767 -1.5775 -0.4359 -0.6962
  247MPD1    H1 3803   3.293   3.001  17.073  0.7850  0.3055 -0.3209
  247MPD1    H2 3804   2.929   3.221  17.094  0.2581  3.2044 -1.1497
  247MPD1    H3 3805   3.085   3.053  17.187 -0.1580  0.8649  0.6411
  247MPD1     N 3806   3.383   3.103  16.855  0.0062 -0.3342  0.1614
  247MPD1    H5 3807   3.427   3.017  16.887 -0.5416  0.1916  2.2966
  247MPD1    N1 3808   2.944   3.327  16.865 -0.4103 -0.3201  0.7274
  247MPD1    H6 3809   2.976   3.414  16.824  3.5109 -1.4293  1.4730
  247MPD1    H7 3810   2.865   3.347  16.926 -0.6112 -1.9850  1.0157
  248MPD1     C 3811   3.730   2.227  17.695 -0.2963  0.6480  0.2427
  248MPD1    C1 3812   3.659   2.338  17.700 -0.4660 -0.0709  0.1238
  248MPD1    C2 3813   3.673   2.415   0.083 -0.5532  0.5157  0.2584
  248MPD1    C3 3814   3.750   2.379   0.184 -0.1071 -0.0341  1.2972
  248MPD1    C4 3815   3.809   2.259   0.185  0.0339  0.6429 -0.2192
  248MPD1    C5 3816   3.797   2.187   0.069 -0.5437 -0.4657  0.3107
  248MPD1     H 3817   3.640   2.518   0.084 -2.0652  0.0494 -1.7165
  248MPD1    H1 3818   3.877   2.221   0.260 -1.8018 -1.2712  0.4874
  248MPD1    H2 3819   3.725   2.156  17.614  0.7255 -1.2559  1.8666
  248MPD1    H3 3820   3.860   2.099   0.070 -0.2528 -0.2537  1.0181
  248MPD1     N 3821   3.768   2.467   0.287 -0.7533  0.5614  0.0927
  248MPD1    H5 3822   3.694   2.536   0.289 -1.9036 -0.6832  0.6411
  248MPD1    N1 3823   3.594   2.385  17.586  0.1111 -0.6473 -0.1453
  248MPD1    H6 3824   3.500   2.413  17.612  0.4185  0.5202 -0.2518
  248MPD1    H7 3825   3.590   2.315  17.513  1.5884  0.3566 -1.1977
  249MPD1     C 3826   1.670   1.373  10.676  0.0733 -0.5448 -0.4543
  249MPD1    C1 3827   1.679   1.511  10.670  0.5599 -0.4327 -0.5733
  249MPD1    C2 3828   1.571   1.580  10.619 -1.1527  0.1058 -0.5486
  249MPD1    C3 3829   1.461   1.520  10.557  0.6969  0.2180 -0.1564
  249MPD1    C4 3830   1.465   1.383  10.548  0.1885  0.0973  0.2015
  249MPD1    C5 3831   1.568   1.313  10.603 -0.0687  0.2192  0.2784
  249MPD1     H 3832   1.578   1.687  10.608 -1.7482  0.2792  0.7278
  249MPD1    H1 3833   1.376   1.337  10.506  0.1801  0.0614  0.2585
  249MPD1    H2 3834   1.745   1.320  10.733  1.5587  0.6129 -1.3347
  249MPD1    H3 3835   1.565   1.205  10.603 -1.1126  0.2534  1.1998
  249MPD1     N 3836   1.363   1.610  10.505 -0.1249 -0.4785  0.2618
  249MPD1    H5 3837   1.379   1.709  10.521  0.7218 -0.6224  0.3073
  249MPD1    N1 3838   1.772   1.567  10.756 -0.3562  0.0949  0.8173
  249MPD1    H6 3839   1.846   1.501  10.779 -2.7927 -2.1239  2.3458
  249MPD1    H7 3840   1.797   1.665  10.742 -1.9600  0.5775  1.3863
  250MPD2     C 3841   2.029   2.122  13.174  0.2480 -0.1513 -0.9983
  250MPD2    C1 3842   2.141   2.063  13.130  0.2363 -0.1682 -0.0193
  250MPD2    C2 3843   2.134   1.949  13.047  0.4145 -0.1093 -0.2271
  250MPD2    C3 3844   2.014   1.891  13.023  0.2168  0.0130  0.5336
  250MPD2    C4 3845   1.903   1.957  13.069  0.1352  0.0621 -0.2909
  250MPD2    C5 3846   1.909   2.072  13.139 -0.8930  0.3611 -0.4738
  250MPD2     H 3847   2.223   1.906  13.004  0.2751 -1.7017  1.0792
  250MPD2    H1 3848   1.806   1.912  13.051 -1.1774  1.8512  2.3375
  250MPD2    H2 3849   2.039   2.218  13.224 -0.9338 -0.8438  0.5797
  250MPD2    H3 3850   1.815   2.108  13.180 -0.9064  0.4482 -0.5840
  250MPD2     N 3851   1.996   1.773  12.942  0.3290  0.0361 -1.0565
  250MPD2    H5 3852   1.903   1.733  12.933  0.3062  0.3887 -2.3207
  250MPD2    N1 3853   2.258   2.135  13.163  0.7027 -0.0961 -1.0530
  250MPD2    H7 3854   2.252   2.217  13.222 -0.1682  0.0148 -1.2836
  251TMC3    C1 3855   2.483   2.181  13.186  0.3077  0.2167 -0.0445
  251TMC3    C2 3856   2.447   2.314  13.210  0.2282 -0.0207 -0.5591
  251TMC3    C3 3857   2.547   2.409  13.216 -0.3981 -0.6962  0.2649
  251TMC3    C4 3858   2.613   2.148  13.152  0.1242  0.8172  0.8934
  251TMC3    C5 3859   2.709   2.248  13.155 -0.2917  1.0418 -0.0397
  251TMC3    C6 3860   2.679   2.379  13.194 -0.3960 -0.2930 -0.1886
  251TMC3     C 3861   2.383   2.086  13.142 -1.0169  0.5060 -0.6402
  251TMC3     O 3862   2.426   1.987  13.082  0.0024 -0.0220 -0.2125
  251TMC3     H 3863   2.346   2.348  13.234  1.4793  1.4398  2.5848
  251TMC3    H1 3864   2.638   2.044  13.135 -1.4686  0.6158 -0.1881
  251TMC3    H2 3865   2.755   2.456  13.207  2.3118 -3.1588  1.1474
  251TMC3    C7 3866   2.852   2.209  13.160 -0.4021  0.3853 -0.5712
  251TMC3    C8 3867   2.508   2.543  13.255  0.7104  0.0895 -0.7631
  251TMC3    O1 3868   2.880   2.090  13.177  0.0198  0.1547  0.2715
  251TMC3    O2 3869   2.400   2.559  13.310 -0.0702 -0.3977 -0.3943
  252TMC3    C1 3870   2.043   3.709   9.292 -0.5522 -0.0314 -0.4184
  252TMC3    C2 3871   2.153   3.769   9.352  0.2004 -0.5845  0.1950
  252TMC3    C3 3872   2.224   3.695   9.447 -0.1397 -0.0885 -0.6146
  252TMC3    C4 3873   2.008   3.578   9.332  0.0347 -0.0099  0.2936
  252TMC3    C5 3874   2.064   3.524   9.452  1.1709 -0.7535 -0.4444
  252TMC3    C6 3875   2.178   3.579   9.509  0.2059 -0.1242 -0.8178
  252TMC3     C 3876   2.010   3.753   9.160 -0.2765 -0.4088 -0.8170
  252TMC3     O 3877   2.052   3.865   9.131 -0.7687  0.1511  0.5781
  252TMC3     H 3878   2.196   3.860   9.313 -1.1548 -0.0452 -0.0546
  252TMC3    H1 3879   1.913   3.536   9.300  0.8958  0.4846 -2.9041
  252TMC3    H2 3880   2.232   3.508   9.570  0.2548 -0.8533 -1.7159
  252TMC3    C7 3881   1.998   3.404   9.506  0.0114 -0.8786  0.1417
  252TMC3    C8 3882   2.359   3.743   9.462  0.0837 -0.3231 -0.6583
  252TMC3    O1 3883   1.910   3.355   9.442 -0.1948  0.0816 -0.0852
  252TMC3    O2 3884   2.401   3.827   9.385  0.5278 -0.6169  0.2047
  253MPD2     C 3885   3.985   2.159  15.292  0.0657 -0.0843 -0.3767
  253MPD2    C1 3886   3.851   2.169  15.294  0.4016  1.0015  0.2833
  253MPD2    C2 3887   3.783   2.138  15.407 -0.1088  0.0401 -0.7308
  253MPD2    C3 3888   3.850   2.110  15.525 -0.1898 -1.2350  0.2496
  253MPD2    C4 3889   3.988   2.105  15.517  0.0021  0.5070  0.4844
  253MPD2    C5 3890   4.056   2.129  15.404  0.2948 -0.6462 -0.2604
  253MPD2     H 3891   3.676   2.148  15.396  0.0145  1.4974 -0.6162
  253MPD2    H1 3892   4.045   2.101  15.609 -1.9692 -1.0242  1.6420
  253MPD2    H2 3893   4.044   2.191  15.206  3.8215 -2.5145  1.3022
  253MPD2    H3 3894   4.164   2.132  15.417  0.2966 -2.9845  0.2699
  253MPD2     N 3895   3.778   2.084  15.648 -0.3187  0.3312  0.4264
  253MPD2    H5 3896   3.831   2.045  15.727 -0.3879  0.8722  0.7390
  253MPD2    N1 3897   3.780   2.205  15.176 -0.0740 -0.2821 -0.8399
  253MPD2    H7 3898   3.681   2.220  15.193 -0.2019 -0.2219 -1.6191
  254TMC3    C1 3899   3.577   2.067  15.792  0.1240  0.0027 -0.0425
  254TMC3    C2 3900   3.462   2.132  15.830  0.5401 -0.3421  0.4963
  254TMC3    C3 3901   3.394   2.080  15.935 -0.2272 -0.2209 -0.1885
  254TMC3    C4 3902   3.629   1.960  15.868 -0.6639  0.1234 -1.0904
  254TMC3    C5 3903   3.554   1.908  15.974  0.2643  0.2164  0.8961
  254TMC3    C6 3904   3.433   1.970  16.004 -0.5618 -0.1538 -0.4790
  254TMC3     C 3905   3.642   2.113  15.667 -0.1928 -0.1609 -0.5037
  254TMC3     O 3906   3.581   2.189  15.600  0.1792  1.0669 -0.5922
  254TMC3     H 3907   3.425   2.207  15.761 -1.1209 -2.1184 -0.5312
  254TMC3    H1 3908   3.726   1.925  15.835  0.4616  1.6110  0.6303
  254TMC3    H2 3909   3.390   1.954  16.102  0.0057 -0.8087 -0.3422
  254TMC3    C7 3910   3.619   1.839  16.086 -0.2028  1.2796  0.3498
  254TMC3    C8 3911   3.298   2.166  16.003  0.1332 -0.0956 -0.0525
  254TMC3    O1 3912   3.543   1.761  16.143  0.2715  0.1754 -0.6019
  254TMC3    O2 3913   3.228   2.114  16.094 -0.2511  0.5662 -0.3216
  255MPD2     C 3914   1.446   0.942  10.547 -0.5273  0.0490 -0.1510
  255MPD2    C1 3915   1.516   0.947  10.432 -0.2025  0.1743 -0.4677
  255MPD2    C2 3916   1.653   0.931  10.442 -0.4531 -0.1936  0.0024
  255MPD2    C3 3917   1.722   0.907  10.559 -0.4286 -0.1683  0.2890
  255MPD2    C4 3918   1.652   0.914  10.683  0.0478  0.1738  0.6887
  255MPD2    C5 3919   1.517   0.932  10.668  0.1043  1.0898  0.1912
  255MPD2     H 3920   1.708   0.927  10.349  0.6894 -4.9895  0.8994
  255MPD2    H1 3921   1.693   0.890  10.780 -1.1754 -0.3308  1.0823
  255MPD2    H2 3922   1.341   0.966  10.563 -0.2698  0.9157  0.2192
  255MPD2    H3 3923   1.456   0.926  10.757 -2.3843 -1.0649 -1.6439
  255MPD2     N 3924   1.856   0.869  10.546  0.5874  0.1769  0.3108
  255MPD2    H5 3925   1.882   0.861  10.448 -0.0107 -0.7069  0.2220
  255MPD2    N1 3926   1.456   0.973  10.300  0.1650  0.0190  0.1330
  255MPD2    H7 3927   1.521   0.984  10.223 -0.7999 -0.1469 -0.7051
  256TMC3    C1 3928   1.309   0.935  10.132 -0.1815  0.2346 -0.7900
  256TMC3    C2 3929   1.390   1.012  10.046 -0.8275 -0.1807 -0.1350
  256TMC3    C3 3930   1.385   0.986   9.919 -0.3245 -0.0811  0.2398
  256TMC3    C4 3931   1.256   0.812  10.088 -0.1081 -0.3467  0.1467
  256TMC3    C5 3932   1.259   0.788   9.951  0.5022 -0.2318 -0.2958
  256TMC3    C6 3933   1.313   0.884   9.868  0.7422 -0.3979 -0.4379
  256TMC3     C 3934   1.325   0.951  10.275 -0.0260 -0.2165  0.5726
  256TMC3     O 3935   1.242   0.908  10.354  0.5637  0.4512  0.6110
  256TMC3     H 3936   1.434   1.108  10.069  0.3530 -1.0064  1.0537
  256TMC3    H1 3937   1.214   0.751  10.167 -2.1627 -0.8609 -1.3466
  256TMC3    H2 3938   1.314   0.858   9.763 -1.1246 -2.7679  0.1200
  256TMC3    C7 3939   1.270   0.649   9.895  0.3962  0.4339  0.3267
  256TMC3    C8 3940   1.453   1.074   9.821 -0.0054 -0.0136 -0.1701
  256TMC3    O1 3941   1.320   0.629   9.784  0.4159  0.2286  0.3087
  256TMC3    O2 3942   1.401   1.063   9.709 -0.1207 -0.6516  0.3343
  257MPD2     C 3943   0.858   1.887  13.316  0.1340 -0.2706 -0.6094
  257MPD2    C1 3944   0.980   1.880  13.251 -0.4087  0.2035 -0.2624
  257MPD2    C2 3945   1.089   1.828  13.319 -0.1606  0.9763 -0.5103
  257MPD2    C3 3946   1.075   1.776  13.449  0.4723  0.2672  0.2670
  257MPD2    C4 3947   0.955   1.783  13.511  0.5917 -0.1147 -0.3374
  257MPD2    C5 3948   0.847   1.838  13.445 -0.3195  0.1205 -0.6498
  257MPD2     H 3949   1.179   1.814  13.260 -0.7499  1.2388 -1.4725
  257MPD2    H1 3950   0.933   1.739  13.608  0.5334 -0.2381 -0.4062
  257MPD2    H2 3951   0.772   1.926  13.262  0.3232  0.9417 -0.0334
  257MPD2    H3 3952   0.749   1.849  13.491 -0.2649 -0.2464 -0.4465
  257MPD2     N 3953   1.184   1.707  13.508  0.0348  0.1652 -0.1354
  257MPD2    H5 3954   1.262   1.680  13.450  0.4172 -1.7325  1.2671
  257MPD2    N1 3955   0.984   1.931  13.121 -0.2467  0.3508  0.7279
  257MPD2    H7 3956   0.899   1.976  13.088  0.4607  0.0172 -1.5829
  258TMC3    C1 3957   1.315   1.563  13.648  0.7404  0.4291  0.8956
  258TMC3    C2 3958   1.411   1.565  13.562 -1.1046  0.0994 -0.0547
  258TMC3    C3 3959   1.521   1.489  13.593  0.1477  0.1395  0.2818
  258TMC3    C4 3960   1.329   1.508  13.771  0.1384 -0.3080  0.0334
  258TMC3    C5 3961   1.439   1.434  13.802  0.0078 -0.6617  0.2137
  258TMC3    C6 3962   1.542   1.425  13.710 -0.9962 -0.3308 -0.7082
  258TMC3     C 3963   1.201   1.657  13.634 -0.6518 -0.2012 -0.1698
  258TMC3     O 3964   1.145   1.689  13.736 -0.5205 -0.2254  0.9776
  258TMC3     H 3965   1.398   1.591  13.457 -0.6932  0.2235 -0.0738
  258TMC3    H1 3966   1.258   1.523  13.852  1.3794  1.5315  0.7883
  258TMC3    H2 3967   1.631   1.365  13.725 -1.8918 -2.1089 -2.5149
  258TMC3    C7 3968   1.460   1.392  13.939 -0.3856  0.1654 -0.3406
  258TMC3    C8 3969   1.599   1.441  13.476 -0.4394 -0.0806  0.1155
  258TMC3    O1 3970   1.357   1.372  14.004 -0.1706 -1.1155  0.0597
  258TMC3    O2 3971   1.614   1.521  13.388  0.3434  0.3615  0.9095
  259MPD2     C 3972   4.550   3.519   0.919  0.2156  0.0657 -0.6840
  259MPD2    C1 3973   4.665   3.453   0.895 -0.3158 -0.6196 -0.5722
  259MPD2    C2 3974   4.698   3.405   0.763 -1.1357 -0.2517  0.0748
  259MPD2    C3 3975   4.608   3.443   0.664  0.0105  0.2078  0.3781
  259MPD2    C4 3976   4.491   3.516   0.696  0.1239  0.1012 -0.7976
  259MPD2    C5 3977   4.458   3.547   0.825  0.0018  0.5106  0.9958
  259MPD2     H 3978   0.059   3.357   0.742  0.1544  2.9924 -1.4506
  259MPD2    H1 3979   4.419   3.542   0.619 -1.8271 -1.0132  0.6355
  259MPD2    H2 3980   4.527   3.549   1.020 -1.7409 -0.6408 -0.9273
  259MPD2    H3 3981   4.356   3.582   0.839  0.2985  1.8529 -0.1983
  259MPD2     N 3982   4.630   3.404   0.536  0.1335 -0.1751 -0.0854
  259MPD2    H5 3983   4.710   3.342   0.526  0.2412  0.0939 -0.9266
  259MPD2    N1 3984   4.733   3.418   1.010 -0.1859  0.4451  0.4053
  259MPD2    H7 3985   4.702   3.443   1.103  0.5128  0.3984  0.6501
  260TMC3    C1 3986   4.636   3.403   0.295  0.9699  0.1575  0.0586
  260TMC3    C2 3987   4.633   3.496   0.189 -0.1576 -0.1413  0.1456
  260TMC3    C3 3988   4.669   3.449   0.065  0.2759 -0.4886  0.4282
  260TMC3    C4 3989   4.661   3.270   0.276  0.5216  0.4310  0.2082
  260TMC3    C5 3990   4.686   3.229   0.144 -0.3835 -0.0919 -0.8662
  260TMC3    C6 3991   4.683   3.319   0.045  0.7815 -0.2585 -0.0457
  260TMC3     C 3992   4.568   3.451   0.418 -0.1278  0.0552  0.6496
  260TMC3     O 3993   4.480   3.534   0.404 -0.0029 -0.0422 -0.7731
  260TMC3     H 3994   4.606   3.600   0.194 -0.1006  0.0083 -3.0151
  260TMC3    H1 3995   4.651   3.205   0.363  0.2014 -1.6688 -1.4179
  260TMC3    H2 3996   4.700   3.283  17.679  0.7324 -0.4620  0.0197
  260TMC3    C7 3997   0.028   3.107   0.119  0.3909 -0.5308  0.3108
  260TMC3    C8 3998   0.034   3.526  17.721 -0.0149  0.3472  0.3121
  260TMC3    O1 3999   0.070   3.086   0.005  0.1644  0.0461  0.1193
  260TMC3    O2 4000   0.019   3.648  17.730  0.0835  0.3248  0.1394
  261MPD2     C 4001   1.678   1.465  12.327  0.4697 -0.3107 -0.2646
  261MPD2    C1 4002   1.769   1.557  12.368 -0.3556 -0.1034  0.1911
  261MPD2    C2 4003   1.827   1.647  12.272  0.0456 -0.0402  0.5230
  261MPD2    C3 4004   1.790   1.634  12.136 -0.3778  0.0383  0.3403
  261MPD2    C4 4005   1.690   1.545  12.104  0.8074  0.1950 -0.0521
  261MPD2    C5 4006   1.644   1.453  12.191  0.5386 -0.0400 -0.2023
  261MPD2     H 4007   1.910   1.713  12.293  2.4452 -1.6213 -3.8111
  261MPD2    H1 4008   1.657   1.548  12.001  1.8349  0.4963 -0.3685
  261MPD2    H2 4009   1.631   1.402  12.402 -0.6978 -0.2259 -0.9294
  261MPD2    H3 4010   1.573   1.380  12.155 -0.0300  0.1343  0.5551
  261MPD2     N 4011   1.853   1.715  12.040  0.3299  0.5471 -0.5198
  261MPD2    H5 4012   1.928   1.776  12.072 -1.1438  1.4297  1.2403
  261MPD2    N1 4013   1.825   1.554  12.501 -0.3722 -0.1821 -0.0845
  261MPD2    H7 4014   1.889   1.630  12.520 -0.7793  0.6449 -1.9553
  262TMC3    C1 4015   1.933   1.799  11.838 -0.5591  0.9871  0.1406
  262TMC3    C2 4016   1.917   1.924  11.885 -0.1141 -0.4150 -0.0821
  262TMC3    C3 4017   2.000   2.015  11.832 -0.3930 -0.3377 -0.4789
  262TMC3    C4 4018   2.012   1.764  11.732  0.1737  0.1973  0.2293
  262TMC3    C5 4019   2.103   1.856  11.698 -0.2821 -0.2465  0.3634
  262TMC3    C6 4020   2.105   1.982  11.752  0.1564  0.7774  0.5101
  262TMC3     C 4021   1.855   1.697  11.904 -0.5462 -0.0541  0.0921
  262TMC3     O 4022   1.817   1.599  11.845 -0.4036  0.0816 -0.0699
  262TMC3     H 4023   1.846   1.950  11.962  0.0964  0.2745 -0.1237
  262TMC3    H1 4024   2.005   1.662  11.696  2.2387 -0.1142  0.7120
  262TMC3    H2 4025   2.184   2.053  11.732  1.1355 -0.5344 -0.2722
  262TMC3    C7 4026   2.184   1.842  11.578  0.7768 -0.7175  0.0870
  262TMC3    C8 4027   1.996   2.151  11.875 -0.4411  0.0994  0.4888
  262TMC3    O1 4028   2.128   1.788  11.486 -0.3749  0.0742 -0.2203
  262TMC3    O2 4029   2.090   2.228  11.842  0.2236 -0.1612  0.6046
  263MPD2     C 4030   3.121   0.956  11.306 -0.3574 -0.3745 -0.5205
  263MPD2    C1 4031   3.171   1.086  11.289  0.2161  0.2163  0.1454
  263MPD2    C2 4032   3.137   1.153  11.168  0.2988  0.0058 -0.2934
  263MPD2    C3 4033   3.076   1.083  11.062  0.4178 -0.0673  0.6139
  263MPD2    C4 4034   3.036   0.952  11.079  0.1827  1.0494 -0.0313
  263MPD2    C5 4035   3.060   0.889  11.199 -0.1272 -0.2531  0.5374
  263MPD2     H 4036   3.168   1.256  11.164  1.5088 -0.3751 -0.5772
  263MPD2    H1 4037   2.972   0.893  11.014 -1.4974  0.6600  1.9468
  263MPD2    H2 4038   3.138   0.899  11.396  1.1083 -0.5093 -0.8804
  263MPD2    H3 4039   3.025   0.787  11.206  0.0995 -0.2467  1.8078
  263MPD2     N 4040   3.059   1.152  10.944 -0.3531  0.2038  0.0035
  263MPD2    H5 4041   3.087   1.250  10.943  0.5877 -0.0489  1.5970
  263MPD2    N1 4042   3.250   1.139  11.391 -0.1136 -0.7643 -0.0832
  263MPD2    H7 4043   3.272   1.078  11.469  0.9209 -2.6584 -1.8718
  264TMC3    C1 4044   2.984   1.218  10.735  0.2471  0.1336  0.1433
  264TMC3    C2 4045   2.924   1.329  10.777 -0.1950 -0.5259  0.1961
  264TMC3    C3 4046   2.933   1.446  10.705  0.3776  0.5570  0.1948
  264TMC3    C4 4047   3.056   1.222  10.616  0.2095  0.3857 -0.6885
  264TMC3    C5 4048   3.062   1.336  10.545  0.1944 -0.1835  0.3888
  264TMC3    C6 4049   3.007   1.453  10.591  0.3676 -0.4434 -0.2518
  264TMC3     C 4050   3.010   1.107  10.822  0.1440  0.7124  0.1507
  264TMC3     O 4051   2.981   0.995  10.787  0.7133  0.3253  0.1101
  264TMC3     H 4052   2.874   1.312  10.872 -1.3905  2.4976  0.1044
  264TMC3    H1 4053   3.113   1.139  10.576 -1.2100  0.2434 -2.4141
  264TMC3    H2 4054   3.003   1.545  10.534  0.6911 -1.1785 -1.4641
  264TMC3    C7 4055   3.183   1.358  10.474 -0.8114 -0.1224  0.3693
  264TMC3    C8 4056   2.916   1.574  10.771 -0.3524  1.0010  0.1972
  264TMC3    O1 4057   3.275   1.290  10.515 -0.4048 -0.5189 -0.3605
  264TMC3    O2 4058   2.959   1.670  10.706  0.4758  0.0848  0.7470
  265MPD2     C 4059   0.077   1.707  15.537 -0.0614 -0.2905  0.1154
  265MPD2    C1 4060   0.146   1.818  15.502  0.3286 -0.2876 -0.2263
  265MPD2    C2 4061   0.268   1.807  15.431  0.5568  0.0222 -0.1985
  265MPD2    C3 4062   0.307   1.685  15.383 -0.0177  0.0983 -0.4846
  265MPD2    C4 4063   0.232   1.579  15.416  0.3760  0.2045  0.0622
  265MPD2    C5 4064   0.116   1.585  15.493  0.2062  0.3196 -0.9623
  265MPD2     H 4065   0.341   1.886  15.417  0.6845 -0.0348  0.1431
  265MPD2    H1 4066   0.251   1.479  15.381  1.5141  0.8049 -1.0346
  265MPD2    H2 4067   4.719   1.708  15.594 -0.4828  0.4946 -0.5866
  265MPD2    H3 4068   0.064   1.495  15.521 -3.2719  3.1014  1.4489
  265MPD2     N 4069   0.420   1.662  15.300 -0.3275 -0.0608 -0.1843
  265MPD2    H5 4070   0.431   1.564  15.276 -1.0116 -0.4263  0.9923
  265MPD2    N1 4071   0.112   1.948  15.547  0.5174 -0.1140  0.4657
  265MPD2    H7 4072   0.186   2.015  15.563  1.4014 -0.7187 -1.0816
  266TMC3    C1 4073   0.002   2.104  15.691  0.2989  0.3946  0.1661
  266TMC3    C2 4074   0.104   2.124  15.776  0.4347 -0.1560 -0.0509
  266TMC3    C3 4075   0.114   2.247  15.838  0.1685 -0.1365  0.3218
  266TMC3    C4 4076   4.650   2.205  15.668 -0.6987 -0.1607  0.1526
  266TMC3    C5 4077   4.664   2.330  15.725 -0.7609  0.5900  0.6153
  266TMC3    C6 4078   0.030   2.357  15.813  0.0142  0.2529  0.1990
  266TMC3     C 4079   4.729   1.976  15.616 -0.8204  0.0192 -0.5298
  266TMC3     O 4080   4.621   1.923  15.604  0.2228  0.1747 -0.3575
  266TMC3     H 4081   0.174   2.043  15.795  1.2168  0.8707  1.4546
  266TMC3    H1 4082   4.582   2.204  15.584 -0.4299  1.5753 -0.0899
  266TMC3    H2 4083   0.035   2.447  15.875  1.1992 -0.5004  1.1954
  266TMC3    C7 4084   4.602   2.441  15.650 -0.1582 -0.2352  0.1677
  266TMC3    C8 4085   0.211   2.244  15.944  0.1581  0.2010 -0.1492
  266TMC3    O1 4086   4.503   2.413  15.584 -0.0888 -0.2704 -0.2443
  266TMC3    O2 4087   0.293   2.152  15.943 -0.0457  0.3044 -0.2802
  267MPD2     C 4088   1.976   3.669   0.607  0.3190  0.1878  0.1317
  267MPD2    C1 4089   2.025   3.645   0.477  0.7505  0.7864  0.1428
  267MPD2    C2 4090   1.942   3.675   0.377  0.4730 -0.7328 -0.1456
  267MPD2    C3 4091   1.833   3.758   0.393  0.6375 -0.6833  0.1213
  267MPD2    C4 4092   1.793   3.795   0.516 -0.3409 -0.0800  0.5737
  267MPD2    C5 4093   1.866   3.749   0.622 -0.5821 -0.5904 -0.1949
  267MPD2     H 4094   1.959   3.630   0.280  0.0386 -0.6364 -0.2669
  267MPD2    H1 4095   1.716   3.866   0.542 -0.5120  0.8368 -2.4931
  267MPD2    H2 4096   2.034   3.640   0.694  2.8044  1.3248 -1.1358
  267MPD2    H3 4097   1.849   3.779   0.725 -0.7816  2.5265 -1.1646
  267MPD2     N 4098   1.751   3.792   0.274  0.0096 -0.0205  0.1650
  267MPD2    H5 4099   1.662   3.836   0.295 -0.7136 -1.6861  0.5609
  267MPD2    N1 4100   2.151   3.572   0.455 -0.9520 -0.5352  0.3718
  267MPD2    H7 4101   2.214   3.558   0.534 -0.0053  1.6996  0.0100
  268TMC3    C1 4102   2.324   3.445   0.357  0.0174  0.6782 -0.2135
  268TMC3    C2 4103   2.411   3.459   0.254 -0.3347 -0.6341 -0.4753
  268TMC3    C3 4104   2.543   3.461   0.283  0.4738  0.1589 -0.0174
  268TMC3    C4 4105   2.359   3.399   0.484 -0.0746 -0.2370  0.1168
  268TMC3    C5 4106   2.496   3.407   0.507  0.1371 -0.3764  1.1130
  268TMC3    C6 4107   2.587   3.437   0.408 -1.2742 -0.1975 -0.4505
  268TMC3     C 4108   2.200   3.521   0.336 -0.1824 -0.3449  0.1363
  268TMC3     O 4109   2.151   3.509   0.225  0.0636  0.2184  0.1607
  268TMC3     H 4110   2.379   3.485   0.154  2.8085  1.6219 -0.8996
  268TMC3    H1 4111   2.281   3.366   0.552  1.4723 -0.7168  1.6319
  268TMC3    H2 4112   2.693   3.450   0.429 -1.5182  0.1874  0.5658
  268TMC3    C7 4113   2.541   3.330   0.620 -0.5956  0.1219  0.4499
  268TMC3    C8 4114   2.628   3.559   0.210 -0.3572  0.5436 -0.3717
  268TMC3    O1 4115   2.641   3.257   0.608 -0.0580 -0.6444 -0.0748
  268TMC3    O2 4116   2.700   3.631   0.281  0.9175  0.0133 -0.1021
  269MPD2     C 4117   3.231   2.611  15.656  0.2857 -0.5078 -0.5630
  269MPD2    C1 4118   3.107   2.636  15.710  0.4986  1.2583 -0.1316
  269MPD2    C2 4119   3.061   2.767  15.721  0.9637  0.3939  0.4023
  269MPD2    C3 4120   3.150   2.871  15.713  0.1728  0.3901 -0.1158
  269MPD2    C4 4121   3.279   2.846  15.670  0.4960 -0.1806  0.3946
  269MPD2    C5 4122   3.312   2.719  15.644 -0.8893  0.1207 -0.3119
  269MPD2     H 4123   2.959   2.797  15.744  0.3512  0.0024 -1.8160
  269MPD2    H1 4124   3.354   2.921  15.650 -0.2909  0.6580  0.6071
  269MPD2    H2 4125   3.270   2.512  15.634 -0.8775 -1.2583  0.7868
  269MPD2    H3 4126   3.414   2.700  15.612 -0.9389  1.9466 -1.5522
  269MPD2     N 4127   3.102   2.998  15.753 -0.6130 -0.2551  0.8178
  269MPD2    H5 4128   3.008   3.011  15.788 -0.8160 -0.6996  0.4410
  269MPD2    N1 4129   3.025   2.522  15.742 -0.1349 -0.3523 -0.3022
  269MPD2    H7 4130   3.068   2.432  15.722  0.5502 -0.7070  2.7832
  270TMC3    C1 4131   2.832   2.405  15.810  0.7585  0.3637 -0.3931
  270TMC3    C2 4132   2.699   2.385  15.786  0.3243  0.7013 -0.6784
  270TMC3    C3 4133   2.658   2.261  15.788 -0.7028  0.1432  0.7449
  270TMC3    C4 4134   2.911   2.311  15.867 -0.1084 -0.1501  0.6873
  270TMC3    C5 4135   2.863   2.187  15.889 -0.1500  0.1262  0.0398
  270TMC3    C6 4136   2.731   2.161  15.847  0.2125 -0.2292  1.1098
  270TMC3     C 4137   2.892   2.529  15.776  0.5408 -0.0984  0.2299
  270TMC3     O 4138   2.812   2.624  15.783  0.4602  0.5181  0.3465
  270TMC3     H 4139   2.638   2.465  15.748 -0.1507  0.4684 -0.4042
  270TMC3    H1 4140   3.014   2.335  15.889  0.0269 -0.5671  0.5111
  270TMC3    H2 4141   2.695   2.059  15.857 -0.6363 -0.0655 -0.2847
  270TMC3    C7 4142   2.954   2.078  15.909 -0.2985 -0.6323  1.2449
  270TMC3    C8 4143   2.601   2.229  15.653 -0.2162  0.7599 -0.0529
  270TMC3    O1 4144   3.051   2.076  15.835 -0.6581  0.0987  0.6106
  270TMC3    O2 4145   2.567   2.328  15.587  0.4969  0.5931  0.6112
  271MPD2     C 4146   1.916   2.053  14.163 -0.0188 -0.2049  0.2449
  271MPD2    C1 4147   1.866   2.143  14.252 -0.6153 -0.1703  0.2090
  271MPD2    C2 4148   1.750   2.207  14.223 -0.2608  0.5700  0.2629
  271MPD2    C3 4149   1.686   2.187  14.105 -0.1947 -0.8121 -0.1488
  271MPD2    C4 4150   1.748   2.107  14.016  0.0561 -0.2770  0.1507
  271MPD2    C5 4151   1.865   2.046  14.040 -0.1278  0.3802 -0.1109
  271MPD2     H 4152   1.711   2.278  14.296  1.2025  1.1225  0.5244
  271MPD2    H1 4153   1.709   2.090  13.916  0.2099 -1.2321  0.2492
  271MPD2    H2 4154   2.007   1.998  14.187  1.2308  1.6508 -0.2604
  271MPD2    H3 4155   1.905   1.969  13.976 -0.8012 -1.2986  1.4635
  271MPD2     N 4156   1.565   2.247  14.065  0.2561  0.2055  0.3047
  271MPD2    H5 4157   1.533   2.224  13.971  0.1405 -1.1936  0.6813
  271MPD2    N1 4158   1.931   2.161  14.374 -0.5762  0.1691 -0.5062
  271MPD2    H7 4159   1.900   2.242  14.427  1.9425 -1.5830  3.6221
  272TMC3    C1 4160   2.104   2.159  14.518 -0.4904  0.2424 -0.6362
  272TMC3    C2 4161   2.233   2.170  14.484 -0.0233 -0.0567  0.2155
  272TMC3    C3 4162   2.330   2.190  14.577 -0.3856  0.1965 -0.1364
  272TMC3    C4 4163   2.068   2.166  14.647  0.2339  0.0290 -0.3263
  272TMC3    C5 4164   2.170   2.168  14.739  0.5236  0.3481 -0.0820
  272TMC3    C6 4165   2.300   2.172  14.708 -0.0478 -0.3858 -0.0914
  272TMC3     C 4166   2.031   2.083  14.424 -0.5330 -0.7611 -0.5588
  272TMC3     O 4167   2.062   1.966  14.403 -0.4943 -0.3415 -0.4860
  272TMC3     H 4168   2.266   2.164  14.380 -1.9775  0.0909 -0.4073
  272TMC3    H1 4169   1.966   2.142  14.675  0.5517  0.8947  1.5730
  272TMC3    H2 4170   2.370   2.168  14.791  2.3481 -0.5638 -2.1446
  272TMC3    C7 4171   2.128   2.208  14.874  0.1580  0.6279  0.1956
  272TMC3    C8 4172   2.457   2.143  14.526 -0.8238  1.0129  0.3346
  272TMC3    O1 4173   2.011   2.189  14.910 -0.5853  0.2609 -0.0912
  272TMC3    O2 4174   2.523   2.219  14.462 -0.0183  0.3340 -0.0183
  273MPD2     C 4175   3.687   0.122  11.983  0.2263  0.2487 -0.4742
  273MPD2    C1 4176   3.819   0.161  11.979 -0.1943  0.3563 -0.1921
  273MPD2    C2 4177   3.879   0.237  11.875 -0.1200 -0.4617 -0.6675
  273MPD2    C3 4178   3.806   0.264  11.764  0.0430 -0.0303 -0.7390
  273MPD2    C4 4179   3.676   0.221  11.764  0.1361 -0.0377  0.4220
  273MPD2    C5 4180   3.620   0.153  11.865 -0.0051 -0.3517  0.8246
  273MPD2     H 4181   3.974   0.285  11.894 -0.7386  1.3151 -2.1160
  273MPD2    H1 4182   3.628   0.235  11.668  0.4910  0.6142  0.3434
  273MPD2    H2 4183   3.650   0.059  12.063 -0.0840  2.3674  1.0656
  273MPD2    H3 4184   3.522   0.110  11.847 -0.3832  0.3035  1.2946
  273MPD2     N 4185   3.850   0.337  11.650  0.0363 -0.5898 -0.5853
  273MPD2    H5 4186   3.782   0.357  11.577 -1.1768  2.7297  1.4595
  273MPD2    N1 4187   3.888   0.125  12.096 -0.3867 -0.1811 -0.8746
  273MPD2    H7 4188   3.840   0.051  12.147 -1.4607  0.3615 -1.0936
  274TMC3    C1 4189   4.011   0.422  11.495  0.5254 -0.2954  0.5382
  274TMC3    C2 4190   3.939   0.363  11.391  0.1356  0.0397  0.6562
  274TMC3    C3 4191   3.955   0.408  11.266  0.5909  0.0240 -0.1237
  274TMC3    C4 4192   4.077   0.544  11.482  0.1319  0.1886 -0.4735
  274TMC3    C5 4193   4.080   0.584  11.349  0.3205  0.4447  0.4410
  274TMC3    C6 4194   4.036   0.511  11.243 -0.0228  0.7495  1.0556
  274TMC3     C 4195   3.980   0.382  11.628  0.0562 -0.5658  0.5576
  274TMC3     O 4196   4.071   0.394  11.715 -0.1177 -0.0852  0.5819
  274TMC3     H 4197   3.890   0.269  11.413 -0.2301  0.1592  0.3525
  274TMC3    H1 4198   4.136   0.591  11.560 -0.3203 -0.3038  0.1638
  274TMC3    H2 4199   4.009   0.575  11.159 -0.1784 -0.2609  0.3420
  274TMC3    C7 4200   4.086   0.728  11.335  0.2488  0.2742  0.2874
  274TMC3    C8 4201   3.848   0.385  11.172  0.0195  0.5308  0.7108
  274TMC3    O1 4202   4.122   0.773  11.226  0.0120 -0.4643 -0.4488
  274TMC3    O2 4203   3.739   0.351  11.219 -0.4594 -0.3813  0.6565
  275MPD2     C 4204   3.341   3.786  14.916  0.0976 -0.0507 -0.2211
  275MPD2    C1 4205   3.339   3.668  14.833 -0.1535 -0.2262 -0.2137
  275MPD2    C2 4206   3.223   3.602  14.808 -0.0215 -0.0832  0.6241
  275MPD2    C3 4207   3.105   3.658  14.856  0.4013  0.7067  0.0617
  275MPD2    C4 4208   3.108   3.784  14.903 -0.5653 -0.5696  0.4004
  275MPD2    C5 4209   3.221   3.843  14.945  0.3456  0.1949 -0.3614
  275MPD2     H 4210   3.228   3.510  14.752 -1.8361  1.6293 -2.3287
  275MPD2    H1 4211   3.023   3.840  14.941  0.5875 -0.3946  2.7472
  275MPD2    H2 4212   3.428   3.848  14.937 -0.5338  0.3453  1.2044
  275MPD2    H3 4213   3.212   3.940  14.992 -2.1520 -0.9968  1.6200
  275MPD2     N 4214   2.980   3.598  14.842 -0.1103  0.0202 -0.2777
  275MPD2    H5 4215   2.904   3.658  14.870 -1.8686 -2.6278  0.6603
  275MPD2    N1 4216   3.456   3.597  14.803 -0.8041 -0.1605 -0.3510
  275MPD2    H7 4217   3.446   3.499  14.777  0.4132 -0.3885  0.0321
  276TMC3    C1 4218   3.681   3.528  14.817 -0.2911 -0.3186 -0.4350
  276TMC3    C2 4219   3.659   3.442  14.714  0.2374  0.4200  0.0764
  276TMC3    C3 4220   3.742   3.341  14.703  0.7270  0.3786 -0.0175
  276TMC3    C4 4221   3.768   3.514  14.908 -0.1917 -0.3993  0.3236
  276TMC3    C5 4222   3.853   3.408  14.902  0.0348  0.1896 -0.6672
  276TMC3    C6 4223   3.844   3.323  14.797  0.1482 -0.1003  0.7297
  276TMC3     C 4224   3.585   3.628  14.837  0.4716 -0.2806  0.3622
  276TMC3     O 4225   3.623   3.724  14.901 -0.0372  0.4683  0.4561
  276TMC3     H 4226   3.582   3.464  14.641 -0.6653 -0.5100  0.7453
  276TMC3    H1 4227   3.762   3.586  14.989 -2.9936  0.4772 -0.6777
  276TMC3    H2 4228   3.924   3.251  14.786 -1.3106 -1.4756 -0.8670
  276TMC3    C7 4229   3.952   3.402  15.002 -0.2867  0.0129 -0.0455
  276TMC3    C8 4230   3.712   3.238  14.613  0.7669 -0.3792  0.2559
  276TMC3    O1 4231   3.974   3.508  15.065  0.2957 -0.5066 -0.5279
  276TMC3    O2 4232   3.657   3.277  14.516 -0.3806  0.2382 -0.2019
  277MPD2     C 4233   0.326   2.210  13.109 -0.1825 -0.7134  0.3389
  277MPD2    C1 4234   0.240   2.282  13.185 -0.1820  0.4047  0.0216
  277MPD2    C2 4235   0.224   2.238  13.310  0.6354  0.2088 -0.0151
  277MPD2    C3 4236   0.287   2.124  13.356 -0.8952  0.2271 -0.2349
  277MPD2    C4 4237   0.385   2.064  13.278  0.4609 -0.1876 -0.7512
  277MPD2    C5 4238   0.401   2.101  13.150 -0.0713 -0.7644 -0.6206
  277MPD2     H 4239   0.151   2.287  13.375  0.2662 -1.5517  0.8927
  277MPD2    H1 4240   0.453   1.990  13.318 -1.8218 -0.9367  1.7241
  277MPD2    H2 4241   0.338   2.241  13.005 -2.3624 -0.5923  0.1386
  277MPD2    H3 4242   0.481   2.061  13.088  0.3664  0.3414 -0.7582
  277MPD2     N 4243   0.260   2.096  13.489 -0.2381 -0.3864  0.8804
  277MPD2    H5 4244   0.185   2.148  13.532 -0.7758  1.3897 -2.2243
  277MPD2    N1 4245   0.166   2.394  13.137 -0.4802 -0.1723 -0.0426
  277MPD2    H7 4246   0.207   2.434  13.052 -2.0834  0.2671 -0.6072
  278TMC3    C1 4247   0.262   1.976  13.692  0.0915  0.4639  0.2314
  278TMC3    C2 4248   0.274   1.850  13.739  0.4422  0.1217  1.0986
  278TMC3    C3 4249   0.232   1.816  13.866  0.4467 -0.1899 -0.5745
  278TMC3    C4 4250   0.213   2.074  13.775  0.5419  0.3051 -0.1877
  278TMC3    C5 4251   0.159   2.035  13.898 -0.4802  0.1687  1.0772
  278TMC3    C6 4252   0.170   1.904  13.943  0.5540 -0.1691  0.0904
  278TMC3     C 4253   0.323   2.004  13.565  0.4600 -0.8646 -0.3740
  278TMC3     O 4254   0.414   1.932  13.530  0.5991  0.4803  0.0157
  278TMC3     H 4255   0.333   1.773  13.690  0.1280  1.6099 -1.6150
  278TMC3    H1 4256   0.197   2.173  13.732 -1.6959 -0.5917 -1.3853
  278TMC3    H2 4257   0.130   1.872  14.039 -0.2217  0.7447  0.0616
  278TMC3    C7 4258   0.069   2.133  13.960  0.0239  0.3514  0.4165
  278TMC3    C8 4259   0.206   1.671  13.880 -0.4166 -0.0764 -0.0429
  278TMC3    O1 4260   0.081   2.251  13.929  0.2591 -0.4764 -0.5047
  278TMC3    O2 4261   0.216   1.620  13.988 -0.0777 -0.1023 -0.1391
  279MPD2     C 4262   4.688   1.727   0.121 -0.5627  0.5389 -0.3943
  279MPD2    C1 4263   4.569   1.793   0.115  0.6922 -0.3385  1.0251
  279MPD2    C2 4264   4.525   1.836  17.729  0.6185 -0.4541  0.0435
  279MPD2    C3 4265   4.595   1.818  17.613 -0.6081  0.6155 -0.0308
  279MPD2    C4 4266   4.721   1.759  17.617 -0.6013 -0.0716  0.2298
  279MPD2    C5 4267   0.028   1.713   0.008 -0.2066  0.5445 -0.3880
  279MPD2     H 4268   4.424   1.876  17.725  0.2391 -1.4911 -0.5802
  279MPD2    H1 4269   0.060   1.743  17.539 -1.7956  0.2539 -0.9700
  279MPD2    H2 4270   4.720   1.668   0.207 -0.3479 -1.8450 -2.1037
  279MPD2    H3 4271   0.122   1.661   0.022  0.2154  1.6605  0.8725
  279MPD2     N 4272   4.543   1.854  17.484 -0.6274  0.3510 -0.3471
  279MPD2    H5 4273   4.601   1.844  17.402 -1.0960 -1.8696 -0.4140
  279MPD2    N1 4274   4.476   1.809   0.230 -0.5105 -0.1451  0.1175
  279MPD2    H7 4275   4.382   1.842   0.209  0.1355  1.7405  0.1606
  280TMC3    C1 4276   4.384   1.738   0.432  0.4069 -0.0794  0.2114
  280TMC3    C2 4277   4.309   1.642   0.379 -0.3104 -0.6783 -0.1940
  280TMC3    C3 4278   4.188   1.617   0.431 -0.0070  0.7512 -0.3975
  280TMC3    C4 4279   4.344   1.817   0.536 -0.0969 -0.4025  0.6480
  280TMC3    C5 4280   4.214   1.792   0.584  0.2439  0.1732  0.4492
  280TMC3    C6 4281   4.129   1.692   0.531  0.2617 -1.1294  0.2953
  280TMC3     C 4282   4.501   1.761   0.362  0.3990  0.7111 -0.3908
  280TMC3     O 4283   4.598   1.704   0.406 -0.0468  0.1384 -0.1108
  280TMC3     H 4284   4.342   1.604   0.283 -0.1670 -2.9854  0.7476
  280TMC3    H1 4285   4.405   1.902   0.565 -1.3503  0.3289  1.1419
  280TMC3    H2 4286   4.028   1.665   0.559 -0.3327  1.2307  0.4600
  280TMC3    C7 4287   4.153   1.907   0.641 -0.2030 -0.2671 -0.0188
  280TMC3    C8 4288   4.127   1.502   0.389  0.9843  0.4716  0.0810
  280TMC3    O1 4289   4.226   1.982   0.697  0.1349  0.1453  0.3151
  280TMC3    O2 4290   4.122   1.482   0.269  0.6010 -0.3480 -0.0561
  281TMC3    C1 4291   3.040   1.914  13.458  0.5595 -0.4011 -0.9887
  281TMC3    C2 4292   3.138   1.990  13.401  0.1666  0.1607 -0.5169
  281TMC3    C3 4293   3.216   1.942  13.299  0.3709  0.1421 -0.3909
  281TMC3    C4 4294   3.028   1.779  13.429 -0.5596  0.1421  0.0583
  281TMC3    C5 4295   3.115   1.729  13.333  0.6197 -0.9755 -0.3156
  281TMC3    C6 4296   3.212   1.807  13.273  0.1108 -1.0375  0.2112
  281TMC3     C 4297   2.938   1.981  13.536  0.0492  0.1080  0.1085
  281TMC3     O 4298   2.858   1.911  13.594  0.3708 -0.3007 -0.4991
  281TMC3     H 4299   3.154   2.092  13.436  2.3820  0.7986 -3.3597
  281TMC3    H1 4300   2.965   1.717  13.491  1.9218  0.7626  3.1954
  281TMC3    H2 4301   3.286   1.770  13.202 -0.2490 -0.3776 -0.5017
  281TMC3    C7 4302   3.093   1.590  13.288 -0.0321  0.8339  0.7689
  281TMC3    C8 4303   3.347   1.985  13.290  0.4339 -0.0002  0.3369
  281TMC3    O1 4304   3.109   1.559  13.171 -0.0570 -0.1868  0.6167
  281TMC3    O2 4305   3.433   1.906  13.324 -0.5261  0.3203  0.3259
  282MPD2     C 4306   0.580   3.748  15.396 -0.4628 -0.3746 -0.3262
  282MPD2    C1 4307   0.437   3.749  15.389  0.7224 -0.6142  0.4211
  282MPD2    C2 4308   0.378   3.745  15.263  0.2942  0.2517  0.2387
  282MPD2    C3 4309   0.453   3.743  15.145  0.2690  0.1961  0.6061
  282MPD2    C4 4310   0.593   3.734  15.155 -0.0603  0.2564  0.1850
  282MPD2    C5 4311   0.650   3.734  15.276 -0.3566 -0.1939  0.9675
  282MPD2     H 4312   0.271   3.763  15.254  0.4443  1.1078  0.1659
  282MPD2    H1 4313   0.659   3.720  15.069 -0.9973  0.4398 -0.5635
  282MPD2    H2 4314   0.635   3.753  15.489 -0.6240  2.7279 -0.4151
  282MPD2    H3 4315   0.758   3.738  15.288 -0.3233 -0.4559  0.7604
  282MPD2     N 4316   0.384   3.754  15.020 -0.0426  0.4312  0.4789
  282MPD2    H5 4317   0.286   3.777  15.031 -0.6709 -2.6633  1.4923
  282MPD2    N1 4318   0.355   3.768  15.509 -0.2507  0.3761  0.3238
  282MPD2    H7 4319   0.410   3.787  15.592 -0.5410  0.1784  0.5615
  283TMC3    C1 4320   0.146   3.787  15.631 -0.4370  0.0903  0.0122
  283TMC3    C2 4321   0.208   3.862  15.731  0.0799  0.2729  0.1020
  283TMC3    C3 4322   0.136   3.888  15.845 -0.1790  1.0389  0.1637
  283TMC3    C4 4323   0.027   3.722  15.649  0.0317  1.3357 -0.7826
  283TMC3    C5 4324   4.689   3.748  15.768  0.0766 -0.6132 -0.1915
  283TMC3    C6 4325   0.017   3.822  15.869 -0.2258  0.2363 -0.3583
  283TMC3     C 4326   0.214   3.757  15.508  0.4951 -0.0565 -0.9802
  283TMC3     O 4327   0.145   3.711  15.417 -0.2552 -0.2798  0.1719
  283TMC3     H 4328   0.308   3.903  15.716  0.7327 -2.2318 -2.4178
  283TMC3    H1 4329   4.714   3.669  15.567  0.1201  0.5885 -0.3579
  283TMC3    H2 4330   4.701   3.832  15.965  0.8502  0.6196  0.1559
  283TMC3    C7 4331   4.603   3.642  15.816 -0.3487 -0.1247  0.4058
  283TMC3    C8 4332   0.177   4.001  15.922  0.0775 -0.0007  0.2000
  283TMC3    O1 4333   4.598   3.617  15.936 -0.2805 -0.0625 -0.3316
  283TMC3    O2 4334   0.153   4.008  16.042 -0.6757  0.6592 -0.1350
  284MPD2     C 4335   2.594   2.774  11.744  0.3340 -0.0486  0.0525
  284MPD2    C1 4336   2.734   2.777  11.737 -0.3154 -0.1629 -0.0284
  284MPD2    C2 4337   2.809   2.701  11.831 -0.3513 -0.4494  0.2110
  284MPD2    C3 4338   2.750   2.623  11.922 -0.7258 -0.0106 -0.1616
  284MPD2    C4 4339   2.611   2.617  11.924  0.1853 -0.3599  0.1568
  284MPD2    C5 4340   2.536   2.695  11.839 -0.0884  1.1728  0.1498
  284MPD2     H 4341   2.916   2.697  11.820 -0.6304 -1.8551 -1.9822
  284MPD2    H1 4342   2.551   2.566  11.999  0.4401 -1.5789 -0.4876
  284MPD2    H2 4343   2.537   2.832  11.673  0.8031  1.9895  1.3458
  284MPD2    H3 4344   2.428   2.694  11.847 -0.0634 -0.4395  0.3598
  284MPD2     N 4345   2.829   2.560  12.020  0.4311 -0.4748  0.2819
  284MPD2    H5 4346   2.926   2.590  12.027 -0.4957  2.5611 -0.0970
  284MPD2    N1 4347   2.805   2.835  11.630  0.2023  0.3030  0.2979
  284MPD2    H7 4348   2.903   2.808  11.630 -0.2591 -1.3593  0.8542
  285TMC3    C1 4349   2.876   2.972  11.474  0.4156  0.2874 -0.8998
  285TMC3    C2 4350   2.971   2.881  11.439  0.0991 -0.6185  0.6197
  285TMC3    C3 4351   3.095   2.925  11.408  0.0782 -0.9327  0.2137
  285TMC3    C4 4352   2.899   3.106  11.475 -0.5503 -0.0806 -0.0736
  285TMC3    C5 4353   3.024   3.146  11.455  0.3231 -0.2522 -0.5974
  285TMC3    C6 4354   3.118   3.057  11.408 -0.1755 -0.1696 -0.0071
  285TMC3     C 4355   2.757   2.932  11.549  0.4266  0.1881 -0.0718
  285TMC3     O 4356   2.647   2.985  11.545  0.3533 -0.4937 -0.2562
  285TMC3     H 4357   2.950   2.776  11.419  0.8771 -0.4690 -0.9652
  285TMC3    H1 4358   2.826   3.179  11.509  0.1717  1.7637 -2.4697
  285TMC3    H2 4359   3.214   3.099  11.378  0.7013 -0.8317  1.8454
  285TMC3    C7 4360   3.064   3.284  11.486  0.5292 -0.0469  0.3636
  285TMC3    C8 4361   3.176   2.832  11.330  0.3551  0.6069  0.0280
  285TMC3    O1 4362   2.972   3.363  11.499 -0.6752 -0.1062 -0.0716
  285TMC3    O2 4363   3.119   2.724  11.306 -0.0902 -0.1054  0.4042
  286MPD2     C 4364   3.418   1.559   1.763  0.8837 -0.3026 -0.6859
  286MPD2    C1 4365   3.353   1.579   1.643 -0.0904 -0.3457  0.6199
  286MPD2    C2 4366   3.379   1.487   1.542  0.1678  0.6918  0.0381
  286MPD2    C3 4367   3.452   1.367   1.569 -0.0426 -0.2528 -0.0064
  286MPD2    C4 4368   3.511   1.352   1.692 -0.0931 -0.5833  0.3350
  286MPD2    C5 4369   3.497   1.446   1.789  0.0371  0.2152 -0.5647
  286MPD2     H 4370   3.339   1.510   1.444 -2.0338 -1.7732  0.3543
  286MPD2    H1 4371   3.572   1.264   1.710 -1.0167 -0.9591  1.6661
  286MPD2    H2 4372   3.412   1.627   1.847 -1.4864 -1.4851  0.1020
  286MPD2    H3 4373   3.546   1.440   1.886  0.5362  0.3533 -0.8116
  286MPD2     N 4374   3.495   1.276   1.471 -0.1745  0.4117  0.0690
  286MPD2    H5 4375   3.563   1.211   1.509 -2.2500 -1.1789  1.0187
  286MPD2    N1 4376   3.269   1.689   1.617  0.2959 -0.0219 -0.4229
  286MPD2    H7 4377   3.223   1.689   1.527 -3.7071 -0.9038  1.6036
  287TMC3    C1 4378   3.537   1.177   1.263  0.0057  0.7294 -0.0358
  287TMC3    C2 4379   3.463   1.131   1.157 -0.6746  0.1052 -0.6650
  287TMC3    C3 4380   3.519   1.022   1.094  0.5689 -0.2569 -0.5135
  287TMC3    C4 4381   3.648   1.116   1.313 -0.1428 -0.5596 -0.2784
  287TMC3    C5 4382   3.700   1.017   1.239  0.0077  0.4344  0.8641
  287TMC3    C6 4383   3.639   0.961   1.133 -0.4074 -0.6492  0.3202
  287TMC3     C 4384   3.465   1.281   1.332  0.0985  0.1781  0.2961
  287TMC3     O 4385   3.405   1.364   1.271  0.8077 -0.6520  0.1273
  287TMC3     H 4386   3.364   1.170   1.139 -0.8555 -0.3735 -0.7005
  287TMC3    H1 4387   3.698   1.150   1.403  0.3367  0.4558 -0.9324
  287TMC3    H2 4388   3.670   0.869   1.084 -1.9186 -2.6708  3.1660
  287TMC3    C7 4389   3.833   0.979   1.275  0.3389  0.9094  0.3768
  287TMC3    C8 4390   3.440   0.955   0.992 -0.0212 -0.4078 -0.3662
  287TMC3    O1 4391   3.893   1.049   1.355  0.1648  0.0597  0.0869
  287TMC3    O2 4392   3.456   0.832   0.975  0.0703  0.1941 -0.0622
  288TMC3    C1 4393   0.725   1.714  14.569  0.1448 -0.5340 -0.3107
  288TMC3    C2 4394   0.630   1.635  14.632 -0.0125 -0.2780  0.3459
  288TMC3    C3 4395   0.495   1.655  14.615  0.1944 -0.1779  0.5249
  288TMC3    C4 4396   0.685   1.821  14.496 -0.0406 -0.1593  0.5901
  288TMC3    C5 4397   0.552   1.841  14.485 -0.6480  0.6531 -0.7192
  288TMC3    C6 4398   0.453   1.762  14.542 -0.4175 -0.0448 -0.5051
  288TMC3     C 4399   0.856   1.653  14.550 -0.5384 -0.0134 -0.4133
  288TMC3     O 4400   0.876   1.548  14.605  0.1847  0.3564  0.6937
  288TMC3     H 4401   0.667   1.548  14.684 -0.0654 -0.5700 -0.1086
  288TMC3    H1 4402   0.752   1.883  14.437 -0.9413 -2.6909 -3.0906
  288TMC3    H2 4403   0.348   1.789  14.542 -0.7576 -1.3472  0.7391
  288TMC3    C7 4404   0.502   1.929  14.387 -0.4169  0.5734 -0.3052
  288TMC3    C8 4405   0.424   1.647  14.740  0.6107 -0.4183 -0.9863
  288TMC3    O1 4406   0.412   1.886  14.316 -0.5501  0.0460  0.2850
  288TMC3    O2 4407   0.418   1.759  14.790 -0.0200 -0.3548  0.0409
  289MPD2     C 4408   0.615   0.657  14.618  0.1930  0.3928 -0.3109
  289MPD2    C1 4409   0.546   0.777  14.608 -1.0640 -0.3399 -0.3252
  289MPD2    C2 4410   0.405   0.777  14.595  0.9601 -0.1413 -0.1073
  289MPD2    C3 4411   0.341   0.658  14.582  0.6765  0.1885 -0.1193
  289MPD2    C4 4412   0.414   0.542  14.595  0.1481  0.1861  0.5747
  289MPD2    C5 4413   0.546   0.540  14.615 -1.0140  0.0128 -0.2694
  289MPD2     H 4414   0.356   0.874  14.595  2.4876  0.6425 -0.8514
  289MPD2    H1 4415   0.363   0.446  14.595  0.1599  0.1763  1.7766
  289MPD2    H2 4416   0.723   0.658  14.623  0.3255  1.2791 -3.2342
  289MPD2    H3 4417   0.605   0.452  14.635 -1.1853  0.3526  1.6761
  289MPD2     N 4418   0.207   0.635  14.543 -0.5260  1.0432  0.5658
  289MPD2    H5 4419   0.172   0.547  14.506  0.0647  1.1040 -0.1268
  289MPD2    N1 4420   0.628   0.896  14.602 -0.4579 -0.2535  0.0372
  289MPD2    H7 4421   0.728   0.876  14.595 -0.8908 -2.2671 -0.4317
  290TMC3    C1 4422   0.011   0.729  14.453 -0.2058 -0.2258  0.5022
  290TMC3    C2 4423   4.716   0.851  14.396  0.3048 -0.0174  0.2128
  290TMC3    C3 4424   4.664   0.844  14.267 -0.0431  0.3456  0.2557
  290TMC3    C4 4425   4.711   0.609  14.399 -0.2733 -0.5066 -0.0412
  290TMC3    C5 4426   4.658   0.613  14.279  0.1314  0.0315  0.4867
  290TMC3    C6 4427   4.635   0.726  14.211 -0.1822  0.0659 -0.1547
  290TMC3     C 4428   0.117   0.735  14.552 -0.1652  0.8982 -0.2860
  290TMC3     O 4429   0.123   0.845  14.614 -0.4041  0.2859 -0.6045
  290TMC3     H 4430   0.003   0.942  14.451  0.1444  1.2241 -1.7923
  290TMC3    H1 4431   0.010   0.515  14.439  2.6745  0.5402 -0.0184
  290TMC3    H2 4432   4.587   0.719  14.114  3.5628  0.9256 -2.1015
  290TMC3    C7 4433   4.580   0.496  14.236 -0.1893  0.8373 -0.1460
  290TMC3    C8 4434   4.642   0.969  14.193  0.4876 -0.6075  0.2398
  290TMC3    O1 4435   4.494   0.515  14.146 -0.7677  0.6416  0.1028
  290TMC3    O2 4436   4.577   0.961  14.087  0.2894  0.1692  0.7039
  291MPD2     C 4437   3.946   0.614  17.622 -0.0413 -0.1373  0.3431
  291MPD2    C1 4438   4.026   0.592  17.727 -0.7707  0.3783 -0.3525
  291MPD2    C2 4439   4.115   0.686   0.039  0.0036 -0.4911  0.3974
  291MPD2    C3 4440   4.130   0.805  17.706  0.5763 -0.3311 -0.7712
  291MPD2    C4 4441   4.045   0.826  17.599 -0.2892  0.1072 -1.2777
  291MPD2    C5 4442   3.950   0.734  17.559 -1.1611 -0.9686  0.0032
  291MPD2     H 4443   4.181   0.667   0.123 -0.5708 -2.9680  0.2758
  291MPD2    H1 4444   4.060   0.920  17.547  0.3057  0.1467 -1.0382
  291MPD2    H2 4445   3.866   0.546  17.593  0.5155 -0.7142  0.1692
  291MPD2    H3 4446   3.887   0.756  17.474  0.3542 -1.8396 -1.3459
  291MPD2     N 4447   4.230   0.897   0.001 -0.4205 -0.2668 -0.4413
  291MPD2    H5 4448   4.244   0.972  17.668  0.5663 -0.2836 -0.2562
  291MPD2    N1 4449   4.028   0.460   0.051 -0.2059 -0.1026  0.1015
  291MPD2    H7 4450   4.087   0.443   0.132  1.1197 -0.3754 -0.9184
  292TMC3    C1 4451   4.002   0.228   0.068 -0.5759 -0.5213 -0.5828
  292TMC3    C2 4452   4.034   0.236   0.201 -0.1145  0.4492  0.2859
  292TMC3    C3 4453   4.061   0.121   0.265  0.2555  0.0804  0.2858
  292TMC3    C4 4454   3.990   0.112   0.006 -0.4698 -0.1944  0.5562
  292TMC3    C5 4455   4.007   4.733   0.071  0.6106  0.1623  0.0471
  292TMC3    C6 4456   4.055   4.728   0.200 -0.1215 -0.2511 -0.5312
  292TMC3     C 4457   3.966   0.350  17.735  0.3279 -0.3457  0.4742
  292TMC3     O 4458   3.877   0.345  17.649 -0.2351 -0.4541  0.0809
  292TMC3     H 4459   4.017   0.326   0.258 -2.2504  1.9364 -2.7172
  292TMC3    H1 4460   3.976   0.112  17.633 -1.1155  2.2974  0.6294
  292TMC3    H2 4461   4.070   4.632   0.247 -0.6098 -0.6691 -1.2297
  292TMC3    C7 4462   4.006   4.610  17.727  0.0750 -0.4065  0.2528
  292TMC3    C8 4463   4.086   0.117   0.405 -0.7391  0.4917  0.0087
  292TMC3    O1 4464   4.078   4.520   0.024 -0.9679  0.0984 -0.0135
  292TMC3    O2 4465   4.167   0.206   0.438 -0.5580  0.3716 -0.2735
  293MPD2     C 4466   1.538   1.728  12.607  0.1020  0.2968  0.4789
  293MPD2    C1 4467   1.415   1.723  12.679 -0.1634 -0.0655 -0.5962
  293MPD2    C2 4468   1.401   1.778  12.806 -0.0405 -0.3844  0.2937
  293MPD2    C3 4469   1.504   1.849  12.860  0.0894  0.4083  0.2772
  293MPD2    C4 4470   1.619   1.860  12.790  0.3177  0.0491  0.1734
  293MPD2    C5 4471   1.635   1.797  12.671  0.1917 -0.4062 -0.7340
  293MPD2     H 4472   1.314   1.777  12.871  0.6128 -2.0217  1.1366
  293MPD2    H1 4473   1.705   1.913  12.829  0.9796 -1.1750  0.3672
  293MPD2    H2 4474   1.550   1.694  12.505 -3.4908  0.5402 -0.0297
  293MPD2    H3 4475   1.730   1.802  12.619  0.8276 -1.4456  0.3260
  293MPD2     N 4476   1.476   1.907  12.983 -0.0056  0.1474 -0.2259
  293MPD2    H5 4477   1.380   1.901  13.015 -0.7895  0.2474 -2.5748
  293MPD2    N1 4478   1.310   1.668  12.604 -0.2487  0.0550 -0.2036
  293MPD2    H7 4479   1.327   1.640  12.508  0.6491 -0.0028 -0.0339
  294TMC3    C1 4480   1.101   1.606  12.552  0.0636 -0.1066 -0.0510
  294TMC3    C2 4481   1.002   1.512  12.569  0.6426  1.0346 -0.2461
  294TMC3    C3 4482   0.920   1.488  12.460  0.7296 -0.8833  0.6372
  294TMC3    C4 4483   1.106   1.679  12.439 -0.5052  0.3273 -0.6559
  294TMC3    C5 4484   1.009   1.659  12.346 -0.2226  0.3153  0.7353
  294TMC3    C6 4485   0.919   1.558  12.341 -0.3592 -0.6705  0.4925
  294TMC3     C 4486   1.187   1.646  12.662 -0.1375  0.4104  0.5491
  294TMC3     O 4487   1.145   1.647  12.776 -0.2770 -0.1573 -0.5392
  294TMC3     H 4488   1.000   1.441  12.650  0.4324  3.2608  1.7046
  294TMC3    H1 4489   1.187   1.746  12.409  0.5605 -1.6094 -2.0899
  294TMC3    H2 4490   0.836   1.551  12.272 -0.6244  2.2986  0.5119
  294TMC3    C7 4491   0.997   1.751  12.235  0.1220  1.1804  0.5319
  294TMC3    C8 4492   0.812   1.396  12.483  0.1923 -0.4071 -0.3347
  294TMC3    O1 4493   1.033   1.865  12.269 -0.1287  0.1620  0.2955
  294TMC3    O2 4494   0.761   1.385  12.592  0.6004  1.1302 -0.2573
  295MPD2     C 4495   2.778   0.962   1.209  0.0696  0.6023 -0.0866
  295MPD2    C1 4496   2.672   0.902   1.146 -0.1232  0.6806  0.5645
  295MPD2    C2 4497   2.623   0.784   1.186 -0.0983 -0.9327  0.8615
  295MPD2    C3 4498   2.680   0.725   1.299  0.2609 -0.0745 -0.2020
  295MPD2    C4 4499   2.803   0.774   1.354 -0.3017  0.5358  0.0739
  295MPD2    C5 4500   2.842   0.896   1.311 -0.2176  0.4245  0.1705
  295MPD2     H 4501   2.548   0.739   1.122 -0.4209 -0.0084  0.5802
  295MPD2    H1 4502   2.854   0.715   1.429  0.5386  2.4225  1.0014
  295MPD2    H2 4503   2.822   1.058   1.184  0.0442  0.5267 -0.4288
  295MPD2    H3 4504   2.934   0.939   1.351 -0.7873 -0.7865  2.7778
  295MPD2     N 4505   2.642   0.594   1.338  0.1789 -0.1140  0.3097
  295MPD2    H5 4506   2.692   0.554   1.417  0.0986  0.9204  0.8909
  295MPD2    N1 4507   2.605   0.970   1.037 -0.4464  0.0068 -0.3503
  295MPD2    H7 4508   2.531   0.918   0.991 -1.0892  2.1789 -1.7776
  296TMC3    C1 4509   2.551   0.379   1.313 -0.6147  0.2765  0.0141
  296TMC3    C2 4510   2.650   0.311   1.387 -0.3985  0.4598  0.5212
  296TMC3    C3 4511   2.641   0.173   1.406 -0.5388  0.7797 -0.3001
  296TMC3    C4 4512   2.445   0.301   1.277  0.5909 -0.1677  0.4888
  296TMC3    C5 4513   2.449   0.169   1.280 -0.2481 -0.1476 -0.3330
  296TMC3    C6 4514   2.539   0.105   1.358 -0.2144 -0.3011  1.0977
  296TMC3     C 4515   2.546   0.522   1.268 -0.4134 -0.4108 -0.2294
  296TMC3     O 4516   2.451   0.562   1.194  0.0882  0.3170  0.3336
  296TMC3     H 4517   2.745   0.359   1.408 -0.0486  0.5694 -1.2894
  296TMC3    H1 4518   2.361   0.353   1.232  1.9020  0.5653 -1.1352
  296TMC3    H2 4519   2.538   4.730   1.361  1.8099 -0.3685 -1.3044
  296TMC3    C7 4520   2.331   0.104   1.247 -0.6839  0.4220 -1.2327
  296TMC3    C8 4521   2.734   0.107   1.496 -0.2571  0.7377  0.0574
  296TMC3    O1 4522   2.267   0.138   1.146 -0.2923 -0.3389 -0.0505
  296TMC3    O2 4523   2.727   4.717   1.487 -0.0652 -0.1220  0.1758
  297MPD2     C 4524   4.060   2.157  16.521  0.7587 -1.2505 -0.3280
  297MPD2    C1 4525   4.023   2.245  16.423 -0.3041  0.1264 -0.4478
  297MPD2    C2 4526   4.113   2.343  16.379  0.1721  0.0934  0.7102
  297MPD2    C3 4527   4.236   2.353  16.438 -0.2925 -0.0760  0.3255
  297MPD2    C4 4528   4.263   2.276  16.545  0.0398 -0.6843  0.5347
  297MPD2    C5 4529   4.179   2.181  16.579 -0.5763 -0.3496  0.4907
  297MPD2     H 4530   4.094   2.419  16.305  1.8512  1.1933  1.3904
  297MPD2    H1 4531   4.367   2.274  16.576  1.7283 -0.7836 -5.1111
  297MPD2    H2 4532   3.992   2.080  16.558 -2.6542  0.8735 -2.2148
  297MPD2    H3 4533   4.229   2.120  16.653  0.0466 -0.5468 -0.0865
  297MPD2     N 4534   4.336   2.439  16.395  0.2072 -0.1492  0.5467
  297MPD2    H5 4535   4.426   2.447  16.443  0.3517 -1.5736  0.4960
  297MPD2    N1 4536   3.893   2.253  16.367 -0.5048 -0.3156 -0.6903
  297MPD2    H7 4537   3.881   2.323  16.295 -3.1871 -0.8929 -0.8327
  298TMC3    C1 4538   3.675   2.260  16.354  0.1228 -0.1050 -0.3401
  298TMC3    C2 4539   3.691   2.286  16.222  0.3259  0.1372  0.5068
  298TMC3    C3 4540   3.632   2.401  16.164 -0.2253  0.5919  0.8094
  298TMC3    C4 4541   3.612   2.349  16.425  0.6027 -0.7119 -0.1753
  298TMC3    C5 4542   3.552   2.461  16.376 -0.3726 -0.2654  0.3801
  298TMC3    C6 4543   3.560   2.488  16.243  0.4397  0.4957 -0.0595
  298TMC3     C 4544   3.782   2.182  16.412 -0.3686  0.9372 -0.1564
  298TMC3     O 4545   3.763   2.098  16.501 -0.3904  0.3519 -0.0846
  298TMC3     H 4546   3.752   2.217  16.165  0.2578 -0.4068  1.0884
  298TMC3    H1 4547   3.618   2.323  16.530 -2.6295 -0.6701  0.0217
  298TMC3    H2 4548   3.495   2.564  16.199 -1.4125 -0.1890  1.4916
  298TMC3    C7 4549   3.486   2.545  16.474  0.4860 -0.7134 -0.0025
  298TMC3    C8 4550   3.647   2.409  16.019  1.2657 -0.3837  0.0648
  298TMC3    O1 4551   3.445   2.489  16.574  0.1788  0.0333 -0.3976
  298TMC3    O2 4552   3.674   2.305  15.960 -0.0020 -0.0045  0.0598
  299MPD2     C 4553   4.723   1.856  10.974 -0.7550 -0.2570 -0.3221
  299MPD2    C1 4554   4.715   1.982  10.928 -0.4306 -0.3698  0.0940
  299MPD2    C2 4555   4.636   2.008  10.819 -0.4557  0.5063  0.0253
  299MPD2    C3 4556   4.561   1.910  10.759  0.2817 -0.3162  0.6101
  299MPD2    C4 4557   4.573   1.783  10.811  0.0744 -0.1632  1.0755
  299MPD2    C5 4558   4.657   1.752  10.913  0.6566 -0.3714 -0.4064
  299MPD2     H 4559   4.648   2.097  10.759 -0.3816  0.2880 -0.2808
  299MPD2    H1 4560   4.525   1.695  10.769  0.4591  0.9155 -1.6637
  299MPD2    H2 4561   0.054   1.830  11.057  1.9857  1.0489 -2.0245
  299MPD2    H3 4562   4.669   1.651  10.948  2.2435 -0.4172 -1.0726
  299MPD2     N 4563   4.490   1.934  10.636 -0.4172  0.1993  0.2657
  299MPD2    H5 4564   4.434   1.856  10.603 -1.7839  0.6768  1.4251
  299MPD2    N1 4565   0.063   2.080  10.992 -0.3399 -0.4146  0.2009
  299MPD2    H7 4566   0.114   2.048  11.074 -0.9697  0.3524  0.8926
  300TMC3    C1 4567   4.410   2.032  10.426  0.0609 -0.5116  0.2780
  300TMC3    C2 4568   4.423   2.113  10.313  0.2742  0.8691 -0.3396
  300TMC3    C3 4569   4.326   2.121  10.217  1.0066 -0.4250  0.3537
  300TMC3    C4 4570   4.292   1.965  10.443  0.0675 -0.9659  1.1599
  300TMC3    C5 4571   4.201   1.968  10.340 -0.3634 -0.4379  0.0295
  300TMC3    C6 4572   4.209   2.052  10.240 -0.1861  0.2371  0.4668
  300TMC3     C 4573   4.493   2.044  10.546  0.4070  0.0620 -0.4544
  300TMC3     O 4574   4.558   2.145  10.547 -0.4764  0.4531 -0.3554
  300TMC3     H 4575   4.520   2.162  10.305  0.5580  0.1719 -1.1940
  300TMC3    H1 4576   4.259   1.912  10.531  0.6952 -1.1389  1.2905
  300TMC3    H2 4577   4.128   2.075  10.172 -0.4834  0.2016  0.8080
  300TMC3    C7 4578   4.075   1.908  10.354  0.3088  0.1003  0.2280
  300TMC3    C8 4579   4.312   2.254  10.166 -0.7461  0.1066  0.1658
  300TMC3    O1 4580   4.026   1.850  10.258  0.3060 -0.3598 -0.1575
  300TMC3    O2 4581   4.249   2.262  10.062  0.3523  0.0998 -0.3485
  301MPD2     C 4582   1.705   3.512   1.665  0.1522  0.8152 -0.5736
  301MPD2    C1 4583   1.621   3.462   1.563 -0.7094 -0.0889  0.2837
  301MPD2    C2 4584   1.658   3.346   1.504 -0.5092  0.6173 -0.1357
  301MPD2    C3 4585   1.764   3.274   1.545  0.3703  0.2733  0.4398
  301MPD2    C4 4586   1.841   3.322   1.654  0.6697 -0.4900  0.1037
  301MPD2    C5 4587   1.818   3.443   1.712 -0.8673 -0.3073 -0.4339
  301MPD2     H 4588   1.589   3.304   1.432 -1.7354  1.6316  0.4636
  301MPD2    H1 4589   1.911   3.254   1.700 -0.4265 -1.2175  0.6730
  301MPD2    H2 4590   1.679   3.606   1.712 -0.1480 -0.8717  2.7161
  301MPD2    H3 4591   1.870   3.486   1.797  3.0927 -0.4898 -2.7812
  301MPD2     N 4592   1.800   3.147   1.487 -0.1342 -0.2964  0.1212
  301MPD2    H5 4593   1.873   3.093   1.533  2.0981  2.7803  0.1823
  301MPD2    N1 4594   1.509   3.528   1.508  0.0044 -0.5160  0.8026
  301MPD2    H7 4595   1.475   3.487   1.422 -2.2106 -0.6037  1.7255
  302TMC3    C1 4596   1.798   2.962   1.316  0.5927 -0.1001 -0.1930
  302TMC3    C2 4597   1.859   2.874   1.398  0.2420  0.7878 -0.1207
  302TMC3    C3 4598   1.894   2.750   1.346 -0.1408 -0.0628 -0.2124
  302TMC3    C4 4599   1.761   2.930   1.190 -0.6280  0.2939  0.1381
  302TMC3    C5 4600   1.788   2.809   1.143  0.6115  0.1523  0.2086
  302TMC3    C6 4601   1.854   2.713   1.221 -0.7731 -0.0923  0.1206
  302TMC3     C 4602   1.762   3.101   1.359 -0.3407 -0.0030  0.1373
  302TMC3     O 4603   1.687   3.165   1.282  0.2743 -0.4987 -0.0468
  302TMC3     H 4604   1.886   2.895   1.501 -0.6734  0.4179  0.1993
  302TMC3    H1 4605   1.719   3.003   1.121  0.9575 -0.0524 -1.1967
  302TMC3    H2 4606   1.864   2.611   1.186  1.5322  0.1671  0.0611
  302TMC3    C7 4607   1.744   2.781   1.002 -0.7134  0.1569 -0.1978
  302TMC3    C8 4608   1.892   2.651   1.453  0.2954  0.1360 -0.7959
  302TMC3    O1 4609   1.808   2.706   0.931  0.0326  0.2576  0.6558
  302TMC3    O2 4610   1.836   2.669   1.562  0.1536  0.4378  0.2141
  303MPD2     C 4611   1.831   1.926  10.779  0.2581 -0.2103  0.4250
  303MPD2    C1 4612   1.710   1.929  10.711  0.3963  0.5545  0.0071
  303MPD2    C2 4613   1.710   1.926  10.573 -0.4894  0.3876  0.0948
  303MPD2    C3 4614   1.822   1.920  10.499 -0.0017  0.2793 -0.1820
  303MPD2    C4 4615   1.945   1.923  10.561  0.3547 -0.2921  0.1146
  303MPD2    C5 4616   1.945   1.930  10.699 -0.6749 -0.9418 -0.6161
  303MPD2     H 4617   1.618   1.939  10.519 -1.2678 -0.4380  1.2194
  303MPD2    H1 4618   2.030   1.931  10.495  1.2817 -1.7180  1.1402
  303MPD2    H2 4619   1.847   1.932  10.886 -3.2077  0.3947  0.9113
  303MPD2    H3 4620   2.036   1.958  10.752 -1.6463  2.5721 -0.7750
  303MPD2     N 4621   1.822   1.922  10.361 -0.3298 -0.5524 -0.0842
  303MPD2    H5 4622   1.914   1.932  10.319 -0.8269  0.6596 -0.9086
  303MPD2    N1 4623   1.594   1.949  10.791  0.5561  0.0242 -0.8252
  303MPD2    H7 4624   1.599   1.977  10.889 -2.1661 -0.2852 -0.6020
  304TMC3    C1 4625   1.378   1.943  10.859 -0.1131  0.0205 -0.5942
  304TMC3    C2 4626   1.252   1.976  10.824  0.3042  0.4882  0.7396
  304TMC3    C3 4627   1.146   1.907  10.877  0.5173 -0.0581  0.5687
  304TMC3    C4 4628   1.397   1.836  10.941  0.2286  0.1415 -0.0844
  304TMC3    C5 4629   1.294   1.768  10.998 -0.0452  0.6955 -0.3713
  304TMC3    C6 4630   1.162   1.810  10.976 -0.3237 -0.3233  0.5917
  304TMC3     C 4631   1.465   1.947  10.746  0.1750  0.4246 -0.9686
  304TMC3     O 4632   1.411   1.922  10.638 -0.3184 -0.0655 -0.1585
  304TMC3     H 4633   1.228   2.054  10.752  0.2562  1.1791  1.5125
  304TMC3    H1 4634   1.497   1.802  10.968  1.5307  4.0721  0.1194
  304TMC3    H2 4635   1.071   1.765  11.017 -0.6156  1.5950  2.0359
  304TMC3    C7 4636   1.305   1.624  11.021 -0.0772  0.1462 -0.2704
  304TMC3    C8 4637   1.058   1.850  10.779 -0.0159 -0.1181  0.2840
  304TMC3    O1 4638   1.418   1.590  11.058  0.0541 -0.2653  0.4470
  304TMC3    O2 4639   1.025   1.736  10.798 -0.4164  0.0576  0.3037
  305MPD2     C 4640   0.206   4.265  14.222 -0.2437  0.1285  0.1604
  305MPD2    C1 4641   0.288   4.149  14.216 -0.5381 -0.7556  0.0448
  305MPD2    C2 4642   0.291   4.064  14.108 -0.7625  0.2397  0.5460
  305MPD2    C3 4643   0.217   4.092  13.998  0.2331  0.5837 -0.0591
  305MPD2    C4 4644   0.129   4.201  14.008  0.1356  0.5459 -0.2521
  305MPD2    C5 4645   0.134   4.287  14.108 -0.4322 -0.4467  0.1472
  305MPD2     H 4646   0.362   3.983  14.112 -2.5455 -1.3528  0.1851
  305MPD2    H1 4647   0.064   4.217  13.922  0.1730  2.2837  0.0445
  305MPD2    H2 4648   0.206   4.340  14.299  1.0446  0.3033 -0.0131
  305MPD2    H3 4649   0.070   4.374  14.117 -1.3425 -0.9930 -1.1837
  305MPD2     N 4650   0.229   4.021  13.874  0.1249  0.1520  0.3442
  305MPD2    H5 4651   0.161   4.040  13.801  1.1198  0.1981 -0.5678
  305MPD2    N1 4652   0.381   4.130  14.332  0.3326  0.0759 -0.3370
  305MPD2    H7 4653   0.358   4.191  14.410  1.7679 -1.3455  1.2226
  306TMC3    C1 4654   0.552   4.043  14.471 -0.1531  0.0109  0.1015
  306TMC3    C2 4655   0.665   3.976  14.475  0.2566 -1.0036  0.7866
  306TMC3    C3 4656   0.728   3.956  14.593  0.5812 -0.6449  0.1968
  306TMC3    C4 4657   0.497   4.099  14.581 -0.9722  0.1470 -0.0494
  306TMC3    C5 4658   0.569   4.089  14.701 -0.5109 -0.3668  0.3015
  306TMC3    C6 4659   0.682   4.016  14.710 -0.1384 -0.1251 -0.6629
  306TMC3     C 4660   0.480   4.035  14.345 -1.0627  0.0093  0.5646
  306TMC3     O 4661   0.512   3.945  14.266 -0.1649  0.1965 -0.3267
  306TMC3     H 4662   0.693   3.938  14.377  0.3599 -1.5906  1.0455
  306TMC3    H1 4663   0.404   4.155  14.579 -1.6657 -0.9911  0.1362
  306TMC3    H2 4664   0.729   3.987  14.803  2.0334  0.5839 -1.5363
  306TMC3    C7 4665   0.474   4.088  14.814  0.4015 -0.2108  0.1724
  306TMC3    C8 4666   0.824   3.850  14.593 -0.3703  0.0888 -1.0598
  306TMC3    O1 4667   0.354   4.098  14.787 -0.2350 -0.6796 -0.2484
  306TMC3    O2 4668   0.859   3.804  14.484  0.3957 -0.9241 -0.3556
  307MPD2     C 4669   2.860   2.065   0.628 -0.0820 -0.1176 -0.0115
  307MPD2    C1 4670   2.807   2.197   0.614  0.2720  0.9850 -0.2734
  307MPD2    C2 4671   2.701   2.240   0.690  0.2378 -0.5450 -0.1842
  307MPD2    C3 4672   2.651   2.166   0.787 -0.0022 -0.4870  0.4081
  307MPD2    C4 4673   2.716   2.047   0.813  0.5418  0.1432  0.6100
  307MPD2    C5 4674   2.811   1.989   0.728 -0.0288 -0.2886  0.4468
  307MPD2     H 4675   2.654   2.336   0.672  1.4801  0.3231  1.1704
  307MPD2    H1 4676   2.693   1.986   0.900  1.6933 -0.4567  0.4880
  307MPD2    H2 4677   2.944   2.018   0.580 -0.2750  0.2045 -0.6558
  307MPD2    H3 4678   2.852   1.890   0.746 -2.0598 -0.8662  1.8786
  307MPD2     N 4679   2.549   2.211   0.871 -0.5319 -0.4604 -0.5511
  307MPD2    H5 4680   2.522   2.308   0.861 -0.0734 -0.6751 -3.7721
  307MPD2    N1 4681   2.852   2.282   0.509 -0.1147 -0.5957  0.8229
  307MPD2    H7 4682   2.812   2.376   0.511  1.3763  0.0360  0.8302
  308TMC3    C1 4683   2.149   2.156   1.103 -0.1594 -0.0628 -0.2705
  308TMC3    C2 4684   2.119   2.292   1.099  0.4556 -0.2930  0.4912
  308TMC3    C3 4685   2.223   2.375   1.066  0.0930 -0.2682 -0.4839
  308TMC3    C4 4686   2.270   2.097   1.069 -0.2669 -0.4018 -0.4057
  308TMC3    C5 4687   2.365   2.190   1.026  0.2560 -0.0955  0.9256
  308TMC3    C6 4688   2.341   2.326   1.024  0.0646 -0.7447  0.2670
  308TMC3     C 4689   2.052   2.064   1.049 -0.4425 -0.1884  0.2215
  308TMC3     O 4690   2.074   1.947   1.067 -1.0718 -0.6644  0.4397
  308TMC3     H 4691   2.019   2.323   1.128  1.6344  3.8318  0.1085
  308TMC3    H1 4692   2.278   1.990   1.052 -1.9208 -0.6645  0.5170
  308TMC3    H2 4693   2.422   2.393   0.998  0.1441 -0.9118  0.0864
  308TMC3    C7 4694   2.491   2.133   0.968 -0.5651 -0.5157  0.4383
  308TMC3    C8 4695   2.210   2.514   1.103  0.3098  0.2278 -0.2189
  308TMC3    O1 4696   2.497   2.012   0.986 -0.3765 -0.0333 -0.4811
  308TMC3    O2 4697   2.125   2.540   1.187 -0.2119 -0.0424  0.3561
  309MPD2     C 4698   1.880   2.370  17.285  0.2930 -0.0316  0.8122
  309MPD2    C1 4699   1.839   2.421  17.162 -0.1228 -0.3398  0.4488
  309MPD2    C2 4700   1.705   2.454  17.149 -0.0404 -0.0872  0.0358
  309MPD2    C3 4701   1.616   2.451  17.257  0.3539 -0.4849  0.6293
  309MPD2    C4 4702   1.671   2.421  17.380  0.4662  0.4346 -0.2304
  309MPD2    C5 4703   1.798   2.371  17.390 -0.1019 -0.0222 -0.0136
  309MPD2     H 4704   1.670   2.485  17.051 -1.8497 -2.3646 -0.0412
  309MPD2    H1 4705   1.620   2.423  17.476  0.0162  1.7413 -0.4966
  309MPD2    H2 4706   1.983   2.337  17.288 -0.2552 -1.7177  0.8186
  309MPD2    H3 4707   1.843   2.336  17.482 -1.2654  0.8596  0.8911
  309MPD2     N 4708   1.481   2.473  17.258 -0.3718  0.1566  0.5455
  309MPD2    H5 4709   1.435   2.484  17.348 -0.6859 -2.2597  0.6739
  309MPD2    N1 4710   1.929   2.459  17.059  0.3957  0.0379 -0.4069
  309MPD2    H7 4711   1.885   2.460  16.968  1.8317  2.8433 -1.0896
  310TMC3    C1 4712   2.141   2.448  16.937 -0.2331  1.0422  0.0408
  310TMC3    C2 4713   2.087   2.507  16.827 -0.2839 -1.1603 -0.2065
  310TMC3    C3 4714   2.150   2.479  16.710  0.2728  0.7610 -0.0849
  310TMC3    C4 4715   2.256   2.367  16.934  0.0064  0.0869 -0.0901
  310TMC3    C5 4716   2.315   2.357  16.814  0.1885 -0.6053  0.0575
  310TMC3    C6 4717   2.269   2.415  16.699 -0.3338 -0.6715 -0.4005
  310TMC3     C 4718   2.068   2.448  17.065  1.1489 -0.6154  0.5035
  310TMC3     O 4719   2.132   2.425  17.160 -0.3010 -0.8072 -0.2262
  310TMC3     H 4720   1.995   2.564  16.829  0.7891  0.6176 -1.9592
  310TMC3    H1 4721   2.289   2.309  17.020  1.0735 -1.1606 -1.3440
  310TMC3    H2 4722   2.312   2.394  16.602  0.5998  1.1427 -0.3613
  310TMC3    C7 4723   2.418   2.251  16.806 -1.1122  0.3224 -0.5265
  310TMC3    C8 4724   2.093   2.544  16.592 -0.1086  0.3911 -0.7338
  310TMC3    O1 4725   2.405   2.155  16.884 -0.3285  0.4183 -0.5346
  310TMC3    O2 4726   1.974   2.572  16.597 -0.3740  0.2668 -0.4903
  311MPD2     C 4727   4.116   3.687  12.491  1.2773 -0.8349  0.0448
  311MPD2    C1 4728   4.158   3.721  12.613  0.7613  0.2072  0.1617
  311MPD2    C2 4729   4.082   3.673  12.725 -1.0344 -1.0409  0.2734
  311MPD2    C3 4730   3.988   3.572  12.713 -0.2962 -0.0032  0.3313
  311MPD2    C4 4731   3.972   3.521  12.589 -0.0537 -0.2573 -0.3605
  311MPD2    C5 4732   4.029   3.581  12.481 -0.7571 -0.3773  0.7155
  311MPD2     H 4733   4.094   3.709  12.827 -1.2916  0.2570 -0.1544
  311MPD2    H1 4734   3.900   3.444  12.563  0.0458 -0.6812  0.5995
  311MPD2    H2 4735   4.157   3.717  12.396  1.3167 -2.0833 -0.3404
  311MPD2    H3 4736   4.015   3.532  12.385  1.2937 -2.8508  1.6859
  311MPD2     N 4737   3.915   3.531  12.824  0.1357 -0.7153  0.1348
  311MPD2    H5 4738   3.938   3.582  12.908 -1.2758  1.4576 -0.8085
  311MPD2    N1 4739   4.270   3.809  12.636 -0.4512  0.7981 -0.1339
  311MPD2    H7 4740   4.284   3.838  12.732 -2.0995 -2.1308  1.0255
  312TMC3    C1 4741   3.722   3.432  12.928 -0.5753  0.0997 -0.6416
  312TMC3    C2 4742   3.606   3.375  12.902 -0.7020  0.4635  0.1886
  312TMC3    C3 4743   3.503   3.381  12.989  0.0122 -0.4186  0.3169
  312TMC3    C4 4744   3.748   3.485  13.047  0.3288 -0.1224 -0.3752
  312TMC3    C5 4745   3.647   3.475  13.141  1.1691 -0.0577 -0.1245
  312TMC3    C6 4746   3.517   3.432  13.116  0.2828  0.1902  0.7814
  312TMC3     C 4747   3.810   3.435  12.814 -0.3819  0.2110 -0.3900
  312TMC3     O 4748   3.792   3.347  12.730  0.1250 -0.1782  0.0527
  312TMC3     H 4749   3.587   3.339  12.802 -1.8510  3.0119 -0.5076
  312TMC3    H1 4750   3.849   3.523  13.056 -0.0089  0.7049 -0.1404
  312TMC3    H2 4751   3.441   3.426  13.192  0.6506  0.6718  1.1914
  312TMC3    C7 4752   3.671   3.510  13.284 -0.0650  0.3896  0.0860
  312TMC3    C8 4753   3.377   3.307  12.957 -0.8021 -0.5284  0.9692
  312TMC3    O1 4754   3.569   3.517  13.351 -0.0202  0.2342 -0.0474
  312TMC3    O2 4755   3.383   3.202  12.896 -0.2678 -0.1256  0.1778
  313MPD2     C 4756   2.844   2.240  10.858  0.4344  0.1435 -0.2182
  313MPD2    C1 4757   2.940   2.342  10.843  0.0171 -0.3413 -0.0974
  313MPD2    C2 4758   3.045   2.319  10.762  0.1099  0.2018  0.2773
  313MPD2    C3 4759   3.060   2.199  10.702  0.7394  0.0112  0.6260
  313MPD2    C4 4760   2.976   2.093  10.729 -0.4082 -0.0703 -0.2561
  313MPD2    C5 4761   2.864   2.120  10.799 -0.9591 -0.7654  0.0406
  313MPD2     H 4762   3.115   2.400  10.747  0.7241 -0.2861  0.5018
  313MPD2    H1 4763   3.000   1.993  10.694 -0.5437  0.4789 -1.9348
  313MPD2    H2 4764   2.754   2.253  10.917 -0.9572 -0.5342 -2.1979
  313MPD2    H3 4765   2.792   2.042  10.818  0.1484 -1.1339  2.7408
  313MPD2     N 4766   3.171   2.171  10.628 -0.7071 -0.9177  0.1738
  313MPD2    H5 4767   3.170   2.080  10.582 -2.9124 -0.4538 -0.6772
  313MPD2    N1 4768   2.928   2.462  10.911 -0.2775 -0.1074 -0.1079
  313MPD2    H7 4769   3.007   2.524  10.894 -0.2297 -0.6264 -1.7436
  314TMC3    C1 4770   2.832   2.646  11.017 -0.2352  0.2909  0.4932
  314TMC3    C2 4771   2.950   2.713  11.006 -0.3965  0.4178  0.6422
  314TMC3    C3 4772   2.941   2.848  11.004 -0.6287  0.3382  0.4783
  314TMC3    C4 4773   2.707   2.695  11.008  0.3964 -0.0778  0.1603
  314TMC3    C5 4774   2.702   2.835  11.009 -0.0732 -0.5821 -0.6458
  314TMC3    C6 4775   2.815   2.911  11.010  0.5763 -0.1252 -0.1342
  314TMC3     C 4776   2.836   2.499  11.000  0.2719 -0.0225 -0.0320
  314TMC3     O 4777   2.740   2.432  11.042 -0.1800 -0.2357 -0.0597
  314TMC3     H 4778   3.046   2.665  11.022 -0.0586  0.8043 -0.2517
  314TMC3    H1 4779   2.621   2.630  11.020 -1.0200  1.4959 -1.5721
  314TMC3    H2 4780   2.811   3.018  11.028  1.3300 -0.2042  0.5020
  314TMC3    C7 4781   2.604   2.875  10.913  0.1266 -0.1254  0.1797
  314TMC3    C8 4782   3.057   2.938  11.028 -0.1767  0.6746 -0.0682
  314TMC3    O1 4783   2.504   2.806  10.920 -0.5619  0.0508 -0.2101
  314TMC3    O2 4784   3.033   3.048  11.073 -0.0654 -0.5610  0.8045
  315MPD2     C 4785   3.121   1.638   0.056  0.1689  0.1931 -0.1527
  315MPD2    C1 4786   3.185   1.654   0.180  0.1461 -0.3999 -0.6494
  315MPD2    C2 4787   3.233   1.779   0.205 -0.5099  0.0473  0.6253
  315MPD2    C3 4788   3.227   1.884   0.118 -0.3720 -0.7072  0.6827
  315MPD2    C4 4789   3.167   1.869  17.727  0.2689 -0.4964  0.6830
  315MPD2    C5 4790   3.122   1.741  17.703 -0.1196  0.1378 -0.3565
  315MPD2     H 4791   3.288   1.797   0.297  0.3713  0.0031  0.1077
  315MPD2    H1 4792   3.162   1.947  17.652  3.1441 -0.4038  0.5860
  315MPD2    H2 4793   3.097   1.542   0.013  1.2350 -0.2978  0.3629
  315MPD2    H3 4794   3.089   1.729  17.601  1.0178 -1.5231 -0.5296
  315MPD2     N 4795   3.283   2.002   0.171 -0.7710  0.0169 -0.2776
  315MPD2    H5 4796   3.321   2.001   0.265  1.3902  1.4406 -1.1407
  315MPD2    N1 4797   3.228   1.544   0.258 -0.1930  1.0832  0.7324
  315MPD2    H7 4798   3.301   1.558   0.327  1.1976 -0.1830 -0.5018
  316TMC3    C1 4799   3.357   2.224   0.178 -0.1534  0.0216  0.6633
  316TMC3    C2 4800   3.449   2.205   0.274 -0.0838 -0.2672  0.2890
  316TMC3    C3 4801   3.472   2.313   0.361 -0.4162 -0.2999 -0.0081
  316TMC3    C4 4802   3.281   2.332   0.181  0.7967 -0.8174  0.6464
  316TMC3    C5 4803   3.300   2.436   0.263  0.4682  0.7616  0.6296
  316TMC3    C6 4804   3.392   2.427   0.361  0.1335  0.3146  0.2182
  316TMC3     C 4805   3.296   2.119   0.102  0.2162  0.0574 -0.4587
  316TMC3     O 4806   3.233   2.155   0.007  0.0636 -0.5863 -0.6540
  316TMC3     H 4807   3.511   2.116   0.268  1.2158  0.7500 -1.2264
  316TMC3    H1 4808   3.200   2.341   0.109  1.4163 -0.3861  0.0019
  316TMC3    H2 4809   3.403   2.508   0.432 -0.0864 -0.3128  0.9712
  316TMC3    C7 4810   3.220   2.557   0.254 -1.2012 -0.0419  0.1614
  316TMC3    C8 4811   3.554   2.298   0.478 -0.7629  0.4950 -0.0327
  316TMC3    O1 4812   3.188   2.607   0.363  0.0129 -0.1265 -0.1456
  316TMC3    O2 4813   3.553   2.395   0.553 -0.6566  0.0938  0.3491
  317MPD2     C 4814   0.469   1.007  13.365 -0.2178 -0.4971 -0.8186
  317MPD2    C1 4815   0.507   0.883  13.318  0.4647  0.1088  0.6517
  317MPD2    C2 4816   0.573   0.800  13.405  0.0322 -0.0785  0.5096
  317MPD2    C3 4817   0.592   0.835  13.539  0.7012 -0.2359 -0.2825
  317MPD2    C4 4818   0.541   0.953  13.585 -0.2299 -0.4822 -0.7889
  317MPD2    C5 4819   0.483   1.042  13.497 -0.1266 -0.2494  0.7588
  317MPD2     H 4820   0.628   0.715  13.369 -0.3719 -0.1074 -0.0444
  317MPD2    H1 4821   0.541   0.985  13.688 -0.8269  0.9372 -1.2227
  317MPD2    H2 4822   0.388   1.064  13.320 -2.2199  0.0986  3.6117
  317MPD2    H3 4823   0.445   1.138  13.529  1.1187  0.6036 -0.3156
  317MPD2     N 4824   0.671   0.757  13.625  0.7509 -0.5658  0.7084
  317MPD2    H5 4825   0.704   0.668  13.591  0.7602 -0.0898 -0.5301
  317MPD2    N1 4826   0.491   0.834  13.185  0.0760 -1.1553  0.6481
  317MPD2    H7 4827   0.509   0.735  13.170 -1.3667 -1.4133  0.5271
  318TMC3    C1 4828   0.759   0.671  13.813  0.1365 -1.0616 -0.1246
  318TMC3    C2 4829   0.686   0.557  13.796  0.1387 -0.6746 -0.0940
  318TMC3    C3 4830   0.745   0.445  13.850  0.3835  0.7139  0.3105
  318TMC3    C4 4831   0.864   0.677  13.899 -0.6498 -0.4123 -1.2801
  318TMC3    C5 4832   0.916   0.565  13.951 -0.4019  0.3591  0.2102
  318TMC3    C6 4833   0.856   0.447  13.927  0.1456 -0.3022  0.1121
  318TMC3     C 4834   0.717   0.792  13.750 -0.0140 -0.2895 -0.4942
  318TMC3     O 4835   0.744   0.902  13.796 -0.2308 -0.2238 -0.2907
  318TMC3     H 4836   0.591   0.555  13.743 -0.1977 -0.6898  0.5029
  318TMC3    H1 4837   0.904   0.770  13.937  0.9920 -1.0288 -1.5019
  318TMC3    H2 4838   0.881   0.355  13.978  0.4176 -1.1581 -1.5714
  318TMC3    C7 4839   1.023   0.586  14.043  0.2013  0.4938 -0.2026
  318TMC3    C8 4840   0.663   0.324  13.855 -0.5184  0.3537  0.1709
  318TMC3    O1 4841   1.051   0.698  14.082 -0.3255  0.8296  0.0113
  318TMC3    O2 4842   0.683   0.240  13.945 -0.2145 -0.6152 -0.1896
  319MPD2     C 4843   1.385   2.010  16.630 -0.6843 -0.0822  0.4154
  319MPD2    C1 4844   1.300   1.950  16.721  0.0826 -0.4266  0.5282
  319MPD2    C2 4845   1.194   1.881  16.667  0.5845  0.3562 -0.6088
  319MPD2    C3 4846   1.170   1.855  16.534  0.1667 -0.0302 -0.8196
  319MPD2    C4 4847   1.262   1.909  16.441 -0.4092  0.0207 -0.4288
  319MPD2    C5 4848   1.367   1.986  16.497  0.2547  0.5994  0.2336
  319MPD2     H 4849   1.127   1.844  16.745  0.1476  1.1486 -0.6118
  319MPD2    H1 4850   1.255   1.897  16.333 -1.1184  0.5191 -0.4334
  319MPD2    H2 4851   1.466   2.076  16.657  0.0899 -0.8098 -0.1189
  319MPD2    H3 4852   1.436   2.030  16.426  0.4572  0.6852  0.4814
  319MPD2     N 4853   1.049   1.802  16.480  0.1872  0.0257 -0.2521
  319MPD2    H5 4854   1.051   1.801  16.378 -2.2718  2.4626 -0.3161
  319MPD2    N1 4855   1.312   1.966  16.862  0.7845  0.2756 -0.2387
  319MPD2    H7 4856   1.244   1.923  16.923  1.3555 -0.3251 -0.0223
  320TMC3    C1 4857   0.862   1.673  16.457 -0.0448 -0.7691  0.0205
  320TMC3    C2 4858   0.825   1.749  16.351  0.1475 -0.4527  0.2029
  320TMC3    C3 4859   0.727   1.701  16.268 -0.3660 -0.1894 -0.3908
  320TMC3    C4 4860   0.813   1.547  16.482 -0.1707 -0.5532 -0.8229
  320TMC3    C5 4861   0.718   1.498  16.394 -0.1998 -0.0905  0.4859
  320TMC3    C6 4862   0.683   1.571  16.287  0.9504 -0.9446  0.2975
  320TMC3     C 4863   0.947   1.733  16.551 -0.3003 -0.1275 -0.2504
  320TMC3     O 4864   0.930   1.711  16.670  0.3420 -0.5459  0.6749
  320TMC3     H 4865   0.866   1.847  16.335  2.6578 -1.8129 -1.6496
  320TMC3    H1 4866   0.854   1.486  16.562 -1.1860  0.3507  0.4085
  320TMC3    H2 4867   0.630   1.522  16.206 -1.3526  0.1168  1.1434
  320TMC3    C7 4868   0.680   1.359  16.391  0.1447 -0.5048 -0.3559
  320TMC3    C8 4869   0.682   1.785  16.146 -0.4920 -0.0889  0.3549
  320TMC3    O1 4870   0.608   1.321  16.300  0.2401  0.2322 -0.2102
  320TMC3    O2 4871   0.713   1.901  16.154  0.0251  0.4110  0.1134
  321TMC3    C1 4872   1.412   2.020  17.077  0.4670 -0.5690 -0.1239
  321TMC3    C2 4873   1.361   1.916  17.145 -0.3522  0.2254 -0.3145
  321TMC3    C3 4874   1.398   1.901  17.283  0.0293  0.3045 -0.2695
  321TMC3    C4 4875   1.520   2.091  17.125  0.0779  0.0821 -0.2824
  321TMC3    C5 4876   1.557   2.072  17.254  0.4267  0.2079  0.7151
  321TMC3    C6 4877   1.479   1.998  17.337 -0.8461  0.4782 -0.6659
  321TMC3     C 4878   1.415   2.027  16.929 -0.1870  0.1802 -0.2085
  321TMC3     O 4879   1.500   2.101  16.883  0.4625 -0.6471  0.3927
  321TMC3     H 4880   1.285   1.852  17.103 -1.8459  1.3150  0.7054
  321TMC3    H1 4881   1.544   2.190  17.088 -0.5173 -0.1707 -1.3398
  321TMC3    H2 4882   1.494   1.990  17.444 -1.4625  0.1129 -0.6027
  321TMC3    C7 4883   1.699   2.056  17.285 -0.2843 -0.3070 -0.6866
  321TMC3    C8 4884   1.435   1.770  17.335  0.5801  0.2786  0.7747
  321TMC3    O1 4885   1.721   2.008  17.396  0.2231 -0.1165 -0.0928
  321TMC3    O2 4886   1.363   1.675  17.310  0.2741 -0.0074  0.0159
  322MPD2     C 4887   0.335   3.305  13.280  0.4583  0.4314  0.0026
  322MPD2    C1 4888   0.336   3.265  13.412 -0.2740 -0.4521 -0.3674
  322MPD2    C2 4889   0.342   3.128  13.438  0.6204  0.5388  0.2097
  322MPD2    C3 4890   0.324   3.031  13.334  1.0117 -0.5310 -0.0941
  322MPD2    C4 4891   0.305   3.078  13.208 -0.2409  0.2036 -0.6860
  322MPD2    C5 4892   0.318   3.208  13.180 -0.4038 -0.0598 -0.0179
  322MPD2     H 4893   0.354   3.088  13.538 -1.8986  0.2705  0.4282
  322MPD2    H1 4894   0.285   3.014  13.123 -1.7455  1.4494 -1.2817
  322MPD2    H2 4895   0.353   3.406  13.246 -0.2740  0.0184 -1.6267
  322MPD2    H3 4896   0.322   3.238  13.076 -0.6003  0.5758  0.1618
  322MPD2     N 4897   0.322   2.892  13.367  0.5934  0.0837  0.3625
  322MPD2    H5 4898   0.326   2.866  13.465  2.0225 -0.3325  0.1981
  322MPD2    N1 4899   0.351   3.354  13.522  0.5242 -0.2565 -0.5159
  322MPD2    H7 4900   0.379   3.449  13.496 -0.5171  0.3721  0.6483
  323TMC3    C1 4901   0.440   3.406  13.739 -0.0328 -0.0903 -0.2130
  323TMC3    C2 4902   0.516   3.509  13.696 -0.1589  0.7304  0.7935
  323TMC3    C3 4903   0.617   3.561  13.774 -0.4990 -0.6004 -0.3174
  323TMC3    C4 4904   0.446   3.372  13.874  0.5280 -0.2033 -0.0499
  323TMC3    C5 4905   0.533   3.437  13.952 -0.6390 -0.9580  0.1485
  323TMC3    C6 4906   0.624   3.532  13.907  0.1610 -0.5201 -0.3207
  323TMC3     C 4907   0.361   3.316  13.653  0.5767 -0.8442 -0.1579
  323TMC3     O 4908   0.311   3.219  13.704  0.3268  0.4707  0.3313
  323TMC3     H 4909   0.502   3.541  13.593  0.1068 -0.8647  0.2655
  323TMC3    H1 4910   0.387   3.290  13.914  0.9088 -0.1152  0.6919
  323TMC3    H2 4911   0.711   3.563  13.964  1.1074 -2.6685 -0.5664
  323TMC3    C7 4912   0.571   3.365  14.075 -0.7108 -0.9252 -0.6208
  323TMC3    C8 4913   0.730   3.624  13.708 -0.4912 -0.9760 -0.1213
  323TMC3    O1 4914   0.551   3.241  14.073 -0.8783  0.1284  0.2145
  323TMC3    O2 4915   0.832   3.630  13.774  0.2244 -0.3632 -0.7220
  324MPD2     C 4916   2.008   3.921  14.207  0.2163  0.5716 -0.1744
  324MPD2    C1 4917   2.031   4.021  14.302  0.2129 -0.3689 -0.5255
  324MPD2    C2 4918   1.915   4.088  14.352  0.3441 -1.2534 -0.1439
  324MPD2    C3 4919   1.792   4.053  14.302 -0.2497  0.2391 -0.1199
  324MPD2    C4 4920   1.774   3.951  14.213  0.2461 -0.0756 -0.1595
  324MPD2    C5 4921   1.881   3.874  14.176 -0.5817 -0.1680 -0.4102
  324MPD2     H 4922   1.935   4.165  14.425 -0.1260 -0.7606 -0.5291
  324MPD2    H1 4923   1.673   3.926  14.181 -0.0990  1.0116  0.0851
  324MPD2    H2 4924   2.090   3.859  14.174  0.6613  1.6065 -0.9753
  324MPD2    H3 4925   1.869   3.794  14.104 -2.1714 -1.6391  1.4798
  324MPD2     N 4926   1.672   4.117  14.341  0.1489  0.2564 -0.0363
  324MPD2    H5 4927   1.587   4.075  14.305 -0.1142  0.6306  0.1547
  324MPD2    N1 4928   2.157   4.056  14.350 -0.0145  0.5924  0.0651
  324MPD2    H7 4929   2.161   4.124  14.425  2.2330  1.0807 -0.4765
  325TMC3    C1 4930   1.529   4.274  14.453  0.2904  0.3554 -0.8128
  325TMC3    C2 4931   1.424   4.222  14.381  0.2758 -0.5231  0.1397
  325TMC3    C3 4932   1.315   4.302  14.388 -0.0262 -0.1294  0.2392
  325TMC3    C4 4933   1.530   4.396  14.516  0.1810 -0.5540  0.5191
  325TMC3    C5 4934   1.413   4.468  14.515  0.1961  0.0480  0.4065
  325TMC3    C6 4935   1.306   4.428  14.440 -0.0961  0.1069  0.2847
  325TMC3     C 4936   1.663   4.210  14.444 -0.1318 -0.5360 -0.4031
  325TMC3     O 4937   1.747   4.263  14.510  0.5821  0.0850 -0.5721
  325TMC3     H 4938   1.413   4.124  14.338  1.1156 -0.1767 -0.8883
  325TMC3    H1 4939   1.622   4.435  14.557  0.8678 -0.4279 -1.1183
  325TMC3    H2 4940   1.222   4.494  14.420  1.1156  1.0553 -1.6834
  325TMC3    C7 4941   1.424   4.615  14.532  0.0328  0.5038  0.3753
  325TMC3    C8 4942   1.199   4.247  14.321 -0.1861  0.0751 -0.1632
  325TMC3    O1 4943   1.535   4.657  14.548  0.0404 -0.1991  0.3864
  325TMC3    O2 4944   1.208   4.164  14.229  0.6830  0.4568  0.2208
  326MPD2     C 4945   3.198   0.536  11.315  0.3185 -0.7042 -0.6179
  326MPD2    C1 4946   3.241   0.570  11.190  0.6577 -0.0182 -0.3271
  326MPD2    C2 4947   3.366   0.634  11.171 -0.6940 -0.6376  0.4446
  326MPD2    C3 4948   3.450   0.656  11.286  0.2727  0.2215  0.1224
  326MPD2    C4 4949   3.404   0.622  11.411 -0.1985  0.6390  0.3494
  326MPD2    C5 4950   3.276   0.570  11.424 -0.3169  0.3334  0.0042
  326MPD2     H 4951   3.401   0.649  11.070  1.6566 -1.8585  1.0833
  326MPD2    H1 4952   3.466   0.639  11.499 -2.1464 -1.1086  2.0727
  326MPD2    H2 4953   3.101   0.490  11.330 -0.6599  1.4391 -0.3301
  326MPD2    H3 4954   3.241   0.582  11.526  1.0418  1.4164  0.3516
  326MPD2     N 4955   3.586   0.699  11.259  0.4577 -0.4570 -0.4706
  326MPD2    H5 4956   3.648   0.702  11.339 -0.4986 -1.7885  0.3297
  326MPD2    N1 4957   3.174   0.538  11.075 -0.7236  0.1906 -0.3163
  326MPD2    H7 4958   3.216   0.567  10.987  2.3733  0.1731  1.1674
  327TMC3    C1 4959   3.057   0.403  10.932 -0.3202  0.0593  0.7887
  327TMC3    C2 4960   2.955   0.448  10.856  0.8461  2.1206  0.0549
  327TMC3    C3 4961   2.992   0.469  10.726 -0.3781  0.1634 -0.2780
  327TMC3    C4 4962   3.181   0.366  10.892  0.1399  0.1849 -0.1466
  327TMC3    C5 4963   3.216   0.393  10.761 -0.4006 -0.0612  0.3671
  327TMC3    C6 4964   3.114   0.439  10.676 -0.3081 -0.3938  0.4595
  327TMC3     C 4965   3.060   0.464  11.065 -0.6138  1.0761 -0.0140
  327TMC3     O 4966   2.975   0.439  11.146 -0.4085 -0.3256  0.2442
  327TMC3     H 4967   2.859   0.472  10.901  0.3984  0.4886 -0.0550
  327TMC3    H1 4968   3.249   0.328  10.968 -2.2710  0.9095  2.3947
  327TMC3    H2 4969   3.142   0.474  10.578 -0.0108 -0.5382  0.4914
  327TMC3    C7 4970   3.356   0.381  10.714 -0.3444  0.3838  0.0934
  327TMC3    C8 4971   2.906   0.556  10.646  0.3364 -0.2826 -0.6210
  327TMC3    O1 4972   3.371   0.398  10.595  0.7328  0.5057 -0.3373
  327TMC3    O2 4973   2.955   0.621  10.558 -0.0494 -0.5452 -0.4209
  328MPD2     C 4974   0.875   0.514  17.384  0.4068  0.0091  0.1596
  328MPD2    C1 4975   0.771   0.470  17.304  0.2403 -0.5140  0.1917
  328MPD2    C2 4976   0.713   0.554  17.207 -0.0402 -0.0362 -0.7602
  328MPD2    C3 4977   0.781   0.669  17.174  0.3051 -0.5420 -0.1983
  328MPD2    C4 4978   0.893   0.703  17.246 -0.6906 -0.2661 -0.1311
  328MPD2    C5 4979   0.932   0.630  17.351 -0.7090  0.0995  0.1130
  328MPD2     H 4980   0.620   0.527  17.159 -1.0505  1.0191  0.6063
  328MPD2    H1 4981   0.963   0.784  17.226  0.1153 -1.1427 -0.8729
  328MPD2    H2 4982   0.927   0.452  17.457  0.0436 -0.9924 -0.4344
  328MPD2    H3 4983   1.023   0.662  17.401  0.5142 -0.7790 -1.5691
  328MPD2     N 4984   0.742   0.753  17.072  0.2008  0.3196  0.3757
  328MPD2    H5 4985   0.799   0.832  17.044  0.8532 -0.2910  0.0061
  328MPD2    N1 4986   0.713   0.335  17.314 -0.1571 -0.1077  0.4986
  328MPD2    H7 4987   0.640   0.318  17.246 -1.4338  3.9706  0.8677
  329TMC3    C1 4988   0.628   0.142  17.394  0.2980 -0.1030  0.2585
  329TMC3    C2 4989   0.530   0.140  17.485 -0.8550  0.3345  0.5610
  329TMC3    C3 4990   0.438   0.042  17.460  1.0500  0.0978 -0.5107
  329TMC3    C4 4991   0.629   0.070  17.277 -0.6053  0.0822  0.0788
  329TMC3    C5 4992   0.530   4.711  17.254 -0.3820  0.5835 -0.2932
  329TMC3    C6 4993   0.421   4.706  17.340  0.1348  0.2902  0.0329
  329TMC3     C 4994   0.729   0.246  17.408 -0.9008  0.7672 -0.1423
  329TMC3     O 4995   0.779   0.268  17.517 -0.8734 -0.5514 -1.3766
  329TMC3     H 4996   0.539   0.196  17.577 -3.2915  0.5530  0.6665
  329TMC3    H1 4997   0.703   0.089  17.200  0.3032  0.1069  0.9536
  329TMC3    H2 4998   0.346   4.628  17.342  0.1838  0.2913  1.9241
  329TMC3    C7 4999   0.558   4.596  17.167  0.5989  0.0801 -0.1738
  329TMC3    C8 5000   0.317   0.036  17.537 -0.0216  0.2827  0.1994
  329TMC3    O1 5001   0.491   4.501  17.199  0.5486  0.0208 -0.1285
  329TMC3    O2 5002   0.251   4.665  17.550  0.4990 -0.0614  0.0370
  330TMC3    C1 5003   3.074   4.229   9.798 -0.4543  0.3216 -0.0951
  330TMC3    C2 5004   2.950   4.171   9.785  1.5613 -0.1449 -0.2227
  330TMC3    C3 5005   2.922   4.060   9.868  0.8341  0.6213 -0.0263
  330TMC3    C4 5006   3.171   4.185   9.882 -0.0629 -0.1100 -0.2944
  330TMC3    C5 5007   3.145   4.064   9.951 -0.1760 -0.0075 -0.1319
  330TMC3    C6 5008   3.020   4.006   9.950  0.0864  0.3247  0.4074
  330TMC3     C 5009   3.104   4.332   9.700  0.1183  0.4601  0.3035
  330TMC3     O 5010   3.218   4.318   9.660  0.2689 -0.5191  0.0039
  330TMC3     H 5011   2.868   4.216   9.730  0.2828  0.8552  2.5463
  330TMC3    H1 5012   3.269   4.233   9.876 -0.5365  1.1158  2.0914
  330TMC3    H2 5013   3.002   3.910   9.996  0.6941 -0.1963 -0.4370
  330TMC3    C7 5014   3.244   4.010  10.043  0.5409  0.1471  0.0449
  330TMC3    C8 5015   2.781   4.016   9.875  0.3513  0.5556 -0.1697
  330TMC3    O1 5016   3.218   3.901  10.083 -0.6864 -0.3353  0.5673
  330TMC3    O2 5017   2.712   4.050   9.780  0.0060  0.5359  0.1740
  331MPD2     C 5018   2.041   3.523  12.944 -0.6413 -0.0017 -0.3806
  331MPD2    C1 5019   1.916   3.521  12.890  0.1450 -0.5390  0.2061
  331MPD2    C2 5020   1.849   3.399  12.896  0.7675  0.1946 -0.3438
  331MPD2    C3 5021   1.904   3.286  12.960 -0.7364  0.1387 -0.1702
  331MPD2    C4 5022   2.029   3.290  13.025  0.5499  0.3532  1.1146
  331MPD2    C5 5023   2.084   3.414  13.017  0.2143 -0.4622  0.2031
  331MPD2     H 5024   1.761   3.382  12.835  0.0221  1.8035  0.2838
  331MPD2    H1 5025   2.083   3.211  13.076 -0.4431  0.7265  2.7278
  331MPD2    H2 5026   2.106   3.610  12.945 -0.0057 -0.4669 -1.7920
  331MPD2    H3 5027   2.175   3.435  13.072 -0.3995 -0.1998  1.1299
  331MPD2     N 5028   1.827   3.164  12.947  0.2708  0.1253 -0.8848
  331MPD2    H5 5029   1.735   3.167  12.902  0.7687 -2.3288 -2.0422
  331MPD2    N1 5030   1.879   3.628  12.809 -0.3516  0.2917 -0.0117
  331MPD2    H7 5031   1.957   3.682  12.772  0.1147  0.0960  0.6935
  332TMC3    C1 5032   1.771   2.937  12.936  0.5519 -0.9105 -0.7658
  332TMC3    C2 5033   1.708   2.961  12.819 -0.1304 -0.4409 -0.0828
  332TMC3    C3 5034   1.678   2.856  12.739 -0.2015 -0.1181 -0.2056
  332TMC3    C4 5035   1.806   2.809  12.972  0.7281  0.2138 -0.2763
  332TMC3    C5 5036   1.777   2.708  12.889 -0.0065 -0.0302 -0.3889
  332TMC3    C6 5037   1.705   2.723  12.773  0.3260 -0.3194 -0.7932
  332TMC3     C 5038   1.861   3.044  12.992 -0.0375  0.2788  0.6210
  332TMC3     O 5039   1.956   2.999  13.055  0.0000  0.1839 -0.5788
  332TMC3     H 5040   1.688   3.063  12.787  2.0749 -0.5546 -1.7996
  332TMC3    H1 5041   1.869   2.782  13.056 -1.3151  0.1100  1.2202
  332TMC3    H2 5042   1.706   2.636  12.708 -0.3859 -0.1048 -1.0995
  332TMC3    C7 5043   1.859   2.588  12.882  0.2039  0.3090 -0.8474
  332TMC3    C8 5044   1.664   2.888  12.600  0.3508 -0.8414  0.7466
  332TMC3    O1 5045   1.807   2.477  12.884  0.4164 -1.0995 -0.1632
  332TMC3    O2 5046   1.692   3.002  12.564  0.4783 -0.4377  0.0791
  333MPD2     C 5047   1.686   4.043  11.034  0.2287 -0.6216 -0.1998
  333MPD2    C1 5048   1.618   3.922  11.010 -0.0516  0.0326 -0.1129
  333MPD2    C2 5049   1.566   3.857  11.125 -0.7970 -0.7407 -0.3874
  333MPD2    C3 5050   1.579   3.903  11.253 -0.0557 -0.1106 -0.1323
  333MPD2    C4 5051   1.646   4.026  11.267  0.3078 -0.6483 -0.1326
  333MPD2    C5 5052   1.694   4.092  11.159 -0.1320  0.1865  0.7883
  333MPD2     H 5053   1.522   3.759  11.114 -1.2386 -0.6234  0.3040
  333MPD2    H1 5054   1.658   4.074  11.363  1.8637  0.1857 -0.7446
  333MPD2    H2 5055   1.734   4.100  10.956  1.3013 -1.3361 -0.0537
  333MPD2    H3 5056   1.749   4.186  11.164 -2.2636  1.8185 -5.5133
  333MPD2     N 5057   1.521   3.827  11.360  0.1186  0.0278  0.7316
  333MPD2    H5 5058   1.466   3.746  11.334 -1.4533  1.7319 -1.1852
  333MPD2    N1 5059   1.623   3.859  10.884 -0.0471 -0.1916  0.2230
  333MPD2    H7 5060   1.682   3.906  10.817  0.6523 -0.6808  0.5032
  334TMC3    C1 5061   1.651   3.663  10.762  0.7575 -0.3166 -0.2641
  334TMC3    C2 5062   1.710   3.563  10.830  0.0121 -0.3747 -0.5129
  334TMC3    C3 5063   1.839   3.511  10.802 -0.1972 -0.3820 -0.1272
  334TMC3    C4 5064   1.734   3.727  10.678 -0.8265  0.5476 -0.6533
  334TMC3    C5 5065   1.858   3.684  10.640  0.3306  0.1143  0.4001
  334TMC3    C6 5066   1.910   3.574  10.703 -0.2781  0.8179  0.6153
  334TMC3     C 5067   1.564   3.740  10.849  0.9110  0.4339  0.1404
  334TMC3     O 5068   1.479   3.686  10.913 -0.0749  0.5527 -0.2609
  334TMC3     H 5069   1.661   3.540  10.924 -0.9406 -1.3368 -1.2532
  334TMC3    H1 5070   1.692   3.816  10.634 -1.4047 -0.3745 -1.9592
  334TMC3    H2 5071   2.004   3.547  10.658 -0.0198  0.4399  1.4043
  334TMC3    C7 5072   1.953   3.792  10.628 -0.8583  0.0615  0.0036
  334TMC3    C8 5073   1.924   3.461  10.908 -0.0115 -0.7833  0.0511
  334TMC3    O1 5074   2.054   3.781  10.695  0.0385  0.1409  0.0065
  334TMC3    O2 5075   1.883   3.381  10.987 -0.1199  0.1990  0.3567
  335TMC3    C1 5076   1.307   0.464  17.705  0.3230  0.1804 -0.4711
  335TMC3    C2 5077   1.259   0.408  17.592 -0.5001 -0.6482  1.3100
  335TMC3    C3 5078   1.348   0.394  17.492  0.1810  0.2724 -0.3875
  335TMC3    C4 5079   1.437   0.501  17.721 -0.3488 -0.2587  0.4758
  335TMC3    C5 5080   1.520   0.489  17.609 -0.5190  0.0080 -0.4896
  335TMC3    C6 5081   1.480   0.430  17.495 -0.2756  0.9071 -0.0020
  335TMC3     C 5082   1.221   0.488   0.083  0.0504  0.0334 -0.4705
  335TMC3     O 5083   1.242   0.593   0.143  0.2767  0.1655  0.0500
  335TMC3     H 5084   1.152   0.390  17.587 -0.5095 -0.0099 -0.6411
  335TMC3    H1 5085   1.468   0.545   0.080 -0.0614  0.1810  0.1756
  335TMC3    H2 5086   1.540   0.411  17.407  1.5400 -2.0813  1.9278
  335TMC3    C7 5087   1.641   0.565  17.590 -0.5849 -0.5596 -0.2799
  335TMC3    C8 5088   1.298   0.353  17.362  0.2752  0.8995 -0.0549
  335TMC3    O1 5089   1.678   0.577  17.476  0.5186  0.3411 -0.4566
  335TMC3    O2 5090   1.352   0.408  17.266  0.1144  0.4186  0.2153
  336MPD2     C 5091   1.044   3.134  16.421 -0.4845 -0.1030 -0.4370
  336MPD2    C1 5092   1.074   3.090  16.295 -0.0675  0.2703  0.3059
  336MPD2    C2 5093   1.139   2.968  16.281  0.1936  0.4843 -0.5967
  336MPD2    C3 5094   1.145   2.885  16.397  0.0565 -0.2246  0.2691
  336MPD2    C4 5095   1.123   2.931  16.529  0.1619  0.3016 -0.0411
  336MPD2    C5 5096   1.081   3.064  16.529  0.3847  0.1978  1.1465
  336MPD2     H 5097   1.175   2.922  16.190 -0.8361 -2.2820  0.3895
  336MPD2    H1 5098   1.152   2.874  16.616 -1.4596 -0.6195 -0.1017
  336MPD2    H2 5099   1.002   3.229  16.450 -0.4378 -0.3739  0.5400
  336MPD2    H3 5100   1.058   3.112  16.624 -1.4891 -2.0718  1.8386
  336MPD2     N 5101   1.202   2.751  16.392 -0.0146 -0.0613 -0.4073
  336MPD2    H5 5102   1.187   2.690  16.472 -0.1900  2.0049  1.1395
  336MPD2    N1 5103   1.044   3.164  16.183 -0.0898 -0.1416  0.1959
  336MPD2    H7 5104   1.082   3.132  16.094 -1.6258 -0.2386 -0.4160
  337TMC3    C1 5105   0.924   3.316  16.046  0.3757  0.5910 -0.6494
  337TMC3    C2 5106   0.792   3.354  16.018  0.0336 -0.6699 -0.0644
  337TMC3    C3 5107   0.753   3.367  15.886  0.4454 -0.0137 -0.5824
  337TMC3    C4 5108   1.010   3.296  15.943  0.2403  0.4388 -0.4685
  337TMC3    C5 5109   0.964   3.287  15.817 -0.4335  0.1852  0.2820
  337TMC3    C6 5110   0.837   3.339  15.783 -1.5224 -0.0342 -0.0660
  337TMC3     C 5111   0.952   3.268  16.182 -0.0975  0.5611 -1.1527
  337TMC3     O 5112   0.878   3.301  16.277  0.6529  0.3904  0.3494
  337TMC3     H 5113   0.734   3.375  16.106 -0.2528 -0.4796 -0.2983
  337TMC3    H1 5114   1.110   3.263  15.967  1.3346  4.3873  0.4809
  337TMC3    H2 5115   0.810   3.359  15.680  1.3880  1.4486 -0.5423
  337TMC3    C7 5116   1.049   3.245  15.713  0.0483 -0.6236 -0.2916
  337TMC3    C8 5117   0.608   3.382  15.872 -0.2405 -0.1282 -0.4011
  337TMC3    O1 5118   1.169   3.232  15.743 -0.2249 -0.0738  0.5037
  337TMC3    O2 5119   0.551   3.428  15.967 -0.5071  0.2674 -0.0429
  338MPD2     C 5120   1.071   2.677   1.025  0.0628  0.3429  0.1892
  338MPD2    C1 5121   1.032   2.640   0.900 -0.4644  0.4131 -0.0539
  338MPD2    C2 5122   0.896   2.650   0.870 -0.2205  0.0285 -0.5538
  338MPD2    C3 5123   0.802   2.702   0.949 -0.1944  0.2134  0.6237
  338MPD2    C4 5124   0.847   2.763   1.065  0.4523 -0.5496  0.1559
  338MPD2    C5 5125   0.981   2.747   1.106 -0.1703 -0.9945 -0.3560
  338MPD2     H 5126   0.866   2.619   0.771  0.2556  0.4709 -0.8400
  338MPD2    H1 5127   0.776   2.820   1.124  0.3076  0.8368 -1.3819
  338MPD2    H2 5128   1.169   2.651   1.062  0.2428 -0.5108 -0.8827
  338MPD2    H3 5129   1.017   2.766   1.206 -1.4578  1.4479 -0.3288
  338MPD2     N 5130   0.670   2.705   0.894 -0.5072 -0.2797 -0.1583
  338MPD2    H5 5131   0.658   2.655   0.807 -1.5484  1.6031 -1.0850
  338MPD2    N1 5132   1.115   2.579   0.803 -0.0586  0.0233 -0.1044
  338MPD2    H7 5133   1.071   2.550   0.716  1.2076 -1.6596 -0.1788
  339TMC3    C1 5134   0.442   2.746   0.867 -0.7970 -0.3806 -0.1062
  339TMC3    C2 5135   0.377   2.634   0.886 -0.1769  0.3320  0.2856
  339TMC3    C3 5136   0.293   2.594   0.785  0.9140 -0.2911  0.4655
  339TMC3    C4 5137   0.446   2.817   0.751 -1.0532  0.5100 -0.6404
  339TMC3    C5 5138   0.363   2.778   0.653 -0.2128 -0.5098 -0.2392
  339TMC3    C6 5139   0.282   2.669   0.666  0.2137  0.2712  0.5552
  339TMC3     C 5140   0.557   2.764   0.946  0.0396 -0.6352 -0.3057
  339TMC3     O 5141   0.538   2.813   1.057  0.4405  0.0841 -0.4247
  339TMC3     H 5142   0.377   2.591   0.985  1.3049 -0.6780 -0.1508
  339TMC3    H1 5143   0.509   2.904   0.736  0.2913 -0.3713 -0.1453
  339TMC3    H2 5144   0.203   2.656   0.593 -0.4206  1.9783  0.9303
  339TMC3    C7 5145   0.414   2.802   0.522  0.0105 -0.4302 -0.5633
  339TMC3    C8 5146   0.307   2.461   0.743  0.4755 -0.4029 -0.3864
  339TMC3    O1 5147   0.448   2.914   0.480 -0.1117 -0.1597  0.4539
  339TMC3    O2 5148   0.302   2.442   0.619  0.7847  0.1322  0.2885
  340MPD2     C 5149   1.173   0.141   9.913  0.6790  0.0132  0.9336
  340MPD2    C1 5150   1.269   0.212   9.847 -0.0710 -0.4732  0.5609
  340MPD2    C2 5151   1.280   0.356   9.854 -0.4896  0.2498 -0.2188
  340MPD2    C3 5152   1.207   0.411   9.953  0.1008  0.0721 -0.4351
  340MPD2    C4 5153   1.124   0.337  10.034  0.5660  0.4624  0.6871
  340MPD2    C5 5154   1.097   0.200  10.010 -0.5320  0.1996 -0.4582
  340MPD2     H 5155   1.355   0.418   9.804 -0.0979 -0.3822 -0.4096
  340MPD2    H1 5156   1.073   0.386  10.116 -2.6348  0.2236 -1.1540
  340MPD2    H2 5157   1.150   0.037   9.895 -2.7538  1.1863 -1.4805
  340MPD2    H3 5158   1.027   0.146  10.072  0.2079 -1.0054 -0.6836
  340MPD2     N 5159   1.211   0.555   9.982  0.3917  0.7958 -0.7744
  340MPD2    H5 5160   1.155   0.582  10.062  1.7457  0.2317  0.3522
  340MPD2    N1 5161   1.346   0.141   9.758  0.2765 -0.2660  0.5500
  340MPD2    H7 5162   1.341   0.040   9.751  0.1662 -0.3897  2.5661
  341TMC3    C1 5163   1.535   0.098   9.623  0.1628 -0.1936  0.2178
  341TMC3    C2 5164   1.475   4.721   9.562  0.0106 -0.2316 -0.5869
  341TMC3    C3 5165   1.551   4.635   9.498 -0.6327 -0.3837  0.7934
  341TMC3    C4 5166   1.669   0.115   9.614 -0.3890 -1.1081 -0.7219
  341TMC3    C5 5167   1.745   0.029   9.542 -0.3954 -0.0612  0.1347
  341TMC3    C6 5168   1.682   4.655   9.490 -0.7490  0.1802  0.3811
  341TMC3     C 5169   1.454   0.197   9.687  0.6851 -0.7715  0.6868
  341TMC3     O 5170   1.478   0.315   9.664  0.5531  0.6189 -0.2268
  341TMC3     H 5171   1.367   4.720   9.563  0.0452 -0.4322  2.9780
  341TMC3    H1 5172   1.721   0.198   9.661 -2.8408 -0.7198  1.2831
  341TMC3    H2 5173   1.745   4.569   9.473 -0.5905  0.1681  1.0161
  341TMC3    C7 5174   1.890   0.023   9.572  0.3392 -0.1437  0.8293
  341TMC3    C8 5175   1.496   4.500   9.481 -0.4317  0.0043 -0.3803
  341TMC3    O1 5176   1.916   0.067   9.682 -0.1765  0.2330  0.1170
  341TMC3    O2 5177   1.569   4.406   9.450  0.0098 -0.4850 -0.0992
  342MPD2     C 5178   3.937   3.147  17.730  0.1966  0.1494 -0.1391
  342MPD2    C1 5179   4.019   3.159  17.621 -1.8538  0.5213  0.4971
  342MPD2    C2 5180   4.033   3.288  17.558 -0.2555  0.2834 -0.0940
  342MPD2    C3 5181   3.962   3.396  17.608  0.1558 -0.8655  0.5445
  342MPD2    C4 5182   3.889   3.373  17.722 -0.0604 -0.0598  1.0036
  342MPD2    C5 5183   3.874   3.255   0.054 -0.4267  0.8926 -0.1619
  342MPD2     H 5184   4.101   3.309  17.477  0.6232  0.0339  0.5711
  342MPD2    H1 5185   3.833   3.458   0.026 -1.1958  0.0802 -0.9625
  342MPD2    H2 5186   3.915   3.052   0.043 -0.2700 -0.0152 -0.6701
  342MPD2    H3 5187   3.821   3.239   0.148  0.4871 -2.2824 -0.1818
  342MPD2     N 5188   3.956   3.526  17.549  0.2102  0.1561 -0.6317
  342MPD2    H5 5189   3.920   3.604  17.602 -1.9205 -1.0014 -0.3630
  342MPD2    N1 5190   4.095   3.050  17.573  0.0290  0.3487  0.3080
  342MPD2    H7 5191   4.162   3.078  17.502  0.1973  0.0524  0.3511
  343TMC3    C1 5192   4.181   2.835  17.539  0.2840 -0.0025 -0.2947
  343TMC3    C2 5193   4.274   2.896  17.456 -0.3242 -0.3524 -0.5205
  343TMC3    C3 5194   4.327   2.824  17.355  0.1635 -0.5843  0.0343
  343TMC3    C4 5195   4.144   2.707  17.520 -0.2796 -0.1963  0.1027
  343TMC3    C5 5196   4.210   2.640  17.420 -0.1894 -0.4253 -0.2784
  343TMC3    C6 5197   4.302   2.690  17.337  0.4469  1.2058 -0.3697
  343TMC3     C 5198   4.075   2.917  17.605 -0.3620 -0.2407 -0.3072
  343TMC3     O 5199   3.984   2.870  17.669  0.1967 -0.2370  0.6551
  343TMC3     H 5200   4.320   2.984  17.499  0.5663 -0.3408 -1.4947
  343TMC3    H1 5201   4.052   2.666  17.560  0.4222 -1.8885 -0.0139
  343TMC3    H2 5202   4.350   2.626  17.263 -0.8654 -1.2403  0.8859
  343TMC3    C7 5203   4.200   2.497  17.405  0.4643 -0.7112 -1.1119
  343TMC3    C8 5204   4.428   2.894  17.276  0.6758 -0.2406 -0.0913
  343TMC3    O1 5205   4.163   2.442  17.303 -0.0325  0.5216 -0.1181
  343TMC3    O2 5206   4.459   3.006  17.312  0.4624  0.1312 -0.2470
  344MPD2     C 5207   0.588   2.745  10.998 -0.2337 -0.1032  0.1695
  344MPD2    C1 5208   0.512   2.660  10.914 -0.4714  0.3689  0.0666
  344MPD2    C2 5209   0.552   2.652  10.781  0.2219  0.3266 -0.4882
  344MPD2    C3 5210   0.673   2.715  10.745 -0.4002  0.2181 -0.2692
  344MPD2    C4 5211   0.742   2.805  10.830  0.1036  0.4925  0.2671
  344MPD2    C5 5212   0.698   2.818  10.956 -0.0191 -0.0464 -0.1333
  344MPD2     H 5213   0.500   2.586  10.713  3.5918  1.2730 -3.9804
  344MPD2    H1 5214   0.830   2.857  10.795 -0.5378  1.1511 -0.3621
  344MPD2    H2 5215   0.567   2.746  11.104  0.5629 -0.5457  0.3323
  344MPD2    H3 5216   0.742   2.895  11.020  1.4750 -0.3348 -0.8088
  344MPD2     N 5217   0.724   2.691  10.615  0.0959  0.5690 -0.2869
  344MPD2    H5 5218   0.662   2.641  10.552 -1.0812  1.4985  0.1150
  344MPD2    N1 5219   0.410   2.571  10.959 -0.6801  0.1566 -0.1788
  344MPD2    H7 5220   0.390   2.487  10.905 -0.8625  0.7591 -1.0405
  345TMC3    C1 5221   0.861   2.740  10.431  0.7210  0.1355 -0.0416
  345TMC3    C2 5222   0.986   2.745  10.383  0.1338  0.6029 -0.3758
  345TMC3    C3 5223   1.004   2.815  10.266  0.6042  0.2481 -0.2713
  345TMC3    C4 5224   0.756   2.801  10.375 -0.5488  0.0264 -0.2251
  345TMC3    C5 5225   0.777   2.870  10.263 -0.0819 -0.3392 -0.3143
  345TMC3    C6 5226   0.901   2.876  10.203  0.0981  0.6695 -0.1328
  345TMC3     C 5227   0.844   2.731  10.574  0.2278  0.0798 -0.0724
  345TMC3     O 5228   0.942   2.760  10.644 -0.2541  0.1718  0.0223
  345TMC3     H 5229   1.068   2.706  10.441 -0.9888 -0.6623  0.3590
  345TMC3    H1 5230   0.663   2.809  10.430  0.9365  0.8966  2.1800
  345TMC3    H2 5231   0.909   2.933  10.111  1.7987 -0.3997 -0.6357
  345TMC3    C7 5232   0.704   2.995  10.259 -0.1053  0.3999 -0.1645
  345TMC3    C8 5233   1.141   2.822  10.222 -0.4865  0.0262  0.1714
  345TMC3    O1 5234   0.767   3.093  10.219  0.1785  0.3849  0.3364
  345TMC3    O2 5235   1.218   2.750  10.275  0.4712 -0.0547  0.7358
  346MPD2     C 5236   0.196   0.043  14.803 -0.2214 -0.4440  0.4106
  346MPD2    C1 5237   0.311   0.026  14.726  0.1710 -0.0318 -0.5011
  346MPD2    C2 5238   0.430   0.040  14.787 -0.2885 -1.2587 -0.1729
  346MPD2    C3 5239   0.434   0.120  14.900 -0.1682  0.5427  0.7055
  346MPD2    C4 5240   0.325   0.129  14.986 -0.0935  0.1805  0.2268
  346MPD2    C5 5241   0.202   0.083  14.936  0.9593  0.2883  0.3737
  346MPD2     H 5242   0.527   0.019  14.744  0.4350  0.0097  0.8111
  346MPD2    H1 5243   0.320   0.181  15.081 -1.3484  1.0411 -0.3141
  346MPD2    H2 5244   0.104   0.001  14.765  0.3150 -1.3494  0.1258
  346MPD2    H3 5245   0.119   0.087  15.005 -0.3755  0.8352 -1.2555
  346MPD2     N 5246   0.556   0.182  14.920 -0.2419 -0.7343  0.0621
  346MPD2    H5 5247   0.623   0.170  14.845  2.2551 -0.2460  2.2405
  346MPD2    N1 5248   0.309   4.720  14.592 -0.6173  0.1307  0.2836
  346MPD2    H7 5249   0.397   4.697  14.547 -1.6465 -2.4642 -0.4012
  347TMC3    C1 5250   0.710   0.341  14.987 -0.1161  0.1413 -0.6306
  347TMC3    C2 5251   0.754   0.346  14.852  0.7170  0.5778  0.3462
  347TMC3    C3 5252   0.887   0.354  14.836  0.2846 -0.1463 -0.4312
  347TMC3    C4 5253   0.792   0.374  15.095 -0.2016 -0.3532 -0.4797
  347TMC3    C5 5254   0.924   0.394  15.060 -0.6605  0.0183 -0.0294
  347TMC3    C6 5255   0.978   0.365  14.938 -0.2753 -0.3223 -0.0455
  347TMC3     C 5256   0.598   0.258  15.024 -0.7743 -0.0274  0.3777
  347TMC3     O 5257   0.555   0.252  15.137 -0.6123 -0.1294 -0.1844
  347TMC3     H 5258   0.694   0.320  14.765  1.6968  2.1132 -0.7757
  347TMC3    H1 5259   0.763   0.387  15.198 -2.1703 -1.7092 -0.8393
  347TMC3    H2 5260   1.085   0.355  14.921 -0.2605  1.6040 -1.0276
  347TMC3    C7 5261   1.016   0.443  15.162  0.5543  0.2761 -0.0793
  347TMC3    C8 5262   0.945   0.279  14.728 -0.6630  0.1665 -0.6082
  347TMC3    O1 5263   0.984   0.422  15.277  0.0512  0.5510  0.1473
  347TMC3    O2 5264   0.879   0.181  14.691 -0.0725  0.5726  0.4867
  348MPD2     C 5265   4.268   4.169  12.150  0.4752 -0.2967 -0.3071
  348MPD2    C1 5266   4.337   4.156  12.027 -0.0562  0.3015  0.1540
  348MPD2    C2 5267   4.375   4.280  11.975  0.0039  0.4107 -0.2530
  348MPD2    C3 5268   4.360   4.399  12.048 -0.0559  0.0239 -0.6443
  348MPD2    C4 5269   4.301   4.403  12.174  0.2501  0.8144 -1.2368
  348MPD2    C5 5270   4.264   4.282  12.225  0.3752  0.4775  0.0101
  348MPD2     H 5271   4.425   4.281  11.879  0.3244  2.1368 -0.0753
  348MPD2    H1 5272   4.295   4.490  12.239  0.3212 -0.0907 -0.0193
  348MPD2    H2 5273   4.222   4.081  12.193  1.5388 -1.3415 -1.3092
  348MPD2    H3 5274   4.231   4.281  12.328 -0.1185 -2.9943 -0.1901
  348MPD2     N 5275   4.395   4.522  11.987  0.1616  0.8651 -0.5515
  348MPD2    H5 5276   4.455   4.518  11.906  0.3981 -0.7139 -0.3068
  348MPD2    N1 5277   4.327   4.037  11.960 -0.2653  0.3436 -0.0852
  348MPD2    H7 5278   4.273   3.965  12.006 -0.9309  1.5669  1.0257
  349TMC3    C1 5279   4.284   3.886  11.791 -0.7331 -0.0486  0.1709
  349TMC3    C2 5280   4.261   3.793  11.890  0.2607  0.0253  0.2498
  349TMC3    C3 5281   4.148   3.718  11.882  0.0228  0.2005 -0.7546
  349TMC3    C4 5282   4.192   3.908  11.693  0.6493 -0.1729  0.3005
  349TMC3    C5 5283   4.072   3.839  11.695 -0.1437 -0.2378  0.4612
  349TMC3    C6 5284   4.055   3.735  11.781  0.2662 -0.2947  0.3935
  349TMC3     C 5285   4.343   4.015  11.824  0.0648 -0.1952 -0.1844
  349TMC3     O 5286   4.382   4.095  11.741  0.5847 -0.0360  0.0538
  349TMC3     H 5287   4.339   3.758  11.956  1.8071  1.0031 -1.0773
  349TMC3    H1 5288   4.217   3.989  11.625 -2.2688  0.3866 -0.0949
  349TMC3    H2 5289   3.971   3.666  11.776  0.2422 -0.0895 -2.4826
  349TMC3    C7 5290   3.950   3.906  11.659  0.9717 -0.2190 -0.0780
  349TMC3    C8 5291   4.123   3.602  11.969  0.7380  0.2509 -0.5628
  349TMC3    O1 5292   3.845   3.865  11.708 -0.7627 -0.2471  0.1132
  349TMC3    O2 5293   4.031   3.523  11.946  0.2576 -0.4366  0.7018
  350MPD2     C 5294   2.646   2.384  10.271 -0.8534  0.2389  0.5912
  350MPD2    C1 5295   2.680   2.265  10.204  0.1540  0.0153 -0.1739
  350MPD2    C2 5296   2.816   2.245  10.182  0.0642 -0.3948  0.4893
  350MPD2    C3 5297   2.910   2.339  10.217 -1.0398 -0.6231 -0.3804
  350MPD2    C4 5298   2.871   2.461  10.280  0.9542  0.5996 -0.2799
  350MPD2    C5 5299   2.737   2.482  10.297 -0.0948  0.4267 -0.3932
  350MPD2     H 5300   2.851   2.155  10.132  1.8149 -0.4044  1.6944
  350MPD2    H1 5301   2.939   2.540  10.309 -2.0372  2.8464  0.5720
  350MPD2    H2 5302   2.541   2.407  10.283 -1.1070 -0.2836 -0.5891
  350MPD2    H3 5303   2.695   2.575  10.332 -0.6848 -0.0237  0.0995
  350MPD2     N 5304   3.047   2.298  10.189  0.6731  0.2131 -0.5946
  350MPD2    H5 5305   3.056   2.204  10.150 -0.5393  0.1152 -0.6417
  350MPD2    N1 5306   2.592   2.163  10.154 -0.0440  0.0909 -0.0318
  350MPD2    H7 5307   2.625   2.080  10.106 -0.3067  0.8389 -1.5232
  351TMC3    C1 5308   2.404   2.053  10.092 -0.5142  0.5001 -0.5343
  351TMC3    C2 5309   2.470   2.012   9.973 -0.1464  0.1819  0.1619
  351TMC3    C3 5310   2.416   1.903   9.915  0.2384  0.5976  0.9214
  351TMC3    C4 5311   2.284   1.997  10.138 -0.0694 -0.6144 -0.0661
  351TMC3    C5 5312   2.249   1.873  10.085 -0.1585  0.1506 -1.0977
  351TMC3    C6 5313   2.315   1.827   9.970  0.2231 -0.1127  0.1412
  351TMC3     C 5314   2.452   2.166  10.170  0.2382  0.2406 -0.5051
  351TMC3     O 5315   2.387   2.216  10.262  0.0046 -0.0516  0.6211
  351TMC3     H 5316   2.541   2.078   9.925 -1.2994  0.0796 -1.6684
  351TMC3    H1 5317   2.238   2.033  10.229  0.2407  1.4680 -0.7289
  351TMC3    H2 5318   2.292   1.728   9.932  1.1646 -0.1301 -0.3676
  351TMC3    C7 5319   2.127   1.815  10.137  0.1798  0.2072 -0.1947
  351TMC3    C8 5320   2.486   1.861   9.790  0.0172 -0.0660  0.2561
  351TMC3    O1 5321   2.100   1.852  10.251 -0.1378  0.0215 -0.6854
  351TMC3    O2 5322   2.600   1.903   9.781 -0.0181 -0.3741  0.2459
  352MPD2     C 5323   1.144   4.480   1.487  0.3432  0.3864  0.3960
  352MPD2    C1 5324   1.053   4.409   1.410  0.6520  0.1743  0.6850
  352MPD2    C2 5325   1.067   4.265   1.396 -0.6459  0.2729 -0.2376
  352MPD2    C3 5326   1.173   4.200   1.456 -0.3852 -0.2423 -0.2257
  352MPD2    C4 5327   1.262   4.274   1.526 -0.6318  0.6737  0.4048
  352MPD2    C5 5328   1.245   4.409   1.549  0.2017 -0.2607  0.3560
  352MPD2     H 5329   0.994   4.204   1.344  0.6020  0.4541 -2.1566
  352MPD2    H1 5330   1.349   4.233   1.576 -0.5787 -0.1931 -0.3867
  352MPD2    H2 5331   1.124   4.583   1.513 -0.6135  0.5515 -1.0208
  352MPD2    H3 5332   1.317   4.466   1.606  2.3249 -0.2591 -2.3157
  352MPD2     N 5333   1.200   4.063   1.449 -0.0145 -0.2139  0.2678
  352MPD2    H5 5334   1.283   4.037   1.502  1.8652  1.9621 -1.6248
  352MPD2    N1 5335   0.950   4.484   1.350 -0.2688 -0.3387  0.6871
  352MPD2    H7 5336   0.944   4.582   1.373  1.5333 -0.0309 -0.1810
  353TMC3    C1 5337   1.158   3.825   1.419 -0.1956  0.4119 -0.0571
  353TMC3    C2 5338   1.268   3.795   1.493  0.1997 -0.0858  0.2566
  353TMC3    C3 5339   1.315   3.668   1.479 -0.2139  0.4862 -0.8163
  353TMC3    C4 5340   1.093   3.734   1.344  0.0020 -0.2589 -0.2279
  353TMC3    C5 5341   1.138   3.605   1.338  0.7641  0.2129 -0.0318
  353TMC3    C6 5342   1.259   3.574   1.393  0.9455 -0.0127  0.0120
  353TMC3     C 5343   1.113   3.963   1.402  0.0731  0.4518  0.2406
  353TMC3     O 5344   1.006   3.974   1.340  0.2037  0.0596 -0.1423
  353TMC3     H 5345   1.316   3.871   1.553 -3.4009  1.6201  1.0041
  353TMC3    H1 5346   1.024   3.770   1.269 -1.5700 -1.9963  0.3673
  353TMC3    H2 5347   1.301   3.474   1.386 -1.1371 -0.7269 -1.9148
  353TMC3    C7 5348   1.069   3.515   1.249 -0.2065 -0.2662 -0.4617
  353TMC3    C8 5349   1.445   3.646   1.546  0.5994  0.1350 -0.7236
  353TMC3    O1 5350   1.147   3.439   1.195  0.9142  0.4236 -0.6263
  353TMC3    O2 5351   1.469   3.725   1.638 -0.5210 -0.0501 -0.0033
  354TMC3    C1 5352   3.137   0.270  13.263 -0.0857 -0.6470 -0.0086
  354TMC3    C2 5353   3.212   0.378  13.296 -0.1553 -0.0283 -0.3898
  354TMC3    C3 5354   3.281   0.453  13.198  0.2660 -0.5440  0.3180
  354TMC3    C4 5355   3.127   0.233  13.131  0.0684 -0.5572  0.1114
  354TMC3    C5 5356   3.197   0.304  13.036 -0.0548  0.4346  0.3124
  354TMC3    C6 5357   3.279   0.411  13.069  0.1976  0.1251 -0.0427
  354TMC3     C 5358   3.052   0.209  13.371  0.4279 -0.2814  0.5563
  354TMC3     O 5359   3.085   0.231  13.486  0.0245  0.1135  0.4574
  354TMC3     H 5360   3.210   0.412  13.399 -0.0878  2.7740 -1.3120
  354TMC3    H1 5361   3.090   0.134  13.110 -2.6551  0.4744  0.0946
  354TMC3    H2 5362   3.323   0.473  12.991 -1.7572  0.6584 -0.7090
  354TMC3    C7 5363   3.190   0.260  12.899 -0.2019 -0.3739 -0.4650
  354TMC3    C8 5364   3.330   0.590  13.242 -0.4196  0.6968  0.4152
  354TMC3    O1 5365   3.082   0.216  12.864  0.1822  0.3396  0.4669
  354TMC3    O2 5366   3.329   0.594  13.364 -0.0752 -0.0282  0.7821
  355MPD2     C 5367   2.915   1.479  11.664 -0.2215 -0.7335 -0.7109
  355MPD2    C1 5368   3.011   1.494  11.564 -0.9039 -0.3115 -0.2073
  355MPD2    C2 5369   3.141   1.534  11.597 -0.3386 -0.2965  0.1768
  355MPD2    C3 5370   3.170   1.571  11.729 -0.4291 -0.1294 -0.4443
  355MPD2    C4 5371   3.069   1.566  11.823 -0.1763 -0.1438 -1.5371
  355MPD2    C5 5372   2.944   1.504  11.793  0.3981 -0.1845  0.4120
  355MPD2     H 5373   3.211   1.536  11.514 -2.4442  2.1868 -1.5246
  355MPD2    H1 5374   3.088   1.592  11.927 -2.1448 -0.4469 -1.1032
  355MPD2    H2 5375   2.815   1.444  11.642 -0.6887  0.7498 -0.9493
  355MPD2    H3 5376   2.865   1.479  11.862  1.2164 -0.1602  1.3601
  355MPD2     N 5377   3.299   1.630  11.764 -0.5085 -0.5957 -0.0819
  355MPD2    H5 5378   3.310   1.679  11.852 -0.6110 -1.2483  0.2946
  355MPD2    N1 5379   2.950   1.468  11.433 -0.1990  0.4079  0.1860
  355MPD2    H7 5380   2.857   1.428  11.434  0.4965 -1.2566 -0.2009
  356TMC3    C1 5381   3.503   1.725  11.716  0.4379 -0.1732 -0.4467
  356TMC3    C2 5382   3.573   1.786  11.611  0.0120  0.0028  0.5658
  356TMC3    C3 5383   3.670   1.876  11.650 -0.5318  0.0178 -0.1664
  356TMC3    C4 5384   3.505   1.779  11.843 -0.3804  1.0889  0.6245
  356TMC3    C5 5385   3.603   1.873  11.873  0.3115 -0.0544 -0.0639
  356TMC3    C6 5386   3.692   1.920  11.778  0.1325 -0.8697  0.0941
  356TMC3     C 5387   3.391   1.650  11.665  0.8645 -0.2605 -0.2919
  356TMC3     O 5388   3.407   1.597  11.557  0.0489  0.3154 -0.0726
  356TMC3     H 5389   3.553   1.756  11.509 -1.8237  1.3977  0.5205
  356TMC3    H1 5390   3.460   1.729  11.928 -0.7462  0.3630  0.0053
  356TMC3    H2 5391   3.781   1.973  11.807 -0.2061 -0.8715  1.1223
  356TMC3    C7 5392   3.636   1.895  12.015 -0.0879 -0.0366  0.2680
  356TMC3    C8 5393   3.729   1.943  11.539  0.0148 -0.0304  0.2976
  356TMC3    O1 5394   3.556   1.845  12.094  0.3699  0.5779  0.0653
  356TMC3    O2 5395   3.695   1.904  11.426  0.5382 -0.3457  0.2129
  357MPD2     C 5396   3.056   1.281   1.233 -0.2752 -0.7266  0.4816
  357MPD2    C1 5397   3.108   1.174   1.307  0.1475 -0.2312 -0.4051
  357MPD2    C2 5398   3.126   1.191   1.447 -0.3514 -0.7299  0.2956
  357MPD2    C3 5399   3.084   1.307   1.506 -0.3181 -0.1358  0.2703
  357MPD2    C4 5400   3.018   1.404   1.426 -0.6671 -0.0409 -0.2931
  357MPD2    C5 5401   3.009   1.387   1.295  0.3997 -0.2521  0.6033
  357MPD2     H 5402   3.181   1.121   1.508  1.1123  0.2092  0.0617
  357MPD2    H1 5403   2.970   1.494   1.463 -1.4633 -0.0785 -1.2446
  357MPD2    H2 5404   3.057   1.280   1.125 -0.1897  4.0604  0.4562
  357MPD2    H3 5405   2.963   1.470   1.243 -0.9603 -0.1260  2.0142
  357MPD2     N 5406   3.078   1.324   1.648  0.1378  0.1928  0.2784
  357MPD2    H5 5407   3.027   1.407   1.679  0.7399  1.1200 -1.2205
  357MPD2    N1 5408   3.147   1.059   1.228 -0.3628 -0.6282  0.2162
  357MPD2    H7 5409   3.120   1.056   1.130 -0.7862  0.1038  0.3104
  358TMC3    C1 5410   3.205   0.831   1.200  0.0285 -0.1998 -0.0062
  358TMC3    C2 5411   3.093   0.814   1.122  0.1669  0.0058  0.4545
  358TMC3    C3 5412   3.062   0.686   1.084  0.4092  0.1153 -0.5243
  358TMC3    C4 5413   3.285   0.730   1.233 -0.7451 -0.2326  0.3704
  358TMC3    C5 5414   3.254   0.603   1.190  0.2683 -0.3512  0.0349
  358TMC3    C6 5415   3.140   0.578   1.119  0.5762 -0.0143 -1.1555
  358TMC3     C 5416   3.215   0.956   1.280 -0.5559 -0.3602  0.9473
  358TMC3     O 5417   3.271   0.951   1.388 -0.2532  0.0290 -0.1121
  358TMC3     H 5418   3.020   0.890   1.097 -1.2498 -1.4348  0.2510
  358TMC3    H1 5419   3.377   0.742   1.290 -0.7524 -0.3034  0.3963
  358TMC3    H2 5420   3.110   0.481   1.081 -0.1614 -0.4685  0.5882
  358TMC3    C7 5421   3.324   0.489   1.244  0.3669  0.6860  0.1373
  358TMC3    C8 5422   2.945   0.674   1.008  0.5021  0.2659  0.0464
  358TMC3    O1 5423   3.312   0.382   1.187  0.0147  0.3605  0.2709
  358TMC3    O2 5424   2.917   0.761   0.926 -0.2942  0.4856 -0.1231
  359MPD2     C 5425   3.926   4.424  12.673  0.0316  0.2032  0.0839
  359MPD2    C1 5426   3.865   4.450  12.555 -0.0958  0.0275 -0.1102
  359MPD2    C2 5427   3.740   4.394  12.528 -0.2398  0.2008 -0.1475
  359MPD2    C3 5428   3.678   4.323  12.626  0.6923 -0.3751 -0.8104
  359MPD2    C4 5429   3.740   4.304  12.747 -0.2821 -0.4538 -0.3245
  359MPD2    C5 5430   3.855   4.367  12.776  0.3878  0.2339 -0.1604
  359MPD2     H 5431   3.712   4.407  12.425 -1.4488 -0.8461  0.0422
  359MPD2    H1 5432   3.690   4.246  12.824  0.1005  1.1676  1.1611
  359MPD2    H2 5433   4.022   4.469  12.695 -0.5201  1.8339 -0.8954
  359MPD2    H3 5434   3.896   4.356  12.876 -0.5046  0.0821  0.1892
  359MPD2     N 5435   3.547   4.267  12.628  0.1822 -0.4662  0.0436
  359MPD2    H5 5436   3.516   4.215  12.709 -0.8499  2.5138  1.5513
  359MPD2    N1 5437   3.928   4.525  12.462  0.5301 -0.1852  0.0168
  359MPD2    H7 5438   3.885   4.570  12.382  1.2486  0.3259 -0.0842
  360TMC3    C1 5439   4.121   4.652  12.376 -0.0604  0.5078  0.1444
  360TMC3    C2 5440   4.233   4.713  12.432 -0.6127 -0.0107 -0.1209
  360TMC3    C3 5441   4.257   0.111  12.398 -0.5908  0.9859 -0.0804
  360TMC3    C4 5442   4.032   4.722  12.298 -0.2097  0.6471 -0.2711
  360TMC3    C5 5443   4.063   0.117  12.263  1.0013 -0.2764 -0.0052
  360TMC3    C6 5444   4.174   0.178  12.316  0.2364  0.2723  0.2000
  360TMC3     C 5445   4.068   4.541  12.453  0.4590 -0.6278  0.4899
  360TMC3     O 5446   4.155   4.472  12.501 -0.4082 -0.0834  0.2869
  360TMC3     H 5447   4.276   4.664  12.518  1.0489 -2.5939 -2.4121
  360TMC3    H1 5448   3.956   4.668  12.243  1.1589 -0.5017 -1.0511
  360TMC3    H2 5449   4.193   0.283  12.299 -0.3390  0.6964  2.1733
  360TMC3    C7 5450   4.010   0.169  12.139 -0.3582 -0.3471 -0.4805
  360TMC3    C8 5451   4.394   0.154  12.387  0.0266  0.2346 -0.2255
  360TMC3    O1 5452   4.082   0.263  12.097 -0.1683 -0.4317 -0.2276
  360TMC3    O2 5453   4.412   0.274  12.371 -0.3846 -0.1929  0.2213
  361MPD2     C 5454   0.752   4.097  16.452 -1.3689 -0.3785  0.2452
  361MPD2    C1 5455   0.659   4.091  16.558  0.3662  0.1738 -0.3782
  361MPD2    C2 5456   0.678   4.007  16.662 -0.2101 -0.7919  0.1564
  361MPD2    C3 5457   0.783   3.923  16.670  0.3112 -0.5308 -0.2001
  361MPD2    C4 5458   0.880   3.927  16.567 -0.3121  0.2363 -0.5730
  361MPD2    C5 5459   0.861   4.015  16.462  0.1288 -0.1130 -0.6979
  361MPD2     H 5460   0.600   4.011  16.737 -0.6807 -0.7568 -0.3355
  361MPD2    H1 5461   0.966   3.860  16.572  0.0099  0.6786 -0.2069
  361MPD2    H2 5462   0.751   4.160  16.364 -0.0789  0.4147  0.8119
  361MPD2    H3 5463   0.931   4.016  16.379  0.8528 -0.2200 -0.0940
  361MPD2     N 5464   0.800   3.825  16.763  0.1402  0.6105 -0.7815
  361MPD2    H5 5465   0.863   3.749  16.737 -1.1912 -1.1258  1.0370
  361MPD2    N1 5466   0.549   4.184  16.555  0.8588  0.5412 -0.5169
  361MPD2    H7 5467   0.473   4.178  16.621 -0.1288 -2.1475 -1.9205
  362TMC3    C1 5468   0.421   4.369  16.496 -0.5096  0.4305 -0.2856
  362TMC3    C2 5469   0.401   4.374  16.631  0.7548 -0.5225 -0.4757
  362TMC3    C3 5470   0.271   4.401  16.673 -0.1719  0.6019  0.2782
  362TMC3    C4 5471   0.321   4.400  16.407 -0.2100 -0.2330 -0.2772
  362TMC3    C5 5472   0.196   4.436  16.454 -0.6293 -0.4069 -0.5474
  362TMC3    C6 5473   0.171   4.439  16.587 -0.1924 -0.0757 -0.4949
  362TMC3     C 5474   0.519   4.267  16.454 -0.2263 -0.5352  0.0301
  362TMC3     O 5475   0.550   4.260  16.336 -0.1529 -0.5413 -0.3213
  362TMC3     H 5476   0.477   4.358  16.706  2.1407  1.8455 -1.3959
  362TMC3    H1 5477   0.348   4.389  16.302  1.2673  1.9813 -0.1161
  362TMC3    H2 5478   0.069   4.459  16.619  0.7221  1.5958  1.3631
  362TMC3    C7 5479   0.098   4.504  16.374 -0.1830  0.3338 -0.3400
  362TMC3    C8 5480   0.261   4.454  16.808 -0.8083  0.1130 -0.1299
  362TMC3    O1 5481   0.029   4.584  16.432  0.1078 -0.3141 -0.1592
  362TMC3    O2 5482   0.361   4.486  16.870 -0.3507 -0.3985 -0.4573
  363TMC3    C1 5483   3.777   1.506   9.621  0.1380 -0.7195  0.2973
  363TMC3    C2 5484   3.848   1.417   9.708  0.0352 -0.7501 -0.2788
  363TMC3    C3 5485   3.901   1.464   9.821 -0.3248 -0.3477 -0.7628
  363TMC3    C4 5486   3.754   1.635   9.649 -0.4040  0.4279 -0.0878
  363TMC3    C5 5487   3.806   1.676   9.770 -0.2871  0.0033  0.6141
  363TMC3    C6 5488   3.887   1.598   9.847  0.7224 -0.2968  0.0750
  363TMC3     C 5489   3.740   1.446   9.493 -0.3410  0.1414 -0.6738
  363TMC3     O 5490   3.788   1.336   9.460 -0.6197  0.1260  0.2039
  363TMC3     H 5491   3.867   1.318   9.670 -1.9573 -2.1035  2.2507
  363TMC3    H1 5492   3.679   1.698   9.603 -0.7380 -1.2820 -1.9092
  363TMC3    H2 5493   3.932   1.632   9.939  1.6288  1.7005 -1.1027
  363TMC3    C7 5494   3.760   1.804   9.827 -0.4346 -0.0472  0.3140
  363TMC3    C8 5495   3.996   1.377   9.887 -0.1853  0.3150  0.3929
  363TMC3    O1 5496   3.704   1.873   9.747 -0.5622  0.1937 -0.0940
  363TMC3    O2 5497   4.091   1.442   9.928  0.0245 -0.0249  0.1022
  364MPD2     C 5498   2.498   0.845  10.721 -0.3680  0.3297  0.0177
  364MPD2    C1 5499   2.611   0.884  10.656  0.4601  0.1194  0.2258
  364MPD2    C2 5500   2.706   0.781  10.649  0.0616  0.3327  0.6104
  364MPD2    C3 5501   2.687   0.653  10.704 -0.1000  0.6417  0.4788
  364MPD2    C4 5502   2.570   0.627  10.774 -0.0141 -0.0596 -0.2582
  364MPD2    C5 5503   2.474   0.727  10.786 -0.0203  0.4539  0.3003
  364MPD2     H 5504   2.804   0.801  10.608 -0.4864 -2.5828 -2.1662
  364MPD2    H1 5505   2.566   0.528  10.817 -2.4602 -0.6578 -1.8710
  364MPD2    H2 5506   2.421   0.921  10.719 -0.2820  0.4283  0.7477
  364MPD2    H3 5507   2.384   0.698  10.840  0.4769 -0.5310  0.6030
  364MPD2     N 5508   2.779   0.546  10.692  0.1514 -0.2976  0.3657
  364MPD2    H5 5509   2.758   0.476  10.762 -2.3693  0.4093  0.3451
  364MPD2    N1 5510   2.631   1.010  10.599 -0.3234  0.5189  0.4949
  364MPD2    H7 5511   2.560   1.077  10.627  0.3332  1.9196 -1.2233
  365TMC3    C1 5512   2.722   1.201  10.487 -0.1131  0.1219 -0.8006
  365TMC3    C2 5513   2.776   1.240  10.368  0.4668  0.3184  0.4182
  365TMC3    C3 5514   2.765   1.377  10.348 -0.1059 -0.4793 -0.3975
  365TMC3    C4 5515   2.653   1.285  10.566  0.6624  0.0691 -0.0853
  365TMC3    C5 5516   2.641   1.417  10.529 -0.3936 -0.5192  0.8066
  365TMC3    C6 5517   2.699   1.465  10.421  0.5012 -0.9671  0.4516
  365TMC3     C 5518   2.731   1.059  10.525  0.5588  0.5121  0.0146
  365TMC3     O 5519   2.828   1.001  10.476  0.0746 -0.4259  0.4011
  365TMC3     H 5520   2.839   1.179  10.305 -0.1401  0.9895 -0.8593
  365TMC3    H1 5521   2.630   1.253  10.667 -1.3954 -1.5913 -1.1077
  365TMC3    H2 5522   2.700   1.571  10.396  1.4860 -0.8690  0.9084
  365TMC3    C7 5523   2.584   1.513  10.624 -0.5048  0.7093 -0.8393
  365TMC3    C8 5524   2.855   1.438  10.252 -0.4792  0.5733  0.2300
  365TMC3    O1 5525   2.608   1.629  10.599 -0.3855 -0.0094  0.0141
  365TMC3    O2 5526   2.939   1.514  10.297 -0.3825 -0.0217 -0.4686
  366MPD2     C 5527   0.953   1.798  15.268  0.2216  0.3030  0.4583
  366MPD2    C1 5528   0.949   1.927  15.223 -0.1190 -0.1033 -0.0239
  366MPD2    C2 5529   1.038   1.970  15.131 -0.2020  0.6896  0.3700
  366MPD2    C3 5530   1.159   1.910  15.130  0.4706  0.0092 -0.3948
  366MPD2    C4 5531   1.176   1.784  15.184 -0.1968  0.1060  0.1836
  366MPD2    C5 5532   1.069   1.725  15.245  0.1774  0.6714  1.1313
  366MPD2     H 5533   1.034   2.066  15.081 -0.6602  1.4437  1.8590
  366MPD2    H1 5534   1.270   1.733  15.169 -1.0823 -1.5509  0.2418
  366MPD2    H2 5535   0.876   1.749  15.326 -1.3384  1.8829 -0.3002
  366MPD2    H3 5536   1.076   1.626  15.288 -0.5824  1.1886  2.4432
  366MPD2     N 5537   1.269   1.990  15.097 -0.5282 -0.1735 -0.3711
  366MPD2    H5 5538   1.252   2.082  15.058  0.5275  0.5584  0.9249
  366MPD2    N1 5539   0.844   2.013  15.262 -0.3331 -0.6434 -0.0876
  366MPD2    H7 5540   0.834   2.102  15.214  1.9358 -0.1016  0.4146
  367TMC3    C1 5541   0.748   2.148  15.418 -0.3096 -0.0664  0.4186
  367TMC3    C2 5542   0.854   2.215  15.463 -0.6970  0.2390 -0.8245
  367TMC3    C3 5543   0.880   2.339  15.423  0.1804  0.2719  0.1540
  367TMC3    C4 5544   0.659   2.212  15.333  0.3801  0.2451 -0.7021
  367TMC3    C5 5545   0.682   2.343  15.299 -0.2018 -0.0181 -0.4114
  367TMC3    C6 5546   0.795   2.406  15.342  0.8413 -0.6935 -0.7059
  367TMC3     C 5547   0.790   2.013  15.389  0.7609  0.1138  0.0630
  367TMC3     O 5548   0.811   1.938  15.484  0.4089  0.2308  0.4061
  367TMC3     H 5549   0.919   2.162  15.533 -1.4877 -1.8005 -1.6178
  367TMC3    H1 5550   0.590   2.143  15.286  0.0009  0.2040 -0.0838
  367TMC3    H2 5551   0.818   2.504  15.302  2.7229 -0.9994 -0.3890
  367TMC3    C7 5552   0.559   2.422  15.285  0.6023 -0.9821 -0.2772
  367TMC3    C8 5553   1.001   2.403  15.475  0.7495 -0.2956  0.0214
  367TMC3    O1 5554   0.573   2.544  15.273  0.1226  0.0266 -0.1105
  367TMC3    O2 5555   1.089   2.328  15.518  0.1624 -0.5597 -0.6621
  368MPD2     C 5556   1.621   3.867  13.062 -0.1808  0.3352 -0.7901
  368MPD2    C1 5557   1.639   3.966  12.969  0.2048  0.3013  0.7751
  368MPD2    C2 5558   1.765   3.990  12.910  0.0489  1.0831 -0.0720
  368MPD2    C3 5559   1.878   3.935  12.970 -0.3902  0.7653 -0.2154
  368MPD2    C4 5560   1.861   3.845  13.073  0.0281  0.4345  0.0717
  368MPD2    C5 5561   1.736   3.805  13.113  0.2148 -0.1928 -0.7056
  368MPD2     H 5562   1.777   4.050  12.821  0.3447  1.9448  0.5429
  368MPD2    H1 5563   1.952   3.804  13.116 -1.4557 -2.0319  0.8426
  368MPD2    H2 5564   1.528   3.841  13.112 -0.9218  1.3837 -1.6361
  368MPD2    H3 5565   1.730   3.728  13.190  1.1556  0.7917  0.3448
  368MPD2     N 5566   2.011   3.963  12.924 -0.2848 -0.2489 -0.2135
  368MPD2    H5 5567   2.087   3.930  12.983 -0.6008  3.3035  2.1818
  368MPD2    N1 5568   1.525   4.020  12.910 -0.3483 -0.1717  0.5319
  368MPD2    H7 5569   1.434   3.994  12.947 -1.2269  1.5814 -0.3830
  369TMC3    C1 5570   1.390   4.190  12.805 -0.3543 -0.3762  0.1914
  369TMC3    C2 5571   1.383   4.264  12.693 -0.0521  0.6601 -0.4657
  369TMC3    C3 5572   1.315   4.378  12.683 -0.6932  0.0293 -0.4193
  369TMC3    C4 5573   1.333   4.238  12.920 -1.4536  0.2378 -0.0253
  369TMC3    C5 5574   1.263   4.350  12.915  0.1952  0.1208  0.3831
  369TMC3    C6 5575   1.259   4.424  12.799  0.5437  0.4772 -0.4432
  369TMC3     C 5576   1.523   4.132  12.828  0.1109  0.7406  0.5171
  369TMC3     O 5577   1.611   4.187  12.768 -0.5753  0.2441  0.2049
  369TMC3     H 5578   1.445   4.223  12.613 -1.1137  1.3977 -1.6654
  369TMC3    H1 5579   1.347   4.183  13.013 -2.4018  1.8771  1.0845
  369TMC3    H2 5580   1.220   4.525  12.799  0.9357  0.6355 -1.7108
  369TMC3    C7 5581   1.198   4.386  13.037 -0.4409  0.4757 -0.0792
  369TMC3    C8 5582   1.393   4.476  12.599 -0.3444  0.0317  0.1895
  369TMC3    O1 5583   1.230   4.328  13.144  0.3633 -0.0352 -0.4333
  369TMC3    O2 5584   1.419   4.577  12.653  0.0591  0.4797 -0.0529
  370TMC3    C1 5585   1.611   0.057  16.367  0.5080  0.0985  0.5139
  370TMC3    C2 5586   1.524   4.723  16.439  0.0155 -0.5896  1.0473
  370TMC3    C3 5587   1.483   4.599  16.396  0.0491  0.7322 -0.3191
  370TMC3    C4 5588   1.644   0.017  16.234 -0.5571 -0.4390 -0.1815
  370TMC3    C5 5589   1.596   4.626  16.193 -0.0657 -0.3229 -0.1545
  370TMC3    C6 5590   1.520   4.544  16.275  0.1159  1.0910  0.0646
  370TMC3     C 5591   1.718   0.141  16.432  0.7396 -0.3458 -0.5460
  370TMC3     O 5592   1.715   0.133  16.557  0.1232  0.9694  0.5252
  370TMC3     H 5593   1.516   0.016  16.544 -0.4481  0.0945  0.8319
  370TMC3    H1 5594   1.729   0.067  16.187 -1.1010  0.6867  0.0232
  370TMC3    H2 5595   1.478   4.449  16.242 -0.9169  1.4709  0.2735
  370TMC3    C7 5596   1.648   4.576  16.064 -0.6560 -0.0373  0.4551
  370TMC3    C8 5597   1.456   4.501  16.502  0.0622 -0.0380 -0.4496
  370TMC3    O1 5598   1.699   4.658  15.986 -0.1104 -0.1197  0.7836
  370TMC3    O2 5599   1.461   4.384  16.466 -0.0968 -0.1239 -0.1165
  371TMC3    C1 5600   3.109   3.234  15.802  0.1401 -0.5284 -0.0962
  371TMC3    C2 5601   3.039   3.221  15.917 -1.2654 -0.0015  0.5088
  371TMC3    C3 5602   3.000   3.336  15.982 -0.0339  0.3900 -0.1737
  371TMC3    C4 5603   3.151   3.359  15.759  0.3613 -0.1194  0.2694
  371TMC3    C5 5604   3.105   3.470  15.832 -0.1735 -0.3411 -0.1572
  371TMC3    C6 5605   3.016   3.457  15.932  0.8467 -0.0974 -0.6949
  371TMC3     C 5606   3.170   3.112  15.740 -0.1390 -0.3688 -0.1956
  371TMC3     O 5607   3.264   3.137  15.666  0.2785  0.7973 -0.2130
  371TMC3     H 5608   3.017   3.124  15.959 -1.5107 -0.4509 -0.6430
  371TMC3    H1 5609   3.193   3.362  15.660 -1.7928  2.2483 -0.5558
  371TMC3    H2 5610   2.996   3.550  15.984  1.6476  0.1411 -0.8162
  371TMC3    C7 5611   3.089   3.588  15.745  0.3526 -0.7786 -0.2040
  371TMC3    C8 5612   2.896   3.314  16.075  0.6335  0.6021 -0.0445
  371TMC3    O1 5613   2.989   3.654  15.770 -0.5935  0.2972  0.2621
  371TMC3    O2 5614   2.887   3.206  16.128  0.2303  0.1696 -0.4680
  372MPD2     C 5615   2.731   4.148  13.123 -0.3076  0.4304  0.2423
  372MPD2    C1 5616   2.798   4.071  13.209 -0.0362  0.0144  0.2411
  372MPD2    C2 5617   2.731   4.006  13.310  1.0603 -0.4875 -0.8507
  372MPD2    C3 5618   2.592   4.003  13.314 -0.7483 -0.0335 -0.4789
  372MPD2    C4 5619   2.525   4.082  13.216 -0.2232  0.4438  0.2494
  372MPD2    C5 5620   2.597   4.152  13.124  0.1957 -0.2733 -0.1448
  372MPD2     H 5621   2.794   3.952  13.380 -0.4745 -0.1982  0.7751
  372MPD2    H1 5622   2.418   4.086  13.197 -0.1496  0.5882 -0.1365
  372MPD2    H2 5623   2.779   4.201  13.041 -1.7444  1.0172 -0.2230
  372MPD2    H3 5624   2.554   4.198  13.036 -0.3013 -0.7209 -0.1335
  372MPD2     N 5625   2.523   3.927  13.406  0.0044  0.0678 -0.2505
  372MPD2    H5 5626   2.575   3.871  13.473  0.0836  1.6382  1.0103
  372MPD2    N1 5627   2.939   4.068  13.210  0.5090  0.2559 -0.8978
  372MPD2    H7 5628   2.987   4.013  13.281 -0.2281  0.3797 -0.3005
  373TMC3    C1 5629   2.348   3.838  13.541  0.1415  0.2780 -0.5158
  373TMC3    C2 5630   2.236   3.868  13.610  0.1069  0.3922  0.0604
  373TMC3    C3 5631   2.182   3.774  13.695  0.1202 -0.5317  0.6325
  373TMC3    C4 5632   2.409   3.715  13.556 -0.1301  0.2993  0.1378
  373TMC3    C5 5633   2.348   3.622  13.637  0.3985  0.6211  0.0798
  373TMC3    C6 5634   2.227   3.643  13.690  0.2864  0.9934  0.8371
  373TMC3     C 5635   2.391   3.929  13.433 -0.5473 -0.1284  0.1900
  373TMC3     O 5636   2.311   4.022  13.400  0.1242  0.4826 -0.5537
  373TMC3     H 5637   2.193   3.967  13.601  0.1739  0.4309  0.1705
  373TMC3    H1 5638   2.500   3.700  13.498  0.8374  1.1307  1.4181
  373TMC3    H2 5639   2.174   3.566  13.745  1.0544  0.1650  0.4078
  373TMC3    C7 5640   2.419   3.502  13.667 -0.3896 -0.0667 -0.0512
  373TMC3    C8 5641   2.054   3.808  13.755  0.4227  0.1645 -0.4235
  373TMC3    O1 5642   2.529   3.491  13.621 -0.1222  0.4780  0.2012
  373TMC3    O2 5643   1.981   3.865  13.678 -0.0174 -0.3536 -0.0199
  374TMC3    C1 5644   3.075   4.219  10.383  0.4026  0.2779 -0.5178
  374TMC3    C2 5645   3.184   4.267  10.328 -0.8508  0.0330  0.1219
  374TMC3    C3 5646   3.163   4.350  10.218 -0.7452  0.3677  0.4154
  374TMC3    C4 5647   2.949   4.242  10.329  0.2691  0.2755  0.1405
  374TMC3    C5 5648   2.938   4.318  10.213 -0.4487  0.6371  0.0665
  374TMC3    C6 5649   3.049   4.382  10.158 -0.1060 -0.2538  0.1620
  374TMC3     C 5650   3.086   4.152  10.515 -0.5200  0.7830 -0.4692
  374TMC3     O 5651   3.197   4.158  10.566  0.2878 -0.2739 -0.0300
  374TMC3     H 5652   3.278   4.260  10.381 -1.3092 -0.6658  0.8434
  374TMC3    H1 5653   2.857   4.218  10.381  0.8034 -2.4044 -0.1079
  374TMC3    H2 5654   3.051   4.454  10.076  0.1074 -0.5754 -0.1174
  374TMC3    C7 5655   2.815   4.357  10.163 -0.4185  0.0104  0.3684
  374TMC3    C8 5656   3.280   4.423  10.175 -0.2145 -0.3207 -0.3438
  374TMC3    O1 5657   2.798   4.464  10.104 -0.3691 -0.6320  0.5578
  374TMC3    O2 5658   3.291   4.456  10.054 -0.1716 -0.4899  0.2580
  375MPD2     C 5659   2.825   1.147  17.085  0.1972 -0.7779  0.1898
  375MPD2    C1 5660   2.759   1.027  17.065  0.0118  0.2799 -0.3415
  375MPD2    C2 5661   2.805   0.943  16.964 -0.2951 -0.9328  0.0219
  375MPD2    C3 5662   2.916   0.971  16.887 -0.0176 -0.0209  0.3914
  375MPD2    C4 5663   2.985   1.083  16.919 -0.5450 -0.1450  0.5554
  375MPD2    C5 5664   2.943   1.171  17.018 -0.8402 -0.3463 -0.7601
  375MPD2     H 5665   2.743   0.857  16.942  1.1982 -1.7843 -0.7959
  375MPD2    H1 5666   3.086   1.095  16.881 -0.3627 -0.6444  0.8777
  375MPD2    H2 5667   2.793   1.218  17.160  0.7565  1.6816 -1.8884
  375MPD2    H3 5668   3.001   1.257  17.048 -2.3099  0.5496 -0.5195
  375MPD2     N 5669   2.961   0.882  16.785  0.5638  0.1237  0.0889
  375MPD2    H5 5670   3.044   0.914  16.735 -1.5284  0.8016 -3.0064
  375MPD2    N1 5671   2.653   0.972  17.138 -0.1648  0.3265 -0.1359
  375MPD2    H7 5672   2.628   0.877  17.112  0.4828  0.5975 -1.7752
  376TMC3    C1 5673   2.965   0.695  16.632  0.4199  0.2006 -0.2344
  376TMC3    C2 5674   3.099   0.697  16.612  0.1181 -0.6471 -0.2504
  376TMC3    C3 5675   3.149   0.587  16.561 -0.7441 -0.2194  0.0073
  376TMC3    C4 5676   2.886   0.589  16.596 -0.0720 -0.1060  0.3865
  376TMC3    C5 5677   2.943   0.477  16.538 -0.5320  0.3904  0.2370
  376TMC3    C6 5678   3.078   0.476  16.521  0.1023  0.0209 -0.4314
  376TMC3     C 5679   2.903   0.755  16.751 -0.3471 -0.2744 -0.2498
  376TMC3     O 5680   2.818   0.689  16.800 -0.2159  0.4116  0.3292
  376TMC3     H 5681   3.172   0.756  16.667 -2.7413  2.4685  0.2037
  376TMC3    H1 5682   2.778   0.595  16.601 -0.0334 -0.3780  1.3785
  376TMC3    H2 5683   3.117   0.385  16.476  1.1355  0.3713 -0.2438
  376TMC3    C7 5684   2.861   0.375  16.481  0.1946 -0.3184  0.0836
  376TMC3    C8 5685   3.289   0.571  16.584  0.3751  0.4664  0.4872
  376TMC3    O1 5686   2.760   0.337  16.540 -0.4627  0.3802 -0.4808
  376TMC3    O2 5687   3.354   0.666  16.540  0.2710 -0.0468  0.3049
  377MPD2     C 5688   0.906   0.261  12.282  0.0268 -0.6033 -0.0877
  377MPD2    C1 5689   0.933   0.155  12.367  0.3913  0.2323  0.5212
  377MPD2    C2 5690   0.841   0.118  12.465 -0.7520  0.3218  0.7716
  377MPD2    C3 5691   0.718   0.176  12.481 -0.2706  0.1562 -0.0487
  377MPD2    C4 5692   0.684   0.268  12.387 -0.0247  0.0235 -0.5457
  377MPD2    C5 5693   0.776   0.305  12.291  0.2624  0.0944  0.6744
  377MPD2     H 5694   0.869   0.033  12.526 -1.1434 -1.0851 -1.0011
  377MPD2    H1 5695   0.583   0.308  12.393  1.0327  2.3070  2.2437
  377MPD2    H2 5696   0.964   0.303  12.201 -1.3351  0.1603 -0.6738
  377MPD2    H3 5697   0.743   0.374  12.214 -0.2870  0.8147  1.5493
  377MPD2     N 5698   0.626   0.137  12.581 -0.6156 -0.2785 -0.4810
  377MPD2    H5 5699   0.534   0.179  12.574 -1.4990 -1.8823  1.4710
  377MPD2    N1 5700   1.057   0.096  12.347  0.3961 -0.2412  0.4873
  377MPD2    H7 5701   1.110   0.143  12.274 -0.3437 -1.4059 -0.8003
  378TMC3    C1 5702   1.257   4.582  12.117  0.8583 -0.0547 -0.5932
  378TMC3    C2 5703   1.196   4.570  12.239  0.1987  0.0592  0.4351
  378TMC3    C3 5704   1.224   4.659  12.333 -0.3451  0.1225 -0.4970
  378TMC3    C4 5705   1.364   4.666  12.093  0.0997 -0.5191  0.7035
  378TMC3    C5 5706   1.396   0.016  12.198  0.0209 -0.2028 -0.1406
  378TMC3    C6 5707   1.317   0.022  12.308  0.6372 -0.1689  0.4239
  378TMC3     C 5708   1.179   4.549  11.996 -0.2990 -0.2160 -0.2951
  378TMC3     O 5709   1.061   4.517  12.019 -0.7585  0.2636  0.6086
  378TMC3     H 5710   1.106   4.510  12.246  0.7995 -0.8563  0.3370
  378TMC3    H1 5711   1.431   4.649  12.010  0.4632 -3.2896  1.5674
  378TMC3    H2 5712   1.329   0.089  12.392  1.8174 -0.9021  0.8285
  378TMC3    C7 5713   1.533   0.072  12.207  0.3462  0.0332 -1.0303
  378TMC3    C8 5714   1.100   4.711  12.393  1.1644  0.3572 -0.5302
  378TMC3    O1 5715   1.550   0.166  12.277 -0.1068 -0.3980  0.5333
  378TMC3    O2 5716   1.052   4.641  12.477 -0.1614 -0.1885  0.0600
  379MPD2     C 5717   2.166   2.749  16.122  0.5259  0.4561  0.2130
  379MPD2    C1 5718   2.062   2.672  16.163 -0.2560  0.6708 -0.2217
  379MPD2    C2 5719   2.069   2.622  16.293 -0.1225 -0.2064 -0.3567
  379MPD2    C3 5720   2.176   2.644  16.371  0.3407  0.5657  0.2013
  379MPD2    C4 5721   2.290   2.715  16.324  0.0438 -0.5774 -0.1638
  379MPD2    C5 5722   2.278   2.759  16.195  0.3152  0.7003 -0.6211
  379MPD2     H 5723   1.995   2.551  16.326  0.7941 -1.6581 -1.4469
  379MPD2    H1 5724   2.362   2.746  16.400  0.2069 -2.4567  0.4523
  379MPD2    H2 5725   2.160   2.795  16.024 -2.8139 -1.3112 -0.4337
  379MPD2    H3 5726   2.357   2.817  16.149  0.2600  0.5127 -0.9519
  379MPD2     N 5727   2.194   2.586  16.504 -0.2929 -0.0164 -0.5745
  379MPD2    H5 5728   2.290   2.592  16.534 -0.4188  3.2650 -0.8683
  379MPD2    N1 5729   1.971   2.629  16.066  0.4997  0.7237 -0.0322
  379MPD2    H7 5730   1.992   2.659  15.972  1.6952  0.5900  0.1848
  380TMC3    C1 5731   1.780   2.528  15.987  0.2368 -0.1285  0.3054
  380TMC3    C2 5732   1.849   2.461  15.887  1.1015 -0.2540  0.1024
  380TMC3    C3 5733   1.806   2.474  15.760  0.3049  0.7005  0.1679
  380TMC3    C4 5734   1.678   2.610  15.950 -0.2297  0.2208  0.9183
  380TMC3    C5 5735   1.626   2.603  15.825  0.5287 -0.0253  0.4001
  380TMC3    C6 5736   1.689   2.535  15.723  0.0689  0.0729 -0.1489
  380TMC3     C 5737   1.853   2.575  16.097  0.1372  0.0172  0.1110
  380TMC3     O 5738   1.810   2.537  16.200  0.0186  0.5847  0.3505
  380TMC3     H 5739   1.940   2.406  15.906 -0.1684 -1.5491  2.5276
  380TMC3    H1 5740   1.625   2.674  16.020 -0.8563  0.9652 -0.2296
  380TMC3    H2 5741   1.651   2.527  15.622 -0.2206  4.0787 -0.3610
  380TMC3    C7 5742   1.506   2.681  15.793  0.7730 -0.3401 -0.2462
  380TMC3    C8 5743   1.864   2.390  15.654  0.6766  0.1468  0.1396
  380TMC3    O1 5744   1.480   2.774  15.870 -0.6561 -0.0270  0.5873
  380TMC3    O2 5745   1.793   2.333  15.573 -0.3344 -0.3027  0.0125
  381TMC3    C1 5746   1.297   4.169  16.301 -0.4461 -0.0595  0.2550
  381TMC3    C2 5747   1.433   4.152  16.263 -0.3734 -0.5465 -0.5119
  381TMC3    C3 5748   1.507   4.068  16.336 -0.1541  0.1184  0.3158
  381TMC3    C4 5749   1.242   4.110  16.413 -0.0007  0.6147  0.4907
  381TMC3    C5 5750   1.328   4.025  16.477  0.1695  0.7422 -0.1305
  381TMC3    C6 5751   1.458   4.008  16.444 -0.3236 -0.4553 -0.3279
  381TMC3     C 5752   1.221   4.276  16.245  0.4288 -0.1672  0.1128
  381TMC3     O 5753   1.118   4.307  16.300  0.4032  0.0498 -0.1095
  381TMC3     H 5754   1.489   4.196  16.181 -2.3115  2.0801 -0.4421
  381TMC3    H1 5755   1.138   4.121  16.440 -0.3491 -0.2427 -0.5122
  381TMC3    H2 5756   1.529   3.948  16.499 -0.2907  0.0570  0.1800
  381TMC3    C7 5757   1.286   3.950  16.592  0.1600  0.2195 -0.3623
  381TMC3    C8 5758   1.648   4.093  16.327  0.4956  0.0414 -0.0281
  381TMC3    O1 5759   1.357   3.852  16.621  0.8208 -0.6912  0.0940
  381TMC3    O2 5760   1.710   4.031  16.244 -0.4970 -0.6618  0.5417
  382MPD2     C 5761   0.908   1.241  17.347  0.2064  0.1790  0.9377
  382MPD2    C1 5762   0.795   1.291  17.283 -0.1224 -0.0646  0.3312
  382MPD2    C2 5763   0.687   1.209  17.273  0.4865 -0.4814 -0.0764
  382MPD2    C3 5764   0.686   1.084  17.328 -0.1055 -0.4795 -0.0300
  382MPD2    C4 5765   0.801   1.035  17.384  0.5093  0.5335 -0.9617
  382MPD2    C5 5766   0.915   1.113  17.387  0.4446 -0.2575 -0.2451
  382MPD2     H 5767   0.587   1.235  17.238  0.3061  1.1013  1.6392
  382MPD2    H1 5768   0.800   0.935  17.425  0.1483  1.1312  0.4811
  382MPD2    H2 5769   0.997   1.302  17.357  2.6147 -3.4256  1.5413
  382MPD2    H3 5770   1.009   1.085  17.433  0.1394  0.7960  1.0394
  382MPD2     N 5771   0.577   0.994  17.322 -0.1689 -0.6342 -0.0111
  382MPD2    H5 5772   0.588   0.911  17.381 -1.7135  0.0896  1.2922
  382MPD2    N1 5773   0.779   1.429  17.258 -0.0163  0.0392  0.2279
  382MPD2    H7 5774   0.682   1.457  17.243  0.8473  2.1274 -1.2892
  383TMC3    C1 5775   0.380   0.899  17.277  0.2601 -0.8720  0.0148
  383TMC3    C2 5776   0.298   0.852  17.177 -0.3158  0.2106  0.7751
  383TMC3    C3 5777   0.195   0.763  17.209  0.6088  1.1872  0.1563
  383TMC3    C4 5778   0.351   0.862  17.404 -0.7186 -0.4180  0.1288
  383TMC3    C5 5779   0.237   0.787  17.432 -0.0272  0.2700 -0.6495
  383TMC3    C6 5780   0.152   0.741  17.338  0.0348  0.0915 -0.6895
  383TMC3     C 5781   0.469   1.001  17.241  0.5958 -0.6378  0.0823
  383TMC3     O 5782   0.456   1.068  17.138  0.0155 -0.2731  0.0220
  383TMC3     H 5783   0.323   0.878  17.075  0.9094  0.0868  1.0474
  383TMC3    H1 5784   0.409   0.898  17.488  0.1988  0.3846 -0.8538
  383TMC3    H2 5785   0.068   0.676  17.356 -0.1290  0.2241 -0.9655
  383TMC3    C7 5786   0.209   0.768  17.575 -0.3984 -0.1485  0.0370
  383TMC3    C8 5787   0.142   0.673  17.104  0.2419  0.3529  0.6053
  383TMC3    O1 5788   0.149   0.661  17.602  0.4874 -0.8883  0.3625
  383TMC3    O2 5789   0.030   0.629  17.124  0.2171 -0.0438  0.3949
  384MPD2     C 5790   2.394   2.765  12.417 -0.2958  0.0425 -0.0036
  384MPD2    C1 5791   2.285   2.683  12.407  0.2541  0.5478  0.8113
  384MPD2    C2 5792   2.283   2.575  12.328 -0.0832  0.1814 -0.2055
  384MPD2    C3 5793   2.394   2.534  12.255  0.2882 -0.2886 -0.0440
  384MPD2    C4 5794   2.502   2.618  12.265 -0.7726 -1.1880  0.1642
  384MPD2    C5 5795   2.509   2.724  12.346 -0.1657  0.0561  0.4752
  384MPD2     H 5796   2.191   2.519  12.314 -0.7066  1.1784 -0.1105
  384MPD2    H1 5797   2.597   2.579  12.230 -0.6931 -0.0496 -0.8959
  384MPD2    H2 5798   2.382   2.853  12.479  0.0015 -0.5540  0.8949
  384MPD2    H3 5799   2.596   2.781  12.378  1.0529  0.2831 -3.2505
  384MPD2     N 5800   2.416   2.405  12.202 -0.2983 -0.2847  0.4294
  384MPD2    H5 5801   2.509   2.377  12.173 -1.0639 -2.3379 -0.0276
  384MPD2    N1 5802   2.176   2.729  12.489  0.6112  0.1428  0.4681
  384MPD2    H7 5803   2.188   2.819  12.534 -0.3533  1.3885 -1.7495
  385TMC3    C1 5804   2.374   2.171  12.170 -0.3834 -0.5158  0.1266
  385TMC3    C2 5805   2.286   2.067  12.154  0.2108  0.2156 -0.2138
  385TMC3    C3 5806   2.330   1.936  12.159  0.8392  0.0760  0.3324
  385TMC3    C4 5807   2.503   2.136  12.208 -0.5996  0.2173  0.6275
  385TMC3    C5 5808   2.539   2.007  12.234 -0.7929 -0.2073 -0.0491
  385TMC3    C6 5809   2.459   1.900  12.198  0.0627  0.3496  0.9283
  385TMC3     C 5810   2.319   2.310  12.184 -0.2100  0.0569  0.6438
  385TMC3     O 5811   2.198   2.308  12.195  0.3851 -0.1139  0.5055
  385TMC3     H 5812   2.192   2.095  12.108  0.0988  0.6049  0.2588
  385TMC3    H1 5813   2.568   2.220  12.230  1.7280 -1.8846  1.8105
  385TMC3    H2 5814   2.479   1.794  12.206 -1.1596 -0.0322 -1.1062
  385TMC3    C7 5815   2.651   1.995  12.328  0.7562 -0.1316 -0.0195
  385TMC3    C8 5816   2.242   1.824  12.123  0.7517  0.1369 -0.4195
  385TMC3    O1 5817   2.756   2.041  12.287 -0.3115 -0.5111 -0.8608
  385TMC3    O2 5818   2.124   1.838  12.156  0.1950 -0.0807  0.1353
  386TMC3    C1 5819   2.825   4.489  11.898 -0.2653  0.2027 -0.0551
  386TMC3    C2 5820   2.739   4.448  11.796  0.0899 -0.2537  0.6033
  386TMC3    C3 5821   2.643   4.534  11.751  0.5946  0.3121  0.3582
  386TMC3    C4 5822   2.805   4.604  11.959  0.1106  0.1436  0.0481
  386TMC3    C5 5823   2.709   4.688  11.918  0.1440  0.1894 -0.1907
  386TMC3    C6 5824   2.624   4.650  11.815  0.9803  0.0378  0.1902
  386TMC3     C 5825   2.951   4.422  11.916 -0.3373 -0.3017 -0.6347
  386TMC3     O 5826   3.049   4.490  11.940  0.3312 -0.2674  0.1634
  386TMC3     H 5827   2.776   4.367  11.734  1.2040  0.4476  0.3637
  386TMC3    H1 5828   2.883   4.636  12.028  1.5810 -0.7307 -1.2203
  386TMC3    H2 5829   2.536   4.707  11.787  0.2297 -1.0030  0.4492
  386TMC3    C7 5830   2.652   0.038  12.015 -0.2090  0.1890  0.6569
  386TMC3    C8 5831   2.560   4.500  11.639  0.7214  0.2559  0.1467
  386TMC3    O1 5832   2.531   0.065  12.002 -0.1155  1.0356 -0.2609
  386TMC3    O2 5833   2.499   4.585  11.575  0.1688 -0.1166 -0.1651
  387MPD2     C 5834   0.401   4.536  10.187 -0.1257 -0.2475  0.3514
  387MPD2    C1 5835   0.532   4.487  10.196  0.8811 -0.1735 -0.6391
  387MPD2    C2 5836   0.557   4.357  10.184  0.4621  0.7750 -0.1773
  387MPD2    C3 5837   0.461   4.261  10.152  0.8096 -0.5608  0.1868
  387MPD2    C4 5838   0.333   4.306  10.153 -0.6320  0.5923 -0.2826
  387MPD2    C5 5839   0.307   4.434  10.173 -0.0773  0.1498 -0.5267
  387MPD2     H 5840   0.663   4.332  10.190  0.6609  2.1926  2.1230
  387MPD2    H1 5841   0.251   4.239  10.130 -1.7591  2.6031 -2.1577
  387MPD2    H2 5842   0.370   4.639  10.179  0.9256 -0.0155 -0.7239
  387MPD2    H3 5843   0.204   4.467  10.170  0.7338  2.6503 -1.4490
  387MPD2     N 5844   0.496   4.130  10.110 -0.2165  0.1633  0.8215
  387MPD2    H5 5845   0.594   4.109  10.098 -1.1663 -3.3133 -0.7691
  387MPD2    N1 5846   0.642   4.565  10.220 -0.2054 -0.2837 -0.2895
  387MPD2    H7 5847   0.729   4.518  10.201 -0.0966 -0.6181  1.0374
  388TMC3    C1 5848   0.773   4.700  10.361 -0.2703  0.0686 -0.1107
  388TMC3    C2 5849   0.758   0.041  10.479 -0.2121  0.1466 -0.4125
  388TMC3    C3 5850   0.844   0.007  10.584  0.4297 -0.3046 -0.6173
  388TMC3    C4 5851   0.860   4.593  10.360 -1.4176  0.9401 -0.3050
  388TMC3    C5 5852   0.938   4.569  10.470  0.1101  0.4498 -0.2103
  388TMC3    C6 5853   0.934   4.641  10.584  0.6370  0.0956  0.1028
  388TMC3     C 5854   0.650   4.696  10.280  0.5459 -0.1564  0.2629
  388TMC3     O 5855   0.563   0.045  10.304  0.0209  0.2279  0.0684
  388TMC3     H 5856   0.694   0.128  10.481  0.1136  0.4226 -2.4575
  388TMC3    H1 5857   0.874   4.531  10.272 -0.0149  1.2198 -0.2794
  388TMC3    H2 5858   0.977   4.598  10.674  5.1058  1.7773 -1.2561
  388TMC3    C7 5859   1.008   4.445  10.471 -0.4471 -0.1736  0.0821
  388TMC3    C8 5860   0.803   0.065  10.714 -0.0499 -0.4614  0.2869
  388TMC3    O1 5861   1.130   4.437  10.494 -0.3462  0.8118  0.2457
  388TMC3    O2 5862   0.685   0.097  10.721  0.0105  0.0866  0.2259
  389MPD2     C 5863   4.381   3.022  11.349 -1.2071  0.1855 -0.5078
  389MPD2    C1 5864   4.310   2.928  11.274  0.6547 -0.2513  0.0452
  389MPD2    C2 5865   4.203   2.859  11.324  0.6071  0.2648  0.1184
  389MPD2    C3 5866   4.165   2.878  11.457 -0.5148 -0.3508 -0.1090
  389MPD2    C4 5867   4.222   2.984  11.526 -0.9124 -0.2441  0.3416
  389MPD2    C5 5868   4.330   3.057  11.469  0.1700  0.3986 -0.2088
  389MPD2     H 5869   4.154   2.795  11.252  0.5732 -0.5409  0.8682
  389MPD2    H1 5870   4.189   3.011  11.626 -0.5928  3.0917 -0.4457
  389MPD2    H2 5871   4.468   3.078  11.318 -0.5037 -0.5884  0.0540
  389MPD2    H3 5872   4.375   3.145  11.514  1.3460  0.1651 -0.9232
  389MPD2     N 5873   4.044   2.817  11.517 -0.0710 -0.0124  0.0860
  389MPD2    H5 5874   4.020   2.856  11.607  0.5225 -0.6452  0.5152
  389MPD2    N1 5875   4.356   2.922  11.139  0.6183 -0.4539 -0.4599
  389MPD2    H7 5876   4.452   2.955  11.127  0.3539 -0.1536 -1.7792
  390TMC3    C1 5877   3.863   2.666  11.543  0.7527 -0.1083 -0.9510
  390TMC3    C2 5878   3.803   2.545  11.515 -0.5143 -0.3790  0.3166
  390TMC3    C3 5879   3.700   2.505  11.596 -0.1534  0.1615 -0.4264
  390TMC3    C4 5880   3.794   2.761  11.623  0.0537  0.7003  0.4736
  390TMC3    C5 5881   3.696   2.716  11.703  0.5039  0.4519  0.7688
  390TMC3    C6 5882   3.650   2.586  11.687  0.3628 -0.1920  0.6934
  390TMC3     C 5883   3.963   2.722  11.453  0.8029 -0.5817 -0.4559
  390TMC3     O 5884   3.983   2.665  11.345  0.5682 -0.4406 -0.0166
  390TMC3     H 5885   3.857   2.468  11.461 -0.0165  0.0405  0.2158
  390TMC3    H1 5886   3.827   2.864  11.639  0.7905  0.2016  2.2262
  390TMC3    H2 5887   3.557   2.565  11.739  0.0814  1.0796  0.6964
  390TMC3    C7 5888   3.624   2.809  11.795  0.1016  0.7172 -0.3803
  390TMC3    C8 5889   3.625   2.385  11.571  0.0856 -0.3511  0.5320
  390TMC3    O1 5890   3.645   2.930  11.781  0.4060  0.4576  0.3085
  390TMC3    O2 5891   3.638   2.328  11.465 -0.9488  0.2905 -0.2395
  391MPD2     C 5892   3.854   4.686  11.569 -0.3237 -0.3747  0.1794
  391MPD2    C1 5893   3.971   4.732  11.526 -0.1553  0.4469  0.8150
  391MPD2    C2 5894   3.974   0.031  11.393  0.0786 -0.3202  0.2523
  391MPD2    C3 5895   3.867   0.007  11.306 -0.4025  0.4007  0.5440
  391MPD2    C4 5896   3.751   4.699  11.357 -0.4604  0.6132 -0.1952
  391MPD2    C5 5897   3.747   4.670  11.486  0.4393 -0.4030  0.1447
  391MPD2     H 5898   4.057   0.077  11.341  0.1801 -0.5365  0.2228
  391MPD2    H1 5899   3.664   4.682  11.293 -0.8537 -3.1652  1.3773
  391MPD2    H2 5900   3.839   4.664  11.674 -0.7246 -0.6124  0.0712
  391MPD2    H3 5901   3.655   4.643  11.537 -1.3421 -0.7160 -3.2228
  391MPD2     N 5902   3.871   0.031  11.166  0.2571  0.3380 -0.2180
  391MPD2    H5 5903   3.963   0.052  11.128  0.1354  1.1512 -0.0452
  391MPD2    N1 5904   4.068   0.026  11.622 -0.2246 -0.5228  0.1327
  391MPD2    H7 5905   4.057   4.716  11.713  1.9277  0.9467  1.1079
  392TMC3    C1 5906   3.821   0.050  10.937  0.5267 -0.0021  0.8714
  392TMC3    C2 5907   3.739   4.729  10.846 -0.0472  0.1211  0.2874
  392TMC3    C3 5908   3.796   4.693  10.717  0.2630  0.3171  0.2164
  392TMC3    C4 5909   3.956   0.067  10.914  0.7654 -0.5809 -0.5173
  392TMC3    C5 5910   4.006   0.049  10.787  0.4806  0.3947 -0.8040
  392TMC3    C6 5911   3.928   4.725  10.688  0.2809 -0.4728 -0.1485
  392TMC3     C 5912   3.768   0.040  11.073 -0.5144 -0.5737  0.6405
  392TMC3     O 5913   3.644   0.031  11.093 -0.4928 -0.2180 -0.2797
  392TMC3     H 5914   3.640   4.708  10.884 -0.4819  0.9139 -0.3943
  392TMC3    H1 5915   4.013   0.116  10.991  0.8592  1.4744 -1.8842
  392TMC3    H2 5916   3.977   4.673  10.606  1.1144  1.0170 -0.5853
  392TMC3    C7 5917   4.145   0.042  10.774 -0.3431  0.1262  0.1737
  392TMC3    C8 5918   3.711   4.622  10.619 -0.1444  0.2213 -0.4121
  392TMC3    O1 5919   4.211   0.042  10.875 -0.0048  0.0790 -0.0811
  392TMC3    O2 5920   3.612   4.562  10.659 -0.6269 -0.5143  0.1978
  393TMC3    C1 5921   2.356   1.958  10.570 -0.6327 -0.3045 -0.1863
  393TMC3    C2 5922   2.278   1.868  10.629  0.5075 -0.7120  0.1393
  393TMC3    C3 5923   2.264   1.750  10.564 -0.2716  0.5009 -0.0252
  393TMC3    C4 5924   2.437   1.942  10.464 -0.1401 -0.7479  0.0231
  393TMC3    C5 5925   2.418   1.821  10.390 -0.1691  0.1653  0.3286
  393TMC3    C6 5926   2.330   1.728  10.440 -0.6770 -0.0215  0.0091
  393TMC3     C 5927   2.369   2.080  10.655 -0.3141 -0.5625  0.6042
  393TMC3     O 5928   2.287   2.086  10.745  0.2886  0.5880  0.0886
  393TMC3     H 5929   2.223   1.886  10.721  3.0388  0.9809  1.3283
  393TMC3    H1 5930   2.482   2.025  10.410  0.7690 -1.2568 -0.0096
  393TMC3    H2 5931   2.309   1.637  10.385 -0.0411  0.0474 -0.3440
  393TMC3    C7 5932   2.519   1.779  10.297 -0.7260 -0.1338 -0.3669
  393TMC3    C8 5933   2.195   1.647  10.638  0.3837  0.2949 -0.2837
  393TMC3    O1 5934   2.475   1.692  10.220  0.2638 -0.3588  0.5712
  393TMC3    O2 5935   2.139   1.676  10.744 -0.3929  0.1043  0.1414
  394TMC3    C1 5936   4.372   2.905  10.906  0.5379  0.3341  0.8742
  394TMC3    C2 5937   4.294   2.887  10.794 -0.0225  0.1217  0.3042
  394TMC3    C3 5938   4.353   2.922  10.671  0.1799  0.1065 -0.3322
  394TMC3    C4 5939   4.506   2.945  10.904  0.5947  0.2476  0.0837
  394TMC3    C5 5940   4.561   2.954  10.780 -0.7914  0.0238 -0.2520
  394TMC3    C6 5941   4.489   2.944  10.660  0.2267  0.3768 -0.1374
  394TMC3     C 5942   4.295   2.876  11.028 -0.5309  0.2079  0.1510
  394TMC3     O 5943   4.179   2.837  11.028  0.3572  0.0101 -0.1522
  394TMC3     H 5944   4.186   2.877  10.798 -0.0352  0.1494  0.0412
  394TMC3    H1 5945   4.560   2.954  10.997 -0.2986  1.8412  0.4480
  394TMC3    H2 5946   4.533   2.980  10.568  1.1627 -0.5646 -0.0558
  394TMC3    C7 5947   4.701   2.977  10.772 -0.1578  0.2689 -0.3785
  394TMC3    C8 5948   4.299   2.888  10.543  0.3996 -0.1671 -0.5175
  394TMC3    O1 5949   0.022   3.054  10.847  0.5021 -0.2601  0.3440
  394TMC3    O2 5950   4.291   2.978  10.464 -0.3596 -0.4766  0.1812
  395TMC3    C1 5951   4.137   0.038  14.554  0.2892 -0.4028  0.2267
  395TMC3    C2 5952   4.032   0.078  14.476 -0.2891  0.7479  0.9403
  395TMC3    C3 5953   4.003   0.213  14.465  0.1002  0.2175  0.5680
  395TMC3    C4 5954   4.233   0.124  14.595 -0.3726  0.3390  0.0393
  395TMC3    C5 5955   4.205   0.258  14.573  0.3997  0.5583  0.3723
  395TMC3    C6 5956   4.094   0.305  14.509  0.1563 -0.2172  0.5966
  395TMC3     C 5957   4.103   4.683  14.661 -0.2364 -0.1431  0.0286
  395TMC3     O 5958   4.134   4.721  14.773 -0.0381  0.4741 -0.2918
  395TMC3     H 5959   3.963   0.008  14.429  1.4446 -0.0967 -0.3469
  395TMC3    H1 5960   4.322   0.093  14.648 -0.9080 -0.8759  0.2061
  395TMC3    H2 5961   4.075   0.410  14.489  1.9451  0.6338  3.3468
  395TMC3    C7 5962   4.302   0.365  14.610  0.9622  0.3312  0.3592
  395TMC3    C8 5963   3.878   0.246  14.523 -0.1296  0.4848  0.1314
  395TMC3    O1 5964   4.279   0.481  14.586 -0.4706 -0.0919 -0.2993
  395TMC3    O2 5965   3.833   0.356  14.512 -0.5181 -0.1111 -0.2580
  396MPD2     C 5966   3.318   0.945  17.181  0.6281 -0.0078 -0.2049
  396MPD2    C1 5967   3.444   0.893  17.176  0.4198 -0.1887  0.5619
  396MPD2    C2 5968   3.533   0.957  17.092 -0.1173 -0.7237 -0.1558
  396MPD2    C3 5969   3.495   1.062  17.005  0.2681  0.1499 -0.1042
  396MPD2    C4 5970   3.360   1.113  17.014 -0.2284 -0.4229  0.4413
  396MPD2    C5 5971   3.277   1.050  17.100  0.7215  0.1963 -0.8509
  396MPD2     H 5972   3.632   0.919  17.072 -0.1750 -0.6516 -0.5863
  396MPD2    H1 5973   3.326   1.199  16.957  0.7271  0.2504  0.8708
  396MPD2    H2 5974   3.241   0.889  17.233 -1.4156  2.9252 -0.0744
  396MPD2    H3 5975   3.174   1.086  17.105 -0.2525 -2.7062  0.0205
  396MPD2     N 5976   3.597   1.116  16.927  0.4202 -0.1909 -1.0003
  396MPD2    H5 5977   3.687   1.069  16.935 -1.1114 -3.1754 -1.4072
  396MPD2    N1 5978   3.481   0.772  17.254 -0.1027 -0.3087 -0.0503
  396MPD2    H7 5979   3.403   0.720  17.293 -0.6360  0.6992  0.2297
  397TMC3    C1 5980   3.624   0.607  17.343  0.4788 -0.5017 -0.3508
  397TMC3    C2 5981   3.699   0.529  17.264  0.0495 -0.6007 -0.7369
  397TMC3    C3 5982   3.652   0.411  17.212 -0.0848  0.7795  0.2462
  397TMC3    C4 5983   3.496   0.560  17.377  0.2708 -0.0927 -0.2942
  397TMC3    C5 5984   3.465   0.428  17.351  0.0189 -0.3545 -0.2499
  397TMC3    C6 5985   3.539   0.355  17.257  0.2893 -0.0989 -0.3277
  397TMC3     C 5986   3.617   0.734  17.273 -0.4591  0.0035 -0.4073
  397TMC3     O 5987   3.721   0.796  17.245  0.0173  0.8868 -0.2946
  397TMC3     H 5988   3.781   0.570  17.206  0.1126  1.3866  0.7548
  397TMC3    H1 5989   3.424   0.622  17.430  3.0669  2.0958  0.9610
  397TMC3    H2 5990   3.516   0.255  17.222  0.0259 -0.4707  0.8912
  397TMC3    C7 5991   3.350   0.351  17.400 -0.1608 -0.3088  0.5833
  397TMC3    C8 5992   3.651   0.417  17.069 -0.0285  0.1560  0.3549
  397TMC3    O1 5993   3.328   0.244  17.338 -0.4411 -0.6365 -0.2965
  397TMC3    O2 5994   3.542   0.441  17.021  0.2312 -0.1859  0.1239
  398MPD2     C 5995   1.537   2.800   0.156 -0.3988  0.2088 -0.0337
  398MPD2    C1 5996   1.640   2.740   0.223 -0.5776  0.4017  0.2810
  398MPD2    C2 5997   1.729   2.819   0.288  0.4874 -0.5824 -0.6406
  398MPD2    C3 5998   1.734   2.951   0.262 -0.1613 -0.9416  0.0966
  398MPD2    C4 5999   1.644   3.019   0.193  0.5115 -0.0188  0.9143
  398MPD2    C5 6000   1.538   2.945   0.143 -0.2376  0.9744  0.1592
  398MPD2     H 6001   1.806   2.772   0.346  0.0205 -0.4835  0.0616
  398MPD2    H1 6002   1.643   3.127   0.188  1.8003 -0.0834 -0.8556
  398MPD2    H2 6003   1.464   2.745   0.097 -0.6940  1.6996 -1.0355
  398MPD2    H3 6004   1.461   2.987   0.079 -0.2124  1.0066  0.1501
  398MPD2     N 6005   1.840   3.018   0.317  0.1568 -0.1355 -0.1392
  398MPD2    H5 6006   1.893   2.950   0.371 -0.3187 -0.5928 -0.2537
  398MPD2    N1 6007   1.654   2.603   0.223  0.4107  1.0919  0.4299
  398MPD2    H7 6008   1.706   2.562   0.299 -0.3313 -1.7556 -0.6085
  399TMC3    C1 6009   1.629   2.367   0.184 -0.1311  0.4648 -0.6026
  399TMC3    C2 6010   1.734   2.360   0.272  0.3701  0.4860  0.4425
  399TMC3    C3 6011   1.752   2.238   0.341  0.3499  0.3458  0.3336
  399TMC3    C4 6012   1.536   2.263   0.175  0.0444 -0.3878  0.0182
  399TMC3    C5 6013   1.554   2.147   0.244 -0.2349  0.2474 -0.2029
  399TMC3    C6 6014   1.667   2.128   0.324  0.2603 -0.3887  0.4698
  399TMC3     C 6015   1.596   2.504   0.138  0.2540 -0.5023  0.0306
  399TMC3     O 6016   1.508   2.521   0.050  0.0200  0.3480  0.6617
  399TMC3     H 6017   1.825   2.418   0.269 -0.1980  1.3301 -0.2276
  399TMC3    H1 6018   1.452   2.285   0.110 -0.3954  3.0368  1.7272
  399TMC3    H2 6019   1.671   2.042   0.390 -1.9470 -0.0949  0.9834
  399TMC3    C7 6020   1.469   2.035   0.208  0.1676  0.0210  0.1859
  399TMC3    C8 6021   1.867   2.237   0.434  0.2501  0.2229 -0.2340
  399TMC3    O1 6022   1.360   2.064   0.166  0.6816 -0.2676  0.1295
  399TMC3    O2 6023   1.897   2.345   0.480  0.4736  0.4624 -0.9020
  400TMC3    C1 6024   0.623   0.857  16.896 -0.0338 -0.0517  0.2440
  400TMC3    C2 6025   0.504   0.841  16.828 -0.2741 -0.6148  0.3791
  400TMC3    C3 6026   0.450   0.957  16.800  0.1484 -0.8374 -0.4845
  400TMC3    C4 6027   0.690   0.980  16.926  0.3520  0.0146  0.1075
  400TMC3    C5 6028   0.629   1.090  16.881  0.0317  0.2378  0.1171
  400TMC3    C6 6029   0.511   1.073  16.821 -0.5123 -0.2548  0.5353
  400TMC3     C 6030   0.631   0.748  16.990 -0.8841  0.0645  0.0879
  400TMC3     O 6031   0.536   0.673  17.001 -0.5314  0.2594 -0.2406
  400TMC3     H 6032   0.452   0.747  16.817 -0.5730 -0.4881  0.7231
  400TMC3    H1 6033   0.773   0.997  16.994  1.2097  2.6110 -1.5849
  400TMC3    H2 6034   0.472   1.159  16.767 -1.0682  0.6103  2.3075
  400TMC3    C7 6035   0.670   1.225  16.912 -0.5940  0.3970 -0.3566
  400TMC3    C8 6036   0.311   0.960  16.792  0.4954 -0.0389 -0.3352
  400TMC3    O1 6037   0.784   1.267  16.926 -0.1412  0.2714 -0.4257
  400TMC3    O2 6038   0.259   1.063  16.836  0.1399 -0.4444 -0.0994
  401MPD2     C 6039   3.105   4.085   0.869 -0.3519 -0.4433 -0.2559
  401MPD2    C1 6040   3.208   4.008   0.916 -0.0989  0.5073 -0.3523
  401MPD2    C2 6041   3.184   3.876   0.955  0.6680 -0.4816 -0.2478
  401MPD2    C3 6042   3.063   3.813   0.939  0.0735  0.6681 -0.5150
  401MPD2    C4 6043   2.957   3.888   0.886  0.1689 -0.0530 -1.0050
  401MPD2    C5 6044   2.982   4.026   0.854 -0.0608  0.0984  0.1738
  401MPD2     H 6045   3.264   3.819   1.000  1.4817  1.8362  1.2424
  401MPD2    H1 6046   2.862   3.847   0.852 -0.5052  1.0096 -0.3859
  401MPD2    H2 6047   3.130   4.183   0.830  0.8441 -0.3887  0.6377
  401MPD2    H3 6048   2.908   4.080   0.797 -0.8229  1.0950  2.1329
  401MPD2     N 6049   3.053   3.676   0.971  0.5677  0.5978  0.0285
  401MPD2    H5 6050   3.138   3.634   1.008  0.2848 -1.9436 -2.2065
  401MPD2    N1 6051   3.352   4.043   0.924 -0.2800 -0.3563  0.2035
  401MPD2    H7 6052   3.411   3.971   0.964  0.7432  1.3831  1.7925
  402TMC3    C1 6053   2.984   3.449   0.969  0.3289  0.3954 -0.7860
  402TMC3    C2 6054   3.050   3.407   1.078 -0.0347 -0.1624  0.2415
  402TMC3    C3 6055   3.109   3.277   1.080  0.7149 -0.4667 -0.1153
  402TMC3    C4 6056   2.969   3.366   0.861 -0.4999  0.1752 -0.5034
  402TMC3    C5 6057   3.034   3.246   0.862  0.1907  0.3617  0.6066
  402TMC3    C6 6058   3.094   3.192   0.977 -0.6912 -0.2940 -0.0872
  402TMC3     C 6059   2.945   3.593   0.944 -0.3448  0.4221  0.1911
  402TMC3     O 6060   2.846   3.623   0.881  0.6341 -0.1052  0.0396
  402TMC3     H 6061   3.074   3.482   1.153 -2.6072  0.7144  0.2007
  402TMC3    H1 6062   2.925   3.396   0.767 -1.0474  0.9678  0.0062
  402TMC3    H2 6063   3.148   3.098   0.976 -0.0709  0.0569  0.8952
  402TMC3    C7 6064   3.071   3.192   0.731 -0.2980 -0.0144  0.3247
  402TMC3    C8 6065   3.198   3.234   1.187 -0.2470  0.4630 -0.5789
  402TMC3    O1 6066   3.014   3.246   0.636 -0.0725  0.3277 -0.0941
  402TMC3    O2 6067   3.294   3.162   1.170  0.6351  0.5018 -0.2140
  403MPD2     C 6068   1.876   2.468  13.242 -0.2311  0.7811 -0.7644
  403MPD2    C1 6069   1.809   2.395  13.335 -0.8431 -0.6367  0.3192
  403MPD2    C2 6070   1.877   2.338  13.442 -0.2753  0.4971  0.5073
  403MPD2    C3 6071   2.013   2.356  13.463  0.0096 -0.2222  0.0831
  403MPD2    C4 6072   2.078   2.428  13.364  0.0817  0.5039  0.2361
  403MPD2    C5 6073   2.012   2.497  13.264 -0.7497 -0.0896  0.3032
  403MPD2     H 6074   1.819   2.291  13.520 -1.9450  0.9260 -0.4634
  403MPD2    H1 6075   2.184   2.453  13.371 -0.3022  1.5297  2.0843
  403MPD2    H2 6076   1.812   2.526  13.177 -4.3841 -1.4479  1.2810
  403MPD2    H3 6077   2.060   2.564  13.194  1.0966 -0.2613  1.4232
  403MPD2     N 6078   2.076   2.287  13.573 -0.2494 -0.1567  0.0246
  403MPD2    H5 6079   2.009   2.250  13.639  0.2353 -1.9170 -0.4545
  403MPD2    N1 6080   1.670   2.362  13.318 -0.4051  0.5186 -0.5422
  403MPD2    H7 6081   1.619   2.400  13.239 -0.7338 -0.0388 -0.6015
  404TMC3    C1 6082   1.478   2.248  13.318 -0.5085 -0.7960 -0.0514
  404TMC3    C2 6083   1.400   2.178  13.402  0.3399 -0.1519 -0.0752
  404TMC3    C3 6084   1.375   2.044  13.370 -0.0808  0.4582 -0.3716
  404TMC3    C4 6085   1.516   2.201  13.197  0.4368  0.0871  0.4523
  404TMC3    C5 6086   1.466   2.080  13.151  0.5763 -0.0176  0.2540
  404TMC3    C6 6087   1.403   2.001  13.239  0.3093 -0.5018 -0.6675
  404TMC3     C 6088   1.595   2.282  13.396 -0.2908 -0.1600 -0.1786
  404TMC3     O 6089   1.609   2.223  13.501 -0.0341  0.2463  0.4848
  404TMC3     H 6090   1.385   2.220  13.501  0.2804  1.2404 -0.6859
  404TMC3    H1 6091   1.575   2.253  13.122  0.2095 -0.8288 -0.3552
  404TMC3    H2 6092   1.390   1.894  13.225  0.6931 -0.5577 -0.6087
  404TMC3    C7 6093   1.540   2.016  13.040 -0.7075 -0.2494 -0.4654
  404TMC3    C8 6094   1.426   1.951  13.468 -0.2363 -0.0902  0.1642
  404TMC3    O1 6095   1.625   2.080  12.980 -0.7716  0.8288 -0.2258
  404TMC3    O2 6096   1.469   1.850  13.420 -0.0084 -0.0289 -0.2151
  405MPD2     C 6097   1.739   3.570  15.441  0.0099 -0.2151 -0.2743
  405MPD2    C1 6098   1.852   3.548  15.367  0.5864 -0.6493  0.7305
  405MPD2    C2 6099   1.852   3.611  15.246 -0.0674 -0.3244  0.3756
  405MPD2    C3 6100   1.746   3.681  15.198 -0.2408  0.2623  0.2359
  405MPD2    C4 6101   1.633   3.690  15.278 -0.5027  0.1932 -0.2268
  405MPD2    C5 6102   1.638   3.649  15.405  0.2403 -0.4404  0.1677
  405MPD2     H 6103   1.944   3.613  15.188 -0.5127 -0.7692 -0.3522
  405MPD2    H1 6104   1.549   3.750  15.244 -1.0088  0.4843  1.5364
  405MPD2    H2 6105   1.739   3.526  15.540 -1.1056 -1.8723 -0.9960
  405MPD2    H3 6106   1.559   3.662  15.478 -0.6606 -0.5292 -0.7857
  405MPD2     N 6107   1.752   3.737  15.064 -0.0685 -0.0298  0.0218
  405MPD2    H5 6108   1.841   3.720  15.017 -0.3598  0.6111 -0.7634
  405MPD2    N1 6109   1.952   3.456  15.417 -0.7628  0.2571  0.4388
  405MPD2    H7 6110   1.923   3.388  15.486 -0.7860  2.3843  2.5011
  406TMC3    C1 6111   1.595   3.815  14.634  0.3439  0.2297 -0.7033
  406TMC3    C2 6112   1.697   3.740  14.576  0.0465  0.1241 -0.4669
  406TMC3    C3 6113   1.787   3.677  14.659  0.0282  0.0588 -0.8627
  406TMC3    C4 6114   1.586   3.842  14.767  0.4324 -0.2179 -0.0193
  406TMC3    C5 6115   1.671   3.766  14.843  0.7080  0.3154  0.0316
  406TMC3    C6 6116   1.777   3.694  14.795  0.0206 -0.2092  0.1314
  406TMC3     C 6117   1.486   3.846  14.547 -0.3497  0.1215 -0.0375
  406TMC3     O 6118   1.438   3.959  14.558  0.6171  0.4960  0.1944
  406TMC3     H 6119   1.699   3.719  14.469 -3.3109  0.0956 -0.5275
  406TMC3    H1 6120   1.507   3.896  14.818  1.9167  0.8088  1.2312
  406TMC3    H2 6121   1.834   3.641  14.871  0.6250  0.3035  0.0354
  406TMC3    C7 6122   1.644   3.756  14.988 -0.3943  0.6131  0.7652
  406TMC3    C8 6123   1.855   3.551  14.617  0.0884 -0.0659  0.3494
  406TMC3    O1 6124   1.526   3.780  15.011 -0.0423 -0.0392 -0.8369
  406TMC3    O2 6125   1.844   3.499  14.507 -0.5079 -0.0620  0.1386
  407MPD2     C 6126   4.695   3.860  10.059  0.0756  0.2924 -0.7637
  407MPD2    C1 6127   4.693   3.989  10.020 -0.1193 -0.1689  0.4664
  407MPD2    C2 6128   4.614   4.081  10.091 -0.7682  0.3693  0.4169
  407MPD2    C3 6129   4.555   4.044  10.206 -0.4152  0.1407  0.1484
  407MPD2    C4 6130   4.565   3.915  10.249 -0.2048 -0.1103 -0.5052
  407MPD2    C5 6131   4.634   3.825  10.173  0.0219  0.0321  0.4235
  407MPD2     H 6132   4.598   4.183  10.056 -2.4791  0.5020  1.6162
  407MPD2    H1 6133   4.512   3.876  10.335 -0.2314  2.7546  0.7683
  407MPD2    H2 6134   0.019   3.776  10.024  0.4373 -0.3539  1.3688
  407MPD2    H3 6135   4.631   3.722  10.206 -2.3083 -0.1670 -0.4388
  407MPD2     N 6136   4.486   4.142  10.273  0.6734  0.1230  0.7438
  407MPD2    H5 6137   4.490   4.238  10.240  1.3573  0.2476  1.2114
  407MPD2    N1 6138   0.051   4.040   9.922  0.6307 -0.7453 -0.3944
  407MPD2    H7 6139   0.058   4.141   9.918  2.8738 -0.8500  1.4437
  408TMC3    C1 6140   0.237   4.019   9.779  0.3323  0.1451 -0.0461
  408TMC3    C2 6141   0.338   3.931   9.754  0.2894  0.1023 -0.2215
  408TMC3    C3 6142   0.462   3.988   9.739  0.2812 -0.3229 -0.4612
  408TMC3    C4 6143   0.257   4.157   9.787 -0.2390 -0.3671  0.1318
  408TMC3    C5 6144   0.384   4.205   9.769 -0.3827 -0.7295 -0.3547
  408TMC3    C6 6145   0.485   4.122   9.745  0.5276 -1.0815 -0.3399
  408TMC3     C 6146   0.121   3.960   9.839 -0.1183  0.2492  0.3579
  408TMC3     O 6147   0.105   3.846   9.810  0.4166  1.4177  0.9372
  408TMC3     H 6148   0.322   3.824   9.753  0.4733  0.0889 -1.3167
  408TMC3    H1 6149   0.174   4.224   9.806 -0.0235  0.6259 -2.3840
  408TMC3    H2 6150   0.583   4.164   9.726  0.1461 -0.3926 -0.7672
  408TMC3    C7 6151   0.422   4.345   9.767  0.7921  0.0479  0.1280
  408TMC3    C8 6152   0.575   3.897   9.750  0.0030  0.2537  0.2912
  408TMC3    O1 6153   0.539   4.372   9.744  0.1507 -0.0729 -0.0850
  408TMC3    O2 6154   0.540   3.781   9.736 -0.1244 -0.3930 -0.3572
  409MPD2     C 6155   3.886   4.536  16.804  0.3275  0.8510 -0.1961
  409MPD2    C1 6156   3.977   4.604  16.874  0.8491  0.2069  0.0684
  409MPD2    C2 6157   4.028   4.723  16.830  0.1525 -0.6001 -0.3645
  409MPD2    C3 6158   4.003   0.028  16.699 -0.0213 -0.3195 -0.5026
  409MPD2    C4 6159   3.919   4.690  16.626  0.3261  0.9135  0.9220
  409MPD2    C5 6160   3.851   4.580  16.677 -0.3394  0.0827  0.6154
  409MPD2     H 6161   4.092   0.046  16.897 -1.7761  0.1694  0.8283
  409MPD2    H1 6162   3.901   4.718  16.523  1.9129  0.3955  0.5069
  409MPD2    H2 6163   3.836   4.448  16.843  0.7605  1.9207  2.7416
  409MPD2    H3 6164   3.779   4.529  16.614  2.2730 -1.1169 -1.3827
  409MPD2     N 6165   4.072   0.145  16.636  0.2365  0.0692 -0.1473
  409MPD2    H5 6166   4.035   0.183  16.549  0.3065 -0.3243 -0.3480
  409MPD2    N1 6167   4.017   4.565  17.005 -0.1229 -0.2701  0.2768
  409MPD2    H7 6168   4.099   4.616  17.035 -1.2221  1.1738  0.8479
  410TMC3    C1 6169   4.250   0.331  16.630  0.2437  0.5300 -0.1123
  410TMC3    C2 6170   4.337   0.409  16.701 -0.4006 -0.6999 -0.8890
  410TMC3    C3 6171   4.427   0.486  16.632  0.1506 -0.0391 -0.0468
  410TMC3    C4 6172   4.241   0.339  16.494 -0.7348 -0.6549 -0.5281
  410TMC3    C5 6173   4.319   0.441  16.427 -0.7502  0.1642  0.3224
  410TMC3    C6 6174   4.418   0.517  16.494 -0.1129  0.5826  0.4376
  410TMC3     C 6175   4.173   0.220  16.700 -0.7142 -0.2690  0.4067
  410TMC3     O 6176   4.215   0.203  16.814  0.0482 -0.3143 -0.3136
  410TMC3     H 6177   4.342   0.390  16.807 -0.9935 -0.0352 -0.7382
  410TMC3    H1 6178   4.180   0.278  16.430 -3.0965 -0.4194  1.4962
  410TMC3    H2 6179   4.464   0.603  16.446  1.7011  0.6943  2.4082
  410TMC3    C7 6180   4.312   0.459  16.288  0.0961  0.3538 -0.7518
  410TMC3    C8 6181   4.544   0.531  16.710  0.4660  0.5006 -0.4851
  410TMC3    O1 6182   4.281   0.358  16.224  0.0533  0.2075 -0.1876
  410TMC3    O2 6183   4.518   0.564  16.826 -0.1817 -0.4254 -0.2792
  411MPD2     C 6184   4.485   0.981  14.574  0.4704 -0.0774  0.2348
  411MPD2    C1 6185   4.427   1.043  14.468  0.5011 -0.5026 -0.6277
  411MPD2    C2 6186   4.350   0.962  14.390  0.2627  0.1109 -0.0892
  411MPD2    C3 6187   4.323   0.823  14.410  0.6752  0.2800  0.2529
  411MPD2    C4 6188   4.393   0.763  14.507 -0.4871 -0.2395 -0.2290
  411MPD2    C5 6189   4.473   0.842  14.589 -1.4359  0.1890  0.1115
  411MPD2     H 6190   4.309   0.999  14.297 -0.3229 -0.4976 -0.0758
  411MPD2    H1 6191   4.406   0.658  14.528  2.5705  0.2566  0.4175
  411MPD2    H2 6192   4.540   1.027  14.656 -0.2338  0.7728  0.2213
  411MPD2    H3 6193   4.519   0.781  14.665  1.9076  3.7530  0.9363
  411MPD2     N 6194   4.260   0.744  14.314 -0.3523 -0.6373  0.2067
  411MPD2    H5 6195   4.273   0.643  14.309  0.8608 -0.4713  0.1149
  411MPD2    N1 6196   4.439   1.181  14.454  0.3516 -0.0622 -0.0613
  411MPD2    H7 6197   4.494   1.234  14.521  0.1010 -0.4219  0.4296
  412TMC3    C1 6198   4.122   0.700  14.128 -0.2172 -0.5688  0.5608
  412TMC3    C2 6199   3.990   0.722  14.087 -0.2258  0.9656 -0.0535
  412TMC3    C3 6200   3.951   0.655  13.973  0.7950 -0.2027  0.3982
  412TMC3    C4 6201   4.208   0.619  14.060 -0.0991  0.5457  0.2063
  412TMC3    C5 6202   4.164   0.555  13.947  0.2502 -0.5168 -0.2152
  412TMC3    C6 6203   4.035   0.565  13.905 -0.1534 -0.3541  0.1294
  412TMC3     C 6204   4.162   0.792  14.230  0.6839  0.2237 -0.4813
  412TMC3     O 6205   4.095   0.890  14.264  0.2656 -0.2545  0.0960
  412TMC3     H 6206   3.936   0.803  14.135  3.0232  3.1324 -0.0253
  412TMC3    H1 6207   4.313   0.626  14.085 -0.7159  1.8367  2.4190
  412TMC3    H2 6208   3.999   0.508  13.820  0.0757  0.2329 -0.3665
  412TMC3    C7 6209   4.256   0.521  13.841  0.3741  0.3014 -0.2228
  412TMC3    C8 6210   3.889   0.737  13.869  0.0527  0.0055  0.0556
  412TMC3    O1 6211   4.214   0.531  13.726  0.0720 -0.1365 -0.2267
  412TMC3    O2 6212   3.777   0.789  13.887 -0.6732  0.1407  0.1662
  413MPD2     C 6213   1.074   4.475  15.455  0.6909  0.1021 -0.1286
  413MPD2    C1 6214   1.097   4.365  15.537  0.3236 -0.5255  0.0069
  413MPD2    C2 6215   1.222   4.320  15.564 -0.1681 -0.2812 -0.1813
  413MPD2    C3 6216   1.331   4.384  15.508 -0.0934 -0.3466  0.8432
  413MPD2    C4 6217   1.304   4.489  15.425 -0.9696 -0.1756 -0.2544
  413MPD2    C5 6218   1.178   4.540  15.400 -0.1454 -0.5021 -0.1960
  413MPD2     H 6219   1.230   4.241  15.639  0.3835 -0.7649 -0.7483
  413MPD2    H1 6220   1.386   4.548  15.386  0.3471 -1.5357  0.4187
  413MPD2    H2 6221   0.973   4.507  15.430  1.2735  1.2362 -1.0231
  413MPD2    H3 6222   1.174   4.619  15.326  0.0154 -0.5683 -0.2762
  413MPD2     N 6223   1.465   4.348  15.509  0.7691  0.3508  0.1250
  413MPD2    H5 6224   1.536   4.385  15.446 -0.7670  1.4718 -0.9122
  413MPD2    N1 6225   0.981   4.297  15.589  0.4989  0.1094 -0.0466
  413MPD2    H7 6226   0.892   4.338  15.562  0.9105 -0.9397 -3.0220
  414TMC3    C1 6227   1.633   4.176  15.535 -0.2822  0.0256  0.1223
  414TMC3    C2 6228   1.676   4.065  15.606  0.0228 -0.2949  0.0391
  414TMC3    C3 6229   1.749   3.968  15.539 -0.7311  0.2089  0.2788
  414TMC3    C4 6230   1.661   4.182  15.400  0.9576  0.6833  0.3782
  414TMC3    C5 6231   1.751   4.086  15.346  0.4782  0.4005 -0.1727
  414TMC3    C6 6232   1.791   3.978  15.409 -0.3847  0.6616  0.1537
  414TMC3     C 6233   1.510   4.241  15.582 -0.6934 -0.0974 -0.4211
  414TMC3     O 6234   1.455   4.183  15.672 -0.5525  0.1456 -0.3100
  414TMC3     H 6235   1.668   4.052  15.713 -0.5098  0.3283  0.0711
  414TMC3    H1 6236   1.614   4.265  15.347 -1.3783 -0.0538  1.2770
  414TMC3    H2 6237   1.843   3.898  15.357  0.1003  0.8341  0.3711
  414TMC3    C7 6238   1.785   4.098  15.205  0.4126  0.2963 -0.8052
  414TMC3    C8 6239   1.810   3.866  15.618  0.4181  0.2680 -0.1732
  414TMC3    O1 6240   1.720   4.186  15.150 -0.1423  0.1151 -0.4394
  414TMC3    O2 6241   1.740   3.800  15.693 -0.6142  0.1041 -0.6808
  415TMC3    C1 6242   1.721   1.904  10.146  0.4706  0.5586 -0.3758
  415TMC3    C2 6243   1.822   1.976  10.088 -0.5852  0.4050 -0.0789
  415TMC3    C3 6244   1.833   1.989   9.954  0.5590  0.0594  0.0736
  415TMC3    C4 6245   1.623   1.840  10.069 -0.5342 -0.0253 -0.2991
  415TMC3    C5 6246   1.651   1.835   9.934 -0.4839 -0.5829 -0.2386
  415TMC3    C6 6247   1.765   1.899   9.882 -0.5900 -0.8960  0.2208
  415TMC3     C 6248   1.710   1.891  10.285  0.0355 -0.2247  0.0306
  415TMC3     O 6249   1.612   1.821  10.318  0.2802 -0.4596 -0.2479
  415TMC3     H 6250   1.891   2.032  10.150 -0.4635  2.4315 -2.0353
  415TMC3    H1 6251   1.525   1.824  10.110 -0.0282 -1.6734  0.2753
  415TMC3    H2 6252   1.778   1.882   9.776 -2.6614  3.3186 -0.7230
  415TMC3    C7 6253   1.573   1.745   9.859  0.2046  0.2035  0.3701
  415TMC3    C8 6254   1.952   2.041   9.895 -0.1083 -0.9762  0.5239
  415TMC3    O1 6255   1.566   1.759   9.736 -0.4578 -0.2629 -0.1197
  415TMC3    O2 6256   1.977   2.001   9.784 -0.1551 -0.6129  0.3635
  416MPD2     C 6257   3.977   1.204  11.420  0.4541 -0.3653  0.2946
  416MPD2    C1 6258   3.894   1.130  11.496  0.4123  0.2639  0.0457
  416MPD2    C2 6259   3.920   0.991  11.513  0.1370 -0.3791 -1.0085
  416MPD2    C3 6260   4.024   0.939  11.441 -0.2004  0.5217 -0.0241
  416MPD2    C4 6261   4.111   1.018  11.369  0.2101 -0.5660 -0.3997
  416MPD2    C5 6262   4.089   1.149  11.368 -0.8245 -0.7381  0.4477
  416MPD2     H 6263   3.849   0.925  11.562 -1.7853  2.4420  0.0216
  416MPD2    H1 6264   4.188   0.974  11.307  3.6194  2.8562  1.4522
  416MPD2    H2 6265   3.964   1.310  11.401 -1.4166 -1.2505 -3.2983
  416MPD2    H3 6266   4.158   1.215  11.316  0.0085 -1.0008  1.2159
  416MPD2     N 6267   4.032   0.796  11.442 -0.4608 -0.2614 -0.3097
  416MPD2    H5 6268   3.964   0.736  11.488 -0.0900 -1.1656 -0.9562
  416MPD2    N1 6269   3.777   1.191  11.543 -0.2874  0.2092 -0.1683
  416MPD2    H7 6270   3.758   1.282  11.503  1.8920 -0.3166 -2.3888
  417TMC3    C1 6271   3.565   1.203  11.644 -0.1963 -0.1199  0.3790
  417TMC3    C2 6272   3.485   1.170  11.749 -0.8424  0.1471 -0.6016
  417TMC3    C3 6273   3.351   1.190  11.738  0.3126 -0.5386  0.2970
  417TMC3    C4 6274   3.513   1.251  11.523 -1.2806  0.1778  0.0910
  417TMC3    C5 6275   3.377   1.274  11.523 -0.3706  0.2549  0.2336
  417TMC3    C6 6276   3.296   1.244  11.622  0.4150 -0.3561  0.8235
  417TMC3     C 6277   3.692   1.137  11.637 -0.0102 -0.3807  0.6704
  417TMC3     O 6278   3.708   1.032  11.704  0.1212 -0.2919 -0.6996
  417TMC3     H 6279   3.534   1.139  11.840 -3.6908 -0.5885  0.6706
  417TMC3    H1 6280   3.571   1.256  11.431  0.4155 -0.8905  1.1075
  417TMC3    H2 6281   3.194   1.280  11.611 -0.2676 -2.3407  0.7541
  417TMC3    C7 6282   3.313   1.265  11.394  0.5545  0.0848  0.3300
  417TMC3    C8 6283   3.288   1.207  11.869  1.0087 -0.4038 -0.1175
  417TMC3    O1 6284   3.340   1.347  11.309  0.0577 -0.1917 -0.5610
  417TMC3    O2 6285   3.354   1.258  11.960  0.5642 -0.2049  0.5038
  418TMC3    C1 6286   2.223   3.107   0.259  0.2903 -0.3252  0.8636
  418TMC3    C2 6287   2.105   3.173   0.251  1.0084 -0.3719  0.5236
  418TMC3    C3 6288   2.016   3.164   0.353 -0.9808  0.2373 -0.0648
  418TMC3    C4 6289   2.261   3.040   0.376  0.6386 -0.6848 -0.3969
  418TMC3    C5 6290   2.165   3.022   0.463 -0.2535 -0.1480 -0.3966
  418TMC3    C6 6291   2.050   3.092   0.462 -0.2579 -0.5877  0.0238
  418TMC3     C 6292   2.330   3.120   0.154  0.5492 -0.4214 -0.4225
  418TMC3     O 6293   2.328   3.215   0.080 -0.5031 -0.0062  0.2536
  418TMC3     H 6294   2.066   3.206   0.155 -2.5164 -0.8608  1.8210
  418TMC3    H1 6295   2.358   2.991   0.384  0.0864 -1.8867 -0.9920
  418TMC3    H2 6296   1.982   3.077   0.545 -1.4129 -0.9846 -1.0010
  418TMC3    C7 6297   2.198   2.932   0.574  0.1903  0.4937 -1.3526
  418TMC3    C8 6298   1.880   3.146   0.295  0.2191 -0.1175 -0.6070
  418TMC3    O1 6299   2.274   2.835   0.557 -0.0272 -0.2576  0.7496
  418TMC3    O2 6300   1.839   3.227   0.212 -0.0917  0.3564  0.3577
  419MPD2     C 6301   1.007   0.567  12.670  0.2521 -0.6054  0.0615
  419MPD2    C1 6302   0.957   0.674  12.592  0.0568 -0.3703  0.0109
  419MPD2    C2 6303   0.895   0.779  12.664  0.0258  0.1126 -0.1800
  419MPD2    C3 6304   0.881   0.784  12.802 -0.1305 -0.2128 -0.1362
  419MPD2    C4 6305   0.951   0.685  12.873  0.3407  0.5470 -0.3440
  419MPD2    C5 6306   1.003   0.576  12.810  0.4267 -0.4158 -0.3636
  419MPD2     H 6307   0.852   0.864  12.612 -0.0222  0.2423  0.0714
  419MPD2    H1 6308   0.964   0.692  12.980 -0.7493 -2.2836 -0.0295
  419MPD2    H2 6309   1.048   0.474  12.630 -3.1148 -2.0421 -0.1077
  419MPD2    H3 6310   1.025   0.489  12.871  3.0835  0.1295 -0.5541
  419MPD2     N 6311   0.836   0.900  12.873 -0.1749  0.8097 -0.4672
  419MPD2    H5 6312   0.818   0.978  12.810 -0.8397 -0.1820 -1.4903
  419MPD2    N1 6313   0.950   0.671  12.447 -0.1126 -0.4663  0.1482
  419MPD2    H7 6314   0.896   0.746  12.407 -2.0320 -0.7933  2.1451
  420TMC3    C1 6315   0.783   1.033  13.075 -0.3299  0.5573  0.2750
  420TMC3    C2 6316   0.708   1.129  13.009 -0.7760  0.2703 -0.1926
  420TMC3    C3 6317   0.675   1.241  13.080 -0.7419 -0.1521 -0.3495
  420TMC3    C4 6318   0.810   1.041  13.206  0.1250 -0.6864  0.2949
  420TMC3    C5 6319   0.771   1.148  13.276  0.0868  0.4492 -0.4101
  420TMC3    C6 6320   0.702   1.249  13.215 -0.9422  0.7902  0.1971
  420TMC3     C 6321   0.810   0.910  13.011 -0.1707 -0.0611  0.1553
  420TMC3     O 6322   0.817   0.814  13.089  0.3139 -0.1765  0.3820
  420TMC3     H 6323   0.681   1.121  12.904 -2.9843  1.9329  0.2355
  420TMC3    H1 6324   0.856   0.954  13.250 -2.1161 -2.6288 -1.1913
  420TMC3    H2 6325   0.679   1.344  13.262 -2.0679  0.6792 -0.1170
  420TMC3    C7 6326   0.798   1.155  13.423 -0.0522  0.0878 -0.2895
  420TMC3    C8 6327   0.576   1.337  13.025  0.3827  0.1948  0.1790
  420TMC3    O1 6328   0.870   1.063  13.470 -0.4792 -0.0040 -0.1946
  420TMC3    O2 6329   0.586   1.454  13.058 -0.7564  0.0957 -0.0870
  421TMC3    C1 6330   2.256   2.207  13.702 -0.1054  0.2295  0.1555
  421TMC3    C2 6331   2.192   2.277  13.804  0.7529  0.4120  0.3245
  421TMC3    C3 6332   2.215   2.225  13.935  0.2591  0.1452 -0.0817
  421TMC3    C4 6333   2.349   2.113  13.717 -0.5758 -0.1717  0.6976
  421TMC3    C5 6334   2.366   2.071  13.854 -0.2580  0.2056  0.4215
  421TMC3    C6 6335   2.299   2.128  13.959  0.2299 -0.2941  0.8522
  421TMC3     C 6336   2.207   2.247  13.569  0.3722 -0.4033 -0.6999
  421TMC3     O 6337   2.286   2.245  13.472  0.1033 -0.0544  0.3868
  421TMC3     H 6338   2.126   2.360  13.784  0.1516 -0.2502 -0.4723
  421TMC3    H1 6339   2.394   2.066  13.631 -1.1825  1.7853 -0.6775
  421TMC3    H2 6340   2.328   2.114  14.063 -0.5486 -0.5052  1.0417
  421TMC3    C7 6341   2.462   1.954  13.860 -0.8220  0.4227  0.0512
  421TMC3    C8 6342   2.167   2.311  14.039  0.0700 -0.2061 -0.2113
  421TMC3    O1 6343   2.506   1.914  13.753  0.1150  0.2420 -0.4040
  421TMC3    O2 6344   2.255   2.332  14.120 -0.3727 -0.3482 -1.0456
  422TMC3    C1 6345   4.701   3.973  12.589  0.1198  0.7156 -0.3474
  422TMC3    C2 6346   4.681   4.059  12.693 -0.4960 -0.0587 -0.0089
  422TMC3    C3 6347   4.560   4.073  12.744 -0.0685  0.1496  0.5319
  422TMC3    C4 6348   4.600   3.905  12.530  0.2413  1.0864 -0.4030
  422TMC3    C5 6349   4.475   3.918  12.592  0.8255  0.0979 -0.2194
  422TMC3    C6 6350   4.449   4.002  12.695 -0.7447  0.4267  0.0831
  422TMC3     C 6351   0.080   4.010  12.510  0.2129  0.0836 -0.1045
  422TMC3     O 6352   0.142   4.108  12.542 -0.2299 -0.3894 -0.0644
  422TMC3     H 6353   0.033   4.114  12.730 -1.6664  2.4825 -1.0805
  422TMC3    H1 6354   4.620   3.825  12.459 -1.6331  0.2262  0.0373
  422TMC3    H2 6355   4.349   4.027  12.729 -0.5457  3.4536 -1.5148
  422TMC3    C7 6356   4.360   3.846  12.539  0.0076  0.2896 -0.2730
  422TMC3    C8 6357   4.543   4.197  12.804  0.4137 -0.3995 -0.1446
  422TMC3    O1 6358   4.390   3.778  12.442 -0.1474 -0.1408  0.3855
  422TMC3    O2 6359   4.642   4.253  12.855  0.2333  0.2262  0.4423
  423MPD2     C 6360   0.445   4.527   0.662  0.8552 -0.8558  0.3191
  423MPD2    C1 6361   0.583   4.523   0.684 -0.1163  0.1125  0.6823
  423MPD2    C2 6362   0.671   4.479   0.577 -0.0098  0.4107  0.2517
  423MPD2    C3 6363   0.618   4.445   0.454 -0.3553 -0.3510 -0.5209
  423MPD2    C4 6364   0.482   4.464   0.436  0.3230 -0.1927  0.1319
  423MPD2    C5 6365   0.400   4.508   0.537  0.2230 -0.3525  0.2765
  423MPD2     H 6366   0.775   4.475   0.605  0.7703  2.8350 -2.3401
  423MPD2    H1 6367   0.448   4.473   0.333  0.1393 -2.2814  0.0122
  423MPD2    H2 6368   0.367   4.558   0.730 -0.4145 -2.0533 -0.5848
  423MPD2    H3 6369   0.295   4.533   0.525  0.2882  0.3035  1.0190
  423MPD2     N 6370   0.699   4.408   0.345  0.0901  0.0300  0.2383
  423MPD2    H5 6371   0.651   4.362   0.268 -0.6099  1.1608 -0.0018
  423MPD2    N1 6372   0.640   4.552   0.807 -0.0380 -0.3281 -0.5267
  423MPD2    H7 6373   0.739   4.529   0.814 -0.2178 -0.8227  0.3552
  424TMC3    C1 6374   0.656   4.632   1.025 -0.1672 -0.1533 -0.4694
  424TMC3    C2 6375   0.754   4.539   1.060 -0.7832 -0.2323 -0.8126
  424TMC3    C3 6376   0.787   4.542   1.192 -0.5051 -0.5113 -0.6773
  424TMC3    C4 6377   0.594   4.723   1.101 -0.5366 -0.4699  1.4239
  424TMC3    C5 6378   0.616   4.706   1.234 -0.3970  0.4171 -0.4854
  424TMC3    C6 6379   0.716   4.619   1.275 -0.3998  0.3673  0.3102
  424TMC3     C 6380   0.575   4.617   0.907  0.5185  0.1981  0.1050
  424TMC3     O 6381   0.457   4.656   0.919 -0.3887 -0.6117  0.4027
  424TMC3     H 6382   0.803   4.471   0.991  0.6586  0.5761 -0.5794
  424TMC3    H1 6383   0.514   0.057   1.072 -0.0659 -0.5929 -0.1518
  424TMC3    H2 6384   0.721   4.593   1.380  3.1211  0.0904  0.0718
  424TMC3    C7 6385   0.505   4.717   1.330  0.1437 -0.0247 -0.3738
  424TMC3    C8 6386   0.869   4.436   1.247  0.3035  0.1268  0.0569
  424TMC3    O1 6387   0.533   4.698   1.446  0.4026 -0.2946  0.1472
  424TMC3    O2 6388   0.877   4.334   1.183 -0.3965  0.2016  0.0428
  425MPD2     C 6389   0.096   3.772  17.303 -1.0359 -0.7537 -0.3798
  425MPD2    C1 6390   0.030   3.657  17.321  0.0972  0.5383  0.4425
  425MPD2    C2 6391   4.629   3.665  17.348  0.0046  0.2497  0.6436
  425MPD2    C3 6392   4.557   3.787  17.339 -0.1373  0.1645  0.3345
  425MPD2    C4 6393   4.631   3.900  17.306 -0.3025  0.3158  0.2144
  425MPD2    C5 6394   0.030   3.892  17.288  0.3034 -0.3023 -0.3182
  425MPD2     H 6395   4.570   3.577  17.366 -0.6690  0.9658  1.9060
  425MPD2    H1 6396   4.582   3.995  17.289 -0.9510  0.1423  1.0701
  425MPD2    H2 6397   0.204   3.771  17.296 -0.9470  1.5095  0.3273
  425MPD2    H3 6398   0.087   3.982  17.267 -2.3001  0.8361 -2.4279
  425MPD2     N 6399   4.419   3.787  17.351 -0.3765  0.1852 -0.7575
  425MPD2    H5 6400   4.392   3.704  17.402 -0.3573  1.0889  0.7409
  425MPD2    N1 6401   0.101   3.536  17.322  0.2402  0.2761  0.5570
  425MPD2    H7 6402   0.199   3.537  17.297 -0.9655  0.6233 -4.0137
  426TMC3    C1 6403   0.143   3.302  17.327 -0.3617 -1.3232 -0.2609
  426TMC3    C2 6404   0.238   3.318  17.236 -0.2721  0.6042 -0.0540
  426TMC3    C3 6405   0.331   3.221  17.208  0.2271  0.0346 -0.3431
  426TMC3    C4 6406   0.139   3.185  17.401  0.0029  0.0612  0.3115
  426TMC3    C5 6407   0.226   3.089  17.363 -0.4948 -0.3628  0.0050
  426TMC3    C6 6408   0.323   3.098  17.269 -0.2509 -0.3392 -0.3246
  426TMC3     C 6409   0.046   3.413  17.344  0.1383  0.5416  0.6148
  426TMC3     O 6410   4.671   3.382  17.386 -0.0040  0.3808 -0.1252
  426TMC3     H 6411   0.233   3.410  17.179  0.5519  0.5285 -0.2489
  426TMC3    H1 6412   0.059   3.179  17.474  0.5273  2.0853  1.0447
  426TMC3    H2 6413   0.389   3.017  17.241  1.0531  0.6539 -0.0945
  426TMC3    C7 6414   0.191   2.950  17.395 -0.3764 -0.1136 -0.1331
  426TMC3    C8 6415   0.413   3.240  17.093 -1.0334 -0.4256  0.4867
  426TMC3    O1 6416   0.241   2.859  17.326 -0.1691 -0.6936  0.3508
  426TMC3    O2 6417   0.470   3.142  17.050 -0.1736  0.1580 -0.0353
  427MPD2     C 6418   3.629   1.498  14.671 -0.0840  0.6780 -0.5141
  427MPD2    C1 6419   3.583   1.388  14.745  0.2059 -0.3961 -0.4975
  427MPD2    C2 6420   3.455   1.397  14.785  0.6963 -0.0012 -0.2778
  427MPD2    C3 6421   3.378   1.510  14.771 -0.1922  0.0210  0.5011
  427MPD2    C4 6422   3.429   1.618  14.698 -0.9035  0.0036  0.0655
  427MPD2    C5 6423   3.554   1.607  14.652  0.3546  0.2124 -0.4471
  427MPD2     H 6424   3.412   1.300  14.808 -1.5436  1.4364  1.5585
  427MPD2    H1 6425   3.376   1.710  14.677 -1.6781 -0.2248  0.9892
  427MPD2    H2 6426   3.720   1.498  14.613  0.0226 -0.7790 -0.3568
  427MPD2    H3 6427   3.606   1.683  14.595  1.6983  1.1908  2.0840
  427MPD2     N 6428   3.249   1.518  14.813 -0.0986 -0.2905 -0.2763
  427MPD2    H5 6429   3.194   1.597  14.780  0.1615  0.2191  0.5175
  427MPD2    N1 6430   3.660   1.275  14.779  0.7299  0.2073  0.0441
  427MPD2    H7 6431   3.619   1.214  14.849  0.5390  0.2811 -0.0027
  428TMC3    C1 6432   3.844   1.133  14.807 -0.6264  0.9189 -0.1349
  428TMC3    C2 6433   3.766   1.031  14.848 -0.4349 -0.2902  0.2055
  428TMC3    C3 6434   3.831   0.922  14.909  0.7779 -0.3333 -0.1416
  428TMC3    C4 6435   3.976   1.141  14.840 -0.2550 -0.1636  0.4282
  428TMC3    C5 6436   4.034   1.044  14.912  0.7694 -0.0484 -0.1454
  428TMC3    C6 6437   3.962   0.932  14.953  0.5949  0.6270 -0.5348
  428TMC3     C 6438   3.784   1.244  14.734 -0.0287  0.8218  0.2750
  428TMC3     O 6439   3.859   1.300  14.655  0.3259 -0.1156 -0.5052
  428TMC3     H 6440   3.663   1.030  14.815 -0.5261 -0.1100  0.4839
  428TMC3    H1 6441   4.027   1.233  14.815  0.0297 -0.4472 -0.0340
  428TMC3    H2 6442   4.020   0.863  15.012  1.1971  2.9341  1.5393
  428TMC3    C7 6443   4.124   1.093  15.013 -0.0951 -0.1355 -0.2814
  428TMC3    C8 6444   3.760   0.814  14.957  0.1702 -0.8812  0.6673
  428TMC3    O1 6445   4.107   1.073  15.132 -0.0653 -0.1927 -0.1155
  428TMC3    O2 6446   3.835   0.727  15.002  0.9401 -0.4013 -0.2300
  429MPD2     C 6447   4.345   1.270  17.433  0.2007  0.1381 -0.1807
  429MPD2    C1 6448   4.327   1.240  17.302  0.6698  0.9144  0.4486
  429MPD2    C2 6449   4.388   1.312  17.200 -0.6955 -0.5248  0.6896
  429MPD2    C3 6450   4.447   1.433  17.233 -0.3923 -0.1156  1.0396
  429MPD2    C4 6451   4.446   1.473  17.365  0.2822 -0.5496  0.6241
  429MPD2    C5 6452   4.388   1.397  17.461 -0.6545  0.0564  0.1532
  429MPD2     H 6453   4.386   1.264  17.102 -0.8016  1.4787 -0.2844
  429MPD2    H1 6454   4.487   1.570  17.393 -0.4048 -0.8014  2.5089
  429MPD2    H2 6455   4.310   1.205  17.513 -2.0740  0.8299 -0.6181
  429MPD2    H3 6456   4.384   1.433  17.563 -0.6370  0.9086 -0.1522
  429MPD2     N 6457   4.505   1.511  17.128 -0.0831 -0.0933 -0.4462
  429MPD2    H5 6458   4.481   1.480  17.035 -1.5160  1.4063 -0.5684
  429MPD2    N1 6459   4.268   1.120  17.265 -0.2016 -0.4664  0.2250
  429MPD2    H7 6460   4.255   1.103  17.166  0.0876 -1.9712  0.4457
  430TMC3    C1 6461   4.637   1.667  17.025  0.0803  0.4197 -0.2070
  430TMC3    C2 6462   4.563   1.662  16.909 -0.2084  0.1315 -0.0770
  430TMC3    C3 6463   4.603   1.731  16.806  0.7547 -0.6563 -0.5720
  430TMC3    C4 6464   0.028   1.724  17.030 -0.3187  0.1744  0.6680
  430TMC3    C5 6465   0.076   1.786  16.919  0.1224 -0.1383 -0.3694
  430TMC3    C6 6466   4.731   1.789  16.810  0.3828  0.6473 -0.5959
  430TMC3     C 6467   4.595   1.606  17.151  0.1724 -0.0740 -0.4323
  430TMC3     O 6468   4.649   1.642  17.254 -0.0577 -0.4667 -0.2522
  430TMC3     H 6469   4.458   1.634  16.907 -0.3859  0.7521  0.5230
  430TMC3    H1 6470   0.090   1.709  17.118  0.5674  0.2767  0.0639
  430TMC3    H2 6471   0.039   1.831  16.719 -0.2194  0.8455 -0.7853
  430TMC3    C7 6472   0.217   1.784  16.889  0.0664  0.5465  0.3891
  430TMC3    C8 6473   4.540   1.724  16.677 -0.3494  0.0043  0.2118
  430TMC3    O1 6474   0.251   1.868  16.807  0.5751 -0.4659 -0.6266
  430TMC3    O2 6475   4.454   1.633  16.662 -0.0604  0.0189  0.3836
  431MPD2     C 6476   0.608   1.176  12.478 -0.4753  0.1748 -0.5577
  431MPD2    C1 6477   0.702   1.204  12.380  0.4196 -0.2375  0.9492
  431MPD2    C2 6478   0.728   1.106  12.283  0.2461 -0.1269 -0.0941
  431MPD2    C3 6479   0.675   0.976  12.299 -0.0508  0.8405  0.7544
  431MPD2    C4 6480   0.582   0.953  12.400  0.6376 -0.9861 -0.2705
  431MPD2    C5 6481   0.551   1.052  12.492 -0.5742  0.5884 -0.4118
  431MPD2     H 6482   0.795   1.130  12.201  0.0637  0.3121 -0.1160
  431MPD2    H1 6483   0.541   0.854  12.411 -2.3980  0.2626 -0.3528
  431MPD2    H2 6484   0.587   1.251  12.553  1.6783  0.9385 -0.6955
  431MPD2    H3 6485   0.484   1.032  12.574 -1.2753  1.2411 -0.8237
  431MPD2     N 6486   0.714   0.868  12.218  0.0265  0.4852 -0.5983
  431MPD2    H5 6487   0.680   0.780  12.255  0.3018  0.4790 -0.3540
  431MPD2    N1 6488   0.777   1.323  12.374  0.2225 -0.1776 -0.6738
  431MPD2    H7 6489   0.815   1.336  12.280  0.6787  0.0556 -0.4574
  432TMC3    C1 6490   0.838   0.740  12.077 -0.7405  0.2839 -0.3038
  432TMC3    C2 6491   0.942   0.741  11.982  0.5964  0.1890 -0.2812
  432TMC3    C3 6492   1.058   0.683  12.012 -0.0968 -0.1233 -0.2555
  432TMC3    C4 6493   0.848   0.669  12.189  0.4622 -0.6739  0.0583
  432TMC3    C5 6494   0.968   0.610  12.218 -0.0836 -0.1597 -0.2651
  432TMC3    C6 6495   1.069   0.611  12.124  0.5408 -0.2881  0.1352
  432TMC3     C 6496   0.800   0.872  12.112 -0.3523 -0.3502 -0.1795
  432TMC3     O 6497   0.850   0.974  12.063 -0.5338  0.5105 -0.1328
  432TMC3     H 6498   0.943   0.803  11.893  0.4318  0.6277  0.0199
  432TMC3    H1 6499   0.766   0.628  12.247  0.0633  0.5882  0.3827
  432TMC3    H2 6500   1.167   0.575  12.153  0.8259 -0.4622 -1.0156
  432TMC3    C7 6501   1.000   0.582  12.360  0.2535  0.7822  0.4077
  432TMC3    C8 6502   1.171   0.748  11.944 -0.4183  0.0623  0.7859
  432TMC3    O1 6503   1.073   0.485  12.384 -0.4740  0.0887 -0.1117
  432TMC3    O2 6504   1.165   0.766  11.824 -0.0559 -0.6262  0.2648
  433MPD2     C 6505   4.199   4.439  11.317 -0.4434 -0.0158 -0.5737
  433MPD2    C1 6506   4.218   4.304  11.345  0.4427  0.0826  0.0649
  433MPD2    C2 6507   4.314   4.274  11.444  0.8272  0.0688 -0.4239
  433MPD2    C3 6508   4.386   4.369  11.504 -0.2443 -0.8588  0.0952
  433MPD2    C4 6509   4.368   4.505  11.476  0.1297 -0.1185  0.0625
  433MPD2    C5 6510   4.274   4.533  11.381  0.7195 -0.2014 -0.3836
  433MPD2     H 6511   4.335   4.169  11.454  1.7161  0.1691 -1.2668
  433MPD2    H1 6512   4.421   4.584  11.529  0.5353 -0.3399 -0.0099
  433MPD2    H2 6513   4.121   4.474  11.252 -0.5445  0.6120 -0.1156
  433MPD2    H3 6514   4.260   4.638  11.355  0.3104 -0.4023 -0.9908
  433MPD2     N 6515   4.476   4.324  11.608  0.0277 -0.6586  0.5138
  433MPD2    H5 6516   4.491   4.225  11.624 -0.4873 -1.0253 -1.3195
  433MPD2    N1 6517   4.134   4.210  11.273 -0.1648 -0.1071  0.2986
  433MPD2    H7 6518   4.076   4.247  11.199 -0.2274 -2.3207 -0.7329
  434TMC3    C1 6519   4.086   3.994  11.195  0.2152  0.0776 -0.2522
  434TMC3    C2 6520   4.139   3.867  11.209  0.1292  0.0725  0.1071
  434TMC3    C3 6521   4.200   3.801  11.106  0.4186  0.0888  0.3284
  434TMC3    C4 6522   4.079   4.047  11.069  0.5139  0.0692  0.6500
  434TMC3    C5 6523   4.129   3.976  10.964 -0.3003  1.0222  0.1398
  434TMC3    C6 6524   4.188   3.852  10.984  0.7918 -0.7414  0.3998
  434TMC3     C 6525   4.125   4.076  11.302 -0.4632  0.2008  0.2389
  434TMC3     O 6526   4.163   4.022  11.405 -0.3232 -0.3380  0.3929
  434TMC3     H 6527   4.153   3.817  11.304 -1.0072 -0.5149 -0.0375
  434TMC3    H1 6528   4.035   4.145  11.051  0.4995  0.4750  2.9166
  434TMC3    H2 6529   4.239   3.788  10.913 -0.7585 -1.0687 -0.4277
  434TMC3    C7 6530   4.091   4.017  10.824  0.2709  0.4760  0.7892
  434TMC3    C8 6531   4.320   3.727  11.135 -0.3308  0.6645 -0.9263
  434TMC3    O1 6532   4.051   4.131  10.807  0.2689  0.2169 -0.1194
  434TMC3    O2 6533   4.312   3.651  11.232 -0.2655 -0.2253 -0.1895
  435MPD2     C 6534   1.881   0.121  15.481  1.0191  0.1459 -0.1294
  435MPD2    C1 6535   1.841   0.100  15.609 -0.6911  0.0406 -0.2940
  435MPD2    C2 6536   1.921   0.028  15.698 -0.2007  0.7056  0.5503
  435MPD2    C3 6537   2.033   4.701  15.647 -0.4173 -0.1633 -0.0907
  435MPD2    C4 6538   2.077   4.732  15.521 -0.2364  0.6518  0.3357
  435MPD2    C5 6539   2.004   0.070  15.438 -0.1640 -0.8475 -0.0665
  435MPD2     H 6540   1.889   0.015  15.801  0.3074 -1.0625  0.4852
  435MPD2    H1 6541   2.174   4.702  15.484  0.0783  0.2807  1.4627
  435MPD2    H2 6542   1.836   0.196  15.415 -1.6227  0.3541  1.9214
  435MPD2    H3 6543   2.038   0.106  15.341 -2.8601  1.2484 -0.2411
  435MPD2     N 6544   2.095   4.599  15.726 -0.9172  0.1245  0.4768
  435MPD2    H5 6545   2.067   4.594  15.823  1.2519 -0.7652  1.0481
  435MPD2    N1 6546   1.714   0.129  15.662  0.9273  0.1612 -0.3086
  435MPD2    H7 6547   1.695   0.101  15.757  1.5223 -1.2609 -0.6071
  436TMC3    C1 6548   1.335   0.182  15.830 -0.9227 -0.1126 -0.2745
  436TMC3    C2 6549   1.461   0.168  15.785  0.1574  0.0860 -0.2844
  436TMC3    C3 6550   1.481   0.187  15.647 -0.1148  0.3093 -0.1178
  436TMC3    C4 6551   1.224   0.187  15.748 -0.1382  0.4334  0.8581
  436TMC3    C5 6552   1.251   0.191  15.611 -0.0972 -0.2813 -0.0853
  436TMC3    C6 6553   1.376   0.193  15.564  0.0677 -0.2545  0.1343
  436TMC3     C 6554   1.315   0.135  15.966  1.0600  0.1079 -0.6921
  436TMC3     O 6555   1.407   0.078  16.020  0.0168  0.3815  0.1250
  436TMC3     H 6556   1.539   0.168  15.859  0.7824 -0.1498 -0.9404
  436TMC3    H1 6557   1.122   0.196  15.783 -0.9738  0.3552 -1.5766
  436TMC3    H2 6558   1.390   0.204  15.457 -0.1489  0.1944  0.1506
  436TMC3    C7 6559   1.131   0.173  15.521 -0.0668  0.4344  0.1268
  436TMC3    C8 6560   1.614   0.174  15.579 -0.6991 -0.9089 -0.7265
  436TMC3    O1 6561   1.028   0.167  15.586  0.0030 -0.5480 -0.2290
  436TMC3    O2 6562   1.616   0.197  15.460 -0.3266  0.3758 -0.3795
  437TMC3    C1 6563   0.422   2.090  11.766 -0.8097 -0.2591  0.2531
  437TMC3    C2 6564   0.383   2.019  11.656  0.0844 -0.1175  0.3408
  437TMC3    C3 6565   0.397   1.885  11.668 -0.8208  0.0588 -0.2306
  437TMC3    C4 6566   0.465   2.041  11.883 -0.9498  0.3547 -0.3190
  437TMC3    C5 6567   0.474   1.902  11.891 -0.3463  0.3005 -0.1336
  437TMC3    C6 6568   0.445   1.822  11.779 -0.0302 -1.1001  0.1823
  437TMC3     C 6569   0.432   2.234  11.762 -0.3782  0.2922  1.0232
  437TMC3     O 6570   0.447   2.295  11.866  0.4957  0.1215 -0.8474
  437TMC3     H 6571   0.341   2.069  11.569  1.6883 -0.2203 -0.4893
  437TMC3    H1 6572   0.479   2.102  11.972 -1.7094 -0.7321  0.5490
  437TMC3    H2 6573   0.455   1.715  11.797 -0.7420 -1.6026 -2.4297
  437TMC3    C7 6574   0.448   1.847  12.024 -0.1329 -0.6144 -0.4171
  437TMC3    C8 6575   0.356   1.810  11.549  0.0304  0.7207  0.1376
  437TMC3    O1 6576   0.381   1.746  12.018 -0.1638  0.1273 -0.5425
  437TMC3    O2 6577   0.357   1.869  11.443 -0.1191 -0.0509 -0.0233
  438MPD2     C 6578   2.575   2.617  16.836  0.0506  0.3019  0.3768
  438MPD2    C1 6579   2.651   2.559  16.935 -0.3941 -0.1425 -0.9703
  438MPD2    C2 6580   2.611   2.555  17.068  0.4099  0.0518 -0.4746
  438MPD2    C3 6581   2.502   2.628  17.105 -0.8056 -0.9563 -0.1731
  438MPD2    C4 6582   2.425   2.682  17.010  0.3614 -0.5703 -0.5871
  438MPD2    C5 6583   2.459   2.668  16.880  0.0808 -0.4529 -0.5351
  438MPD2     H 6584   2.670   2.501  17.141  2.2746  1.2878 -1.0525
  438MPD2    H1 6585   2.324   2.722  17.015  0.0929 -1.4893  1.2899
  438MPD2    H2 6586   2.596   2.609  16.730 -3.2120  2.5073 -0.4353
  438MPD2    H3 6587   2.387   2.705  16.808 -0.1046  0.0531 -0.0898
  438MPD2     N 6588   2.465   2.672  17.238 -0.2596  0.1140 -0.1259
  438MPD2    H5 6589   2.374   2.716  17.253 -0.5346 -0.9326  1.3128
  438MPD2    N1 6590   2.778   2.509  16.891 -0.1109  0.1276 -0.4564
  438MPD2    H7 6591   2.826   2.439  16.947  1.7272  0.0987 -2.0859
  439TMC3    C1 6592   2.975   2.498  16.756 -0.7016 -0.3318 -0.1540
  439TMC3    C2 6593   3.021   2.511  16.631  0.1083  1.0080  0.0675
  439TMC3    C3 6594   3.123   2.428  16.597 -0.4653  0.6695 -0.1862
  439TMC3    C4 6595   3.028   2.419  16.856  0.1794  0.9055 -0.2089
  439TMC3    C5 6596   3.120   2.328  16.807 -0.2619 -0.4723  0.3625
  439TMC3    C6 6597   3.172   2.333  16.682 -0.2829  0.2391 -0.1934
  439TMC3     C 6598   2.847   2.558  16.782 -0.2717 -0.3950 -0.0816
  439TMC3     O 6599   2.836   2.667  16.722  0.1278 -0.5269 -0.3157
  439TMC3     H 6600   2.974   2.571  16.554  1.9090  0.0387 -1.7936
  439TMC3    H1 6601   3.008   2.436  16.961 -0.5056  0.3669 -0.2581
  439TMC3    H2 6602   3.244   2.258  16.651 -0.2617  0.0736  0.2502
  439TMC3    C7 6603   3.174   2.235  16.896  0.0713 -0.6967 -0.8100
  439TMC3    C8 6604   3.153   2.402  16.461  0.5778 -0.4897  0.5052
  439TMC3    O1 6605   3.284   2.192  16.864 -0.3777 -0.4003 -0.0088
  439TMC3    O2 6606   3.183   2.283  16.433  0.4389 -0.4274 -0.5823
  440MPD2     C 6607   1.454   3.377  15.317 -0.0252 -0.1110  0.0616
  440MPD2    C1 6608   1.420   3.409  15.448 -0.0142 -0.5060  0.1486
  440MPD2    C2 6609   1.492   3.362  15.552  0.8339  0.6361  0.6088
  440MPD2    C3 6610   1.590   3.271  15.521 -0.0148  0.4669  0.0168
  440MPD2    C4 6611   1.610   3.217  15.399 -0.5233 -0.2901 -0.4441
  440MPD2    C5 6612   1.544   3.272  15.294 -0.1034  0.2183 -0.1367
  440MPD2     H 6613   1.468   3.385  15.655  0.0775 -1.5304  0.9051
  440MPD2    H1 6614   1.675   3.131  15.386 -1.9775 -1.2423 -1.4198
  440MPD2    H2 6615   1.384   3.411  15.241 -0.5412 -0.4270  0.3988
  440MPD2    H3 6616   1.542   3.223  15.197  0.4873 -1.1602  0.5600
  440MPD2     N 6617   1.678   3.224  15.622 -0.0770  0.3656 -0.2152
  440MPD2    H5 6618   1.736   3.143  15.603 -0.8845 -0.1030 -0.6791
  440MPD2    N1 6619   1.310   3.494  15.485  0.3263  0.0244  0.6681
  440MPD2    H7 6620   1.275   3.492  15.580  2.8765  1.4567  1.6499
  441TMC3    C1 6621   1.786   3.204  15.819  0.2563 -0.1836  0.1494
  441TMC3    C2 6622   1.872   3.287  15.871  0.4339 -0.5587  0.5282
  441TMC3    C3 6623   1.999   3.240  15.886  0.1637  0.4893 -0.3479
  441TMC3    C4 6624   1.813   3.071  15.789 -0.4652  0.1324  0.2128
  441TMC3    C5 6625   1.945   3.029  15.817  0.6514 -0.0747  0.0665
  441TMC3    C6 6626   2.044   3.117  15.856 -0.0336  0.5815  0.0150
  441TMC3     C 6627   1.692   3.279  15.742  0.6497 -0.1273 -0.1130
  441TMC3     O 6628   1.663   3.389  15.783 -0.2197 -0.1914  0.6195
  441TMC3     H 6629   1.837   3.383  15.907 -1.2840 -1.6338  1.7827
  441TMC3    H1 6630   1.742   3.001  15.746 -1.4326  1.8220 -0.9147
  441TMC3    H2 6631   2.146   3.084  15.867 -0.5607 -0.0958  2.9207
  441TMC3    C7 6632   1.961   2.897  15.779 -0.1694  0.6955  0.2284
  441TMC3    C8 6633   2.100   3.332  15.844 -0.3744  0.0199 -0.7050
  441TMC3    O1 6634   1.867   2.817  15.799  0.3422  0.1483  0.1856
  441TMC3    O2 6635   2.201   3.285  15.788 -0.1228 -0.4290  0.0503
  442MPD2     C 6636   0.071   3.238  16.812 -0.4535 -0.1467 -0.2815
  442MPD2    C1 6637   4.676   3.191  16.825 -0.0280  0.1891 -0.6399
  442MPD2    C2 6638   4.618   3.087  16.748  0.0192  0.3373  0.3494
  442MPD2    C3 6639   4.695   3.043  16.637  0.0096  0.0632 -0.4088
  442MPD2    C4 6640   0.092   3.095  16.626  0.8513 -0.4414  0.3323
  442MPD2    C5 6641   0.146   3.177  16.714  0.3531  0.0177 -0.3641
  442MPD2     H 6642   4.514   3.058  16.761 -0.3863  1.6708  0.0746
  442MPD2    H1 6643   0.163   3.044  16.563  0.3963 -1.5801  0.7376
  442MPD2    H2 6644   0.125   3.296  16.886 -0.2378  1.7834 -1.9303
  442MPD2    H3 6645   0.251   3.204  16.710  0.1274  0.9487 -0.0813
  442MPD2     N 6646   4.656   2.952  16.536  0.0557  0.4613 -0.6458
  442MPD2    H5 6647   4.727   2.926  16.468 -1.1007 -1.2467 -1.1857
  442MPD2    N1 6648   4.596   3.242  16.936  0.0775 -0.1925  0.4729
  442MPD2    H7 6649   4.501   3.211  16.949 -0.0084 -0.4236 -0.6792
  443TMC3    C1 6650   4.512   3.400  17.101  0.3997 -0.5156  0.2653
  443TMC3    C2 6651   4.468   3.524  17.074 -0.5083  0.9966 -0.3584
  443TMC3    C3 6652   4.330   3.539  17.068 -0.1931 -0.1410 -0.1491
  443TMC3    C4 6653   4.427   3.296  17.142  0.5567  0.3652  0.1821
  443TMC3    C5 6654   4.295   3.322  17.163  0.3911  0.3157 -0.3997
  443TMC3    C6 6655   4.243   3.441  17.121  0.6380  0.5127  0.3470
  443TMC3     C 6656   4.624   3.356  17.017  0.2340  0.4983  0.1425
  443TMC3     O 6657   4.716   3.434  17.005 -0.3497  0.4610  0.3697
  443TMC3     H 6658   4.531   3.598  17.026  2.1726  0.8050  2.8816
  443TMC3    H1 6659   4.466   3.196  17.158 -0.3032  0.2042  1.2447
  443TMC3    H2 6660   4.135   3.447  17.111  0.8487 -0.5631 -2.6125
  443TMC3    C7 6661   4.218   3.213  17.150  0.1308 -0.2813  0.0983
  443TMC3    C8 6662   4.291   3.562  16.928 -0.5541  0.3508 -0.7181
  443TMC3    O1 6663   4.263   3.114  17.100  0.3825  0.2197  0.1592
  443TMC3    O2 6664   4.215   3.484  16.875 -0.3745  0.1072  0.3240
  444MPD2     C 6665   4.691   2.963  17.132 -0.2093 -0.0670 -0.2820
  444MPD2    C1 6666   4.607   2.858  17.103  0.3750 -1.2261  0.0055
  444MPD2    C2 6667   4.632   2.769  16.997  0.3550 -0.3837  0.1947
  444MPD2    C3 6668   0.001   2.786  16.912 -0.1072  0.3600 -0.4928
  444MPD2    C4 6669   0.078   2.907  16.930 -0.1737 -0.3328 -0.3832
  444MPD2    C5 6670   0.060   2.985  17.038 -0.4785 -0.5177 -0.1901
  444MPD2     H 6671   4.564   2.688  16.971  0.8551 -1.3590  1.9043
  444MPD2    H1 6672   0.164   2.933  16.870  1.8843 -1.9891  1.8360
  444MPD2    H2 6673   4.686   3.028  17.218 -0.5480  1.2365 -1.2681
  444MPD2    H3 6674   0.131   3.066  17.052 -1.7968  0.7621 -0.7714
  444MPD2     N 6675   0.032   2.689  16.810  0.7168  0.4991  0.1826
  444MPD2    H5 6676   4.703   2.610  16.798  0.4476  0.9399 -1.3174
  444MPD2    N1 6677   4.492   2.816  17.180 -0.5819 -0.2014  0.4489
  444MPD2    H7 6678   4.451   2.728  17.152  0.0549 -0.4114  0.1843
  445TMC3    C1 6679   0.171   2.599  16.629 -0.0502  0.4604  0.1421
  445TMC3    C2 6680   0.071   2.516  16.588  0.3192 -0.8827  0.0855
  445TMC3    C3 6681   0.097   2.422  16.492  0.4651 -0.0802 -0.2576
  445TMC3    C4 6682   0.304   2.573  16.601  0.5639  0.0450  0.1828
  445TMC3    C5 6683   0.327   2.473  16.509  0.0888  0.1074  0.3526
  445TMC3    C6 6684   0.227   2.394  16.457 -0.6268 -0.3351 -0.3379
  445TMC3     C 6685   0.140   2.707  16.726 -0.0508  0.5892  0.8696
  445TMC3     O 6686   0.226   2.794  16.722 -0.4357  0.1231 -0.3409
  445TMC3     H 6687   4.702   2.548  16.601  0.3019 -0.5440 -0.8764
  445TMC3    H1 6688   0.376   2.640  16.646 -2.5919  3.3242  0.3311
  445TMC3    H2 6689   0.252   2.344  16.364 -0.1892 -2.8731  1.1383
  445TMC3    C7 6690   0.456   2.453  16.470  0.2339 -0.2886  0.1100
  445TMC3    C8 6691   4.729   2.381  16.401 -0.9112  0.1611  0.1779
  445TMC3    O1 6692   0.534   2.546  16.497 -0.8699  0.1828  0.2093
  445TMC3    O2 6693   4.619   2.429  16.426 -0.2403  0.0341 -0.5959
  446MPD2     C 6694   4.088   3.383  11.604  0.5312  0.7861  0.4799
  446MPD2    C1 6695   4.051   3.488  11.515  0.5717 -0.0862  0.0066
  446MPD2    C2 6696   4.143   3.585  11.493 -0.3996 -0.1083 -0.8784
  446MPD2    C3 6697   4.266   3.585  11.558 -0.0075 -1.0554 -0.3210
  446MPD2    C4 6698   4.303   3.481  11.631 -0.3639  0.3752 -0.0372
  446MPD2    C5 6699   4.211   3.377  11.658  0.3156  0.4478  0.6529
  446MPD2     H 6700   4.109   3.672  11.438  0.4400  1.1025  0.5154
  446MPD2    H1 6701   4.400   3.474  11.679 -2.2077 -2.4531  3.2536
  446MPD2    H2 6702   4.025   3.297  11.625  1.7423 -0.5182 -1.2163
  446MPD2    H3 6703   4.245   3.287  11.707 -1.2186  0.7010  2.2192
  446MPD2     N 6704   4.361   3.686  11.524 -0.1119 -0.4375 -0.5550
  446MPD2    H5 6705   4.327   3.765  11.470  0.1502  0.3927  0.4892
  446MPD2    N1 6706   3.919   3.502  11.459  0.2316 -0.4545  0.5584
  446MPD2    H7 6707   3.899   3.593  11.420  0.4535 -0.5110  0.3148
  447TMC3    C1 6708   4.558   3.819  11.494  0.3783 -0.6349 -0.4848
  447TMC3    C2 6709   4.493   3.896  11.401 -0.1269 -0.1758  0.1888
  447TMC3    C3 6710   4.581   3.970  11.320  0.2013 -0.6925 -0.4324
  447TMC3    C4 6711   4.695   3.826  11.513  0.3244 -0.7239  0.0436
  447TMC3    C5 6712   0.041   3.892  11.429  0.2951  0.1996 -0.2467
  447TMC3    C6 6713   4.717   3.960  11.326 -0.4457  0.5761  0.2807
  447TMC3     C 6714   4.500   3.690  11.545 -0.3664 -0.0614 -0.1747
  447TMC3     O 6715   4.582   3.605  11.586  0.2169  0.1793 -0.3154
  447TMC3     H 6716   4.386   3.897  11.380  0.2825  0.0516 -1.8725
  447TMC3    H1 6717   0.003   3.756  11.584  1.1297 -1.3916 -1.0783
  447TMC3    H2 6718   0.039   4.004  11.245 -0.6390  1.6865  0.7434
  447TMC3    C7 6719   0.184   3.871  11.432 -0.4975  0.3605  0.0165
  447TMC3    C8 6720   4.517   4.052  11.221  0.0830 -0.5090 -0.4340
  447TMC3    O1 6721   0.259   3.896  11.340 -0.0085  0.2976 -0.1466
  447TMC3    O2 6722   4.409   4.010  11.180  0.0735 -0.1255  0.4354
  448TMC3    C1 6723   2.479   3.762  16.922  0.0415  0.1274 -0.4664
  448TMC3    C2 6724   2.496   3.625  16.922  0.2948 -0.0557  0.1831
  448TMC3    C3 6725   2.559   3.559  17.023 -0.9201  0.8346  0.8096
  448TMC3    C4 6726   2.525   3.826  17.039 -0.1779 -1.0719 -0.6567
  448TMC3    C5 6727   2.595   3.754  17.131 -0.1052 -0.5554  0.1083
  448TMC3    C6 6728   2.612   3.615  17.136 -0.0306 -0.3011  1.2984
  448TMC3     C 6729   2.430   3.839  16.804 -0.0294 -0.4113  0.3113
  448TMC3     O 6730   2.407   3.960  16.817  0.1311  0.4566  0.2372
  448TMC3     H 6731   2.456   3.571  16.837 -0.6780  1.3087 -0.2240
  448TMC3    H1 6732   2.519   3.935  17.040  0.8696 -1.0340  0.4031
  448TMC3    H2 6733   2.682   3.563  17.199 -1.8059 -1.9417  1.9301
  448TMC3    C7 6734   2.637   3.829  17.249 -0.3953  0.4314  0.4550
  448TMC3    C8 6735   2.600   3.418  17.006  0.6297 -0.6671  0.0253
  448TMC3    O1 6736   2.646   3.951  17.248 -0.1846  0.4101  0.3346
  448TMC3    O2 6737   2.647   3.363  17.102 -0.1388 -0.0874  0.9083
  449MPD2     C 6738   4.160   2.787  13.938 -0.1431 -0.0810  0.5056
  449MPD2    C1 6739   4.047   2.792  13.860  0.5892  0.1412  0.0800
  449MPD2    C2 6740   3.972   2.681  13.864  0.0510 -0.3663 -0.0213
  449MPD2    C3 6741   4.004   2.564  13.933  0.7666  0.1324  0.2183
  449MPD2    C4 6742   4.121   2.560  14.011 -0.8499 -0.5899  0.4367
  449MPD2    C5 6743   4.197   2.673  14.008 -0.0786 -0.0765 -0.2515
  449MPD2     H 6744   3.879   2.666  13.811  0.7374 -1.6776 -0.8754
  449MPD2    H1 6745   4.163   2.477  14.068  1.0478 -0.1823 -0.3788
  449MPD2    H2 6746   4.227   2.872  13.937 -0.1776 -0.0681 -0.9573
  449MPD2    H3 6747   4.285   2.676  14.070 -0.6476 -0.9036  0.6136
  449MPD2     N 6748   3.911   2.461  13.922  0.1806  0.2432  0.1614
  449MPD2    H5 6749   3.836   2.475  13.856  1.8260  1.6737 -1.4185
  449MPD2    N1 6750   4.004   2.900  13.773 -0.0583  0.7437  0.1714
  449MPD2    H7 6751   3.908   2.888  13.742  0.5376 -1.0315 -0.9814
  450TMC3    C1 6752   3.973   3.096  13.668 -0.0468  0.2951  0.2661
  450TMC3    C2 6753   4.011   3.126  13.538  0.1226  0.1209  0.2767
  450TMC3    C3 6754   3.910   3.152  13.452  0.4156 -0.3164  0.2753
  450TMC3    C4 6755   3.844   3.088  13.713  0.2802 -0.1955  0.3244
  450TMC3    C5 6756   3.752   3.096  13.616  0.0739 -0.5939  0.2802
  450TMC3    C6 6757   3.781   3.133  13.489 -0.4217 -0.0925  0.1487
  450TMC3     C 6758   4.075   3.010  13.734 -0.3819  0.8402  0.6011
  450TMC3     O 6759   4.189   3.051  13.734 -0.2445  0.3687  0.4144
  450TMC3     H 6760   4.118   3.124  13.522 -0.0392 -1.4940 -0.5660
  450TMC3    H1 6761   3.819   3.061  13.814  0.7935 -3.4059 -0.4029
  450TMC3    H2 6762   3.703   3.110  13.418  1.1933 -1.4308 -1.1649
  450TMC3    C7 6763   3.687   2.961  13.616 -0.2417  0.5732  0.0618
  450TMC3    C8 6764   3.930   3.151  13.309  0.0636  0.3404 -0.3847
  450TMC3    O1 6765   3.755   2.869  13.661  0.4241  0.3007  0.0074
  450TMC3    O2 6766   3.852   3.208  13.233  0.1484 -0.0198 -0.4205
  451MPD2     C 6767   0.064   0.786   0.914  0.1818 -0.1911 -0.6136
  451MPD2    C1 6768   0.148   0.873   0.848  0.2901  0.6351  0.4576
  451MPD2    C2 6769   0.219   0.826   0.737 -0.6484 -0.1608 -0.6597
  451MPD2    C3 6770   0.229   0.683   0.712 -0.0860 -0.1840 -0.9234
  451MPD2    C4 6771   0.162   0.603   0.793 -0.3467  0.4027 -0.2094
  451MPD2    C5 6772   0.078   0.650   0.890 -0.4591 -0.1690  0.2464
  451MPD2     H 6773   0.242   0.897   0.659 -0.6428 -1.4797 -1.8665
  451MPD2    H1 6774   0.166   0.494   0.788 -0.5407  0.3189  1.3691
  451MPD2    H2 6775   4.730   0.819   0.992  2.6425 -1.3769  2.0271
  451MPD2    H3 6776   0.027   0.585   0.960  0.8895  0.1099  1.4748
  451MPD2     N 6777   0.300   0.627   0.606  0.4426  0.2921  0.2684
  451MPD2    H5 6778   0.269   0.534   0.582 -0.2537  0.9431 -1.3848
  451MPD2    N1 6779   0.136   1.015   0.864  0.4372  0.1743  0.2853
  451MPD2    H7 6780   0.056   1.047   0.918  1.1008  2.8758 -0.3352
  452TMC3    C1 6781   0.437   0.637   0.406  0.2190  0.4533 -0.5482
  452TMC3    C2 6782   0.428   0.502   0.376 -0.0558  0.0614  0.3673
  452TMC3    C3 6783   0.491   0.459   0.259  0.5056  0.8183 -0.1542
  452TMC3    C4 6784   0.470   0.731   0.309  0.1849 -0.7973 -0.5843
  452TMC3    C5 6785   0.533   0.686   0.196 -0.4646 -0.6161 -0.0880
  452TMC3    C6 6786   0.540   0.549   0.172  0.3681 -0.1608  0.1599
  452TMC3     C 6787   0.390   0.697   0.531 -0.0544 -0.8674  0.2140
  452TMC3     O 6788   0.447   0.802   0.560 -0.4787  0.1355 -0.0050
  452TMC3     H 6789   0.406   0.424   0.448 -2.2199 -0.7517 -1.1867
  452TMC3    H1 6790   0.465   0.839   0.320  1.3620 -0.6403 -1.6660
  452TMC3    H2 6791   0.573   0.511   0.076 -0.7533 -0.9801  0.0995
  452TMC3    C7 6792   0.600   0.795   0.125 -0.1668 -0.1715  0.8474
  452TMC3    C8 6793   0.485   0.319   0.223 -0.2787 -0.0519 -0.2432
  452TMC3    O1 6794   0.559   0.909   0.127 -0.6006 -0.2333 -1.1820
  452TMC3    O2 6795   0.418   0.246   0.300 -0.0653 -0.4210  0.3673
  453TMC3    C1 6796   2.247   2.966  12.140 -0.1153 -0.5259 -0.5089
  453TMC3    C2 6797   2.136   2.899  12.166  0.3367  0.2030  0.1241
  453TMC3    C3 6798   2.071   2.846  12.054 -0.4177  0.5510 -0.0354
  453TMC3    C4 6799   2.305   2.989  12.014 -0.8766 -0.2159  0.0633
  453TMC3    C5 6800   2.229   2.951  11.907  0.1119 -0.1819 -0.1372
  453TMC3    C6 6801   2.118   2.876  11.928 -0.1430  0.7777  0.2735
  453TMC3     C 6802   2.284   3.058  12.245 -0.0331 -0.3773  0.0187
  453TMC3     O 6803   2.386   3.122  12.211  0.5535 -0.2022 -0.0950
  453TMC3     H 6804   2.089   2.884  12.262  1.7438 -0.9731  0.6362
  453TMC3    H1 6805   2.381   3.065  12.005  0.5018 -1.5939  0.1757
  453TMC3    H2 6806   2.073   2.833  11.839  1.2411 -0.2004  0.0550
  453TMC3    C7 6807   2.219   3.033  11.788 -0.1802 -0.0828  0.0151
  453TMC3    C8 6808   1.960   2.761  12.077 -0.1274  0.2497  0.8461
  453TMC3    O1 6809   2.116   3.030  11.724  0.2975 -0.0641 -0.9560
  453TMC3    O2 6810   1.880   2.784  12.168 -0.6309 -0.5014 -0.0100
  454MPD2     C 6811   0.914   2.618  15.999  0.1098 -0.1824  0.1494
  454MPD2    C1 6812   0.812   2.682  15.933 -0.3280 -0.8826  0.6493
  454MPD2    C2 6813   0.756   2.791  15.996 -0.8020 -0.8309 -0.1696
  454MPD2    C3 6814   0.788   2.832  16.128  0.2646 -0.4787 -0.6459
  454MPD2    C4 6815   0.886   2.755  16.191  0.7037 -0.5212 -0.4794
  454MPD2    C5 6816   0.947   2.649  16.128  0.0158  0.5820  0.6809
  454MPD2     H 6817   0.685   2.844  15.934  1.0930  2.0253  0.1093
  454MPD2    H1 6818   0.930   2.760  16.290  1.2072  1.6404 -0.8169
  454MPD2    H2 6819   0.975   2.538  15.959 -1.0473 -0.7088 -0.5606
  454MPD2    H3 6820   1.023   2.582  16.166 -0.7510 -0.5679  0.1481
  454MPD2     N 6821   0.739   2.952  16.188 -0.1281 -0.3195 -0.5730
  454MPD2    H5 6822   0.729   2.946  16.289 -1.9073 -0.7327 -0.7802
  454MPD2    N1 6823   0.761   2.634  15.814  0.2636 -0.3135 -0.2522
  454MPD2    H7 6824   0.686   2.691  15.776  0.8447  0.9671  0.5101
  455TMC3    C1 6825   0.548   3.079  16.199  0.2600 -0.2396 -0.4613
  455TMC3    C2 6826   0.566   3.113  16.330  1.0292  0.4345 -0.5180
  455TMC3    C3 6827   0.482   3.067  16.426  0.7722  0.3670 -0.3438
  455TMC3    C4 6828   0.448   2.994  16.168 -0.3421  0.1442  0.7227
  455TMC3    C5 6829   0.368   2.942  16.266  0.0832  0.1819  0.4267
  455TMC3    C6 6830   0.383   2.981  16.400 -0.3043  0.1078  0.3418
  455TMC3     C 6831   0.659   3.038  16.118  0.5299  0.9468 -0.4554
  455TMC3     O 6832   0.637   3.051  15.996 -0.2577 -0.3271  0.4827
  455TMC3     H 6833   0.658   3.163  16.360  0.5053  1.1134 -0.0478
  455TMC3    H1 6834   0.433   2.954  16.068 -0.6455  2.0402  0.0041
  455TMC3    H2 6835   0.333   2.932  16.482  0.3913  0.0575  0.7348
  455TMC3    C7 6836   0.326   2.809  16.254  0.3399 -0.0452 -0.2200
  455TMC3    C8 6837   0.484   3.123  16.563 -0.0398  0.0318  0.3629
  455TMC3    O1 6838   0.212   2.770  16.291  0.7502  0.3005  0.2858
  455TMC3    O2 6839   0.455   3.044  16.650  0.1101 -0.1471 -0.4481
  456MPD2     C 6840   3.395   2.900  16.444 -0.2172  0.6868 -0.1439
  456MPD2    C1 6841   3.388   2.772  16.491 -0.3848  0.3642  0.2902
  456MPD2    C2 6842   3.311   2.751  16.608 -0.0107 -0.3826  0.3553
  456MPD2    C3 6843   3.238   2.858  16.672  0.1847 -0.3856  0.7780
  456MPD2    C4 6844   3.237   2.977  16.599  0.4195  0.4608  0.1164
  456MPD2    C5 6845   3.312   2.998  16.493  0.8484 -0.2180  0.3343
  456MPD2     H 6846   3.324   2.664  16.672  1.7469 -0.5710 -0.2638
  456MPD2    H1 6847   3.190   3.067  16.639 -1.6957  0.5550 -2.6269
  456MPD2    H2 6848   3.462   2.928  16.364  0.4656 -1.5077 -0.3401
  456MPD2    H3 6849   3.312   3.098  16.451 -0.8521  0.1230  1.1867
  456MPD2     N 6850   3.175   2.847  16.801  0.2045  0.0965 -0.0336
  456MPD2    H5 6851   3.099   2.913  16.815  2.1562  2.0722  1.2571
  456MPD2    N1 6852   3.471   2.675  16.428  0.6647 -0.0164  0.3770
  456MPD2    H7 6853   3.537   2.708  16.358  1.9191  1.1118  2.1080
  457TMC3    C1 6854   3.104   2.749  16.997  0.5118  0.1637  1.4276
  457TMC3    C2 6855   2.984   2.806  16.972  0.3482  0.2696 -0.5862
  457TMC3    C3 6856   2.913   2.836  17.083 -0.0641  0.4529 -0.3004
  457TMC3    C4 6857   3.155   2.719  17.120  0.7234 -0.5030  0.1665
  457TMC3    C5 6858   3.073   2.750  17.227  0.0258  0.0704 -0.0133
  457TMC3    C6 6859   2.958   2.816  17.208  0.6679  0.4915  0.3876
  457TMC3     C 6860   3.189   2.742  16.888 -0.1694 -0.2686  0.2757
  457TMC3     O 6861   3.271   2.654  16.892 -0.5519  0.4158 -0.7460
  457TMC3     H 6862   2.950   2.829  16.871 -0.9607 -0.5584 -0.3276
  457TMC3    H1 6863   3.251   2.674  17.142  0.4734 -2.1274 -2.1437
  457TMC3    H2 6864   2.886   2.815  17.290 -0.8043  1.1491 -0.9077
  457TMC3    C7 6865   3.128   2.740  17.358  0.6303 -0.3568  0.0933
  457TMC3    C8 6866   2.800   2.926  17.067  0.6085 -0.4104 -0.3398
  457TMC3    O1 6867   3.218   2.658  17.371 -0.3568 -0.0485 -0.2274
  457TMC3    O2 6868   2.777   2.993  17.166  0.3094  0.1655 -0.0490
  458MPD2     C 6869   0.609   1.717  12.493 -0.1710  0.6367 -0.0931
  458MPD2    C1 6870   0.691   1.822  12.448  0.5319  0.5098 -0.3839
  458MPD2    C2 6871   0.654   1.890  12.329 -0.1871  0.0381 -0.7620
  458MPD2    C3 6872   0.555   1.837  12.249 -0.1278 -0.2531 -0.4899
  458MPD2    C4 6873   0.479   1.729  12.289 -0.2683  0.9649  0.1878
  458MPD2    C5 6874   0.516   1.664  12.402 -0.2043 -0.2056  0.2443
  458MPD2     H 6875   0.705   1.983  12.305  3.1192 -1.5322  0.1031
  458MPD2    H1 6876   0.393   1.685  12.239  0.4436 -0.5104  0.2448
  458MPD2    H2 6877   0.614   1.672  12.591 -1.4422  0.3407 -0.1579
  458MPD2    H3 6878   0.457   1.576  12.425 -1.7256  0.3794 -1.3820
  458MPD2     N 6879   0.540   1.894  12.118 -0.4297 -0.0930  0.0383
  458MPD2    H5 6880   0.609   1.965  12.096 -0.1573 -0.5340 -0.5296
  458MPD2    N1 6881   0.790   1.886  12.527  0.2158  0.5542  0.1323
  458MPD2    H7 6882   0.813   1.978  12.489 -1.3723 -0.5072 -3.3985
  459TMC3    C1 6883   0.939   1.927  12.702 -0.3747  0.3295 -0.6133
  459TMC3    C2 6884   1.041   1.966  12.619 -0.0641  0.0851  0.0678
  459TMC3    C3 6885   1.152   2.018  12.688 -0.1755  0.7704  0.6337
  459TMC3    C4 6886   0.948   1.918  12.835  0.0041  0.0478 -0.5924
  459TMC3    C5 6887   1.066   1.955  12.893 -0.0302  0.1269 -0.5765
  459TMC3    C6 6888   1.171   2.009  12.824 -0.5114  0.5945 -0.4480
  459TMC3     C 6889   0.842   1.837  12.644 -0.1906  0.0132  0.0368
  459TMC3     O 6890   0.805   1.739  12.710 -0.3406 -0.2257 -0.0955
  459TMC3     H 6891   1.044   1.965  12.511 -0.3447 -1.4853  0.0716
  459TMC3    H1 6892   0.870   1.871  12.894  2.9484 -0.5130  2.8771
  459TMC3    H2 6893   1.263   2.030  12.877 -1.8227  1.2327  1.5518
  459TMC3    C7 6894   1.092   1.914  13.035  0.0611 -0.4046 -0.6950
  459TMC3    C8 6895   1.271   2.062  12.621 -0.7988  0.1781  0.2358
  459TMC3    O1 6896   1.211   1.902  13.063  0.5519  0.5316 -0.3014
  459TMC3    O2 6897   1.325   2.151  12.683  0.4909 -0.5015  0.0483
  460MPD2     C 6898   4.521   4.414  11.178  0.5191 -0.4553 -0.0569
  460MPD2    C1 6899   4.498   4.282  11.148 -0.5312  0.0347  0.6353
  460MPD2    C2 6900   4.423   4.251  11.033  0.0988 -0.1496 -0.4123
  460MPD2    C3 6901   4.372   4.346  10.955 -0.0040  0.2175 -0.4197
  460MPD2    C4 6902   4.385   4.480  10.986  0.3364 -0.2153 -0.5639
  460MPD2    C5 6903   4.458   4.513  11.100 -0.6935  0.6623 -0.3647
  460MPD2     H 6904   4.414   4.149  10.997  0.8855 -0.3556 -0.0178
  460MPD2    H1 6905   4.315   4.551  10.944 -0.0456 -0.1543  0.1582
  460MPD2    H2 6906   4.556   4.436  11.278  1.5822  1.2798 -0.8008
  460MPD2    H3 6907   4.455   4.616  11.133 -0.1483  0.7026 -0.4400
  460MPD2     N 6908   4.310   4.307  10.837  0.1555 -0.0521  0.5125
  460MPD2    H5 6909   4.338   4.214  10.805  0.1196  0.6899 -1.6868
  460MPD2    N1 6910   4.555   4.183  11.225 -0.5597 -0.4153  0.1623
  460MPD2    H7 6911   4.637   4.210  11.278 -0.1687 -0.8776 -0.2051
  461TMC3    C1 6912   4.236   4.336  10.613 -0.1180  0.0033  0.3848
  461TMC3    C2 6913   4.330   4.254  10.564  0.6276  0.2563 -0.3275
  461TMC3    C3 6914   4.338   4.229  10.433 -0.1439 -0.9176 -0.9439
  461TMC3    C4 6915   4.145   4.389  10.528  0.7651 -0.3767  0.0457
  461TMC3    C5 6916   4.157   4.366  10.394 -0.9289 -1.1395 -0.3448
  461TMC3    C6 6917   4.253   4.289  10.343  0.1405 -0.4564  0.0017
  461TMC3     C 6918   4.235   4.385  10.752  0.7004 -0.2654 -0.0990
  461TMC3     O 6919   4.165   4.482  10.766  0.0931 -0.1352 -0.2219
  461TMC3     H 6920   4.403   4.198  10.622  0.2778 -0.0806 -0.2175
  461TMC3    H1 6921   4.069   4.456  10.566  0.1890 -0.6081 -0.6949
  461TMC3    H2 6922   4.255   4.253  10.241  0.5126 -2.3762  0.6825
  461TMC3    C7 6923   4.094   4.459  10.300 -0.0590  0.2066 -0.2634
  461TMC3    C8 6924   4.414   4.116  10.388  0.6030  0.5287 -0.1413
  461TMC3    O1 6925   4.081   4.574  10.338  0.7880 -0.3021  0.2126
  461TMC3    O2 6926   4.405   4.014  10.456 -0.4015 -0.0951  0.6991
  462TMC3    C1 6927   4.553   0.814  17.603  0.0512  0.2485 -0.4433
  462TMC3    C2 6928   4.583   0.689  17.651  0.3817 -0.1866  1.0374
  462TMC3    C3 6929   4.557   0.655   0.052 -0.5504  0.4500  0.3659
  462TMC3    C4 6930   4.477   0.890  17.686  1.0507  0.2255  0.0368
  462TMC3    C5 6931   4.442   0.854   0.082  0.7621 -0.0324  0.2028
  462TMC3    C6 6932   4.507   0.749   0.139 -0.1318 -0.1469  0.5475
  462TMC3     C 6933   4.544   0.814  17.455 -0.2340 -0.3425  0.2513
  462TMC3     O 6934   4.513   0.710  17.396 -1.0369 -0.2296  0.5169
  462TMC3     H 6935   4.641   0.629  17.581  2.1721  0.8867  1.5897
  462TMC3    H1 6936   4.452   0.990  17.652 -0.3104 -0.9018 -2.3211
  462TMC3    H2 6937   4.497   0.706   0.238 -0.9478  1.1521  1.0239
  462TMC3    C7 6938   4.307   0.884   0.114 -0.0697  0.6691 -0.5000
  462TMC3    C8 6939   4.594   0.524   0.105  0.0071 -0.2946 -0.8045
  462TMC3    O1 6940   4.277   0.840   0.225 -0.5116 -0.0446 -0.6723
  462TMC3    O2 6941   4.536   0.472   0.198  0.6912  0.1608 -0.1497
  463MPD2     C 6942   1.599   3.564   2.086  0.0550  0.0921 -0.2742
  463MPD2    C1 6943   1.569   3.634   1.966  0.5380  0.3357 -0.6008
  463MPD2    C2 6944   1.645   3.739   1.929 -0.4280  0.4397  0.5431
  463MPD2    C3 6945   1.764   3.771   1.998 -0.5085 -0.0994  0.8360
  463MPD2    C4 6946   1.784   3.697   2.112  0.6377  0.5349  0.5554
  463MPD2    C5 6947   1.702   3.602   2.166 -0.1487 -0.0406  0.0935
  463MPD2     H 6948   1.621   3.787   1.835  0.1925  0.2341  0.2803
  463MPD2    H1 6949   1.874   3.719   2.168  0.0958 -1.6047  2.2717
  463MPD2    H2 6950   1.543   3.476   2.112 -0.2132 -0.3887 -2.4617
  463MPD2    H3 6951   1.727   3.557   2.261  2.8928  2.2617  0.3853
  463MPD2     N 6952   1.864   3.859   1.952 -0.2125  0.3077  0.8693
  463MPD2    H5 6953   1.947   3.869   2.010 -2.8920 -1.2601  4.9872
  463MPD2    N1 6954   1.455   3.593   1.886  0.4203 -0.0566  0.3195
  463MPD2    H7 6955   1.433   3.663   1.816  0.9645 -0.8096 -0.5975
  464TMC3    C1 6956   1.254   3.496   1.824 -0.4217  0.7332 -0.2345
  464TMC3    C2 6957   1.198   3.620   1.814 -0.1768  0.1565 -0.2301
  464TMC3    C3 6958   1.077   3.635   1.750 -0.0397 -0.4807 -0.3793
  464TMC3    C4 6959   1.201   3.386   1.754  0.3777 -0.2162  0.0257
  464TMC3    C5 6960   1.087   3.405   1.684 -0.2185  0.0556  0.4487
  464TMC3    C6 6961   1.026   3.531   1.677  0.1420  0.1202 -0.6831
  464TMC3     C 6962   1.376   3.479   1.899 -0.1538 -0.1282  1.4542
  464TMC3     O 6963   1.399   3.370   1.950 -0.1045  0.5156  0.2306
  464TMC3     H 6964   1.230   3.694   1.887  1.5651  0.0078 -0.8471
  464TMC3    H1 6965   1.252   3.290   1.759  1.0045  0.0336 -1.3971
  464TMC3    H2 6966   0.942   3.536   1.608  1.0202 -1.7397 -1.8912
  464TMC3    C7 6967   1.050   3.298   1.597 -0.0645  0.1665  0.1036
  464TMC3    C8 6968   1.009   3.767   1.734  0.3684  0.0848  0.8577
  464TMC3    O1 6969   1.138   3.224   1.564 -0.7193  0.2622 -0.6853
  464TMC3    O2 6970   0.907   3.769   1.668 -0.1224 -0.4562 -0.5266
  465MPD2     C 6971   2.185   2.943  17.016  0.3397 -0.5726 -0.5135
  465MPD2    C1 6972   2.072   2.864  16.994  0.0949 -1.2043 -0.0136
  465MPD2    C2 6973   2.015   2.867  16.868  0.1874 -0.1443 -0.4469
  465MPD2    C3 6974   2.071   2.936  16.762 -0.4362 -0.3884  0.8044
  465MPD2    C4 6975   2.188   3.003  16.786  0.1652  0.0224  0.6225
  465MPD2    C5 6976   2.248   3.000  16.906  0.0589  0.1716  0.2880
  465MPD2     H 6977   1.925   2.809  16.848 -0.2252  0.5496 -0.6147
  465MPD2    H1 6978   2.238   3.060  16.708  0.0929 -0.7806 -0.0071
  465MPD2    H2 6979   2.242   2.950  17.108  0.6000  0.0748 -0.7276
  465MPD2    H3 6980   2.335   3.062  16.927 -0.0053  0.0343  0.9751
  465MPD2     N 6981   2.009   2.914  16.635 -0.3415 -0.2196  0.3880
  465MPD2    H5 6982   1.926   2.856  16.637  0.2680 -1.1070 -0.2135
  465MPD2    N1 6983   2.008   2.794  17.105  0.1838 -0.0246 -0.6999
  465MPD2    H7 6984   1.914   2.767  17.080 -0.8272  0.4350  2.6793
  466TMC3    C1 6985   1.760   2.850  16.310 -0.7404 -0.5762 -0.1221
  466TMC3    C2 6986   1.737   2.962  16.231 -0.0669 -0.4203  0.1368
  466TMC3    C3 6987   1.807   3.079  16.250  0.0298 -0.4209 -0.2986
  466TMC3    C4 6988   1.865   2.852  16.406 -1.0528 -0.5373  0.5841
  466TMC3    C5 6989   1.935   2.971  16.423 -0.1646  0.1520 -0.3737
  466TMC3    C6 6990   1.915   3.077  16.340 -0.5616 -0.0309 -0.3734
  466TMC3     C 6991   1.645   2.787  16.365 -0.3005 -0.7259 -0.0981
  466TMC3     O 6992   1.541   2.853  16.365 -0.2634 -0.3535  0.8262
  466TMC3     H 6993   1.651   2.955  16.165 -0.0085  1.1309 -0.1038
  466TMC3    H1 6994   1.893   2.767  16.466 -1.4655 -0.0013  1.5310
  466TMC3    H2 6995   1.978   3.164  16.352  1.7468 -2.2288  3.2940
  466TMC3    C7 6996   2.040   2.988  16.524 -0.4295  0.5333 -0.1343
  466TMC3    C8 6997   1.746   3.199  16.208  0.0863 -0.3498 -0.1205
  466TMC3    O1 6998   2.116   3.078  16.509 -0.7000  0.4124 -0.5223
  466TMC3    O2 6999   1.676   3.199  16.107 -0.2487  0.0881  0.1925
  467TMC3    C1 7000   3.201   1.135  14.017 -0.6932  0.2198  0.6695
  467TMC3    C2 7001   3.129   1.126  13.899  0.2039 -0.6689  0.1572
  467TMC3    C3 7002   2.996   1.156  13.911 -0.3857 -0.0979  0.1128
  467TMC3    C4 7003   3.141   1.166  14.139  0.3171 -0.1197 -0.1233
  467TMC3    C5 7004   3.006   1.171  14.145  0.0797 -0.3541 -0.2704
  467TMC3    C6 7005   2.930   1.165  14.031 -0.0981  0.1969 -0.8254
  467TMC3     C 7006   3.339   1.184  14.010  0.5524  0.3370  0.5774
  467TMC3     O 7007   3.363   1.266  14.096 -0.2716 -0.5011 -0.3063
  467TMC3     H 7008   3.185   1.119  13.808 -0.4419 -0.0984 -0.2890
  467TMC3    H1 7009   3.197   1.183  14.230  0.6073 -0.2815 -0.2698
  467TMC3    H2 7010   2.824   1.186  14.026 -0.3963 -0.9433  0.8995
  467TMC3    C7 7011   2.939   1.200  14.271  0.0101 -0.1441 -0.0905
  467TMC3    C8 7012   2.931   1.207  13.787 -0.0529 -0.2222 -0.2682
  467TMC3    O1 7013   3.010   1.168  14.368 -0.7946  0.0151 -0.9380
  467TMC3    O2 7014   2.864   1.310  13.796 -0.5543 -0.1754 -0.2438
  468MPD2     C 7015   2.163   4.185  10.366 -0.5339  0.8561 -0.1889
  468MPD2    C1 7016   2.175   4.148  10.494 -0.6808 -0.2485 -0.2788
  468MPD2    C2 7017   2.116   4.029  10.535  0.3502  0.0471  0.3700
  468MPD2    C3 7018   2.017   3.965  10.460 -0.3778  0.1428 -0.6177
  468MPD2    C4 7019   2.008   4.006  10.333 -0.3606  0.2657  0.1941
  468MPD2    C5 7020   2.075   4.111  10.293  0.2755 -0.2290 -0.1410
  468MPD2     H 7021   2.140   3.987  10.632  1.2822  0.2396  0.2229
  468MPD2    H1 7022   1.927   3.971  10.270 -0.3322 -0.6592  0.6711
  468MPD2    H2 7023   2.209   4.269  10.315 -0.4824  0.8139 -0.2120
  468MPD2    H3 7024   2.056   4.149  10.193 -0.1160 -1.8488 -0.6711
  468MPD2     N 7025   1.936   3.857  10.505 -0.7078  0.3591 -0.7959
  468MPD2    H5 7026   1.872   3.821  10.436  1.1855  0.4789 -2.6247
  468MPD2    N1 7027   2.250   4.228  10.586 -0.0764 -0.2143 -0.7344
  468MPD2    H7 7028   2.271   4.182  10.674  0.9599 -0.5771 -1.1768
  469TMC3    C1 7029   2.289   4.425  10.708 -0.4565 -0.0283 -0.5135
  469TMC3    C2 7030   2.326   4.342  10.817  0.0690  0.1687  0.7304
  469TMC3    C3 7031   2.319   4.398  10.944 -0.0736  0.2089  0.8009
  469TMC3    C4 7032   2.263   4.557  10.723  0.5799 -0.6576 -0.4112
  469TMC3    C5 7033   2.239   4.598  10.858 -0.0991  0.1308  0.5451
  469TMC3    C6 7034   2.284   4.523  10.975  0.6016  0.9195 -0.4309
  469TMC3     C 7035   2.252   4.369  10.580 -0.2250 -0.1204  0.4101
  469TMC3     O 7036   2.204   4.440  10.488  0.4095  0.1012 -0.2614
  469TMC3     H 7037   2.357   4.239  10.815  2.5848  1.0704 -5.0617
  469TMC3    H1 7038   2.240   4.626  10.643 -1.6542 -0.2629  0.5767
  469TMC3    H2 7039   2.252   4.544  11.077 -0.4504 -1.3121 -0.3059
  469TMC3    C7 7040   2.136   4.696  10.885  0.4108  0.5614  0.1605
  469TMC3    C8 7041   2.323   4.306  11.051  0.0527  0.3003  0.2627
  469TMC3    O1 7042   2.070   4.719  10.783  0.0273 -0.2801 -0.3319
  469TMC3    O2 7043   2.294   4.192  11.024  0.3007 -0.4794 -0.7136
  470TMC3    C1 7044   3.898   0.284   0.709 -0.1856 -0.1190  0.0491
  470TMC3    C2 7045   3.923   0.407   0.653  0.2945  0.4871 -0.4214
  470TMC3    C3 7046   4.014   0.486   0.708  0.8554 -0.0861 -0.0190
  470TMC3    C4 7047   3.970   0.238   0.820 -0.0619 -1.0210 -0.7205
  470TMC3    C5 7048   4.069   0.321   0.869  1.0488  0.2459 -0.2027
  470TMC3    C6 7049   4.092   0.446   0.813  0.2652 -0.8257 -0.3159
  470TMC3     C 7050   3.778   0.215   0.664  0.6701  0.8801  0.1469
  470TMC3     O 7051   3.712   0.256   0.571  0.5632 -0.0072 -0.0098
  470TMC3     H 7052   3.860   0.436   0.569  0.3746 -0.0785 -0.6770
  470TMC3    H1 7053   3.960   0.144   0.874  2.2497 -0.1368  1.2710
  470TMC3    H2 7054   4.178   0.504   0.845 -1.8199  0.3841  3.0911
  470TMC3    C7 7055   4.173   0.275   0.967 -0.2845 -0.0520  0.2336
  470TMC3    C8 7056   3.999   0.636   0.705 -0.1481 -0.7953  0.3335
  470TMC3    O1 7057   4.282   0.331   0.958 -0.3763 -0.1737 -0.4797
  470TMC3    O2 7058   4.074   0.702   0.776 -0.0055  0.1409 -0.2952
  471MPD2     C 7059   4.398   1.915  16.213  0.1167 -0.1771 -0.4371
  471MPD2    C1 7060   4.399   1.781  16.252  0.3831  0.2042 -0.6324
  471MPD2    C2 7061   4.455   1.755  16.378  0.5048 -0.0062  0.7410
  471MPD2    C3 7062   4.496   1.857  16.469 -0.0880  0.1894  0.6936
  471MPD2    C4 7063   4.481   1.987  16.421 -0.1714  0.1329 -0.4292
  471MPD2    C5 7064   4.431   2.013  16.298 -0.1821  0.3529 -0.0483
  471MPD2     H 7065   4.465   1.654  16.417  0.2490 -0.7877 -1.2356
  471MPD2    H1 7066   4.498   2.079  16.476 -0.7880  1.4612 -2.4721
  471MPD2    H2 7067   4.348   1.938  16.119 -1.3332 -1.0241  0.1248
  471MPD2    H3 7068   4.410   2.117  16.276  0.5229  0.1855 -1.5050
  471MPD2     N 7069   4.563   1.837  16.594 -0.0881 -1.3747  0.3137
  471MPD2    H5 7070   4.605   1.913  16.646 -1.3873 -1.3665  1.3596
  471MPD2    N1 7071   4.353   1.679  16.163  0.2981  0.3492 -0.2406
  471MPD2    H7 7072   4.332   1.709  16.068  1.9508 -1.0326 -1.0330
  472TMC3    C1 7073   4.316   1.446  16.082 -0.3406  0.0767  0.5595
  472TMC3    C2 7074   4.235   1.492  15.975 -0.5882 -0.9425 -0.5019
  472TMC3    C3 7075   4.166   1.390  15.909 -0.1096  0.5685 -0.6194
  472TMC3    C4 7076   4.328   1.312  16.116  0.5236 -0.3360 -0.2378
  472TMC3    C5 7077   4.276   1.221  16.034  0.4692 -0.3261 -0.9284
  472TMC3    C6 7078   4.189   1.257  15.933  0.2757  0.0004 -0.1371
  472TMC3     C 7079   4.361   1.539  16.192 -0.6948 -0.1325  0.9808
  472TMC3     O 7080   4.388   1.484  16.295 -0.3927 -0.0675  0.2780
  472TMC3     H 7081   4.210   1.598  15.978 -0.2310 -0.8333 -1.3376
  472TMC3    H1 7082   4.382   1.280  16.204 -0.9735  2.4923  1.7333
  472TMC3    H2 7083   4.145   1.185  15.865 -2.6997  0.1184  1.6329
  472TMC3    C7 7084   4.289   1.082  16.077 -0.2036 -0.5188 -0.2002
  472TMC3    C8 7085   4.028   1.425  15.887  0.0760  0.7701  0.4841
  472TMC3    O1 7086   4.325   1.070  16.195 -0.0717  0.2508  0.3728
  472TMC3    O2 7087   4.007   1.539  15.850  0.0432  0.0220 -0.2710
  473MPD2     C 7088   0.027   3.737  14.020  0.2383 -0.3045 -0.1463
  473MPD2    C1 7089   4.669   3.836  13.991  0.2263 -0.1687 -0.2960
  473MPD2    C2 7090   4.646   3.934  14.090 -0.1424 -0.1029 -0.3508
  473MPD2    C3 7091   4.718   3.938  14.210 -0.1572  0.0884 -0.4215
  473MPD2    C4 7092   0.077   3.841  14.233  0.0734  0.6498  0.2094
  473MPD2    C5 7093   0.101   3.747  14.137  0.0681 -0.1259  0.1508
  473MPD2     H 7094   4.563   4.003  14.082 -0.3968 -0.4357 -0.5765
  473MPD2    H1 7095   0.155   3.843  14.309  0.8930 -1.2264 -0.5740
  473MPD2    H2 7096   0.065   3.663  13.951  2.0203 -0.5006  1.0634
  473MPD2    H3 7097   0.190   3.686  14.153 -0.2495 -0.9806 -1.3666
  473MPD2     N 7098   4.686   4.026  14.313 -0.6149 -0.0714 -0.2793
  473MPD2    H5 7099   4.733   4.010  14.401 -1.1449 -2.8956 -0.4753
  473MPD2    N1 7100   4.581   3.835  13.881  0.2273  0.4005 -0.3994
  473MPD2    H7 7101   4.529   3.922  13.870  1.0412  1.1094  1.3755
  474TMC3    C1 7102   4.622   4.226  14.407 -0.0380 -0.6525  0.0475
  474TMC3    C2 7103   4.535   4.319  14.421  0.3005 -0.2302  0.6412
  474TMC3    C3 7104   4.563   4.435  14.487  0.5174  0.6304  0.0647
  474TMC3    C4 7105   0.007   4.241  14.478  0.0670  0.1500  0.0862
  474TMC3    C5 7106   0.030   4.352  14.552  0.6836 -0.1726  0.0268
  474TMC3    C6 7107   4.675   4.457  14.557 -0.1592  0.1999  0.3417
  474TMC3     C 7108   4.600   4.129  14.304 -0.5751  0.1662  0.0381
  474TMC3     O 7109   4.522   4.173  14.215 -0.2556 -0.6577  0.4416
  474TMC3     H 7110   4.437   4.306  14.376  1.8160  0.5642 -2.8080
  474TMC3    H1 7111   0.091   4.175  14.466 -0.0017  0.3994 -1.9171
  474TMC3    H2 7112   4.685   4.550  14.612  1.6460  0.8325 -1.0446
  474TMC3    C7 7113   0.163   4.367  14.599 -0.0457 -0.1958 -0.3286
  474TMC3    C8 7114   4.479   4.551  14.448  0.2140  0.1168 -0.0626
  474TMC3    O1 7115   0.253   4.333  14.519 -0.0180  0.0140 -0.2623
  474TMC3    O2 7116   4.362   4.525  14.426  0.8451 -0.8784 -0.1951
  475MPD2     C 7117   2.963   1.780  10.060  0.0978  0.6300 -1.1461
  475MPD2    C1 7118   2.975   1.855  10.176 -0.3820 -0.7096 -0.1015
  475MPD2    C2 7119   2.868   1.868  10.263  0.0939 -0.4949  0.3642
  475MPD2    C3 7120   2.746   1.819  10.223  0.8774  0.2255  0.1726
  475MPD2    C4 7121   2.731   1.754  10.100 -0.1923 -0.8129  0.4553
  475MPD2    C5 7122   2.844   1.726  10.023 -0.4790 -0.2161 -0.2290
  475MPD2     H 7123   2.872   1.926  10.354 -1.0124  1.0787 -0.5811
  475MPD2    H1 7124   2.641   1.714  10.054 -1.1738 -0.1373  1.8147
  475MPD2    H2 7125   3.037   1.771   9.982 -1.3776  1.1066 -2.6082
  475MPD2    H3 7126   2.833   1.669   9.932 -0.6155  0.2533 -0.5090
  475MPD2     N 7127   2.640   1.845  10.306 -0.2952  0.0065 -0.8765
  475MPD2    H5 7128   2.657   1.912  10.379  1.0351 -0.8934 -0.3542
  475MPD2    N1 7129   3.099   1.913  10.203 -0.2046  0.7086 -0.0813
  475MPD2    H7 7130   3.163   1.899  10.126 -1.3465  0.3474 -0.9685
  476TMC3    C1 7131   3.257   2.049  10.316  0.0426 -0.2525 -0.0214
  476TMC3    C2 7132   3.248   2.150  10.220 -0.3001  0.6765 -0.6165
  476TMC3    C3 7133   3.266   2.277  10.254 -0.0059  0.2511 -0.2152
  476TMC3    C4 7134   3.294   2.079  10.445  0.1546  0.1991 -0.1316
  476TMC3    C5 7135   3.322   2.205  10.477  1.0650 -0.4598 -0.9782
  476TMC3    C6 7136   3.317   2.307  10.385  0.7787  0.0928 -0.7952
  476TMC3     C 7137   3.143   1.960  10.318 -0.6330  0.6388  0.0110
  476TMC3     O 7138   3.089   1.962  10.429 -0.0029 -0.2351  0.5433
  476TMC3     H 7139   3.219   2.117  10.121  1.7773  0.1019 -1.0433
  476TMC3    H1 7140   3.316   1.992  10.505  1.4476  1.0291  0.5911
  476TMC3    H2 7141   3.305   2.410  10.417 -2.7914 -0.0414 -1.6919
  476TMC3    C7 7142   3.272   2.254  10.604 -0.6432 -0.6609 -0.3165
  476TMC3    C8 7143   3.159   2.369  10.223 -0.5648  0.0598 -0.1980
  476TMC3    O1 7144   3.307   2.362  10.656  0.2328  0.8459 -0.3706
  476TMC3    O2 7145   3.159   2.484  10.252  0.0269 -0.2592  0.0128
  477MPD2     C 7146   0.755   3.511  11.666 -0.1184 -0.2921  0.8701
  477MPD2    C1 7147   0.636   3.522  11.739 -0.2591  0.3487  0.1244
  477MPD2    C2 7148   0.640   3.592  11.854  0.3232  0.4601 -0.2043
  477MPD2    C3 7149   0.760   3.659  11.889  0.1535  0.5643  1.3413
  477MPD2    C4 7150   0.874   3.651  11.812 -0.2130  0.0001 -0.4740
  477MPD2    C5 7151   0.871   3.580  11.695  0.0828  0.4194  0.0104
  477MPD2     H 7152   0.549   3.598  11.912 -0.1793  1.5628 -1.1176
  477MPD2    H1 7153   0.966   3.700  11.843 -0.0679 -0.1478 -0.6714
  477MPD2    H2 7154   0.762   3.439  11.585 -1.5038 -1.2222  1.5758
  477MPD2    H3 7155   0.961   3.570  11.636  0.3170  0.0266  0.4304
  477MPD2     N 7156   0.769   3.723  12.014 -0.1454 -0.4211 -0.4099
  477MPD2    H5 7157   0.862   3.759  12.034  0.6407 -2.7907  0.2029
  477MPD2    N1 7158   0.524   3.450  11.684 -0.0322  1.1777  0.1619
  477MPD2    H7 7159   0.547   3.399  11.599  1.6416  0.7866  0.8559
  478TMC3    C1 7160   0.310   3.357  11.658  0.2842  0.6797 -0.4428
  478TMC3    C2 7161   0.198   3.307  11.719  0.0826 -0.9170 -0.6114
  478TMC3    C3 7162   0.073   3.320  11.677 -0.2787 -0.9614 -0.0115
  478TMC3    C4 7163   0.286   3.430  11.540  0.1961 -1.0638 -0.1901
  478TMC3    C5 7164   0.153   3.436  11.496 -0.0932 -0.4340 -0.3307
  478TMC3    C6 7165   0.048   3.384  11.564  0.2100 -0.0643 -0.1854
  478TMC3     C 7166   0.404   3.429  11.743 -1.3163 -0.0613  0.1331
  478TMC3     O 7167   0.360   3.457  11.855  0.4940  0.1762  0.6469
  478TMC3     H 7168   0.220   3.277  11.821  1.9835  0.6376 -0.5528
  478TMC3    H1 7169   0.357   3.494  11.489 -2.8597  0.6809 -2.3180
  478TMC3    H2 7170   4.684   3.399  11.520 -0.6337 -0.7000  1.4848
  478TMC3    C7 7171   0.143   3.480  11.366  0.3152 -0.2732 -0.0656
  478TMC3    C8 7172   4.724   3.354  11.788 -0.5880 -0.3821 -0.1194
  478TMC3    O1 7173   0.245   3.465  11.298 -0.2874 -0.1732  0.6539
  478TMC3    O2 7174   4.683   3.277  11.875 -0.0114 -0.1798  0.4537
  479MPD2     C 7175   4.423   1.288  14.935  0.9590  1.1128 -0.5982
  479MPD2    C1 7176   4.327   1.227  15.014 -0.0409 -0.0566 -0.5128
  479MPD2    C2 7177   4.331   1.253  15.150 -0.0642 -0.1228  0.1977
  479MPD2    C3 7178   4.420   1.352  15.199 -0.2300  0.2162 -0.2896
  479MPD2    C4 7179   4.508   1.416  15.115  0.2393  0.4932 -0.4047
  479MPD2    C5 7180   4.511   1.380  14.986  0.2292 -0.2541 -0.3681
  479MPD2     H 7181   4.268   1.199  15.219 -1.2431 -0.8062 -1.4162
  479MPD2    H1 7182   4.580   1.484  15.160 -0.0580  0.9720 -0.6619
  479MPD2    H2 7183   4.415   1.262  14.830  0.9460  1.9952 -0.8141
  479MPD2    H3 7184   4.585   1.428  14.924 -2.2243  1.8509 -1.6736
  479MPD2     N 7185   4.439   1.392  15.339 -0.1185 -0.6896 -0.0029
  479MPD2    H5 7186   4.525   1.442  15.358 -0.7274 -0.6735  2.7495
  479MPD2    N1 7187   4.226   1.156  14.946 -0.0433 -0.3903  0.0106
  479MPD2    H7 7188   4.221   1.170  14.846  0.7021  0.5601  0.1033
  480TMC3    C1 7189   4.046   1.210  15.530  0.1718  0.1841 -0.5362
  480TMC3    C2 7190   3.961   1.295  15.459 -0.3463 -0.1379  0.6810
  480TMC3    C3 7191   4.016   1.401  15.386 -0.2992 -0.3400  0.0020
  480TMC3    C4 7192   4.186   1.218  15.520  0.5512 -0.0305  0.2871
  480TMC3    C5 7193   4.225   1.315  15.433  0.4477 -0.2891  0.1003
  480TMC3    C6 7194   4.150   1.422  15.382  0.0756  0.0551  0.7323
  480TMC3     C 7195   3.995   1.115  15.623 -0.2829  0.3237  0.9848
  480TMC3     O 7196   4.086   1.062  15.685 -0.3621  0.5144  0.7246
  480TMC3     H 7197   3.853   1.298  15.450 -0.1980 -3.1273 -1.9163
  480TMC3    H1 7198   4.261   1.151  15.562 -1.2618 -0.7387  2.4158
  480TMC3    H2 7199   4.202   1.506  15.336 -2.7909  0.6732 -1.3873
  480TMC3    C7 7200   4.361   1.348  15.449  0.2978 -0.1293  0.4918
  480TMC3    C8 7201   3.937   1.456  15.269  0.3177 -0.2581 -0.4799
  480TMC3    O1 7202   4.385   1.385  15.564 -0.0444 -0.1589  0.4230
  480TMC3    O2 7203   3.813   1.455  15.272  0.5267 -0.2663 -0.1248
  481MPD2     C 7204   1.304   0.988  14.559 -0.8774 -0.1588  0.7889
  481MPD2    C1 7205   1.174   0.956  14.573 -0.3842  0.7099  0.2567
  481MPD2    C2 7206   1.123   0.955  14.704 -0.1080 -0.5226 -0.5690
  481MPD2    C3 7207   1.201   0.968  14.814  0.0741 -0.2173 -0.3095
  481MPD2    C4 7208   1.327   1.011  14.796  0.2197  0.1754 -0.4410
  481MPD2    C5 7209   1.380   1.022  14.666 -0.8769  0.4151  0.6747
  481MPD2     H 7210   1.015   0.944  14.717 -0.1025  0.5307  0.4186
  481MPD2    H1 7211   1.407   1.029  14.867  0.4128  1.2722 -0.9306
  481MPD2    H2 7212   1.352   0.984  14.462  3.0151 -0.1596  2.7436
  481MPD2    H3 7213   1.484   1.051  14.653 -0.8216  0.3584  0.9949
  481MPD2     N 7214   1.161   0.945  14.943  0.4170 -0.4665  0.4834
  481MPD2    H5 7215   1.222   0.982  15.015  1.0932  2.1834 -1.4236
  481MPD2    N1 7216   1.096   0.926  14.456 -0.1435  0.2815 -0.7915
  481MPD2    H7 7217   1.140   0.948  14.368 -0.3874 -0.5110 -1.1134
  482TMC3    C1 7218   0.900   0.892  14.320 -0.1895  0.5921  0.7289
  482TMC3    C2 7219   0.793   0.811  14.300  0.3178 -0.2487  0.0064
  482TMC3    C3 7220   0.703   0.837  14.202  0.2887  0.1808  0.0618
  482TMC3    C4 7221   0.926   0.998  14.235 -0.0264  0.6375  0.1272
  482TMC3    C5 7222   0.838   1.024  14.143  0.0093 -0.1302 -0.6731
  482TMC3    C6 7223   0.726   0.948  14.122  0.0184  0.1720 -0.0266
  482TMC3     C 7224   0.967   0.886  14.453 -0.6334  0.2467 -0.7867
  482TMC3     O 7225   0.894   0.843  14.544  0.0333  0.2048  0.3241
  482TMC3     H 7226   0.778   0.733  14.375 -2.3003 -0.8210 -1.1202
  482TMC3    H1 7227   1.012   1.061  14.257  0.3043  0.5085 -0.7923
  482TMC3    H2 7228   0.652   0.968  14.046 -0.5101  0.7313  0.6395
  482TMC3    C7 7229   0.864   1.142  14.058  0.4452  0.0217 -0.0627
  482TMC3    C8 7230   0.638   0.720  14.154  0.6465  0.6167 -0.3488
  482TMC3    O1 7231   0.937   1.226  14.106  0.1175 -0.3134 -0.0231
  482TMC3    O2 7232   0.676   0.609  14.188 -0.3355 -0.6535  0.4277
  483TMC3    C1 7233   3.550   4.181   0.920  0.4469 -0.6757 -0.0123
  483TMC3    C2 7234   3.603   4.307   0.881  0.5316 -0.0855  0.1397
  483TMC3    C3 7235   3.734   4.316   0.878 -0.8473 -0.2358  0.5529
  483TMC3    C4 7236   3.626   4.070   0.961  0.7407  0.3266 -0.4844
  483TMC3    C5 7237   3.761   4.099   0.966  0.3316  0.3191 -0.0904
  483TMC3    C6 7238   3.812   4.213   0.918 -0.3872 -0.1092 -0.2055
  483TMC3     C 7239   3.409   4.165   0.891  0.0435 -1.1736 -0.1792
  483TMC3     O 7240   3.345   4.258   0.843  0.0592 -0.0716 -0.0479
  483TMC3     H 7241   3.552   4.386   0.827  0.7431 -0.3799 -0.4843
  483TMC3    H1 7242   3.585   3.984   1.013 -0.0226 -0.1114 -1.8205
  483TMC3    H2 7243   3.918   4.230   0.902  0.1652 -1.4320  2.0976
  483TMC3    C7 7244   3.843   3.977   0.993 -0.4840 -0.2463 -0.2707
  483TMC3    C8 7245   3.793   4.418   0.795  0.8760  0.1038  0.6090
  483TMC3    O1 7246   3.783   3.871   0.995 -0.5358  0.1526 -0.0204
  483TMC3    O2 7247   3.731   4.451   0.693  0.1882 -0.0380  0.3221
  484MPD2     C 7248   1.436   1.920  12.327 -0.4211 -0.5212  0.6088
  484MPD2    C1 7249   1.421   2.010  12.430 -0.1528  0.2490  0.1475
  484MPD2    C2 7250   1.519   2.096  12.470 -0.4504 -0.5187  0.0615
  484MPD2    C3 7251   1.639   2.100  12.394  0.2075 -0.0897 -0.1096
  484MPD2    C4 7252   1.661   2.020  12.285 -0.8239 -0.0235 -0.5094
  484MPD2    C5 7253   1.557   1.925  12.259 -0.3453 -0.1402 -0.2771
  484MPD2     H 7254   1.513   2.165  12.554 -2.3143  0.7243 -1.0894
  484MPD2    H1 7255   1.755   2.024  12.231 -0.4712  2.3426  0.2615
  484MPD2    H2 7256   1.357   1.858  12.286  0.3144  0.1752 -1.8914
  484MPD2    H3 7257   1.565   1.854  12.178  0.5514 -0.1346 -0.1946
  484MPD2     N 7258   1.748   2.182  12.428 -0.2592 -0.1775  0.4378
  484MPD2    H5 7259   1.829   2.175  12.368 -1.0887 -2.0943 -0.4462
  484MPD2    N1 7260   1.294   2.001  12.499 -0.7150  0.2798 -0.0764
  484MPD2    H7 7261   1.231   1.932  12.462  1.4715 -1.7606  0.0020
  485TMC3    C1 7262   1.880   2.346  12.524 -0.3049 -0.3926 -0.3238
  485TMC3    C2 7263   1.978   2.253  12.547  0.2413 -0.1270 -0.0881
  485TMC3    C3 7264   2.101   2.310  12.557  0.1095  0.6675  0.4142
  485TMC3    C4 7265   1.905   2.480  12.507  0.2408  0.1580 -0.1476
  485TMC3    C5 7266   2.034   2.527  12.507  0.3179 -0.0277  0.3011
  485TMC3    C6 7267   2.132   2.444  12.538  0.5916  0.1764  0.2348
  485TMC3     C 7268   1.746   2.298  12.506  0.2673  0.1193  0.2593
  485TMC3     O 7269   1.649   2.364  12.546  0.4296  0.2317 -0.2661
  485TMC3     H 7270   1.956   2.147  12.537 -0.9331  0.2475 -1.4523
  485TMC3    H1 7271   1.821   2.546  12.492  0.7783  1.1909  1.4051
  485TMC3    H2 7272   2.226   2.486  12.573  0.0132  1.9715 -0.3436
  485TMC3    C7 7273   2.059   2.669  12.527 -0.0767 -0.2674 -0.4122
  485TMC3    C8 7274   2.217   2.221  12.543 -0.3478  0.8491 -0.3403
  485TMC3    O1 7275   1.974   2.729  12.590  0.5305  0.0542  0.2497
  485TMC3    O2 7276   2.321   2.277  12.529 -0.2179  0.8875  0.3638
  486MPD2     C 7277   3.690   0.870  12.706 -0.3896 -0.4543 -0.6547
  486MPD2    C1 7278   3.698   0.892  12.571  0.0018  0.0358 -0.1485
  486MPD2    C2 7279   3.663   1.015  12.527  0.3077 -1.2159  0.3039
  486MPD2    C3 7280   3.626   1.123  12.606 -0.3659  0.4555  0.2308
  486MPD2    C4 7281   3.626   1.101  12.740 -0.9772 -0.2755  0.9423
  486MPD2    C5 7282   3.643   0.971  12.787 -0.2537  0.0915  0.5642
  486MPD2     H 7283   3.665   1.042  12.422 -1.8728  2.1867  1.1659
  486MPD2    H1 7284   3.587   1.176  12.808 -1.3677 -0.1441  0.5739
  486MPD2    H2 7285   3.717   0.773  12.748 -2.2102 -1.0639 -0.8913
  486MPD2    H3 7286   3.643   0.953  12.894  1.8710 -1.5599  0.2824
  486MPD2     N 7287   3.596   1.253  12.552 -0.0905  0.4182 -0.4852
  486MPD2    H5 7288   3.612   1.273  12.454  0.1340 -0.3203 -0.5966
  486MPD2    N1 7289   3.749   0.790  12.484  0.2398  0.2593 -0.1473
  486MPD2    H7 7290   3.807   0.720  12.529 -0.8681 -0.3695  0.2986
  487TMC3    C1 7291   3.790   0.650  12.313 -0.3227  0.4224  0.0723
  487TMC3    C2 7292   3.702   0.558  12.276  0.8832  0.4877 -0.8763
  487TMC3    C3 7293   3.729   0.423  12.292  0.1209  0.3479 -0.2927
  487TMC3    C4 7294   3.906   0.621  12.375  0.0273 -0.4457  0.5721
  487TMC3    C5 7295   3.938   0.484  12.383  0.2555  0.0684 -0.1464
  487TMC3    C6 7296   3.846   0.388  12.354 -0.3955 -0.5968  0.2086
  487TMC3     C 7297   3.736   0.784  12.350 -0.1126  0.0933  0.1657
  487TMC3     O 7298   3.651   0.839  12.283 -0.2782 -0.1257 -0.3553
  487TMC3     H 7299   3.604   0.589  12.241  0.7587  1.7260  0.5899
  487TMC3    H1 7300   3.980   0.685  12.420  0.3160 -0.4140  0.0508
  487TMC3    H2 7301   3.861   0.282  12.371 -0.0230 -0.6611 -0.5185
  487TMC3    C7 7302   4.048   0.448  12.471 -0.0960 -0.6710  0.2750
  487TMC3    C8 7303   3.610   0.336  12.302  0.2328 -0.6174  0.2683
  487TMC3    O1 7304   4.143   0.531  12.472 -0.9679 -0.0692  0.5390
  487TMC3    O2 7305   3.534   0.339  12.204 -0.3550  0.0623 -0.3104
  488MPD2     C 7306   3.953   2.705  16.322  1.0440 -0.2284  0.3829
  488MPD2    C1 7307   4.047   2.745  16.415  0.4401  0.1392  0.1376
  488MPD2    C2 7308   4.047   2.687  16.543 -0.0080 -1.1653 -0.0829
  488MPD2    C3 7309   3.969   2.583  16.576 -0.2293  0.2999  0.0306
  488MPD2    C4 7310   3.867   2.550  16.486 -0.2211  0.3398  0.0441
  488MPD2    C5 7311   3.864   2.607  16.360  0.6015 -0.1364 -0.2060
  488MPD2     H 7312   4.114   2.727  16.618 -0.2474 -0.8153 -0.0560
  488MPD2    H1 7313   3.798   2.469  16.511 -0.2554  1.3909  3.3151
  488MPD2    H2 7314   3.950   2.743  16.221  2.8911  0.8209  0.7209
  488MPD2    H3 7315   3.786   2.583  16.289 -0.7237 -0.8298  1.4965
  488MPD2     N 7316   3.994   2.529  16.700 -1.2166  0.2010 -0.0722
  488MPD2    H5 7317   4.079   2.557  16.748 -0.9567  1.1823 -1.1156
  488MPD2    N1 7318   4.130   2.855  16.396  0.1751  0.1571  0.4460
  488MPD2    H7 7319   4.165   2.892  16.485  0.2776 -0.0843  0.5069
  489TMC3    C1 7320   3.927   2.431  16.897 -0.2159  0.2756  0.1744
  489TMC3    C2 7321   4.000   2.539  16.949 -0.1608 -0.0587  0.2170
  489TMC3    C3 7322   3.973   2.582  17.076 -0.3649  0.2893 -0.1685
  489TMC3    C4 7323   3.827   2.375  16.970 -0.4611 -0.5805  0.2849
  489TMC3    C5 7324   3.803   2.422  17.097  0.0916 -0.4822  0.3378
  489TMC3    C6 7325   3.877   2.520  17.155 -0.2830  0.8733 -0.3081
  489TMC3     C 7326   3.901   2.444  16.756 -0.0052  0.2670  0.7554
  489TMC3     O 7327   3.795   2.394  16.719  0.4736 -0.2936 -0.1350
  489TMC3     H 7328   4.087   2.581  16.901 -0.3845  0.0612 -0.0782
  489TMC3    H1 7329   3.763   2.307  16.917 -0.1673 -0.3459 -0.3702
  489TMC3    H2 7330   3.850   2.548  17.256  1.0152 -1.7062  0.7386
  489TMC3    C7 7331   3.702   2.360  17.176 -0.0236 -0.2912 -0.1541
  489TMC3    C8 7332   4.021   2.715  17.112 -0.0209 -0.2056  0.0021
  489TMC3    O1 7333   3.735   2.334  17.291 -0.0597 -0.8158 -0.5838
  489TMC3    O2 7334   4.121   2.760  17.061  0.0424 -0.4151 -0.1172
  490MPD2     C 7335   4.714   2.247  16.906 -0.0017  0.5243 -0.0422
  490MPD2    C1 7336   4.671   2.247  17.039 -0.6993 -0.0362  0.5655
  490MPD2    C2 7337   4.729   2.327  17.134 -1.0447  0.2636  0.0267
  490MPD2    C3 7338   0.104   2.401  17.098 -0.6435 -0.2912 -0.1099
  490MPD2    C4 7339   0.148   2.400  16.967 -0.0219 -0.5826  0.4581
  490MPD2    C5 7340   0.085   2.327  16.869  0.1760  0.3827 -0.1525
  490MPD2     H 7341   4.695   2.330  17.237 -3.5419  2.4256 -0.8580
  490MPD2    H1 7342   0.233   2.463  16.943 -0.0720 -0.0937  1.5410
  490MPD2    H2 7343   4.662   2.194  16.827  1.2030  0.8548 -1.0704
  490MPD2    H3 7344   0.108   2.322  16.763  0.2849 -0.9635 -0.0711
  490MPD2     N 7345   0.173   2.468  17.201  0.5784  0.0295  0.8211
  490MPD2    H5 7346   0.230   2.546  17.168 -0.1215 -0.8477 -2.4966
  490MPD2    N1 7347   4.583   2.153  17.090  0.3318  0.8369  0.2912
  490MPD2    H7 7348   4.565   2.161  17.189  2.6037 -1.2266  0.8715
  491TMC3    C1 7349   4.457   1.956  17.112 -0.5184 -0.3518 -0.1242
  491TMC3    C2 7350   4.473   1.960  17.250  0.3162 -0.1369  0.5240
  491TMC3    C3 7351   4.376   1.887  17.321  0.1969  0.3118  0.1209
  491TMC3    C4 7352   4.358   1.874  17.058  0.5595  0.2776  0.0700
  491TMC3    C5 7353   4.277   1.799  17.138 -0.0342  0.2119  0.1141
  491TMC3    C6 7354   4.273   1.813  17.274  0.0317 -0.7785  0.3869
  491TMC3     C 7355   4.527   2.043  17.026  0.1938 -0.3325  0.0030
  491TMC3     O 7356   4.516   2.026  16.904  0.4559  0.1645  0.2928
  491TMC3     H 7357   4.547   2.015  17.307  1.1628  2.0669 -2.7052
  491TMC3    H1 7358   4.336   1.879  16.952 -1.4621 -1.3361  0.4029
  491TMC3    H2 7359   4.221   1.757  17.351 -1.6412 -0.1778 -0.3212
  491TMC3    C7 7360   4.207   1.683  17.082  0.7849 -0.3943 -0.5331
  491TMC3    C8 7361   4.409   1.870  17.460  0.1397 -0.3369 -0.9588
  491TMC3    O1 7362   4.195   1.675  16.960 -0.0424  0.5782  0.5853
  491TMC3    O2 7363   4.315   1.844  17.536  0.2620  0.6603  0.5297
  492MPD2     C 7364   0.086   2.615  11.653 -0.1646  0.1943  0.1305
  492MPD2    C1 7365   0.060   2.491  11.616 -0.3465  0.1271  1.1675
  492MPD2    C2 7366   4.712   2.406  11.696  0.0146  0.2764 -0.5786
  492MPD2    C3 7367   4.637   2.462  11.798  0.2916 -0.3528  0.7256
  492MPD2    C4 7368   4.670   2.598  11.831 -0.2714 -0.2137  0.3731
  492MPD2    C5 7369   0.018   2.671  11.759  0.5724 -0.3180  0.1932
  492MPD2     H 7370   4.692   2.307  11.657 -0.7830  0.0142  0.4898
  492MPD2    H1 7371   4.615   2.646  11.911  0.9745  0.5983  0.7571
  492MPD2    H2 7372   0.153   2.676  11.595 -1.5932  1.8459  0.2067
  492MPD2    H3 7373   0.040   2.773  11.789 -2.5643  1.2576 -2.8516
  492MPD2     N 7374   4.544   2.385  11.875  0.1320  0.2309  0.0162
  492MPD2    H5 7375   4.509   2.437  11.955 -2.7204 -1.2843 -0.2388
  492MPD2    N1 7376   0.116   2.463  11.492  0.2947 -0.5776 -0.6691
  492MPD2    H7 7377   0.171   2.539  11.454  1.1218 -0.4622  0.7470
  493TMC3    C1 7378   0.156   2.357  11.290 -0.4886 -0.5204  0.6480
  493TMC3    C2 7379   0.241   2.457  11.253  0.5573  0.2301  0.6984
  493TMC3    C3 7380   0.279   2.470  11.123 -0.3960 -0.4216  0.2786
  493TMC3    C4 7381   0.115   2.257  11.200 -0.5021 -0.2408 -0.6371
  493TMC3    C5 7382   0.143   2.283  11.069  0.8265  0.2346 -0.0132
  493TMC3    C6 7383   0.220   2.391  11.031 -0.7282 -0.1876 -0.4566
  493TMC3     C 7384   0.108   2.343  11.428 -0.5521 -0.7276  0.5067
  493TMC3     O 7385   0.028   2.251  11.454  0.3288  0.0289 -0.0397
  493TMC3     H 7386   0.277   2.526  11.328  0.6694  2.2442 -1.2192
  493TMC3    H1 7387   0.054   2.177  11.241 -0.5662 -0.0780 -0.4153
  493TMC3    H2 7388   0.232   2.419  10.927 -0.1418  1.5389  0.0636
  493TMC3    C7 7389   0.067   2.214  10.966 -0.6995  0.0927 -0.2466
  493TMC3    C8 7390   0.353   2.585  11.079 -0.5307 -0.0874  0.4060
  493TMC3    O1 7391   0.012   2.285  10.882 -0.0487  0.4262 -0.3106
  493TMC3    O2 7392   0.366   2.677  11.161  0.0839 -0.2225  0.1411
  494TMC3    C1 7393   0.538   4.045   0.583  0.1248 -0.0700  0.2298
  494TMC3    C2 7394   0.555   3.909   0.580 -0.2511 -0.7099  0.0264
  494TMC3    C3 7395   0.543   3.842   0.463  0.1563 -0.0826 -0.2615
  494TMC3    C4 7396   0.502   4.113   0.470 -0.8361 -0.1901  0.0083
  494TMC3    C5 7397   0.515   4.049   0.355  0.0423  0.0871 -0.3183
  494TMC3    C6 7398   0.528   3.915   0.348  0.5660 -0.1182  0.5924
  494TMC3     C 7399   0.517   4.100   0.714 -0.2713 -1.0985  0.1716
  494TMC3     O 7400   0.565   4.047   0.814 -0.3097  0.2321 -0.1769
  494TMC3     H 7401   0.557   3.861   0.677 -0.5334  1.7222  1.2308
  494TMC3    H1 7402   0.497   4.221   0.476 -1.3136 -0.1743 -0.6805
  494TMC3    H2 7403   0.566   3.885   0.251  2.2290 -0.4003  1.3399
  494TMC3    C7 7404   0.477   4.118   0.234 -1.0489  0.5024 -0.0538
  494TMC3    C8 7405   0.582   3.702   0.468  0.4267 -0.3995  0.3441
  494TMC3    O1 7406   0.535   4.221   0.192 -0.0558  0.5056 -0.2806
  494TMC3    O2 7407   0.652   3.666   0.562  0.3350  0.0335 -0.2829
  495TMC3    C1 7408   4.383   1.397  14.382 -0.1435 -0.0651  0.3684
  495TMC3    C2 7409   4.304   1.464  14.288 -0.2471 -0.4698  0.8677
  495TMC3    C3 7410   4.215   1.561  14.326 -1.3857  0.0220 -0.4659
  495TMC3    C4 7411   4.365   1.431  14.512  0.6325  0.5338  0.2799
  495TMC3    C5 7412   4.279   1.532  14.545 -0.1403 -0.6329  0.1571
  495TMC3    C6 7413   4.211   1.606  14.451 -0.5206 -0.1890 -0.4191
  495TMC3     C 7414   4.380   1.257  14.359  0.0377 -0.3019 -0.2587
  495TMC3     O 7415   4.303   1.227  14.271 -0.4608 -0.4940  0.0343
  495TMC3     H 7416   4.334   1.453  14.185 -0.0047  0.3895  0.8419
  495TMC3    H1 7417   4.418   1.380  14.592  0.3547  1.2803  0.9430
  495TMC3    H2 7418   4.147   1.689  14.479  0.3422  0.3363 -0.0100
  495TMC3    C7 7419   4.229   1.532  14.680  0.3074 -1.0155 -0.2090
  495TMC3    C8 7420   4.083   1.529  14.284  0.2057 -0.9311  0.0845
  495TMC3    O1 7421   4.288   1.476  14.773  0.1466  0.0943 -0.2637
  495TMC3    O2 7422   3.995   1.593  14.336 -0.0734  0.0524 -0.0224
  496MPD2     C 7423   1.545   1.739  15.549 -0.0047 -0.7955 -0.5883
  496MPD2    C1 7424   1.606   1.645  15.636 -0.6489 -0.1798 -0.9278
  496MPD2    C2 7425   1.546   1.626  15.760 -0.4584  0.1432 -0.1822
  496MPD2    C3 7426   1.428   1.691  15.795  0.3522  0.9315 -0.1405
  496MPD2    C4 7427   1.373   1.782  15.708  0.6775 -0.5791  0.4144
  496MPD2    C5 7428   1.433   1.808  15.584  0.3028  0.5969 -0.7180
  496MPD2     H 7429   1.579   1.543  15.821 -1.0712 -0.5187 -0.7473
  496MPD2    H1 7430   1.281   1.829  15.739  0.0816 -1.8794  0.6443
  496MPD2    H2 7431   1.565   1.758  15.444 -1.3927  0.3717 -0.6369
  496MPD2    H3 7432   1.377   1.861  15.508  0.2534  0.2501 -0.9198
  496MPD2     N 7433   1.352   1.661  15.910 -0.3502  0.3085 -0.5406
  496MPD2    H5 7434   1.254   1.688  15.906 -0.4263 -0.0223 -0.9290
  496MPD2    N1 7435   1.724   1.578  15.589 -0.2901  0.0671 -0.4288
  496MPD2    H7 7436   1.747   1.612  15.496  2.9017 -2.2474 -0.4881
  497TMC3    C1 7437   1.282   1.544  16.093 -0.3648  0.3032  0.3742
  497TMC3    C2 7438   1.156   1.523  16.038 -0.2031  0.8273  0.6564
  497TMC3    C3 7439   1.056   1.478  16.108 -0.1099  0.0606  0.4572
  497TMC3    C4 7440   1.295   1.529  16.224 -0.3279  0.3128 -0.0075
  497TMC3    C5 7441   1.185   1.492  16.297  0.3241  0.8856 -0.3219
  497TMC3    C6 7442   1.065   1.457  16.239  0.2327  0.1403 -0.5039
  497TMC3     C 7443   1.395   1.595  16.021 -0.2726  0.6689 -0.2469
  497TMC3     O 7444   1.508   1.569  16.074  0.5205  0.3730  0.1840
  497TMC3     H 7445   1.157   1.509  15.930 -1.6019 -0.1782  0.7707
  497TMC3    H1 7446   1.394   1.522  16.267  0.6140  0.1845 -2.1762
  497TMC3    H2 7447   0.982   1.423  16.299 -0.0953  0.1740 -0.9401
  497TMC3    C7 7448   1.186   1.483  16.441  0.6666 -0.3240  0.3375
  497TMC3    C8 7449   0.937   1.434  16.038  0.5455 -0.6140  0.3462
  497TMC3    O1 7450   1.111   1.404  16.495  0.2921 -0.1140  0.4336
  497TMC3    O2 7451   0.864   1.354  16.099  0.4643  0.0768  0.0375
  498MPD2     C 7452   2.358   2.340   9.878 -0.1722 -0.3661  0.2509
  498MPD2    C1 7453   2.270   2.390   9.974 -0.6879 -0.1886 -1.1517
  498MPD2    C2 7454   2.142   2.339   9.979 -0.1646 -0.4312 -0.3468
  498MPD2    C3 7455   2.119   2.223   9.915 -0.4569 -0.0061  0.2320
  498MPD2    C4 7456   2.206   2.173   9.820 -0.5177 -0.6786  0.8803
  498MPD2    C5 7457   2.321   2.233   9.799  0.9434  1.1124 -0.5470
  498MPD2     H 7458   2.081   2.389  10.053  0.8643  0.1048  0.1329
  498MPD2    H1 7459   2.190   2.072   9.783  1.8780 -1.4740  1.9597
  498MPD2    H2 7460   2.451   2.392   9.857  1.6138 -2.8363  2.0411
  498MPD2    H3 7461   2.381   2.184   9.723 -0.4537 -0.9409 -0.3297
  498MPD2     N 7462   2.008   2.148   9.963  0.8121 -0.0688  0.2178
  498MPD2    H5 7463   1.963   2.184  10.046  1.2638  1.0446 -0.0067
  498MPD2    N1 7464   2.288   2.507  10.053 -0.0804 -0.6951  0.0649
  498MPD2    H7 7465   2.205   2.542  10.099  0.2032  0.1895 -0.0856
  499TMC3    C1 7466   2.398   2.709  10.116 -0.2572 -0.3422 -0.1431
  499TMC3    C2 7467   2.519   2.752  10.165 -0.7161 -0.1872  0.2013
  499TMC3    C3 7468   2.555   2.889  10.154  0.1446  0.4276  0.0554
  499TMC3    C4 7469   2.309   2.799  10.058 -0.7881  0.6030  0.3665
  499TMC3    C5 7470   2.346   2.931  10.052  0.4607 -0.2177  1.2564
  499TMC3    C6 7471   2.463   2.982  10.104  0.0838  0.1962  0.8104
  499TMC3     C 7472   2.412   2.574  10.064 -0.0772  0.0035 -0.0244
  499TMC3     O 7473   2.527   2.536  10.036 -0.0829  0.0169  0.3917
  499TMC3     H 7474   2.581   2.673  10.205 -0.5307 -0.0312  0.2202
  499TMC3    H1 7475   2.227   2.759   9.999  0.3509 -2.0301  0.5679
  499TMC3    H2 7476   2.503   3.082  10.091 -2.6626  1.0499 -1.0531
  499TMC3    C7 7477   2.279   3.025   9.977  0.4912  0.4375 -0.0061
  499TMC3    C8 7478   2.694   2.935  10.170  0.1249  0.4729 -0.3222
  499TMC3    O1 7479   2.347   3.122   9.945  0.0087  0.8713  0.2842
  499TMC3    O2 7480   2.748   3.002  10.079 -0.2973 -0.9287 -0.3292
  500MPD2     C 7481   3.525   3.207  10.577  0.0942  0.0581 -0.3669
  500MPD2    C1 7482   3.540   3.245  10.446 -0.3781  0.2914  0.3518
  500MPD2    C2 7483   3.427   3.285  10.388  0.8046  0.1292  0.1953
  500MPD2    C3 7484   3.303   3.294  10.452 -0.4150  0.4486  0.2722
  500MPD2    C4 7485   3.294   3.252  10.586  0.4978  0.4085  0.5315
  500MPD2    C5 7486   3.409   3.212  10.647 -0.2602  0.1010 -0.2531
  500MPD2     H 7487   3.428   3.312  10.283  0.0851  2.4188  0.7923
  500MPD2    H1 7488   3.196   3.239  10.630  1.0147 -0.2144  1.4845
  500MPD2    H2 7489   3.603   3.160  10.635 -0.7094 -0.7290  0.0742
  500MPD2    H3 7490   3.403   3.188  10.753  0.1748  1.5182  0.1038
  500MPD2     N 7491   3.179   3.330  10.392 -0.0845 -0.0789  0.2383
  500MPD2    H5 7492   3.097   3.325  10.451 -0.7358  0.0856 -0.6472
  500MPD2    N1 7493   3.667   3.251  10.380  0.1054  0.5505 -0.0193
  500MPD2    H7 7494   3.669   3.273  10.281 -0.7071 -0.7216 -0.3260
  501TMC3    C1 7495   3.905   3.253  10.362  0.4541  0.0133 -0.5223
  501TMC3    C2 7496   3.899   3.371  10.290 -0.5540 -0.1054 -0.1608
  501TMC3    C3 7497   4.015   3.443  10.275  0.2761  0.3523  0.3694
  501TMC3    C4 7498   4.018   3.205  10.418  1.0138  0.1448 -0.2805
  501TMC3    C5 7499   4.133   3.279  10.401 -0.2466  0.1341 -0.4452
  501TMC3    C6 7500   4.136   3.395  10.326 -0.6864  0.3627 -1.4031
  501TMC3     C 7501   3.790   3.220  10.442 -0.0245  0.6966  0.5969
  501TMC3     O 7502   3.809   3.179  10.554  0.5261 -0.2120  0.1385
  501TMC3     H 7503   3.805   3.421  10.274 -0.6324 -0.1566  0.1388
  501TMC3    H1 7504   4.001   3.112  10.472  0.3851 -1.0919 -2.6265
  501TMC3    H2 7505   4.224   3.456  10.311 -0.4651  0.6189  1.0148
  501TMC3    C7 7506   4.215   3.293  10.521 -0.1494 -0.3484 -0.5931
  501TMC3    C8 7507   4.009   3.581  10.248 -0.3490  0.3402 -0.0010
  501TMC3    O1 7508   4.327   3.347  10.527 -0.2205 -0.1787  0.4336
  501TMC3    O2 7509   3.912   3.615  10.181  0.1459 -0.0273  0.8213
  502TMC3    C1 7510   3.738   2.307  14.968  0.4337  0.3564  1.2105
  502TMC3    C2 7511   3.789   2.392  14.874  0.6249 -0.1515  0.2925
  502TMC3    C3 7512   3.698   2.457  14.800  0.1588  0.2397 -0.6826
  502TMC3    C4 7513   3.604   2.294  14.994  0.1337  0.0387 -0.6014
  502TMC3    C5 7514   3.518   2.370  14.927 -0.2104 -0.2339 -0.0526
  502TMC3    C6 7515   3.564   2.446  14.819  0.8537 -0.1276 -0.2240
  502TMC3     C 7516   3.839   2.248  15.060 -0.1790  0.1249 -0.3434
  502TMC3     O 7517   3.958   2.245  15.022 -0.0693  0.0150 -0.4015
  502TMC3     H 7518   3.896   2.394  14.861  0.6301 -0.2543  0.3238
  502TMC3    H1 7519   3.564   2.232  15.073 -2.0431  2.4320  0.1997
  502TMC3    H2 7520   3.488   2.508  14.772 -0.5307 -2.4856 -1.0934
  502TMC3    C7 7521   3.405   2.414  14.999 -0.2381 -0.0932 -0.0455
  502TMC3    C8 7522   3.738   2.593  14.753  0.5732  0.0543  0.5967
  502TMC3    O1 7523   3.328   2.336  15.059  0.4936  0.6599  0.4192
  502TMC3    O2 7524   3.830   2.648  14.813  0.1982  0.4122  0.5694
  503MPD2     C 7525   0.813   3.089  16.771 -0.6745 -0.1293  0.4813
  503MPD2    C1 7526   0.855   3.122  16.897  0.2875 -0.1790  1.1499
  503MPD2    C2 7527   0.882   3.017  16.985 -1.0951  0.5178  0.2693
  503MPD2    C3 7528   0.899   2.888  16.931 -0.7441 -0.0163 -0.3084
  503MPD2    C4 7529   0.867   2.864  16.800  0.3618 -0.5119 -0.8529
  503MPD2    C5 7530   0.814   2.961  16.723 -0.1517  0.6739  0.2251
  503MPD2     H 7531   0.916   3.026  17.087  0.5187  0.0703 -0.2378
  503MPD2    H1 7532   0.866   2.764  16.758 -0.0967  0.1704 -2.4931
  503MPD2    H2 7533   0.766   3.159  16.703  0.7540  1.9269  1.6326
  503MPD2    H3 7534   0.774   2.934  16.626  1.8398 -0.2434 -0.3460
  503MPD2     N 7535   0.948   2.794  17.023 -0.5902 -0.7237 -0.1878
  503MPD2    H5 7536   0.953   2.821  17.121  0.6638 -1.4792 -0.0425
  503MPD2    N1 7537   0.838   3.257  16.945 -0.3992 -0.1188  0.4378
  503MPD2    H7 7538   0.822   3.269  17.045  0.3474  0.3482  0.5046
  504TMC3    C1 7539   1.074   2.628  17.108  0.7366 -0.3599 -0.0773
  504TMC3    C2 7540   1.043   2.683  17.227  0.0574 -0.7083  0.4511
  504TMC3    C3 7541   1.133   2.665  17.328  0.5437  0.3143  0.1952
  504TMC3    C4 7542   1.185   2.558  17.082 -0.3014 -0.0038  0.4468
  504TMC3    C5 7543   1.271   2.541  17.190  0.1202  0.0132 -0.6176
  504TMC3    C6 7544   1.254   2.599  17.316 -0.3332  0.3564 -0.2476
  504TMC3     C 7545   1.006   2.678  16.988  0.3268 -0.0030 -0.5154
  504TMC3     O 7546   1.042   2.634  16.883  0.0964  0.1822 -0.5529
  504TMC3     H 7547   0.940   2.706  17.252 -0.1990 -1.3050 -0.0433
  504TMC3    H1 7548   1.195   2.512  16.985  1.1199 -0.4453  0.8091
  504TMC3    H2 7549   1.328   2.615  17.393 -0.1986  1.3097 -0.5803
  504TMC3    C7 7550   1.401   2.489  17.152 -0.1663  0.2273 -0.6335
  504TMC3    C8 7551   1.104   2.722  17.459 -0.4312  0.1823  0.1736
  504TMC3    O1 7552   1.426   2.494  17.030  0.3828  0.3326 -0.3959
  504TMC3    O2 7553   1.025   2.815  17.457 -0.7295 -0.1552 -0.8128
  505MPD2     C 7554   0.846   1.866  10.318 -0.2134 -0.0567  0.4499
  505MPD2    C1 7555   0.878   1.756  10.395 -0.3828 -0.0776 -0.0430
  505MPD2    C2 7556   0.935   1.784  10.519  0.6242  0.4948 -0.5946
  505MPD2    C3 7557   0.962   1.911  10.563  0.3329  0.3975  0.6358
  505MPD2    C4 7558   0.923   2.013  10.481 -0.0535 -0.6271  0.3434
  505MPD2    C5 7559   0.867   1.993  10.361 -0.0648  0.1404  0.0664
  505MPD2     H 7560   0.971   1.706  10.585  2.5864  1.5047 -0.4763
  505MPD2    H1 7561   0.946   2.115  10.506  0.9545 -0.4091 -1.4341
  505MPD2    H2 7562   0.788   1.852  10.228 -0.6448 -2.8472  1.1465
  505MPD2    H3 7563   0.838   2.080  10.303 -1.0160  0.9423  1.7455
  505MPD2     N 7564   1.019   1.939  10.685 -0.0920 -0.4255  0.1119
  505MPD2    H5 7565   1.044   2.035  10.706 -1.5309 -0.1314  0.4479
  505MPD2    N1 7566   0.847   1.627  10.349  0.0293  0.9858 -0.4869
  505MPD2    H7 7567   0.802   1.624  10.258 -0.3316  0.3428 -0.2890
  506TMC3    C1 7568   0.860   1.392  10.350 -0.3143  0.6715 -0.2642
  506TMC3    C2 7569   0.943   1.371  10.247  0.0992  0.2556  0.2900
  506TMC3    C3 7570   1.013   1.256  10.240  0.8116 -0.5263 -0.4033
  506TMC3    C4 7571   0.853   1.294  10.447  0.6198 -0.4723 -0.7699
  506TMC3    C5 7572   0.930   1.179  10.445  0.3695 -0.0608  0.4570
  506TMC3    C6 7573   1.013   1.162  10.335  0.8814 -0.9505 -0.8913
  506TMC3     C 7574   0.862   1.514  10.426  0.0616  0.1218 -0.7524
  506TMC3     O 7575   0.884   1.500  10.547 -0.4928  0.0110  0.3639
  506TMC3     H 7576   0.942   1.438  10.162  0.8204  1.5638  1.3019
  506TMC3    H1 7577   0.781   1.301  10.527  0.4197 -1.6823 -0.8326
  506TMC3    H2 7578   1.096   1.092  10.331  0.6696 -1.1867 -1.1238
  506TMC3    C7 7579   1.003   1.137  10.564 -0.2217  0.6130  0.0970
  506TMC3    C8 7580   1.098   1.241  10.119 -0.1869 -1.2627  0.4175
  506TMC3    O1 7581   1.061   1.029  10.564 -0.1099  0.0266  0.5526
  506TMC3    O2 7582   1.064   1.163  10.027 -0.1736 -0.0652 -0.1671
  507TMC3    C1 7583   2.084   3.118  15.378 -0.2664 -1.1148  0.5862
  507TMC3    C2 7584   2.143   3.102  15.259 -0.5371 -0.5361 -0.0039
  507TMC3    C3 7585   2.215   3.206  15.207  0.2245  0.3902  0.0596
  507TMC3    C4 7586   2.092   3.231  15.456  0.3006 -0.0616 -1.2105
  507TMC3    C5 7587   2.147   3.342  15.394  0.2208 -0.1527  0.4308
  507TMC3    C6 7588   2.225   3.319  15.280 -0.3212  0.2975  0.0128
  507TMC3     C 7589   1.986   3.020  15.427  0.0219 -0.1194 -0.1532
  507TMC3     O 7590   1.897   3.058  15.495 -0.2299 -0.1997 -0.1461
  507TMC3     H 7591   2.125   3.017  15.194 -3.2537  0.2729 -0.3066
  507TMC3    H1 7592   2.027   3.236  15.543  3.3183  1.8138  0.9925
  507TMC3    H2 7593   2.286   3.399  15.240  0.8401  0.5841  2.3858
  507TMC3    C7 7594   2.076   3.464  15.368 -0.5021  0.0208 -0.8753
  507TMC3    C8 7595   2.208   3.226  15.063 -0.5599 -0.4573  0.2581
  507TMC3    O1 7596   2.131   3.548  15.295 -0.2663  0.7926  0.1411
  507TMC3    O2 7597   2.275   3.319  15.016 -0.0234 -0.0044  0.0760
  508MPD2     C 7598   2.709   0.240  16.250 -0.1806 -0.0457 -0.2060
  508MPD2    C1 7599   2.825   0.313  16.239 -0.5369 -0.6254  0.0966
  508MPD2    C2 7600   2.867   0.360  16.111  0.0468  0.7795 -0.7450
  508MPD2    C3 7601   2.793   0.341  16.002 -0.0240  0.0676  0.2572
  508MPD2    C4 7602   2.677   0.264  16.016  0.3981 -0.4106  0.0280
  508MPD2    C5 7603   2.645   0.216  16.138 -0.6148  0.0087 -0.6813
  508MPD2     H 7604   2.951   0.428  16.109  1.5187 -1.0191  0.2680
  508MPD2    H1 7605   2.607   0.240  15.936  0.1912 -1.8131  0.6282
  508MPD2    H2 7606   2.676   0.210  16.349  1.6186  1.3101  0.8149
  508MPD2    H3 7607   2.550   0.163  16.141  0.5540 -1.9768  1.4072
  508MPD2     N 7608   2.826   0.405  15.885 -0.7065  0.8058  0.1266
  508MPD2    H5 7609   2.911   0.460  15.879 -0.4208  0.0669 -2.2205
  508MPD2    N1 7610   2.898   0.370  16.348 -0.5222  0.4534  0.0661
  508MPD2    H7 7611   2.980   0.428  16.331  0.0795 -0.2390  0.6100
  509TMC3    C1 7612   2.747   0.646  15.512  0.1958  0.4216  0.2136
  509TMC3    C2 7613   2.877   0.689  15.506  0.5223 -0.0946  0.8631
  509TMC3    C3 7614   2.971   0.612  15.572  0.5221 -0.1689  0.7073
  509TMC3    C4 7615   2.708   0.551  15.604  0.1470  0.8113 -0.6366
  509TMC3    C5 7616   2.808   0.479  15.672  0.8058  0.0477 -0.1832
  509TMC3    C6 7617   2.943   0.510  15.654  0.6432 -0.0353  0.4735
  509TMC3     C 7618   2.643   0.739  15.486  0.0717  0.5920  0.6998
  509TMC3     O 7619   2.545   0.752  15.555 -0.5993  0.1608  0.4819
  509TMC3     H 7620   2.906   0.747  15.420 -0.1586  0.9325  1.3231
  509TMC3    H1 7621   2.605   0.527  15.624  0.5127 -1.1365 -1.0088
  509TMC3    H2 7622   3.022   0.466  15.715  1.0811 -0.1774 -0.1920
  509TMC3    C7 7623   2.753   0.391  15.768  0.0798 -0.2454 -0.0887
  509TMC3    C8 7624   3.112   0.637  15.554  0.3735 -0.0487 -0.2099
  509TMC3    O1 7625   2.641   0.344  15.752  0.7230 -0.2392  0.1911
  509TMC3    O2 7626   3.189   0.542  15.569  0.3222  0.0275 -0.5736
  510MPD2     C 7627   0.754   2.088  14.725 -0.4916 -0.4545 -0.2545
  510MPD2    C1 7628   0.838   1.995  14.780 -0.0293 -0.0501 -0.0947
  510MPD2    C2 7629   0.968   1.991  14.728 -0.5136  0.0249  0.0720
  510MPD2    C3 7630   1.012   2.061  14.617 -0.4451  0.1217 -0.2073
  510MPD2    C4 7631   0.928   2.162  14.566  0.1190  0.7568 -0.4413
  510MPD2    C5 7632   0.797   2.162  14.617  0.2978 -0.6553  0.4857
  510MPD2     H 7633   1.035   1.914  14.765 -0.7088  1.5278  3.5040
  510MPD2    H1 7634   0.957   2.230  14.487  0.4192  0.6667 -0.4096
  510MPD2    H2 7635   0.647   2.081  14.744 -0.7974  1.8684 -1.1818
  510MPD2    H3 7636   0.726   2.235  14.577  0.2546  0.7480  3.0828
  510MPD2     N 7637   1.147   2.043  14.569  0.4841  1.2605 -0.0304
  510MPD2    H5 7638   1.201   1.979  14.625 -0.4076  1.4097  0.9936
  510MPD2    N1 7639   0.783   1.908  14.882  0.2130 -0.7294  0.3237
  510MPD2    H7 7640   0.687   1.917  14.915 -0.0718  2.1849 -1.2812
  511TMC3    C1 7641   0.766   1.708  15.000  0.8263 -0.4320 -0.1898
  511TMC3    C2 7642   0.687   1.769  15.093 -0.3393  0.2068 -0.3997
  511TMC3    C3 7643   0.576   1.700  15.129 -0.1681 -0.2485 -1.1602
  511TMC3    C4 7644   0.753   1.576  14.958 -0.3203 -0.8096 -1.0931
  511TMC3    C5 7645   0.654   1.507  15.019  0.4674  1.2447 -0.5646
  511TMC3    C6 7646   0.558   1.570  15.096  0.2498 -0.0310 -0.2758
  511TMC3     C 7647   0.850   1.797  14.923  0.2712 -0.1546 -0.5842
  511TMC3     O 7648   0.952   1.741  14.885  0.2002 -0.1306 -0.6748
  511TMC3     H 7649   0.708   1.874  15.110  0.5476  0.0429 -0.5091
  511TMC3    H1 7650   0.814   1.538  14.877  0.0893  0.8348 -1.5654
  511TMC3    H2 7651   0.469   1.511  15.115  0.2939 -0.6458 -1.9615
  511TMC3    C7 7652   0.618   1.378  14.961 -0.0653  0.2111  0.9052
  511TMC3    C8 7653   0.488   1.758  15.226  0.0138 -0.1407  0.1927
  511TMC3    O1 7654   0.663   1.347  14.851  0.0621 -0.1188  0.8557
  511TMC3    O2 7655   0.453   1.873  15.219  0.5080  0.5720  0.1839
  512TMC3    C1 7656   0.134   1.322  13.011 -0.6481  0.0371 -0.4005
  512TMC3    C2 7657   0.162   1.298  13.140  0.5094 -0.2369  0.2674
  512TMC3    C3 7658   0.117   1.183  13.202 -0.3364 -0.4848 -1.0514
  512TMC3    C4 7659   0.067   1.234  12.936 -0.6700  0.2754  0.4579
  512TMC3    C5 7660   0.021   1.120  12.998 -0.1225  0.0452 -0.0306
  512TMC3    C6 7661   0.035   1.094  13.134  0.0418  0.2421 -0.3351
  512TMC3     C 7662   0.108   1.464  12.979  0.1977  0.1443  0.4309
  512TMC3     O 7663   0.122   1.536  13.077  0.1033 -0.1002 -0.2339
  512TMC3     H 7664   0.243   1.353  13.186  2.0739 -2.0894 -0.2594
  512TMC3    H1 7665   0.047   1.249  12.830 -0.4128  3.3069  0.8564
  512TMC3    H2 7666   4.719   1.020  13.195  1.3723 -0.1799  0.2353
  512TMC3    C7 7667   4.676   1.027  12.922  0.2430 -0.1411 -0.4101
  512TMC3    C8 7668   0.120   1.173  13.343  0.6008  0.7958  0.0335
  512TMC3    O1 7669   4.630   1.060  12.812  0.1045  0.1610  0.1109
  512TMC3    O2 7670   0.120   1.055  13.378 -0.8711  0.3070  0.3968
  513MPD2     C 7671   1.071   0.947  13.748  0.5818 -0.0561  0.3572
  513MPD2    C1 7672   1.074   0.826  13.677 -0.3748 -0.1940 -0.0350
  513MPD2    C2 7673   1.162   0.728  13.706 -0.5222  0.0075  0.3368
  513MPD2    C3 7674   1.267   0.750  13.804 -0.3301 -0.1131 -0.0172
  513MPD2    C4 7675   1.259   0.872  13.877  0.1970  0.0758  0.0138
  513MPD2    C5 7676   1.163   0.971  13.852  0.2036 -0.7304 -0.8577
  513MPD2     H 7677   1.154   0.635  13.651  1.3498  0.0009  0.0629
  513MPD2    H1 7678   1.341   0.896  13.943  0.8671  0.6628 -1.0187
  513MPD2    H2 7679   1.005   1.028  13.720 -1.1063 -1.4240  0.3654
  513MPD2    H3 7680   1.173   1.068  13.898  1.8793 -1.1524 -0.3122
  513MPD2     N 7681   1.363   0.650  13.819 -0.5800 -0.6086  0.4925
  513MPD2    H5 7682   1.338   0.561  13.775 -0.8421  0.3706 -1.3493
  513MPD2    N1 7683   1.006   0.822  13.551 -0.6428 -0.0853 -0.7329
  513MPD2    H7 7684   0.985   0.910  13.504  0.2823  0.1524 -0.7126
  514TMC3    C1 7685   1.009   0.720  13.333 -0.4005  0.5653  0.3022
  514TMC3    C2 7686   1.093   0.821  13.292 -0.1687 -0.0249  0.2734
  514TMC3    C3 7687   1.157   0.800  13.174  0.3384  0.2457 -0.0895
  514TMC3    C4 7688   0.985   0.604  13.266 -0.2309  0.5552  0.0220
  514TMC3    C5 7689   1.079   0.571  13.166 -0.3064 -0.8225 -0.1392
  514TMC3    C6 7690   1.162   0.671  13.116 -0.1450  0.2096  0.0329
  514TMC3     C 7691   0.990   0.706  13.479  0.6019  0.2851 -0.0438
  514TMC3     O 7692   0.966   0.591  13.523  0.1256 -0.5025  0.4074
  514TMC3     H 7693   1.084   0.918  13.340  0.2219  0.1114  0.0720
  514TMC3    H1 7694   0.907   0.535  13.296 -0.7839 -0.2275 -3.1991
  514TMC3    H2 7695   1.218   0.653  13.025  0.3609 -0.9502  0.5680
  514TMC3    C7 7696   1.148   0.456  13.215  0.7318 -0.0240 -0.2998
  514TMC3    C8 7697   1.186   0.925  13.101 -1.0470  0.3454  0.6370
  514TMC3    O1 7698   1.114   0.417  13.325  0.2799  0.4255  0.5581
  514TMC3    O2 7699   1.150   1.030  13.152 -0.5840 -0.3083 -0.3399
  515MPD2     C 7700   4.218   3.332  14.724  0.1903  0.9583 -0.1767
  515MPD2    C1 7701   4.230   3.193  14.732 -0.7186 -0.2902  0.4747
  515MPD2    C2 7702   4.310   3.136  14.836 -0.7116 -0.1748  0.6037
  515MPD2    C3 7703   4.382   3.223  14.918  0.0348 -0.2951  0.4356
  515MPD2    C4 7704   4.358   3.359  14.912  0.3151  0.7233  0.3807
  515MPD2    C5 7705   4.281   3.407  14.817  0.1163 -0.4554 -0.0690
  515MPD2     H 7706   4.311   3.028  14.843  0.4536  0.0468  3.7279
  515MPD2    H1 7707   4.391   3.433  14.984 -0.0501  2.5223 -1.2761
  515MPD2    H2 7708   4.155   3.377  14.647 -1.1687  1.2012  1.0846
  515MPD2    H3 7709   4.269   3.514  14.813 -0.3214 -0.4264  1.7949
  515MPD2     N 7710   4.490   3.184  15.000  0.0132 -0.3519  0.6721
  515MPD2    H5 7711   4.531   3.258  15.056  1.0516  1.0081 -1.9041
  515MPD2    N1 7712   4.162   3.103  14.649 -0.8228 -0.3778 -0.0037
  515MPD2    H7 7713   4.159   3.005  14.678 -1.9296  0.0340  1.2960
  516TMC3    C1 7714   4.054   3.020  14.450 -0.2593 -0.3404 -0.1438
  516TMC3    C2 7715   3.978   3.040  14.339  0.5336 -0.7285  0.8167
  516TMC3    C3 7716   3.946   2.928  14.262  0.5401  0.2826 -0.2864
  516TMC3    C4 7717   4.093   2.889  14.484  0.1293  0.0364 -0.5982
  516TMC3    C5 7718   4.039   2.783  14.421  0.3658 -0.3410  0.5542
  516TMC3    C6 7719   3.974   2.801  14.304  0.0271 -0.1595 -0.6734
  516TMC3     C 7720   4.090   3.135  14.532 -0.7309 -0.1393  0.2776
  516TMC3     O 7721   4.064   3.248  14.494  0.4396 -0.3809  0.1599
  516TMC3     H 7722   3.949   3.140  14.310 -0.0925 -1.4457 -0.9972
  516TMC3    H1 7723   4.161   2.869  14.565 -0.7160  0.7742  0.2887
  516TMC3    H2 7724   3.957   2.721  14.233 -2.9284  1.1844 -1.4681
  516TMC3    C7 7725   4.048   2.653  14.486 -0.5892  0.1899 -0.4650
  516TMC3    C8 7726   3.855   2.932  14.151 -0.1421  0.1006 -0.2950
  516TMC3    O1 7727   4.111   2.650  14.591  0.6607 -0.1942  0.2652
  516TMC3    O2 7728   3.823   2.831  14.094 -0.0903 -0.4350 -0.6951
  517MPD2     C 7729   3.770   4.286  17.416  0.8028 -0.2114  0.3723
  517MPD2    C1 7730   3.885   4.265  17.483 -0.1670  0.8926 -0.3447
  517MPD2    C2 7731   3.936   4.373  17.559 -0.2282  0.1219 -0.3572
  517MPD2    C3 7732   3.865   4.497  17.556 -0.1135 -0.2938  0.5875
  517MPD2    C4 7733   3.750   4.507  17.483  0.3458 -0.1904  0.5380
  517MPD2    C5 7734   3.696   4.402  17.416 -0.2690  0.2074  0.0806
  517MPD2     H 7735   4.036   4.362  17.600 -0.1433 -1.2358 -0.9031
  517MPD2    H1 7736   3.699   4.602  17.481  0.0712 -0.3516 -0.1273
  517MPD2    H2 7737   3.733   4.204  17.355  0.0851  1.3636 -1.3096
  517MPD2    H3 7738   3.611   4.401  17.349  2.0196 -0.2683 -2.8395
  517MPD2     N 7739   3.907   4.610  17.632  0.0039  0.7390 -0.6673
  517MPD2    H5 7740   3.846   4.691  17.624 -1.6830 -0.3796  1.0607
  517MPD2    N1 7741   3.947   4.143  17.496  0.4745  0.2398 -0.0418
  517MPD2    H7 7742   4.041   4.142  17.533 -0.2803  0.5711  1.8844
  518TMC3    C1 7743   3.998   3.921  17.466 -0.1893  0.2770 -0.6375
  518TMC3    C2 7744   3.964   3.791  17.478  0.2643 -0.1751 -0.1344
  518TMC3    C3 7745   4.053   3.693  17.430  0.2456  0.1245 -0.3061
  518TMC3    C4 7746   4.122   3.949  17.405  0.2318 -0.1490 -0.0397
  518TMC3    C5 7747   4.199   3.854  17.362  0.0501 -0.4634  0.2599
  518TMC3    C6 7748   4.169   3.720  17.369  0.4924  0.1692  0.1434
  518TMC3     C 7749   3.892   4.023  17.463 -0.0245 -0.3382  0.0672
  518TMC3     O 7750   3.782   3.988  17.429 -0.2977 -0.0111  0.3985
  518TMC3     H 7751   3.865   3.774  17.519 -1.1444  2.3233 -2.4470
  518TMC3    H1 7752   4.155   4.051  17.391  0.4829 -0.0591  1.2475
  518TMC3    H2 7753   4.229   3.643  17.322 -0.2460 -0.8900  0.8966
  518TMC3    C7 7754   4.330   3.886  17.318 -0.7110  0.0689 -0.3717
  518TMC3    C8 7755   4.011   3.559  17.432 -0.2746 -0.3864 -0.8244
  518TMC3    O1 7756   4.357   3.993  17.261  0.5182  0.2957 -0.1472
  518TMC3    O2 7757   4.052   3.484  17.342  0.2790  0.1457  0.7290
  519MPD2     C 7758   1.012   3.066  14.311  0.0794  0.7903  0.3103
  519MPD2    C1 7759   1.043   3.049  14.181  0.1323 -0.4908 -0.2179
  519MPD2    C2 7760   1.098   2.935  14.137 -0.3649  0.0569  0.1167
  519MPD2    C3 7761   1.103   2.830  14.224 -0.0755 -0.1843  0.5510
  519MPD2    C4 7762   1.092   2.854  14.360 -0.2540 -0.1166 -0.2266
  519MPD2    C5 7763   1.056   2.975  14.406  0.6166  0.1031  0.3022
  519MPD2     H 7764   1.127   2.925  14.033  0.1120 -2.6129  0.5162
  519MPD2    H1 7765   1.111   2.778  14.435 -0.1856  0.5084  0.3840
  519MPD2    H2 7766   0.976   3.163  14.342 -1.4101  0.2803  0.2057
  519MPD2    H3 7767   1.059   2.997  14.512  1.4131  2.3956 -0.1900
  519MPD2     N 7768   1.147   2.700  14.189  0.0367  0.1755 -0.4112
  519MPD2    H5 7769   1.168   2.632  14.260  0.8366  0.2090 -0.6198
  519MPD2    N1 7770   0.985   3.139  14.089  0.1337  0.1253 -0.2958
  519MPD2    H7 7771   0.931   3.216  14.130 -0.8600 -0.8099  0.1460
  520TMC3    C1 7772   1.189   2.515  14.036 -0.2749 -0.2958  0.4265
  520TMC3    C2 7773   1.149   2.451  13.925 -0.0326 -0.1724 -0.0562
  520TMC3    C3 7774   1.219   2.346  13.889  0.0422 -0.3065 -0.2289
  520TMC3    C4 7775   1.293   2.469  14.115 -0.6234 -0.3346 -0.4995
  520TMC3    C5 7776   1.355   2.351  14.080 -0.2908  0.2862 -0.0057
  520TMC3    C6 7777   1.325   2.296  13.962  0.1642 -0.7226  0.3098
  520TMC3     C 7778   1.132   2.650  14.061  0.3261 -0.3301  0.7290
  520TMC3     O 7779   1.076   2.686  13.959 -0.2586 -0.1364  0.6025
  520TMC3     H 7780   1.072   2.491  13.860 -0.0448 -1.7164 -0.9860
  520TMC3    H1 7781   1.340   2.535  14.188 -1.8574  0.1358 -0.1226
  520TMC3    H2 7782   1.366   2.202  13.927  1.9761  0.2862 -0.2739
  520TMC3    C7 7783   1.482   2.318  14.144  1.1470 -0.9726  0.3757
  520TMC3    C8 7784   1.176   2.281  13.763  0.5273  0.7090  0.1956
  520TMC3    O1 7785   1.493   2.353  14.260  0.3818 -0.0039  0.2247
  520TMC3    O2 7786   1.258   2.201  13.717  0.9307  0.2865 -0.5143
  521MPD2     C 7787   1.867   0.682   0.120 -0.4588  0.7737  0.4817
  521MPD2    C1 7788   1.823   0.661  17.726  0.3355  0.1162  0.2156
  521MPD2    C2 7789   1.893   0.704  17.615  0.1522  0.3170 -0.0755
  521MPD2    C3 7790   2.009   0.778  17.637  0.2835 -0.0300 -0.4747
  521MPD2    C4 7791   2.053   0.789   0.035  0.2190 -0.0018 -0.2444
  521MPD2    C5 7792   1.986   0.739   0.136  0.6227  0.0661  0.1996
  521MPD2     H 7793   1.872   0.682  17.511  0.5191  1.7055 -0.4542
  521MPD2    H1 7794   2.148   0.833   0.062  0.4660 -0.6053 -0.1144
  521MPD2    H2 7795   1.814   0.631   0.200  0.7423  1.1100  1.4972
  521MPD2    H3 7796   2.014   0.752   0.240 -1.2404  0.6242  0.6345
  521MPD2     N 7797   2.076   0.829  17.519  0.1279  0.5859 -0.4105
  521MPD2    H5 7798   2.031   0.816  17.429  0.1496  0.2867 -0.3798
  521MPD2    N1 7799   1.701   0.586  17.712 -0.6863 -0.3626 -0.8313
  521MPD2    H7 7800   1.656   0.553   0.062 -1.8244  0.7313 -1.0140
  522TMC3    C1 7801   2.257   0.908  17.385  0.3261  0.0486  0.2343
  522TMC3    C2 7802   2.372   0.978  17.373  0.3717  0.3825  0.2308
  522TMC3    C3 7803   2.456   0.954  17.263 -0.3173 -0.9305 -1.1609
  522TMC3    C4 7804   2.209   0.831  17.284  0.3277  0.4430  0.4963
  522TMC3    C5 7805   2.288   0.823  17.170  0.1805 -0.8047  0.3197
  522TMC3    C6 7806   2.408   0.882  17.159 -0.4419 -0.2386  0.4324
  522TMC3     C 7807   2.193   0.897  17.515  0.1493  1.2266 -0.4235
  522TMC3     O 7808   2.257   0.947  17.609 -0.2763  0.4103 -0.1103
  522TMC3     H 7809   2.400   1.039  17.458 -0.0784 -1.6428  1.8157
  522TMC3    H1 7810   2.128   0.760  17.298 -0.4091  1.3065  0.6027
  522TMC3    H2 7811   2.455   0.852  17.067 -0.5568  0.5256  0.1273
  522TMC3    C7 7812   2.277   0.712  17.090 -0.2394 -0.4705  0.1893
  522TMC3    C8 7813   2.583   1.027  17.238 -0.1933 -1.4992  0.1353
  522TMC3    O1 7814   2.378   0.646  17.065  0.6376 -0.0677  0.3127
  522TMC3    O2 7815   2.612   1.131  17.300 -0.5356  0.0480 -0.6101
  523MPD2     C 7816   3.998   4.407   9.950 -0.2067  0.0027  0.2603
  523MPD2    C1 7817   4.037   4.475  10.060 -0.6664 -0.0987  0.2780
  523MPD2    C2 7818   4.039   4.621  10.053  0.2264 -0.4170 -0.0205
  523MPD2    C3 7819   3.995   4.689   9.941  0.3237  0.0625  0.0817
  523MPD2    C4 7820   3.965   4.610   9.829 -0.2227  0.5744  0.0944
  523MPD2    C5 7821   3.972   4.476   9.836  0.5052  0.1201  0.3193
  523MPD2     H 7822   4.081   4.676  10.137  1.5886 -2.0526  0.3779
  523MPD2    H1 7823   3.926   4.661   9.742 -1.7755 -1.3162 -0.3246
  523MPD2    H2 7824   3.987   4.300   9.955 -1.1004  0.0383 -1.1559
  523MPD2    H3 7825   3.925   4.422   9.755  1.0019  0.1146  0.0324
  523MPD2     N 7826   3.962   0.097   9.940 -0.1831  0.2177  0.1210
  523MPD2    H5 7827   3.932   0.135   9.851 -2.4022 -1.3365  0.2065
  523MPD2    N1 7828   4.074   4.405  10.173  0.7497 -1.1816 -0.3361
  523MPD2    H7 7829   4.096   4.307  10.154  2.1286 -0.3353 -3.1910
  524TMC3    C1 7830   3.945   0.323  10.000 -0.0474 -0.7262  0.2838
  524TMC3    C2 7831   3.867   0.328   9.885  0.3553  0.4985  0.8062
  524TMC3    C3 7832   3.848   0.444   9.817 -0.3803  0.1032  0.1720
  524TMC3    C4 7833   4.028   0.426  10.034  0.8663  0.6173 -0.2809
  524TMC3    C5 7834   4.011   0.548   9.957  0.5806 -0.4469 -0.2732
  524TMC3    C6 7835   3.927   0.557   9.844 -0.0711 -0.0321 -0.4472
  524TMC3     C 7836   3.989   0.191  10.040 -0.4050 -0.2688 -0.2867
  524TMC3     O 7837   4.069   0.187  10.133  0.3691  0.0880  0.1149
  524TMC3     H 7838   3.801   0.243   9.869  0.2821  0.7972 -0.4867
  524TMC3    H1 7839   4.107   0.418  10.107 -0.6879 -1.7459  1.1422
  524TMC3    H2 7840   3.930   0.648   9.785 -0.0574 -0.9546 -1.8579
  524TMC3    C7 7841   4.089   0.660   9.996 -0.1625 -0.4327 -0.1878
  524TMC3    C8 7842   3.750   0.440   9.709 -0.7175  0.4149 -0.1774
  524TMC3    O1 7843   4.194   0.641  10.054 -0.3487 -0.3993 -0.4202
  524TMC3    O2 7844   3.683   0.335   9.692  0.1437 -0.3456  0.0645
  525MPD2     C 7845   2.333   2.689  14.790 -0.9572  0.2084  0.1229
  525MPD2    C1 7846   2.476   2.700  14.774  0.3230  0.3531  0.0450
  525MPD2    C2 7847   2.537   2.823  14.763  0.0620  0.1502 -0.2547
  525MPD2    C3 7848   2.465   2.937  14.778 -0.3189 -0.2966 -0.2984
  525MPD2    C4 7849   2.326   2.925  14.796  0.0994 -0.6960 -0.8020
  525MPD2    C5 7850   2.266   2.806  14.799  0.2883  1.3263 -0.1482
  525MPD2     H 7851   2.645   2.816  14.754 -0.2801 -3.0281 -1.7259
  525MPD2    H1 7852   2.270   3.017  14.786  0.5301 -0.4676 -1.1087
  525MPD2    H2 7853   2.281   2.595  14.806 -2.6771  0.8596 -1.6636
  525MPD2    H3 7854   2.159   2.806  14.819  0.3430 -1.5954  0.2148
  525MPD2     N 7855   2.522   3.066  14.769 -0.3105 -0.3047  0.6431
  525MPD2    H5 7856   2.456   3.143  14.760  1.0445  0.7201 -0.4449
  525MPD2    N1 7857   2.565   2.586  14.772  0.0763 -0.4311 -0.0826
  525MPD2    H7 7858   2.664   2.608  14.767 -0.3669  2.3374  2.8740
  526TMC3    C1 7859   2.645   2.366  14.798 -0.0561  0.2527  0.1322
  526TMC3    C2 7860   2.624   2.278  14.897  0.6050 -0.1411 -0.1212
  526TMC3    C3 7861   2.707   2.175  14.905 -0.7242 -0.0401 -0.2016
  526TMC3    C4 7862   2.743   2.350  14.706 -0.1714  0.0042 -1.0438
  526TMC3    C5 7863   2.825   2.235  14.714 -0.1162  0.4331  0.4556
  526TMC3    C6 7864   2.808   2.149  14.814 -0.1271  0.0535 -0.1119
  526TMC3     C 7865   2.533   2.454  14.785 -0.0532 -0.6038  0.0877
  526TMC3     O 7866   2.429   2.408  14.824  0.3780 -0.2294 -0.6676
  526TMC3     H 7867   2.546   2.292  14.971  0.4890  1.6110 -0.5633
  526TMC3    H1 7868   2.748   2.416  14.620  0.7618 -0.2152 -1.1493
  526TMC3    H2 7869   2.872   2.061  14.817  1.3959  1.0545 -2.6124
  526TMC3    C7 7870   2.932   2.224  14.614  0.3547  0.1168  0.1448
  526TMC3    C8 7871   2.692   2.072  15.011  0.8746 -0.1855 -0.7188
  526TMC3    O1 7872   2.975   2.326  14.567  0.9217 -0.4691 -0.0156
  526TMC3    O2 7873   2.760   1.971  14.997 -0.3887 -0.0887 -0.6356
  527MPD2     C 7874   0.012   4.654   1.423 -0.1893 -0.7329  0.2026
  527MPD2    C1 7875   0.035   4.628   1.290 -0.0411 -0.6440  0.2980
  527MPD2    C2 7876   0.159   4.663   1.237 -0.5147  0.8801  0.3823
  527MPD2    C3 7877   0.255   4.700   1.320 -0.2398 -0.1425 -0.0349
  527MPD2    C4 7878   0.235   4.720   1.453 -0.3404  0.7479  0.0123
  527MPD2    C5 7879   0.106   4.719   1.497  0.6303 -0.4415 -0.4889
  527MPD2     H 7880   0.180   4.650   1.132 -0.2337 -1.1909  0.6976
  527MPD2    H1 7881   0.306   0.033   1.520  2.5468 -2.0005 -1.1189
  527MPD2    H2 7882   4.648   4.646   1.469  0.1009 -1.1593  0.7396
  527MPD2    H3 7883   0.081   0.025   1.595 -1.9639  0.9829 -1.7169
  527MPD2     N 7884   0.384   4.706   1.262  0.0593  0.0158 -0.0851
  527MPD2    H5 7885   0.394   4.688   1.163  2.2846  0.1418  0.1145
  527MPD2    N1 7886   4.670   4.570   1.210  0.0131 -0.0991  0.0430
  527MPD2    H7 7887   4.693   4.573   1.112  2.1423 -1.5398  0.4808
  528TMC3    C1 7888   4.474   4.456   1.140 -0.3268 -0.7615 -0.0122
  528TMC3    C2 7889   4.501   4.481   1.007 -0.2738 -0.3851  0.4598
  528TMC3    C3 7890   4.414   4.435   0.917  0.1514 -0.1424  0.2260
  528TMC3    C4 7891   4.368   4.383   1.182 -0.0056 -0.0066  0.2314
  528TMC3    C5 7892   4.289   4.334   1.090 -1.4842  0.0128 -0.1273
  528TMC3    C6 7893   4.305   4.365   0.958 -0.4088 -0.0055  1.0606
  528TMC3     C 7894   4.568   4.494   1.248  0.0987  0.7613 -0.7192
  528TMC3     O 7895   4.538   4.461   1.365 -0.0851 -0.7693 -0.1062
  528TMC3     H 7896   4.590   4.535   0.979 -1.3787  1.1571 -0.0804
  528TMC3    H1 7897   4.340   4.372   1.286  3.6575  4.5072  1.6940
  528TMC3    H2 7898   4.234   4.328   0.885  0.1113  0.0265  0.5370
  528TMC3    C7 7899   4.160   4.303   1.137 -0.2304  0.0277  0.1394
  528TMC3    C8 7900   4.450   4.450   0.778 -0.1991 -0.4069  0.1647
  528TMC3    O1 7901   4.072   4.340   1.068 -0.3928  0.6177  0.0645
  528TMC3    O2 7902   4.564   4.485   0.750 -0.2999  0.0973 -0.3721
  529MPD2     C 7903   2.486   3.194   1.126  0.0634  0.8133 -0.2903
  529MPD2    C1 7904   2.585   3.159   1.033  0.3766 -0.4772  0.0131
  529MPD2    C2 7905   2.571   3.209   0.900 -0.3444 -0.4792 -0.1125
  529MPD2    C3 7906   2.477   3.297   0.861  0.1716 -0.3477  0.6624
  529MPD2    C4 7907   2.391   3.347   0.955  0.0788 -0.1028  0.1218
  529MPD2    C5 7908   2.398   3.298   1.088  0.0748 -0.1956  0.4330
  529MPD2     H 7909   2.656   3.198   0.834  2.0772  0.4426  2.7973
  529MPD2    H1 7910   2.318   3.426   0.945  0.6011  0.3183 -0.3466
  529MPD2    H2 7911   2.485   3.164   1.230 -0.5298 -0.1395 -0.5766
  529MPD2    H3 7912   2.341   3.345   1.167  1.1931  1.7643  0.0739
  529MPD2     N 7913   2.458   3.349   0.729  1.0124  0.4478  0.1361
  529MPD2    H5 7914   2.386   3.420   0.718  0.2321 -0.3784 -0.0455
  529MPD2    N1 7915   2.700   3.080   1.069  0.1995 -0.9776 -0.6562
  529MPD2    H7 7916   2.772   3.062   0.999  1.6904 -1.9123  1.1347
  530TMC3    C1 7917   2.850   2.967   1.209 -0.1331 -0.7465  0.3500
  530TMC3    C2 7918   2.929   2.980   1.322 -0.0353  0.4509  0.7731
  530TMC3    C3 7919   3.052   2.919   1.324 -0.0714 -0.7127  0.0313
  530TMC3    C4 7920   2.884   2.877   1.107 -0.6164 -0.4122  0.7525
  530TMC3    C5 7921   2.999   2.810   1.121 -0.6191  0.0963 -0.6006
  530TMC3    C6 7922   3.085   2.829   1.226 -0.0289 -0.4625  0.1667
  530TMC3     C 7923   2.744   3.063   1.195 -0.2553  0.6354 -0.2759
  530TMC3     O 7924   2.706   3.103   1.303 -0.1032 -0.1931 -0.0417
  530TMC3     H 7925   2.913   3.053   1.401  1.6458  1.1602  0.4542
  530TMC3    H1 7926   2.818   2.851   1.025 -0.6101  1.6057  0.1229
  530TMC3    H2 7927   3.185   2.786   1.228 -0.3190 -1.0694  1.7957
  530TMC3    C7 7928   3.002   2.671   1.084  0.4575 -0.3036  0.7121
  530TMC3    C8 7929   3.114   2.920   1.465 -0.2523  0.1863  1.1066
  530TMC3    O1 7930   3.111   2.622   1.064 -0.4809 -0.8274  0.1659
  530TMC3    O2 7931   3.042   2.928   1.561  0.3518 -0.3927 -0.0275
  531MPD2     C 7932   1.582   0.176  13.282 -0.2492 -0.5082  0.1680
  531MPD2    C1 7933   1.500   0.236  13.374 -0.2994  0.3783 -0.1624
  531MPD2    C2 7934   1.389   0.303  13.326 -0.6220 -0.0610  0.7251
  531MPD2    C3 7935   1.363   0.328  13.189 -0.1506  0.1396 -0.1773
  531MPD2    C4 7936   1.446   0.274  13.098  0.7081 -0.8824 -0.6745
  531MPD2    C5 7937   1.561   0.195  13.146 -0.5515  0.0920  0.1436
  531MPD2     H 7938   1.314   0.331  13.399 -1.3682  2.0757 -0.8541
  531MPD2    H1 7939   1.432   0.292  12.993 -0.6948  2.9917  0.1885
  531MPD2    H2 7940   1.663   0.118  13.326 -0.0109 -0.1580  0.1910
  531MPD2    H3 7941   1.625   0.147  13.073 -1.9211 -0.8065 -0.4610
  531MPD2     N 7942   1.256   0.410  13.140 -0.5025  0.3298 -0.1692
  531MPD2    H5 7943   1.260   0.432  13.041 -1.3540  0.9550 -0.0614
  531MPD2    N1 7944   1.535   0.230  13.510  0.4114  0.4625  0.2520
  531MPD2    H7 7945   1.632   0.214  13.537  0.6383 -0.2856 -0.9933
  532TMC3    C1 7946   1.535   0.319  13.733 -0.0881  0.9724 -0.1673
  532TMC3    C2 7947   1.463   0.414  13.809 -0.5303  0.2310 -0.6837
  532TMC3    C3 7948   1.528   0.508  13.881  0.4414 -0.4085  0.4247
  532TMC3    C4 7949   1.674   0.337  13.730  0.0689 -0.0226  0.5980
  532TMC3    C5 7950   1.728   0.424  13.821 -0.6230  1.1291  0.6458
  532TMC3    C6 7951   1.657   0.514  13.899 -0.4240  0.4105  0.2585
  532TMC3     C 7952   1.463   0.284  13.609  0.9368 -0.3318  0.2053
  532TMC3     O 7953   1.349   0.330  13.606 -0.1913  0.4310  0.2722
  532TMC3     H 7954   1.357   0.407  13.831 -1.2837  0.9206 -4.0644
  532TMC3    H1 7955   1.737   0.274  13.669  0.4044  0.8427  0.0412
  532TMC3    H2 7956   1.704   0.606  13.932 -0.7429  0.7762 -0.3034
  532TMC3    C7 7957   1.871   0.447  13.813  0.5280 -0.2782  0.3580
  532TMC3    C8 7958   1.465   0.640  13.912 -0.3659  0.2348 -0.2164
  532TMC3    O1 7959   1.913   0.555  13.845  0.1868 -0.4168  0.1603
  532TMC3    O2 7960   1.512   0.734  13.974  0.3857  0.4319 -0.5577
  533TMC3    C1 7961   2.675   3.238  14.790 -0.1355  0.6187  0.0181
  533TMC3    C2 7962   2.788   3.307  14.747  0.7916 -0.1431 -0.6646
  533TMC3    C3 7963   2.826   3.423  14.811 -0.3393 -0.7729  0.2155
  533TMC3    C4 7964   2.597   3.284  14.898 -0.3052  0.9355  0.5027
  533TMC3    C5 7965   2.647   3.397  14.965  0.1777  0.3889 -0.7511
  533TMC3    C6 7966   2.763   3.462  14.927  0.1202 -0.0984  0.0951
  533TMC3     C 7967   2.649   3.103  14.747 -0.1998  0.2827  0.3575
  533TMC3     O 7968   2.741   3.031  14.711  0.5035  0.1461  0.1564
  533TMC3     H 7969   2.842   3.265  14.664  0.0023  1.2001 -1.8520
  533TMC3    H1 7970   2.496   3.249  14.916  0.0254  0.1021  0.7304
  533TMC3    H2 7971   2.818   3.520  15.000  0.1418 -0.8452  0.6712
  533TMC3    C7 7972   2.606   3.402  15.102  0.4615 -0.2928 -0.1815
  533TMC3    C8 7973   2.959   3.471  14.789 -0.4428  0.3897 -0.0006
  533TMC3    O1 7974   2.620   3.505  15.167 -0.4793  0.4685  0.3038
  533TMC3    O2 7975   3.039   3.391  14.738 -0.1658 -0.3424  0.3398
  534MPD2     C 7976   0.919   3.160   1.375 -0.4310  0.2084 -0.6979
  534MPD2    C1 7977   0.854   3.241   1.465  0.2122  0.0056 -0.4108
  534MPD2    C2 7978   0.722   3.272   1.440 -0.1181 -0.9739  0.1604
  534MPD2    C3 7979   0.646   3.208   1.340  0.0388  0.7732 -0.2591
  534MPD2    C4 7980   0.714   3.119   1.268  0.4342  0.7307 -0.7986
  534MPD2    C5 7981   0.845   3.103   1.283  0.0826 -0.0599 -0.4838
  534MPD2     H 7982   0.669   3.352   1.491 -0.0694 -1.1601  0.4989
  534MPD2    H1 7983   0.672   3.056   1.190 -3.3585  2.2974 -0.0350
  534MPD2    H2 7984   1.020   3.123   1.388 -0.6729 -0.6414 -1.2532
  534MPD2    H3 7985   0.899   3.042   1.211  0.4291  0.4272 -0.6341
  534MPD2     N 7986   0.506   3.217   1.316  0.2962  0.0660 -0.4500
  534MPD2    H5 7987   0.457   3.161   1.246  2.5921 -0.1958 -1.8842
  534MPD2    N1 7988   0.921   3.307   1.571 -0.5508  0.6183  0.1390
  534MPD2    H7 7989   0.859   3.367   1.625 -1.4440  1.6455 -2.0229
  535TMC3    C1 7990   0.286   3.293   1.341  0.3214  0.7504 -0.7018
  535TMC3    C2 7991   0.184   3.271   1.432 -0.3205  0.1344  0.7919
  535TMC3    C3 7992   0.061   3.256   1.366 -0.1144 -0.1240 -0.1807
  535TMC3    C4 7993   0.276   3.313   1.202  0.7185  0.3167  0.5317
  535TMC3    C5 7994   0.148   3.311   1.163  0.6024  0.1485  0.8260
  535TMC3    C6 7995   0.040   3.276   1.234 -0.0555 -0.0417 -1.2234
  535TMC3     C 7996   0.421   3.295   1.394 -1.0204  0.5516 -0.3998
  535TMC3     O 7997   0.442   3.351   1.503  0.1333 -0.3018  0.8195
  535TMC3     H 7998   0.202   3.254   1.537 -0.1006  0.3623  0.7910
  535TMC3    H1 7999   0.358   3.341   1.136  0.3519  3.4012  1.3777
  535TMC3    H2 8000   4.674   3.261   1.196 -0.4749 -3.0338  1.0938
  535TMC3    C7 8001   0.118   3.343   1.016 -0.2067  0.0369  0.1036
  535TMC3    C8 8002   4.668   3.237   1.438 -0.2806 -0.1653  0.2225
  535TMC3    O1 8003   0.194   3.312   0.927  0.0562 -0.1285 -0.3765
  535TMC3    O2 8004   4.572   3.192   1.372 -0.0440  0.0531 -0.0805
  536MPD2     C 8005   4.019   1.761  16.400  0.1516  0.4911 -0.1431
  536MPD2    C1 8006   3.906   1.689  16.396 -0.4841  0.3947 -0.9063
  536MPD2    C2 8007   3.814   1.723  16.292  0.1788  0.1948 -0.6906
  536MPD2    C3 8008   3.835   1.831  16.209  0.3908  0.4737  0.1188
  536MPD2    C4 8009   3.949   1.904  16.219 -0.3820 -0.6315 -0.2417
  536MPD2    C5 8010   4.044   1.866  16.315  0.1797 -0.3914  0.5920
  536MPD2     H 8011   3.722   1.668  16.283 -0.9629  1.8044  1.1187
  536MPD2    H1 8012   3.969   1.997  16.168 -1.3771 -1.8148 -2.8339
  536MPD2    H2 8013   4.088   1.753  16.484  0.7565  0.7432 -0.6146
  536MPD2    H3 8014   4.133   1.924  16.334 -0.6188  0.7080  0.9836
  536MPD2     N 8015   3.744   1.892  16.119 -0.0352  0.2972  0.3972
  536MPD2    H5 8016   3.776   1.968  16.060  0.8872  0.7215  1.4423
  536MPD2    N1 8017   3.895   1.580  16.485  0.2588 -0.3779 -0.4641
  536MPD2    H7 8018   3.964   1.564  16.558 -0.8449 -1.1579  0.4097
  537TMC3    C1 8019   3.795   1.396  16.593  0.3739 -0.2318  0.2226
  537TMC3    C2 8020   3.906   1.322  16.594  0.3092 -0.1466 -0.1846
  537TMC3    C3 8021   3.918   1.236  16.702 -0.3184 -0.9940  0.0756
  537TMC3    C4 8022   3.679   1.360  16.657  0.2923 -0.1481 -0.1661
  537TMC3    C5 8023   3.693   1.248  16.740  0.3673 -0.3644  0.4105
  537TMC3    C6 8024   3.814   1.191  16.767 -0.2436  0.4411  0.2152
  537TMC3     C 8025   3.782   1.503  16.495  0.6039  0.1572  0.3916
  537TMC3     O 8026   3.676   1.505  16.437 -0.4043 -0.3539  0.2460
  537TMC3     H 8027   3.988   1.354  16.531  0.6426 -0.1195  0.2658
  537TMC3    H1 8028   3.592   1.423  16.643  0.4924  0.0867 -0.3810
  537TMC3    H2 8029   3.823   1.100  16.824  1.1682  0.4954  0.0870
  537TMC3    C7 8030   3.573   1.217  16.831 -0.2580 -0.3360  0.4932
  537TMC3    C8 8031   4.021   1.265  16.798 -0.0034  0.0339  0.4577
  537TMC3    O1 8032   3.468   1.282  16.809 -0.1886 -0.0380 -0.1163
  537TMC3    O2 8033   4.097   1.351  16.752 -0.6190 -0.1157 -0.2092
  538TMC3    C1 8034   0.957   3.854  10.762  0.2547 -0.7046 -1.3810
  538TMC3    C2 8035   1.073   3.915  10.797  0.2894  0.3783 -0.7427
  538TMC3    C3 8036   1.081   4.055  10.796 -0.1327 -0.1099  0.0663
  538TMC3    C4 8037   0.845   3.926  10.720 -0.3655  0.2966  0.1602
  538TMC3    C5 8038   0.857   4.064  10.718 -0.4347  0.3398 -0.5015
  538TMC3    C6 8039   0.973   4.133  10.748 -0.7064  0.1087 -0.0069
  538TMC3     C 8040   0.911   3.750  10.851 -0.2382 -0.0175  0.4173
  538TMC3     O 8041   0.871   3.653  10.793  0.0951 -0.0606  0.5079
  538TMC3     H 8042   1.145   3.856  10.853 -1.5625 -1.0174  0.1711
  538TMC3    H1 8043   0.756   3.870  10.696 -0.5170  0.5965  0.0321
  538TMC3    H2 8044   0.968   4.242  10.745 -2.0552  0.0591  0.1337
  538TMC3    C7 8045   0.730   4.146  10.720  0.0735 -0.3094  1.0442
  538TMC3    C8 8046   1.213   4.112  10.817  0.0459  0.3137 -0.0059
  538TMC3    O1 8047   0.728   4.265  10.701 -0.8259 -0.6859 -0.5970
  538TMC3    O2 8048   1.305   4.031  10.817  0.0691 -0.2019  0.4432
  539MPD2     C 8049   4.646   3.532  12.018  1.1765  0.3913  0.6975
  539MPD2    C1 8050   4.696   3.577  11.903  0.7160 -1.5243 -0.6685
  539MPD2    C2 8051   4.711   3.715  11.885  0.4444 -0.7728 -0.1297
  539MPD2    C3 8052   4.664   3.813  11.977  0.5443  0.1467 -0.4397
  539MPD2    C4 8053   4.596   3.762  12.086 -1.0804  0.4716 -0.0971
  539MPD2    C5 8054   4.601   3.626  12.107  0.0847 -0.4298  0.7864
  539MPD2     H 8055   0.033   3.740  11.796  1.3417 -1.5433  0.2261
  539MPD2    H1 8056   4.555   3.825  12.164  1.9239  1.1101  0.9809
  539MPD2    H2 8057   4.638   3.428  12.047 -1.2758  0.2697 -0.4356
  539MPD2    H3 8058   4.554   3.591  12.198 -0.4080  1.4349  1.2547
  539MPD2     N 8059   4.691   3.951  11.977  0.7486 -0.2949  0.0465
  539MPD2    H5 8060   4.671   4.002  12.062  1.1490 -0.6885  0.3795
  539MPD2    N1 8061   4.732   3.489  11.797  0.3688  0.2624 -0.1952
  539MPD2    H7 8062   0.043   3.544  11.725  1.3802  1.3547  1.2726
  540TMC3    C1 8063   0.002   4.155  11.871  0.7677 -0.3482  0.1998
  540TMC3    C2 8064   4.680   4.211  11.760 -0.4980  0.0026 -0.8694
  540TMC3    C3 8065   4.664   4.344  11.763 -0.0552 -0.5573 -0.2944
  540TMC3    C4 8066   0.042   4.227  11.988 -0.6350 -0.1267  0.1715
  540TMC3    C5 8067   0.032   4.359  11.979 -0.4128  0.5393 -0.2325
  540TMC3    C6 8068   4.711   4.421  11.871  0.8634  0.4992  0.4284
  540TMC3     C 8069   0.019   4.010  11.869 -0.1342  0.6124 -0.2731
  540TMC3     O 8070   0.043   3.963  11.759 -0.3607  0.5622 -1.1662
  540TMC3     H 8071   4.671   4.148  11.672 -0.5991  1.8893 -2.2121
  540TMC3    H1 8072   0.102   4.189  12.070 -0.6822  0.6835  0.5862
  540TMC3    H2 8073   4.692   4.527  11.874 -2.3584 -0.1403  2.1420
  540TMC3    C7 8074   0.018   4.423  12.109  0.4879  0.8698  0.2198
  540TMC3    C8 8075   4.563   4.411  11.678  0.2595 -0.0228  0.4377
  540TMC3    O1 8076   4.718   4.365  12.210 -0.0029  0.4198  0.4901
  540TMC3    O2 8077   4.538   4.524  11.708 -0.2771  0.7535  0.1165
  541MPD2     C 8078   3.378   0.885  13.283  0.0151 -0.6602  0.1763
  541MPD2    C1 8079   3.331   0.820  13.162 -0.2042  0.8801  0.1812
  541MPD2    C2 8080   3.291   0.901  13.060 -0.1926  0.0082 -0.3616
  541MPD2    C3 8081   3.319   1.041  13.059  0.3234  0.7749 -0.5815
  541MPD2    C4 8082   3.360   1.099  13.178 -0.3521 -0.0194 -0.2553
  541MPD2    C5 8083   3.398   1.022  13.282 -0.9904  0.3000 -0.0888
  541MPD2     H 8084   3.248   0.852  12.973 -1.2135  0.3385 -0.0410
  541MPD2    H1 8085   3.387   1.204  13.183  2.7632 -0.8149  0.1018
  541MPD2    H2 8086   3.411   0.832  13.371  1.2991 -1.1748 -0.6079
  541MPD2    H3 8087   3.434   1.062  13.376  0.2809 -0.6056 -0.1811
  541MPD2     N 8088   3.301   1.126  12.946 -0.0461 -0.0925 -0.0624
  541MPD2    H5 8089   3.331   1.223  12.951 -0.6812  0.0095  1.8659
  541MPD2    N1 8090   3.315   0.683  13.151  0.5130  0.8995  0.4377
  541MPD2    H7 8091   3.264   0.649  13.070  0.0398 -0.1716  1.1949
  542TMC3    C1 8092   3.250   1.193  12.727 -0.2573  0.6074 -0.7497
  542TMC3    C2 8093   3.219   1.161  12.599 -0.2014 -0.1806 -0.3237
  542TMC3    C3 8094   3.164   1.258  12.519  0.0462 -0.6355  0.0628
  542TMC3    C4 8095   3.221   1.315  12.773  0.6000 -0.3977 -0.0276
  542TMC3    C5 8096   3.165   1.409  12.690 -0.1748 -0.1589 -0.0833
  542TMC3    C6 8097   3.126   1.385  12.562  0.1146 -0.1424  0.1056
  542TMC3     C 8098   3.271   1.083  12.819  0.1640  0.0136  0.7681
  542TMC3     O 8099   3.250   0.974  12.770  0.3316 -0.0817 -0.4994
  542TMC3     H 8100   3.245   1.066  12.554  0.0972 -0.6258  0.7793
  542TMC3    H1 8101   3.245   1.339  12.876  1.6858 -2.1128  0.1262
  542TMC3    H2 8102   3.082   1.458  12.495 -0.2115 -0.4880 -0.0574
  542TMC3    C7 8103   3.146   1.537  12.738  0.1563  0.3077 -0.5802
  542TMC3    C8 8104   3.149   1.218  12.376 -0.3912  0.2263 -1.1633
  542TMC3    O1 8105   3.049   1.592  12.688 -0.3208  0.2749  0.2912
  542TMC3    O2 8106   3.239   1.151  12.328 -0.5696  0.2451  0.1840
  543TMC3    C1 8107   2.501   2.689  17.475  0.3266 -0.0295 -0.2340
  543TMC3    C2 8108   2.542   2.611  17.578  0.5048 -0.4712 -0.0684
  543TMC3    C3 8109   2.462   2.600  17.687  0.1219 -0.0491  0.0630
  543TMC3    C4 8110   2.393   2.773  17.494 -0.4615 -0.0795  0.6467
  543TMC3    C5 8111   2.323   2.763  17.614  0.7706  0.4655 -0.0521
  543TMC3    C6 8112   2.352   2.672  17.715 -0.2743  0.0225  0.5029
  543TMC3     C 8113   2.543   2.645  17.347 -0.2932 -0.6203 -0.1390
  543TMC3     O 8114   2.651   2.593  17.353  0.7104 -0.4459 -0.3999
  543TMC3     H 8115   2.633   2.553  17.565  1.4869  1.1769 -0.5879
  543TMC3    H1 8116   2.348   2.818  17.406  1.8631  0.5592 -0.2092
  543TMC3    H2 8117   2.302   2.667   0.077  0.8820 -0.8159  1.0450
  543TMC3    C7 8118   2.214   2.859  17.641  0.0304 -0.7003 -0.1788
  543TMC3    C8 8119   2.490   2.477   0.017  0.1872  0.3826 -0.6235
  543TMC3    O1 8120   2.149   2.847   0.009 -0.1157 -0.1318 -0.0024
  543TMC3    O2 8121   2.570   2.396  17.701 -0.9182  0.6933 -0.0816
  544MPD2     C 8122   2.530   2.178   0.437  0.3373 -0.1495  0.1956
  544MPD2    C1 8123   2.591   2.167   0.311 -0.4318 -0.2098 -0.2885
  544MPD2    C2 8124   2.565   2.260   0.215 -0.4436  0.2963 -0.4323
  544MPD2    C3 8125   2.483   2.366   0.245  0.5039  0.3413  0.4787
  544MPD2    C4 8126   2.426   2.379   0.368 -0.2357  1.4770  0.5495
  544MPD2    C5 8127   2.451   2.287   0.465  0.4122  0.0942  0.4013
  544MPD2     H 8128   2.610   2.256   0.116  1.5602 -1.1928  0.5371
  544MPD2    H1 8129   2.369   2.463   0.405  0.6634  1.9962  0.7732
  544MPD2    H2 8130   2.548   2.111   0.520 -1.8420 -1.0315 -0.0175
  544MPD2    H3 8131   2.410   2.302   0.564  0.3192  1.4099  0.1640
  544MPD2     N 8132   2.452   2.470   0.151 -0.2101 -0.3897  0.3154
  544MPD2    H5 8133   2.379   2.533   0.182  0.1458  0.4520 -0.5481
  544MPD2    N1 8134   2.680   2.053   0.290 -0.2323  0.3178 -0.1350
  544MPD2    H7 8135   2.693   1.991   0.370 -1.0190 -2.0316 -1.8308
  545TMC3    C1 8136   2.817   1.894   0.181 -0.7883  0.5334 -0.2339
  545TMC3    C2 8137   2.855   1.854   0.307  0.1227 -0.0269 -0.4584
  545TMC3    C3 8138   2.865   1.728   0.348  0.2578 -0.0101 -0.1883
  545TMC3    C4 8139   2.780   1.803   0.093 -0.9174  0.5154  0.2077
  545TMC3    C5 8140   2.792   1.673   0.127  0.2350  0.2980 -0.0785
  545TMC3    C6 8141   2.826   1.631   0.255 -0.2369  0.2316  0.5186
  545TMC3     C 8142   2.745   2.020   0.171  0.4317  0.0317 -0.5513
  545TMC3     O 8143   2.738   2.076   0.060  0.6752 -0.1852  0.1151
  545TMC3     H 8144   2.912   1.925   0.365  0.7036 -0.1851 -0.8434
  545TMC3    H1 8145   2.750   1.834  17.728 -1.6927  0.0014  0.2789
  545TMC3    H2 8146   2.865   1.531   0.268  0.4527  0.2404 -1.4887
  545TMC3    C7 8147   2.752   1.568   0.039 -1.1850  0.0292 -0.1999
  545TMC3    C8 8148   2.956   1.692   0.458  0.7875  0.0107  0.7632
  545TMC3    O1 8149   2.746   1.595  17.653 -0.4261  0.2457 -0.6050
  545TMC3    O2 8150   3.038   1.778   0.488  0.4179 -0.5798 -0.0946
  546MPD2     C 8151   4.100   2.054  17.653  0.0712  0.3075 -1.0253
  546MPD2    C1 8152   4.070   2.090  17.523 -0.4724  0.3186  0.4203
  546MPD2    C2 8153   4.107   2.216  17.483  0.0467  0.4112 -0.3382
  546MPD2    C3 8154   4.170   2.311  17.561  0.2456 -1.1266 -0.0548
  546MPD2    C4 8155   4.197   2.269  17.691 -0.7331  0.2624  0.0297
  546MPD2    C5 8156   4.176   2.138  17.731 -0.2841 -0.7577 -0.2075
  546MPD2     H 8157   4.091   2.250  17.382 -1.7903  0.7091  0.0591
  546MPD2    H1 8158   4.249   2.339   0.021 -1.3452  1.6606 -0.9953
  546MPD2    H2 8159   4.080   1.957  17.697 -0.7996  1.4903  1.1799
  546MPD2    H3 8160   4.201   2.106   0.096 -3.3495 -0.8023  0.5455
  546MPD2     N 8161   4.209   2.440  17.524 -0.1367 -0.3835  0.1889
  546MPD2    H5 8162   4.237   2.499  17.602 -1.5870  0.6861 -0.1023
  546MPD2    N1 8163   3.994   1.996  17.448 -0.2664  0.8888 -0.4371
  546MPD2    H7 8164   3.980   1.904  17.490  1.1342  0.3346 -1.1819
  547TMC3    C1 8165   3.843   1.911  17.280  0.3051  0.0060  0.3709
  547TMC3    C2 8166   3.746   1.941  17.193 -0.5617  0.1495 -0.7206
  547TMC3    C3 8167   3.635   1.867  17.196  0.1958  0.6178 -0.5996
  547TMC3    C4 8168   3.842   1.793  17.343 -0.1603  0.4253  0.3171
  547TMC3    C5 8169   3.731   1.711  17.337  0.2711 -0.5467  0.3876
  547TMC3    C6 8170   3.623   1.746  17.259  0.0273  0.7600 -0.2942
  547TMC3     C 8171   3.933   2.019  17.325  0.2993  0.3810  0.5562
  547TMC3     O 8172   3.947   2.116  17.248  0.4389  0.0841 -0.0437
  547TMC3     H 8173   3.757   2.035  17.139 -0.0489 -0.8170 -2.2788
  547TMC3    H1 8174   3.923   1.762  17.408  0.3024 -1.8087 -1.3128
  547TMC3    H2 8175   3.544   1.679  17.227  1.4106 -1.4754  0.9086
  547TMC3    C7 8176   3.724   1.601  17.434 -0.4398  0.0658 -0.5234
  547TMC3    C8 8177   3.511   1.926  17.141 -0.4499  0.4351  0.5553
  547TMC3    O1 8178   3.759   1.611  17.549  0.5939  0.1184 -0.3471
  547TMC3    O2 8179   3.519   1.991  17.035 -0.3034  0.2393  0.2108
  548MPD2     C 8180   3.849   2.786  12.957  0.2215  0.2907 -0.3364
  548MPD2    C1 8181   3.787   2.678  12.889  0.3518  0.3292  0.0466
  548MPD2    C2 8182   3.847   2.635  12.778  0.0734  0.1346 -0.8588
  548MPD2    C3 8183   3.974   2.673  12.738  0.5213 -0.6288 -0.2774
  548MPD2    C4 8184   4.039   2.769  12.814  0.2826  0.2824 -0.0936
  548MPD2    C5 8185   3.979   2.817  12.928  0.0754  0.3396 -0.5102
  548MPD2     H 8186   3.783   2.583  12.708 -1.7189  0.5236  0.4909
  548MPD2    H1 8187   4.142   2.801  12.804  1.2652 -3.1291 -0.9156
  548MPD2    H2 8188   3.809   2.827  13.049  2.4848 -0.6526  1.0728
  548MPD2    H3 8189   4.037   2.883  12.991 -0.9487 -0.8518  1.6928
  548MPD2     N 8190   4.036   2.614  12.622 -0.0089 -0.0060 -0.0583
  548MPD2    H5 8191   3.979   2.541  12.580 -2.8847  3.4527 -2.1795
  548MPD2    N1 8192   3.647   2.653  12.912 -0.2893 -0.4296  0.0166
  548MPD2    H7 8193   3.592   2.720  12.964  0.0442 -0.7723  0.8123
  549TMC3    C1 8194   3.435   2.568  12.853  0.7319  0.0498 -0.0190
  549TMC3    C2 8195   3.396   2.697  12.827  0.2801  0.9241 -0.0061
  549TMC3    C3 8196   3.268   2.714  12.773 -0.1652 -0.6193 -0.6196
  549TMC3    C4 8197   3.348   2.465  12.820 -0.2115  0.4933  0.0968
  549TMC3    C5 8198   3.238   2.487  12.743  0.1037  0.5220  0.5511
  549TMC3    C6 8199   3.193   2.614  12.713  0.4357 -0.1751  0.3029
  549TMC3     C 8200   3.577   2.550  12.850  0.2276 -0.3795 -0.2520
  549TMC3     O 8201   3.620   2.449  12.799 -0.4343 -0.1067 -0.2938
  549TMC3     H 8202   3.452   2.785  12.855  0.4491 -0.3894  3.7463
  549TMC3    H1 8203   3.369   2.366  12.860 -0.9362  0.4515  0.3729
  549TMC3    H2 8204   3.099   2.638  12.665  0.8115  0.1936 -0.2448
  549TMC3    C7 8205   3.149   2.375  12.710  0.6157 -0.4964 -0.9575
  549TMC3    C8 8206   3.225   2.846  12.734  0.2176 -0.3364 -0.3229
  549TMC3    O1 8207   3.039   2.398  12.670  0.1048 -0.5019  0.7865
  549TMC3    O2 8208   3.115   2.887  12.764 -0.2450 -0.2355  0.1650
  550TMC3    C1 8209   2.413   0.550  12.901 -0.0023  0.3039 -0.2510
  550TMC3    C2 8210   2.298   0.575  12.958 -0.2893 -0.1171  0.2354
  550TMC3    C3 8211   2.300   0.652  13.073 -0.0669 -0.1036  0.0632
  550TMC3    C4 8212   2.534   0.593  12.947  0.1343  0.1127 -0.4637
  550TMC3    C5 8213   2.533   0.687  13.039 -0.7610  0.2041 -0.5116
  550TMC3    C6 8214   2.422   0.707  13.122  0.6915  0.1518  0.3042
  550TMC3     C 8215   2.420   0.505  12.764 -0.0447 -0.3809  0.5900
  550TMC3     O 8216   2.531   0.510  12.717 -0.0377  0.6222 -0.2066
  550TMC3     H 8217   2.201   0.545  12.920 -0.8628  0.7928  0.9719
  550TMC3    H1 8218   2.632   0.571  12.905  0.2776  0.5257 -0.3536
  550TMC3    H2 8219   2.428   0.774  13.207  0.9593  0.0485  0.3653
  550TMC3    C7 8220   2.577   0.805  12.966 -0.2556  0.2447 -0.0428
  550TMC3    C8 8221   2.184   0.737  13.090  1.0995  0.0633  0.2262
  550TMC3    O1 8222   2.690   0.806  12.923  0.4215  0.4292 -0.7783
  550TMC3    O2 8223   2.125   0.761  12.987  0.1423  0.3108 -0.2637
  551TMC3    C1 8224   0.117   3.959  13.568  0.3889  0.0861 -0.1006
  551TMC3    C2 8225   0.219   4.000  13.485  0.8797 -0.5131  0.1519
  551TMC3    C3 8226   0.349   3.981  13.520 -0.8899  0.0468  0.2422
  551TMC3    C4 8227   0.146   3.890  13.683 -0.9197 -0.2014 -0.0087
  551TMC3    C5 8228   0.283   3.874  13.715  0.1857  0.0563  0.8261
  551TMC3    C6 8229   0.388   3.915  13.633 -0.5029  0.7263 -0.3260
  551TMC3     C 8230   0.019   3.910  13.487 -0.3736 -0.5286 -0.3860
  551TMC3     O 8231   4.733   3.790  13.494 -0.4889  0.3618 -0.2701
  551TMC3     H 8232   0.210   4.019  13.378  0.7489  0.8021  0.4064
  551TMC3    H1 8233   0.068   3.849  13.747  0.2292 -0.0086  1.5016
  551TMC3    H2 8234   0.490   3.888  13.657 -1.5347 -1.5702  1.4881
  551TMC3    C7 8235   0.314   3.914  13.847  0.0738 -0.9960 -0.3271
  551TMC3    C8 8236   0.451   4.012  13.420 -0.2937 -0.0650 -0.3413
  551TMC3    O1 8237   0.416   3.880  13.913  0.4630  0.0547 -0.3342
  551TMC3    O2 8238   0.546   3.935  13.420 -0.4644  0.4558 -0.6709
  552MPD2     C 8239   2.211   0.675  14.236 -0.0392  0.1211 -0.1106
  552MPD2    C1 8240   2.141   0.648  14.343 -0.0900  0.2722 -0.1114
  552MPD2    C2 8241   2.171   0.700  14.464 -0.0840 -0.0487  0.0126
  552MPD2    C3 8242   2.283   0.785  14.472  1.0675  0.3516  0.4123
  552MPD2    C4 8243   2.347   0.830  14.360 -0.4392 -0.6516  0.3025
  552MPD2    C5 8244   2.307   0.775  14.238  1.0675  0.7093  0.0404
  552MPD2     H 8245   2.114   0.665  14.549 -2.1675  2.0850 -0.5005
  552MPD2    H1 8246   2.436   0.890  14.373  1.4087 -3.1252 -0.9034
  552MPD2    H2 8247   2.183   0.636  14.139  4.0415 -1.0259 -0.8289
  552MPD2    H3 8248   2.370   0.787  14.150  1.4160 -1.8575 -0.0528
  552MPD2     N 8249   2.332   0.836  14.602  0.1555 -0.0650 -0.2168
  552MPD2    H5 8250   2.402   0.910  14.594  1.4946 -1.6160 -2.9215
  552MPD2    N1 8251   2.052   0.539  14.349  0.0976  0.0952 -0.5648
  552MPD2    H7 8252   2.019   0.517  14.443  0.1383 -0.2173 -0.6240
  553TMC3    C1 8253   1.988   0.318  14.290 -0.0380  0.3346  0.0494
  553TMC3    C2 8254   1.954   0.240  14.185 -0.6877  0.7322  0.0800
  553TMC3    C3 8255   2.025   0.120  14.180  0.2694  0.6136 -0.3587
  553TMC3    C4 8256   2.065   0.267  14.394 -0.3466 -0.7201  0.0378
  553TMC3    C5 8257   2.129   0.148  14.376  0.7877  0.9308 -0.1507
  553TMC3    C6 8258   2.110   0.073  14.272  0.2812  0.1618 -0.3345
  553TMC3     C 8259   2.016   0.453  14.248  0.1735  0.3598  0.0909
  553TMC3     O 8260   2.051   0.468  14.136  0.0678 -0.0195 -0.7764
  553TMC3     H 8261   1.898   0.263  14.095 -0.3406  0.6451 -0.1592
  553TMC3    H1 8262   2.088   0.330  14.479 -0.3941  2.4315 -2.2884
  553TMC3    H2 8263   2.163   4.713  14.259 -0.3918 -0.6274  2.5273
  553TMC3    C7 8264   2.238   0.126  14.454  0.0154  0.0772 -0.6751
  553TMC3    C8 8265   2.019   0.038  14.071  0.1472 -0.3578 -0.1428
  553TMC3    O1 8266   2.243   0.188  14.560 -0.2936  0.2142  0.6156
  553TMC3    O2 8267   2.125   4.713  14.047  0.4906 -0.0162 -0.0435
  554TMC3    C1 8268   4.358   0.008  11.918  0.0149 -0.0373  0.4559
  554TMC3    C2 8269   4.249   0.033  11.834 -0.1143  0.2623  0.2022
  554TMC3    C3 8270   4.283   0.089  11.706  0.4529 -0.1710  0.2265
  554TMC3    C4 8271   4.488   0.043  11.893 -0.3649 -0.2535 -0.1904
  554TMC3    C5 8272   4.509   0.110  11.773 -0.0508 -0.3953 -0.4372
  554TMC3    C6 8273   4.414   0.134  11.682  0.3840 -0.1305  0.4154
  554TMC3     C 8274   4.334   4.641  12.020 -0.5844 -0.2790 -0.9923
  554TMC3     O 8275   4.225   4.650  12.083  0.4955  0.5959  0.5364
  554TMC3     H 8276   4.148   4.734  11.855 -0.7095 -0.0815 -3.1710
  554TMC3    H1 8277   4.571   0.017  11.957 -1.3399 -0.7921  0.8567
  554TMC3    H2 8278   4.434   0.192  11.592  0.4293 -1.0127 -0.1465
  554TMC3    C7 8279   4.648   0.124  11.742 -0.4588  0.4675 -0.1332
  554TMC3    C8 8280   4.189   0.093  11.597  0.2867 -0.1077  0.6411
  554TMC3    O1 8281   4.730   0.093  11.822  0.7713 -0.0045  0.1451
  554TMC3    O2 8282   4.231   0.130  11.488 -0.0850  0.4247 -0.0562
  555TMC3    C1 8283   2.669   4.225  15.404  0.0071  0.3022  0.5062
  555TMC3    C2 8284   2.674   4.296  15.519 -1.0031 -0.0675 -0.0612
  555TMC3    C3 8285   2.792   4.303  15.589 -0.4097  0.8996  0.4978
  555TMC3    C4 8286   2.784   4.162  15.353  0.2624 -0.4491  0.8766
  555TMC3    C5 8287   2.902   4.182  15.420  0.6018  0.4476  0.1076
  555TMC3    C6 8288   2.912   4.247  15.539  0.2734 -0.5449  0.3888
  555TMC3     C 8289   2.542   4.224  15.343  0.1086 -0.4530 -0.1564
  555TMC3     O 8290   2.443   4.282  15.392 -0.1979  0.1710 -0.2379
  555TMC3     H 8291   2.591   4.355  15.555 -0.6150  0.8708 -0.6980
  555TMC3    H1 8292   2.775   4.093  15.270 -2.8566 -1.3204  1.9237
  555TMC3    H2 8293   2.999   4.291  15.587 -0.2451 -0.2392  1.0475
  555TMC3    C7 8294   3.010   4.104  15.370 -0.4793  0.0951  0.7765
  555TMC3    C8 8295   2.797   4.392  15.709 -0.0076  0.7769  0.1208
  555TMC3    O1 8296   2.998   4.063  15.256 -0.3656 -0.2431 -0.2941
  555TMC3    O2 8297   2.702   4.455  15.741  0.0267 -0.0806 -0.5864
  556MPD2     C 8298   0.612   0.572  10.695 -0.6414  0.0531 -0.0896
  556MPD2    C1 8299   0.723   0.565  10.784  0.2267 -0.7700  0.3846
  556MPD2    C2 8300   0.843   0.506  10.746  0.0040 -0.4755 -0.1406
  556MPD2    C3 8301   0.850   0.453  10.621 -0.0991 -0.2035 -0.0517
  556MPD2    C4 8302   0.739   0.460  10.540 -0.0290 -0.6554  0.6821
  556MPD2    C5 8303   0.622   0.519  10.570  0.9402 -0.2763 -0.1370
  556MPD2     H 8304   0.917   0.485  10.822  1.1099 -0.2117 -1.1538
  556MPD2    H1 8305   0.754   0.417  10.442 -2.4619  1.5334 -0.6531
  556MPD2    H2 8306   0.525   0.625  10.731 -0.6767  0.9576 -1.4692
  556MPD2    H3 8307   0.551   0.519  10.487 -0.2583 -2.4576  0.8964
  556MPD2     N 8308   0.964   0.384  10.583 -0.3011  0.1682 -0.1792
  556MPD2    H5 8309   1.031   0.381  10.659  0.2862  0.0564 -0.7033
  556MPD2    N1 8310   0.717   0.614  10.909  0.0945  0.0960  0.0626
  556MPD2    H7 8311   0.803   0.616  10.962 -0.4953 -0.8033  1.0413
  557TMC3    C1 8312   1.129   0.264  10.458 -0.3319 -0.4479 -0.2652
  557TMC3    C2 8313   1.206   0.272  10.346 -1.1856  0.0342  0.1880
  557TMC3    C3 8314   1.308   0.180  10.336 -0.0418  0.1409 -0.4673
  557TMC3    C4 8315   1.148   0.172  10.554  0.3490 -0.2553  0.0875
  557TMC3    C5 8316   1.262   0.098  10.549 -0.6686  0.2030  0.4107
  557TMC3    C6 8317   1.343   0.094  10.444  0.4915  0.2222 -0.5491
  557TMC3     C 8318   1.004   0.339  10.456 -0.0123 -0.2173 -0.4033
  557TMC3     O 8319   0.947   0.370  10.353  0.2457  0.1968 -0.1652
  557TMC3     H 8320   1.190   0.352  10.274 -2.2341 -0.2798  0.0665
  557TMC3    H1 8321   1.087   0.168  10.643 -1.5496 -0.1947 -1.2105
  557TMC3    H2 8322   1.429   0.028  10.434 -0.6941 -1.5051  0.6303
  557TMC3    C7 8323   1.277   4.724  10.656 -0.4927  0.7395  0.8411
  557TMC3    C8 8324   1.397   0.190  10.226 -0.0329 -0.0723  0.1615
  557TMC3    O1 8325   1.186   4.716  10.740 -0.2041 -0.2461 -0.5065
  557TMC3    O2 8326   1.473   0.282  10.206  0.1952  0.2635 -0.8078
  558TMC3    C1 8327   3.027   3.416  10.241 -0.3742  0.7711 -1.0291
  558TMC3    C2 8328   2.924   3.332  10.296  0.0495 -0.2010  0.3507
  558TMC3    C3 8329   2.803   3.329  10.233 -0.1874 -0.3472  0.2103
  558TMC3    C4 8330   3.007   3.495  10.133 -0.3096  0.7936  0.2263
  558TMC3    C5 8331   2.883   3.492  10.073 -0.1049 -0.3400 -0.2554
  558TMC3    C6 8332   2.780   3.411  10.124  0.1993  0.0776 -0.0421
  558TMC3     C 8333   3.161   3.400  10.281 -0.1075  0.9355  0.3904
  558TMC3     O 8334   3.245   3.449  10.207  0.0403  0.0395  0.5282
  558TMC3     H 8335   2.947   3.240  10.349 -3.3253 -0.2737  1.6944
  558TMC3    H1 8336   3.084   3.564  10.102 -0.5966  0.7903 -0.4949
  558TMC3    H2 8337   2.681   3.406  10.080  1.3662 -1.1820 -2.4996
  558TMC3    C7 8338   2.875   3.561   9.946 -0.3466 -0.4734 -0.3585
  558TMC3    C8 8339   2.686   3.262  10.295 -0.2563  0.0946  0.7556
  558TMC3    O1 8340   2.982   3.595   9.891  0.9809 -0.1762 -0.3325
  558TMC3    O2 8341   2.585   3.257  10.226 -0.8044 -0.2609  0.3487
  559MPD2     C 8342   3.246   4.160  11.193 -0.4631 -0.1530 -0.2321
  559MPD2    C1 8343   3.155   4.062  11.212  0.2652  0.1440 -0.1643
  559MPD2    C2 8344   3.203   3.948  11.271 -0.3225 -0.0339 -0.4233
  559MPD2    C3 8345   3.335   3.921  11.285 -0.1847 -0.0252 -0.3292
  559MPD2    C4 8346   3.429   4.017  11.254 -0.7227 -0.9228  0.2177
  559MPD2    C5 8347   3.382   4.142  11.217 -0.9351  0.3057  0.6728
  559MPD2     H 8348   3.138   3.862  11.279 -0.1612  0.2050  3.4946
  559MPD2    H1 8349   3.534   3.995  11.263 -0.6019 -1.0781 -1.5718
  559MPD2    H2 8350   3.227   4.257  11.148 -3.2534 -0.2416  0.7804
  559MPD2    H3 8351   3.454   4.214  11.180  0.7111 -0.0013  3.2938
  559MPD2     N 8352   3.374   3.787  11.302 -0.8494 -0.1255 -0.0873
  559MPD2    H5 8353   3.302   3.716  11.304 -2.8278  1.9620  2.8087
  559MPD2    N1 8354   3.024   4.088  11.187 -0.3226  0.6895 -0.7867
  559MPD2    H7 8355   2.996   4.172  11.137 -1.1194  0.1896 -1.1785
  560TMC3    C1 8356   3.518   3.599  11.357 -0.2666 -0.3832 -0.2242
  560TMC3    C2 8357   3.460   3.504  11.270 -0.8896  0.1992  0.6239
  560TMC3    C3 8358   3.506   3.376  11.268 -1.0173  0.4418  0.0785
  560TMC3    C4 8359   3.627   3.563  11.432  0.2275  0.1454  0.0866
  560TMC3    C5 8360   3.695   3.448  11.397 -0.3353 -0.2190 -0.7597
  560TMC3    C6 8361   3.622   3.344  11.332  0.1290  0.3618  0.1699
  560TMC3     C 8362   3.497   3.741  11.351 -0.3468 -0.1719 -0.0561
  560TMC3     O 8363   3.594   3.808  11.391  0.7941 -0.0153  0.1796
  560TMC3     H 8364   3.374   3.536  11.212  0.0869  1.8384  0.0846
  560TMC3    H1 8365   3.674   3.637  11.496  1.2617 -0.8324  0.4524
  560TMC3    H2 8366   3.673   3.251  11.314 -0.4541 -0.1331  1.0680
  560TMC3    C7 8367   3.815   3.410  11.469  0.6927  0.3883  0.2804
  560TMC3    C8 8368   3.437   3.276  11.189  0.0938 -0.4234  0.2862
  560TMC3    O1 8369   3.828   3.293  11.506 -0.0579 -0.2524  0.3917
  560TMC3    O2 8370   3.319   3.294  11.171 -0.0910  0.0091  0.0084
  561TMC3    C1 8371   1.553   3.551  11.678 -0.1681  0.5016 -0.0368
  561TMC3    C2 8372   1.559   3.601  11.804  0.1916 -0.1896  0.5285
  561TMC3    C3 8373   1.513   3.730  11.821  0.6419  0.5838  0.5662
  561TMC3    C4 8374   1.512   3.626  11.571  0.6415  0.1996 -0.0216
  561TMC3    C5 8375   1.476   3.760  11.594  0.2036 -0.4273 -0.4726
  561TMC3    C6 8376   1.474   3.811  11.716 -0.0033  0.2854  0.0547
  561TMC3     C 8377   1.524   3.410  11.679  0.1384  0.0682  0.6784
  561TMC3     O 8378   1.503   3.367  11.789 -0.4801 -0.1592 -0.0750
  561TMC3     H 8379   1.592   3.545  11.891  0.1875 -0.8052  0.1306
  561TMC3    H1 8380   1.508   3.572  11.476 -1.1325  0.4532 -0.0822
  561TMC3    H2 8381   1.432   3.911  11.728 -0.2053  0.2574 -0.4128
  561TMC3    C7 8382   1.541   3.855  11.499  0.4514 -0.4092  0.5242
  561TMC3    C8 8383   1.496   3.786  11.954 -0.2769 -0.2734  0.3850
  561TMC3    O1 8384   1.602   3.955  11.545 -0.0483 -0.2547  0.3333
  561TMC3    O2 8385   1.432   3.892  11.956 -0.3553 -0.4751  0.0027
  562TMC3    C1 8386   2.916   3.890  16.169  0.9631  0.3561  0.0050
  562TMC3    C2 8387   2.815   3.984  16.199 -0.3724 -0.7282 -0.6809
  562TMC3    C3 8388   2.791   4.088  16.114  0.1699 -0.0654  0.1729
  562TMC3    C4 8389   2.996   3.911  16.058  0.0076  0.0923 -0.0303
  562TMC3    C5 8390   2.972   4.018  15.982 -0.2756  0.3298  0.8864
  562TMC3    C6 8391   2.877   4.110  16.005  0.2333  0.2377 -0.0341
  562TMC3     C 8392   2.917   3.778  16.256 -0.7295  0.1453  0.3512
  562TMC3     O 8393   2.838   3.769  16.348 -0.4071  0.0892  0.0696
  562TMC3     H 8394   2.748   3.964  16.282 -1.2806  1.3519 -0.9246
  562TMC3    H1 8395   3.065   3.832  16.031  2.0682  1.3229  1.6536
  562TMC3    H2 8396   2.868   4.188  15.931 -0.9764  1.4755  1.4187
  562TMC3    C7 8397   3.070   4.053  15.882  0.3171  1.0885  0.0046
  562TMC3    C8 8398   2.719   4.202  16.166  0.0792  0.0641 -0.1302
  562TMC3    O1 8399   3.024   4.101  15.780  0.3954 -0.4595 -0.0758
  562TMC3    O2 8400   2.693   4.196  16.284 -0.2073  0.6016  0.2315
  563MPD2     C 8401   0.173   1.321  15.771 -0.2055  0.1774 -0.1430
  563MPD2    C1 8402   0.261   1.348  15.874  0.4875 -1.0394 -0.0923
  563MPD2    C2 8403   0.360   1.257  15.904 -0.5257  0.9607  0.5291
  563MPD2    C3 8404   0.391   1.145  15.831  0.3636  0.4764  0.0864
  563MPD2    C4 8405   0.317   1.134  15.715 -0.9026 -0.0544  0.0741
  563MPD2    C5 8406   0.204   1.215  15.695 -0.0947  0.4882 -0.5348
  563MPD2     H 8407   0.424   1.278  15.989 -0.8719 -1.5359  1.4050
  563MPD2    H1 8408   0.320   1.044  15.655  0.5992  0.6258 -0.8698
  563MPD2    H2 8409   0.084   1.382  15.761  0.0493  0.5825  0.0309
  563MPD2    H3 8410   0.137   1.188  15.614 -2.8087  0.9199  1.5689
  563MPD2     N 8411   0.500   1.064  15.858 -0.0076  0.3059 -0.5649
  563MPD2    H5 8412   0.542   1.084  15.947  1.4689 -0.9377 -0.9759
  563MPD2    N1 8413   0.224   1.458  15.960  0.0094 -0.7436  0.6319
  563MPD2    H7 8414   0.151   1.526  15.940 -0.4451 -1.4793 -0.2338
  564TMC3    C1 8415   0.217   1.470  16.188  0.0832 -0.7584  0.5789
  564TMC3    C2 8416   0.080   1.457  16.171  0.8599  0.0788  0.3261
  564TMC3    C3 8417   0.014   1.363  16.246  0.4831 -0.0214 -0.4630
  564TMC3    C4 8418   0.279   1.393  16.281 -0.4036 -0.6577 -0.0303
  564TMC3    C5 8419   0.214   1.321  16.376 -0.1399  0.9809 -0.9632
  564TMC3    C6 8420   0.078   1.308  16.353  0.4718  0.0959 -0.2776
  564TMC3     C 8421   0.296   1.502  16.071 -0.0375 -0.1674  0.5194
  564TMC3     O 8422   0.415   1.490  16.094 -0.4410 -0.0381 -0.1956
  564TMC3     H 8423   0.030   1.520  16.099  0.3361  0.0075  0.6244
  564TMC3    H1 8424   0.386   1.395  16.299 -0.2333 -0.3709 -1.0645
  564TMC3    H2 8425   0.028   1.234  16.416 -2.4749  0.1963 -2.4669
  564TMC3    C7 8426   0.266   1.186  16.384  0.0628  0.2436  0.2943
  564TMC3    C8 8427   4.680   1.269  16.170 -0.4071 -0.0422 -1.1074
  564TMC3    O1 8428   0.264   1.144  16.500 -0.3996 -0.2771 -0.3218
  564TMC3    O2 8429   4.640   1.172  16.235  0.3950  0.2171 -0.1930
  565TMC3    C1 8430   0.516   2.376   9.921  0.0184  0.2641  0.1278
  565TMC3    C2 8431   0.542   2.296  10.030  0.6607 -0.5979  0.8687
  565TMC3    C3 8432   0.448   2.301  10.134  0.4592  0.5127  0.1100
  565TMC3    C4 8433   0.400   2.447   9.912  0.0109  0.0862  0.3454
  565TMC3    C5 8434   0.313   2.444  10.009 -0.0920  0.8062 -0.1366
  565TMC3    C6 8435   0.334   2.383  10.134 -0.0474 -0.4724  0.3008
  565TMC3     C 8436   0.613   2.382   9.808  0.0771  0.1532  0.1271
  565TMC3     O 8437   0.585   2.482   9.740  0.5872  0.0750 -0.5824
  565TMC3     H 8438   0.642   2.258  10.050  0.1721 -2.5648 -0.3751
  565TMC3    H1 8439   0.390   2.505   9.821 -1.8138  2.0041  1.8023
  565TMC3    H2 8440   0.250   2.371  10.201  0.5731 -2.7683  0.6625
  565TMC3    C7 8441   0.210   2.551  10.010  0.9871  0.1082 -0.2249
  565TMC3    C8 8442   0.466   2.205  10.237  0.5636 -0.0730  0.2211
  565TMC3    O1 8443   0.205   2.618   9.908  0.4264 -0.1523  0.6869
  565TMC3    O2 8444   0.461   2.255  10.348  0.2700  0.0244 -0.4222
  566MPD2     C 8445   2.281   3.574  14.164 -0.7448 -0.2718  0.0791
  566MPD2    C1 8446   2.330   3.672  14.082  0.5375 -0.1839  0.1983
  566MPD2    C2 8447   2.252   3.721  13.978 -0.1504 -0.2383 -0.3474
  566MPD2    C3 8448   2.115   3.692  13.973  0.1093 -0.3382  0.1662
  566MPD2    C4 8449   2.069   3.603  14.062  0.6971 -0.5162 -0.2955
  566MPD2    C5 8450   2.144   3.547  14.155 -1.2445  0.1674 -0.0981
  566MPD2     H 8451   2.292   3.787  13.903 -1.4783  0.1776 -0.6857
  566MPD2    H1 8452   1.963   3.579  14.052  0.2785  1.2104 -0.0357
  566MPD2    H2 8453   2.333   3.519  14.241 -1.3458 -0.4876  0.3352
  566MPD2    H3 8454   2.094   3.476  14.221 -0.6845 -0.0308  0.1118
  566MPD2     N 8455   2.025   3.747  13.878  0.3807  0.0109  0.4630
  566MPD2    H5 8456   1.926   3.740  13.898  0.3068 -0.1434  0.0566
  566MPD2    N1 8457   2.463   3.717  14.099  0.4008 -0.4310  0.5974
  566MPD2    H7 8458   2.498   3.715  14.195  0.6562 -0.6553  0.5012
  567TMC3    C1 8459   2.658   3.840  14.057  0.3443 -0.0178 -0.5799
  567TMC3    C2 8460   2.741   3.913  13.971 -0.3500  0.0910  0.0418
  567TMC3    C3 8461   2.856   3.974  14.012  0.0437 -0.0534 -0.2347
  567TMC3    C4 8462   2.706   3.811  14.182 -0.8171  1.2506  0.0666
  567TMC3    C5 8463   2.823   3.873  14.219  0.0254  0.0823  0.3035
  567TMC3    C6 8464   2.901   3.952  14.137  0.4432  0.0259 -0.2794
  567TMC3     C 8465   2.528   3.783  14.004 -0.5289 -0.1888  0.0937
  567TMC3     O 8466   2.519   3.785  13.882 -0.2167 -0.8584  0.4227
  567TMC3     H 8467   2.695   3.950  13.880 -0.9650 -3.1046 -0.9194
  567TMC3    H1 8468   2.659   3.747  14.256  0.3330  0.1581 -0.1350
  567TMC3    H2 8469   2.993   3.992  14.177  0.0881  1.5380 -0.9977
  567TMC3    C7 8470   2.853   3.864  14.357  0.0920  0.3071 -0.1314
  567TMC3    C8 8471   2.919   4.066  13.916  0.6968 -0.1919 -0.0780
  567TMC3    O1 8472   2.840   3.755  14.404  0.5941 -0.4624 -0.2243
  567TMC3    O2 8473   2.883   4.060  13.797  0.0951 -0.3480 -0.1925
  568MPD2     C 8474   0.083   4.520  16.004  0.9801 -0.1333 -0.6977
  568MPD2    C1 8475   0.069   4.556  16.134 -0.0699  0.1321  0.0307
  568MPD2    C2 8476   0.011   4.679  16.152  0.1917  0.4714 -0.3885
  568MPD2    C3 8477   4.704   0.032  16.054 -0.4463 -0.1777  0.0187
  568MPD2    C4 8478   4.722   4.728  15.921 -0.6980 -0.3767 -0.0068
  568MPD2    C5 8479   0.042   4.600  15.898 -0.6793 -0.5912  0.4935
  568MPD2     H 8480   4.715   4.712  16.251  0.0189 -0.2066 -0.2147
  568MPD2    H1 8481   4.700   0.054  15.833 -1.6429  2.3630  2.0906
  568MPD2    H2 8482   0.131   4.427  15.974  0.8930  0.3363 -2.3020
  568MPD2    H3 8483   0.055   4.571  15.795 -0.9884  2.6100 -0.4377
  568MPD2     N 8484   4.669   0.165  16.087 -0.5914  0.4834 -0.1319
  568MPD2    H5 8485   4.693   0.201  16.179  1.8607  2.5802 -1.5930
  568MPD2    N1 8486   0.125   4.481  16.241  0.5383  0.7265 -0.3157
  568MPD2    H7 8487   0.170   4.393  16.219  0.2976  0.7289 -0.8155
  569TMC3    C1 8488   4.649   0.397  16.036 -0.3428 -0.8445  0.3938
  569TMC3    C2 8489   4.725   0.436  16.146 -0.0344 -1.1617 -0.3764
  569TMC3    C3 8490   0.003   0.565  16.172 -0.3129  1.1285 -0.2616
  569TMC3    C4 8491   4.604   0.489  15.946  0.2262 -0.0485 -0.0927
  569TMC3    C5 8492   4.628   0.619  15.976 -0.4974  0.2855 -0.1695
  569TMC3    C6 8493   4.691   0.660  16.089  0.1164 -0.3377 -0.1933
  569TMC3     C 8494   4.622   0.258  15.999  0.2455  0.5685  0.4775
  569TMC3     O 8495   4.573   0.235  15.886 -0.3923  0.3716 -0.8251
  569TMC3     H 8496   0.048   0.359  16.198  1.0300  0.3856  0.7352
  569TMC3    H1 8497   4.542   0.468  15.859 -0.3248 -2.3823  0.8489
  569TMC3    H2 8498   0.009   0.755  16.101 -0.2770  0.0453 -1.5389
  569TMC3    C7 8499   4.589   0.724  15.888 -0.1237 -0.7503  0.0850
  569TMC3    C8 8500   0.046   0.610  16.302 -0.3622 -0.1457  0.7453
  569TMC3    O1 8501   4.535   0.696  15.784  0.1833 -0.3042 -0.0671
  569TMC3    O2 8502   0.132   0.549  16.360  0.2448 -0.1760  0.2142
  570TMC3    C1 8503   4.247   3.020  16.283 -0.1659 -0.8780  0.0455
  570TMC3    C2 8504   4.342   3.023  16.184  0.1300  0.0908 -0.3093
  570TMC3    C3 8505   4.461   3.089  16.201  0.4571  0.6577 -1.0193
  570TMC3    C4 8506   4.273   3.082  16.401 -0.2925  0.3837 -0.0815
  570TMC3    C5 8507   4.389   3.153  16.419  0.5495 -0.3544 -0.5876
  570TMC3    C6 8508   4.483   3.158  16.321  0.2499 -0.5577  0.1155
  570TMC3     C 8509   4.153   2.911  16.276  0.3372 -0.1411 -0.5584
  570TMC3     O 8510   4.114   2.871  16.171 -0.1882 -0.4139  0.2280
  570TMC3     H 8511   4.311   2.979  16.090 -0.4184 -0.0244 -0.0755
  570TMC3    H1 8512   4.193   3.107  16.470  1.4733  0.0666  2.0740
  570TMC3    H2 8513   4.585   3.177  16.351  0.0956  0.9207 -0.3043
  570TMC3    C7 8514   4.392   3.248  16.528  0.0117 -0.6376 -0.4975
  570TMC3    C8 8515   4.500   3.178  16.092  0.3659  0.3907 -0.4056
  570TMC3    O1 8516   4.331   3.224  16.630  0.2019  0.5910  0.2698
  570TMC3    O2 8517   4.546   3.285  16.131  0.2148 -0.2163  0.0142
  571MPD2     C 8518   2.159   0.452   0.519  0.0521  0.3033 -0.6893
  571MPD2    C1 8519   2.213   0.546   0.435  0.4549  0.4886  0.0206
  571MPD2    C2 8520   2.272   0.658   0.485  0.5810 -0.2576  0.1582
  571MPD2    C3 8521   2.268   0.681   0.622 -0.2455  0.4186  0.0484
  571MPD2    C4 8522   2.207   0.594   0.709 -0.1959 -0.1899 -0.2453
  571MPD2    C5 8523   2.150   0.478   0.658 -0.3867  0.2300 -0.4447
  571MPD2     H 8524   2.323   0.729   0.420  0.2252 -1.3895 -1.3559
  571MPD2    H1 8525   2.204   0.600   0.817 -1.1449  1.0438 -0.3478
  571MPD2    H2 8526   2.121   0.357   0.484  2.6022 -0.6020 -0.9754
  571MPD2    H3 8527   2.116   0.397   0.721 -0.7334  0.6048 -0.1498
  571MPD2     N 8528   2.341   0.795   0.674  0.0343  0.3007  0.2004
  571MPD2    H5 8529   2.359   0.790   0.774  2.5262 -1.0813 -0.3199
  571MPD2    N1 8530   2.201   0.515   0.298  0.6165 -0.2169 -0.1053
  571MPD2    H7 8531   2.143   0.438   0.266 -0.0341  0.8167 -1.4357
  572TMC3    C1 8532   2.407   1.012   0.699  0.0053 -0.0125 -0.3400
  572TMC3    C2 8533   2.508   0.988   0.787  0.0037 -0.0058 -0.7557
  572TMC3    C3 8534   2.576   1.098   0.842  0.5009 -0.4768  1.4525
  572TMC3    C4 8535   2.371   1.136   0.664 -0.0094  0.0023 -0.2991
  572TMC3    C5 8536   2.446   1.242   0.706  0.8279  0.4936 -0.5226
  572TMC3    C6 8537   2.548   1.228   0.799 -0.0365  0.4881 -0.3997
  572TMC3     C 8538   2.363   0.914   0.606  0.3796  0.4251  0.0236
  572TMC3     O 8539   2.310   0.955   0.501  0.2109  0.2179  0.7916
  572TMC3     H 8540   2.544   0.886   0.791 -0.5641 -0.1756 -0.0164
  572TMC3    H1 8541   2.281   1.159   0.607  0.5418  2.2767 -0.2475
  572TMC3    H2 8542   2.613   1.312   0.816 -0.3790  1.1391 -2.2696
  572TMC3    C7 8543   2.475   1.329   0.595  0.1887  0.8519 -0.2405
  572TMC3    C8 8544   2.647   1.077   0.966 -0.2958 -0.1874  0.0711
  572TMC3    O1 8545   2.474   1.281   0.486  0.4410  0.4730 -0.0534
  572TMC3    O2 8546   2.733   1.159   0.995  0.3278  0.2986  0.6263
  573MPD2     C 8547   2.690   0.400   0.997  0.4444  0.2297  0.3084
  573MPD2    C1 8548   2.760   0.514   0.960 -0.6381 -0.6783 -0.4571
  573MPD2    C2 8549   2.718   0.572   0.838  0.1981  0.0486 -0.3092
  573MPD2    C3 8550   2.613   0.521   0.762  0.1218  0.2326 -0.0692
  573MPD2    C4 8551   2.550   0.408   0.803  0.5709  0.1310 -0.0018
  573MPD2    C5 8552   2.594   0.350   0.922 -0.1535 -0.8331 -0.7312
  573MPD2     H 8553   2.769   0.659   0.799 -0.2796  1.4342  2.1429
  573MPD2    H1 8554   2.480   0.351   0.744  0.1062  0.8209 -0.1188
  573MPD2    H2 8555   2.721   0.342   1.083  0.7449 -0.5035 -0.2981
  573MPD2    H3 8556   2.546   0.259   0.955  1.5057 -1.8108 -0.9623
  573MPD2     N 8557   2.590   0.560   0.625  0.3201  0.0700  0.3849
  573MPD2    H5 8558   2.534   0.500   0.565  0.0667  0.1211  0.5714
  573MPD2    N1 8559   2.874   0.557   1.037 -0.0726  0.3144  0.2073
  573MPD2    H7 8560   2.905   0.511   1.122  0.0160 -0.4943 -0.2634
  574TMC3    C1 8561   2.642   0.658   0.419  0.1695  0.0141 -0.0723
  574TMC3    C2 8562   2.650   0.766   0.340 -0.3514  0.3408 -0.1368
  574TMC3    C3 8563   2.683   0.751   0.201 -0.2186 -0.3209 -0.2779
  574TMC3    C4 8564   2.646   0.531   0.367  0.2479  0.0621  0.1833
  574TMC3    C5 8565   2.654   0.521   0.228 -0.6553 -0.4515  0.0908
  574TMC3    C6 8566   2.680   0.627   0.145  0.0720 -0.0146  0.2818
  574TMC3     C 8567   2.646   0.670   0.561  0.3094 -0.0103 -0.3291
  574TMC3     O 8568   2.679   0.776   0.613 -0.3728 -0.0818  0.2129
  574TMC3     H 8569   2.633   0.863   0.386  0.6338  0.4057  0.0853
  574TMC3    H1 8570   2.626   0.439   0.420  2.5133 -0.7162 -0.2915
  574TMC3    H2 8571   2.686   0.618   0.038 -0.9618  0.3582  0.1937
  574TMC3    C7 8572   2.624   0.387   0.170  0.0036  0.4805 -0.1945
  574TMC3    C8 8573   2.623   0.849   0.118  0.9246  0.1435  0.0150
  574TMC3    O1 8574   2.555   0.309   0.237  0.1627  0.6937 -0.1885
  574TMC3    O2 8575   2.559   0.814   0.018 -0.3704 -0.5122 -0.5296
  575TMC3    C1 8576   0.787   1.921  11.010 -0.1790  0.1158 -0.3378
  575TMC3    C2 8577   0.797   1.790  11.031  0.7343 -0.1236 -0.4292
  575TMC3    C3 8578   0.774   1.701  10.926 -0.3095 -0.6516  0.5427
  575TMC3    C4 8579   0.742   1.970  10.888  0.0771  0.3463 -0.3105
  575TMC3    C5 8580   0.713   1.877  10.793  0.1937  0.1419  0.0630
  575TMC3    C6 8581   0.719   1.739  10.805 -0.0577 -0.0516 -0.1617
  575TMC3     C 8582   0.807   2.012  11.121 -0.1300  0.7193  0.4097
  575TMC3     O 8583   0.860   2.121  11.092 -0.1819 -0.1993 -0.0127
  575TMC3     H 8584   0.838   1.756  11.126 -2.4196 -1.1661  0.5633
  575TMC3    H1 8585   0.728   2.075  10.865 -0.7577  0.0211 -1.3349
  575TMC3    H2 8586   0.695   1.669  10.726 -2.4201 -0.9884  1.3651
  575TMC3    C7 8587   0.646   1.925  10.673 -0.1485  0.8665 -0.7757
  575TMC3    C8 8588   0.803   1.568  10.959  0.0634  0.0496  0.1500
  575TMC3    O1 8589   0.635   2.050  10.668 -0.2206 -0.3878  0.2366
  575TMC3    O2 8590   0.877   1.556  11.057 -0.1300 -0.4350  0.5106
  576MPD2     C 8591   0.300   3.749  12.674  0.1781 -0.0990  0.3698
  576MPD2    C1 8592   0.378   3.857  12.663 -0.4020 -0.5093  0.4597
  576MPD2    C2 8593   0.366   3.964  12.747 -0.3927 -0.3055 -0.3259
  576MPD2    C3 8594   0.277   3.966  12.854 -1.4458  0.3746  0.5755
  576MPD2    C4 8595   0.192   3.854  12.872 -0.1024  0.1030  0.9894
  576MPD2    C5 8596   0.211   3.750  12.781 -0.0603 -0.4946 -0.0333
  576MPD2     H 8597   0.437   4.044  12.731 -0.3572 -0.6466 -1.8926
  576MPD2    H1 8598   0.119   3.837  12.950  0.9201 -1.2983  1.6372
  576MPD2    H2 8599   0.317   3.664  12.609 -1.3409  0.0418 -0.2050
  576MPD2    H3 8600   0.153   3.664  12.811 -0.9732  0.4664  0.9349
  576MPD2     N 8601   0.258   4.088  12.929 -0.0949  0.1695  0.0358
  576MPD2    H5 8602   0.290   4.173  12.884  0.7567 -0.2214 -0.0975
  576MPD2    N1 8603   0.476   3.841  12.565  0.2465  0.4509  0.6397
  576MPD2    H7 8604   0.483   3.751  12.517  0.0416 -0.6868  2.7581
  577TMC3    C1 8605   0.681   3.857  12.454  0.4575 -0.3136  0.0000
  577TMC3    C2 8606   0.815   3.853  12.474 -0.1852 -0.3487  0.2902
  577TMC3    C3 8607   0.897   3.808  12.371 -0.4103  0.5777  0.5478
  577TMC3    C4 8608   0.631   3.812  12.333 -0.0691  0.6090  0.5873
  577TMC3    C5 8609   0.722   3.760  12.241  1.0511  0.3265  0.3665
  577TMC3    C6 8610   0.854   3.743  12.262 -0.2872  0.0179 -0.0999
  577TMC3     C 8611   0.598   3.906  12.558 -0.2460 -0.1713  0.6360
  577TMC3     O 8612   0.640   4.006  12.618  0.5981 -0.0927 -0.1581
  577TMC3     H 8613   0.853   3.891  12.568  2.8004  0.2515 -1.1354
  577TMC3    H1 8614   0.523   3.811  12.319 -0.2031 -1.4169  1.7899
  577TMC3    H2 8615   0.918   3.685  12.196 -0.8903 -1.2586  0.4409
  577TMC3    C7 8616   0.666   3.745  12.106  0.1947 -0.6459  0.3065
  577TMC3    C8 8617   1.033   3.785  12.411  0.6342  0.3301 -0.6890
  577TMC3    O1 8618   0.546   3.717  12.094  0.1901 -0.3531 -0.5921
  577TMC3    O2 8619   1.047   3.736  12.519  0.0431  0.0202 -0.0040
  578MPD2     C 8620   3.165   3.320   1.553  0.6811  0.2570  0.2872
  578MPD2    C1 8621   3.220   3.263   1.439  0.1462  0.3220 -0.3114
  578MPD2    C2 8622   3.349   3.203   1.451 -0.3425  0.8441  0.2548
  578MPD2    C3 8623   3.413   3.185   1.571  0.4501 -0.0838  0.0639
  578MPD2    C4 8624   3.348   3.239   1.681  0.1334 -0.7959  1.0848
  578MPD2    C5 8625   3.223   3.297   1.675  0.4103 -0.0304  0.1244
  578MPD2     H 8626   3.406   3.201   1.359  1.8284  2.4632  1.5567
  578MPD2    H1 8627   3.387   3.231   1.782  1.1499 -0.3005  0.7286
  578MPD2    H2 8628   3.066   3.365   1.545  1.2586  1.2111 -1.4291
  578MPD2    H3 8629   3.158   3.321   1.759  0.1293  0.2114 -0.1629
  578MPD2     N 8630   3.542   3.128   1.564  0.1013  0.4442 -0.5330
  578MPD2    H5 8631   3.575   3.109   1.470  0.4814 -2.3664  0.1676
  578MPD2    N1 8632   3.153   3.277   1.310 -0.1569 -0.0804 -0.3158
  578MPD2    H7 8633   3.065   3.327   1.317 -1.3832 -2.1650 -0.7032
  579TMC3    C1 8634   3.764   3.088   1.634 -0.1182 -0.4352 -0.0867
  579TMC3    C2 8635   3.868   3.139   1.700  0.9510  0.0683 -0.3265
  579TMC3    C3 8636   3.996   3.085   1.678  0.3504  0.3799 -0.1237
  579TMC3    C4 8637   3.784   2.992   1.544  0.2233 -0.0976 -0.0286
  579TMC3    C5 8638   3.912   2.951   1.508  0.7097  0.1240 -0.5860
  579TMC3    C6 8639   4.017   2.985   1.587  0.0703  0.4780 -0.2449
  579TMC3     C 8640   3.629   3.126   1.670 -0.1342 -0.2413 -0.0723
  579TMC3     O 8641   3.614   3.179   1.780  0.4702 -0.7468 -0.0691
  579TMC3     H 8642   3.852   3.217   1.774  0.6562  1.2438 -1.6313
  579TMC3    H1 8643   3.699   2.939   1.501  0.4648 -0.1386 -0.4529
  579TMC3    H2 8644   4.108   2.927   1.581 -1.2421 -1.7309  1.1768
  579TMC3    C7 8645   3.929   2.857   1.401  0.4601  0.2610  0.2806
  579TMC3    C8 8646   4.113   3.124   1.761  0.7827 -0.2614 -0.4198
  579TMC3    O1 8647   4.037   2.802   1.403 -0.1871  0.3185 -0.2578
  579TMC3    O2 8648   4.087   3.194   1.858  0.0916 -0.5084 -0.0281
  580TMC3    C1 8649   2.907   2.411  12.171 -0.5302  0.2149  0.3279
  580TMC3    C2 8650   2.998   2.503  12.216 -0.9460 -0.1358 -0.3708
  580TMC3    C3 8651   3.111   2.463  12.281 -0.4989  0.3781 -0.1274
  580TMC3    C4 8652   2.943   2.278  12.170 -0.5228 -0.5768  0.2974
  580TMC3    C5 8653   3.058   2.242  12.234 -0.5563 -0.0276  0.1956
  580TMC3    C6 8654   3.138   2.326  12.302 -0.5183  0.0325 -0.1600
  580TMC3     C 8655   2.792   2.454  12.097  0.4723  0.2276 -0.3515
  580TMC3     O 8656   2.689   2.388  12.095  0.1524 -0.6405 -0.1376
  580TMC3     H 8657   2.969   2.607  12.221  2.1236  0.6514  1.3821
  580TMC3    H1 8658   2.878   2.213  12.113 -1.4946 -0.4445  1.2417
  580TMC3    H2 8659   3.228   2.298  12.355 -2.0196 -1.8465  1.3677
  580TMC3    C7 8660   3.116   2.121  12.200  0.3181 -0.0708 -0.5200
  580TMC3    C8 8661   3.236   2.533  12.255 -0.5789 -0.0504  0.4649
  580TMC3    O1 8662   3.236   2.126  12.199 -0.1283  0.0407 -0.1905
  580TMC3    O2 8663   3.337   2.465  12.235  0.3844  0.1439 -0.2988
  581MPD2     C 8664   1.368   2.414  14.703 -0.2785  0.2166 -0.1438
  581MPD2    C1 8665   1.305   2.440  14.820  0.0551 -0.4915 -0.1715
  581MPD2    C2 8666   1.181   2.492  14.816  0.0927  0.2289  0.0578
  581MPD2    C3 8667   1.116   2.519  14.700  0.4833  0.4604 -0.0554
  581MPD2    C4 8668   1.178   2.490  14.581 -0.0239  0.3912 -0.1866
  581MPD2    C5 8669   1.299   2.436  14.589 -0.3581  0.4027 -0.6221
  581MPD2     H 8670   1.131   2.522  14.907  1.6590  0.6906  0.7738
  581MPD2    H1 8671   1.129   2.497  14.485  0.3550 -1.6769 -0.5313
  581MPD2    H2 8672   1.460   2.358  14.700  0.0900  0.9643 -2.5263
  581MPD2    H3 8673   1.343   2.401  14.496  1.0356  1.7492 -0.4839
  581MPD2     N 8674   0.993   2.585  14.702 -0.6972 -0.5639 -0.2505
  581MPD2    H5 8675   0.958   2.626  14.788  0.9800 -0.6699  0.4649
  581MPD2    N1 8676   1.366   2.406  14.941  0.4212  0.0983  0.0651
  581MPD2    H7 8677   1.459   2.367  14.929  0.2137  0.2294 -1.9850
  582TMC3    C1 8678   1.379   2.322  15.153 -1.1406  0.0181 -0.2034
  582TMC3    C2 8679   1.397   2.348  15.285 -0.2824 -0.5448 -0.8181
  582TMC3    C3 8680   1.441   2.252  15.366 -0.3798 -0.7041  0.1051
  582TMC3    C4 8681   1.410   2.198  15.100 -0.2714  0.2097 -0.4758
  582TMC3    C5 8682   1.453   2.099  15.190  0.4457  0.0849  0.1359
  582TMC3    C6 8683   1.476   2.128  15.324 -0.1822  0.2013 -0.0197
  582TMC3     C 8684   1.315   2.422  15.073  0.0440 -0.4484 -0.1503
  582TMC3     O 8685   1.226   2.493  15.117  0.2692  0.2308  0.4585
  582TMC3     H 8686   1.363   2.440  15.332 -0.2051 -0.8839 -0.0903
  582TMC3    H1 8687   1.380   2.172  14.999  0.5749 -1.2230 -0.3542
  582TMC3    H2 8688   1.512   2.047  15.386  0.3201  2.2258  2.3334
  582TMC3    C7 8689   1.395   1.970  15.163  0.3522  0.4351  0.3722
  582TMC3    C8 8690   1.458   2.283  15.506  0.6957 -0.3459 -0.3393
  582TMC3    O1 8691   1.442   1.875  15.229 -0.0893  0.0316 -0.5606
  582TMC3    O2 8692   1.451   2.400  15.540  0.1278  0.1485 -0.1694
  583MPD2     C 8693   1.179   3.856  16.851 -0.3140  0.6112 -0.0877
  583MPD2    C1 8694   1.154   3.983  16.804 -0.5070  0.7544  0.3524
  583MPD2    C2 8695   1.077   4.066  16.881 -0.6792 -0.4818  0.2410
  583MPD2    C3 8696   1.031   4.032  17.007  1.3303 -0.0686 -0.1954
  583MPD2    C4 8697   1.072   3.910  17.053  0.1176  0.6760 -0.1498
  583MPD2    C5 8698   1.137   3.819  16.977 -0.0181  0.3700  0.0504
  583MPD2     H 8699   1.062   4.166  16.843  0.2617 -0.0318  1.0464
  583MPD2    H1 8700   1.052   3.881  17.156 -0.2623  0.4665 -0.2823
  583MPD2    H2 8701   1.242   3.784  16.801  1.1993  0.5124  1.9837
  583MPD2    H3 8702   1.161   3.716  17.001 -1.7037 -0.4349 -1.7325
  583MPD2     N 8703   0.959   4.124  17.086 -0.8950 -0.5709  0.2097
  583MPD2    H5 8704   0.954   4.220  17.053 -1.0836 -1.2767 -1.7854
  583MPD2    N1 8705   1.202   4.021  16.674 -0.2034  0.0005 -0.5486
  583MPD2    H7 8706   1.179   4.116  16.649 -2.3215  0.1539  1.9750
  584TMC3    C1 8707   0.815   4.215  17.241 -0.5775  0.1812  0.3043
  584TMC3    C2 8708   0.885   4.335  17.242  0.8626 -0.4590 -0.5740
  584TMC3    C3 8709   0.835   4.442  17.318  0.0078 -0.1291  1.0108
  584TMC3    C4 8710   0.701   4.201  17.314  0.3431 -0.1077 -0.0152
  584TMC3    C5 8711   0.654   4.314  17.384  0.2467  0.7892 -0.2475
  584TMC3    C6 8712   0.722   4.431  17.391  0.0405 -0.2209 -0.1145
  584TMC3     C 8713   0.881   4.094  17.193 -0.4532 -1.2304  0.4925
  584TMC3     O 8714   0.852   3.992  17.248 -0.6700  0.2263  0.2860
  584TMC3     H 8715   0.988   4.339  17.209  1.6098 -1.0289  1.6667
  584TMC3    H1 8716   0.643   4.111  17.303  1.7600 -0.9336 -0.7410
  584TMC3    H2 8717   0.680   4.516  17.443  0.8071 -0.1654  0.4139
  584TMC3    C7 8718   0.541   4.305  17.471 -0.0044 -0.1412 -0.2671
  584TMC3    C8 8719   0.904   4.568  17.321  0.0174  0.1092 -0.0048
  584TMC3    O1 8720   0.527   4.398  17.550 -0.3727 -0.1159  0.1572
  584TMC3    O2 8721   0.890   4.642  17.419  0.3410  0.1715  0.1389
  585MPD2     C 8722   4.731   2.799   0.334 -0.6224  0.4454  0.0286
  585MPD2    C1 8723   0.046   2.882   0.235 -0.3392  0.1198  0.3044
  585MPD2    C2 8724   0.129   2.827   0.145  0.0884 -0.1359 -0.0666
  585MPD2    C3 8725   0.169   2.697   0.155  0.0238  0.3139 -0.0639
  585MPD2    C4 8726   0.134   2.619   0.263 -0.4774 -0.2611  0.1291
  585MPD2    C5 8727   0.037   2.666   0.343  0.0467 -0.6995 -0.4407
  585MPD2     H 8728   0.158   2.885   0.058  0.6786 -3.2140 -1.9319
  585MPD2    H1 8729   0.174   2.521   0.284  1.7855  0.3581 -1.2882
  585MPD2    H2 8730   4.663   2.838   0.409 -0.4500 -0.6552  0.7516
  585MPD2    H3 8731   0.007   2.602   0.424  2.1195 -0.4209  0.5518
  585MPD2     N 8732   0.247   2.628   0.059  0.0972  0.1604 -0.6033
  585MPD2    H5 8733   0.258   2.527   0.069 -1.1749  0.2448  1.6298
  585MPD2    N1 8734   4.728   3.015   0.222  0.1943 -0.3991 -0.2295
  585MPD2    H7 8735   4.670   3.050   0.297  0.9811  1.3238 -0.4072
  586TMC3    C1 8736   0.366   2.594  17.590  0.0441  0.4954 -0.5378
  586TMC3    C2 8737   0.471   2.641  17.514 -0.5667 -0.1480  0.4597
  586TMC3    C3 8738   0.484   2.617  17.383 -0.0180  0.5057 -0.0941
  586TMC3    C4 8739   0.265   2.522  17.532 -0.3784  0.1706  0.4433
  586TMC3    C5 8740   0.276   2.512  17.398 -0.4054  0.1341 -0.0062
  586TMC3    C6 8741   0.382   2.552  17.319  0.4238 -0.5031 -0.3900
  586TMC3     C 8742   0.315   2.687  17.691  0.9542  0.1615  0.5064
  586TMC3     O 8743   0.344   2.803  17.678 -0.0357  0.2771 -0.4064
  586TMC3     H 8744   0.549   2.708  17.547  1.8837 -2.6952 -0.1012
  586TMC3    H1 8745   0.170   2.520  17.584 -0.0399 -0.5716  1.0345
  586TMC3    H2 8746   0.388   2.512  17.218  1.4117 -0.4742 -0.3426
  586TMC3    C7 8747   0.171   2.441  17.336 -0.3061 -0.0880  0.5940
  586TMC3    C8 8748   0.615   2.555  17.340  0.2155  0.3421 -0.2007
  586TMC3    O1 8749   0.112   2.363  17.405  0.2867 -0.2796 -0.4056
  586TMC3    O2 8750   0.622   2.491  17.234  0.3220 -0.2487  0.4521
  587TMC3    C1 8751   2.920   1.630  17.045 -0.0610 -0.1252  0.2959
  587TMC3    C2 8752   2.898   1.735  16.957  0.0966  0.6782  0.4050
  587TMC3    C3 8753   3.008   1.807  16.918  0.6000  0.1414  0.4208
  587TMC3    C4 8754   3.049   1.602  17.088  0.1421 -0.0696 -0.1377
  587TMC3    C5 8755   3.154   1.675  17.033  0.1015  0.5678 -0.1406
  587TMC3    C6 8756   3.132   1.778  16.953 -0.0422 -0.0105  0.0717
  587TMC3     C 8757   2.819   1.550  17.107  0.0610  0.5149  0.0554
  587TMC3     O 8758   2.852   1.464  17.192  0.1369  0.9030  0.3302
  587TMC3     H 8759   2.796   1.746  16.922 -0.5997  1.9945  2.8865
  587TMC3    H1 8760   3.062   1.524  17.162  2.9952  0.3754 -0.1842
  587TMC3    H2 8761   3.212   1.845  16.922  0.4747  0.0683  1.5671
  587TMC3    C7 8762   3.287   1.613  17.046 -0.3887 -1.4197 -0.6514
  587TMC3    C8 8763   2.993   1.916  16.822 -0.1093 -0.4581 -0.3696
  587TMC3    O1 8764   3.295   1.520  17.126 -0.3316 -0.0630 -0.2608
  587TMC3    O2 8765   3.072   1.921  16.726 -0.0128  0.0278 -0.7782
  588TMC3    C1 8766   0.469   3.892  10.100 -0.9315 -0.0041  0.0686
  588TMC3    C2 8767   0.389   3.789  10.123 -0.0152  1.1626  0.1849
  588TMC3    C3 8768   0.445   3.675  10.168  0.7023  0.9694  0.1482
  588TMC3    C4 8769   0.605   3.875  10.109  0.3346 -0.6137 -0.0625
  588TMC3    C5 8770   0.649   3.767  10.180 -0.1745  0.1331 -0.6682
  588TMC3    C6 8771   0.576   3.655  10.207 -0.0137 -0.3145 -0.0309
  588TMC3     C 8772   0.412   4.025  10.115  0.9710 -0.1799 -0.2120
  588TMC3     O 8773   0.297   4.020  10.149  0.3519 -0.1147 -0.1819
  588TMC3     H 8774   0.282   3.805  10.122  0.3404  3.5469  0.2712
  588TMC3    H1 8775   0.677   3.945  10.069 -0.5403  0.3628  0.0787
  588TMC3    H2 8776   0.606   3.575  10.274  1.7483 -0.5346 -1.0897
  588TMC3    C7 8777   0.776   3.791  10.241 -0.9967 -0.2160  0.8710
  588TMC3    C8 8778   0.355   3.557  10.165  0.3211  0.3773  0.7138
  588TMC3    O1 8779   0.871   3.728  10.204 -0.7791 -0.6059 -0.4549
  588TMC3    O2 8780   0.235   3.569  10.163 -0.3216  0.1949 -0.1253
  589TMC3    C1 8781   3.783   1.428   1.119 -0.0479  0.6092 -0.8316
  589TMC3    C2 8782   3.877   1.434   1.217  0.3017 -0.0454 -0.1690
  589TMC3    C3 8783   3.985   1.353   1.209 -0.3566  0.3709  0.0879
  589TMC3    C4 8784   3.796   1.334   1.018  0.3666  0.0970 -1.5711
  589TMC3    C5 8785   3.900   1.240   1.024 -0.0083  0.3869 -0.7285
  589TMC3    C6 8786   3.995   1.247   1.122 -0.2832 -0.4808  0.1562
  589TMC3     C 8787   3.683   1.536   1.104 -0.1092  0.2458 -0.1512
  589TMC3     O 8788   3.603   1.525   1.015 -0.4111 -0.3091  0.1551
  589TMC3     H 8789   3.866   1.503   1.300 -1.0764 -1.0503  0.5010
  589TMC3    H1 8790   3.712   1.329   0.950 -1.4450 -1.5893  0.7949
  589TMC3    H2 8791   4.075   1.173   1.121 -0.4080 -0.6256  1.1194
  589TMC3    C7 8792   3.899   1.122   0.940  0.4920  0.3121  0.1022
  589TMC3    C8 8793   4.090   1.377   1.307  0.6357  0.3534 -0.1743
  589TMC3    O1 8794   3.995   1.048   0.948 -0.0258  0.5740  0.0033
  589TMC3    O2 8795   4.066   1.460   1.394  0.0075  0.4913 -0.1998
  590MPD2     C 8796   3.473   0.270  16.689 -0.5165 -0.0964 -0.4788
  590MPD2    C1 8797   3.446   0.388  16.625  0.1808  0.0153 -0.0649
  590MPD2    C2 8798   3.551   0.447  16.550 -0.4416 -0.7062 -0.6297
  590MPD2    C3 8799   3.673   0.379  16.546 -0.4124 -0.8305  0.0349
  590MPD2    C4 8800   3.702   0.266  16.616  0.0957  0.5010 -0.0739
  590MPD2    C5 8801   3.599   0.215  16.693 -0.3925 -0.0983 -0.1224
  590MPD2     H 8802   3.538   0.532  16.483 -1.3917 -0.0973  0.3225
  590MPD2    H1 8803   3.802   0.225  16.625  0.3568  1.5687  2.0149
  590MPD2    H2 8804   3.396   0.223  16.750  1.1943 -2.6141 -0.2573
  590MPD2    H3 8805   3.621   0.138  16.767  1.9515  0.4725 -0.2324
  590MPD2     N 8806   3.763   0.434  16.452  0.3393  0.0883  1.1413
  590MPD2    H5 8807   3.737   0.526  16.416 -1.7997 -0.4624  1.3012
  590MPD2    N1 8808   3.317   0.443  16.631 -0.7287  0.3824 -0.4510
  590MPD2    H7 8809   3.244   0.380  16.663 -1.3137 -0.0871 -2.6556
  591TMC3    C1 8810   3.942   0.447  16.300 -0.1291 -1.1625  0.1026
  591TMC3    C2 8811   3.978   0.379  16.192  1.0446  0.6273 -0.1930
  591TMC3    C3 8812   3.965   0.440  16.070  0.1832 -0.2136 -0.2287
  591TMC3    C4 8813   3.916   0.578  16.282  0.4762 -0.3515  0.0894
  591TMC3    C5 8814   3.920   0.645  16.161 -0.2712 -0.0601  0.5333
  591TMC3    C6 8815   3.938   0.571  16.052  0.1388  0.8358  0.4987
  591TMC3     C 8816   3.874   0.373  16.403 -0.1335  0.5092  0.3001
  591TMC3     O 8817   3.918   0.258  16.418 -0.3019 -0.2569 -0.1997
  591TMC3     H 8818   3.996   0.272  16.201  2.3260  1.0062  1.7764
  591TMC3    H1 8819   3.901   0.637  16.372  0.7519  3.6576 -2.4730
  591TMC3    H2 8820   3.908   0.619  15.960  3.1966 -0.6656 -1.2860
  591TMC3    C7 8821   3.834   0.763  16.142  0.4327 -0.0821 -0.1183
  591TMC3    C8 8822   3.960   0.350  15.956  0.0837  0.7845  0.3463
  591TMC3    O1 8823   3.759   0.799  16.237  0.6211  0.0514 -0.6627
  591TMC3    O2 8824   4.013   0.242  15.974  0.2056  0.1307  0.5137
  592MPD2     C 8825   4.101   2.235  11.340 -0.3686 -0.4517  0.1492
  592MPD2    C1 8826   4.083   2.271  11.469 -0.5945 -0.0206 -0.1698
  592MPD2    C2 8827   3.983   2.218  11.541 -0.2836 -0.4745  0.5886
  592MPD2    C3 8828   3.898   2.129  11.488  0.6675 -0.4959  0.1473
  592MPD2    C4 8829   3.921   2.093  11.359  0.3400 -0.4199 -0.2540
  592MPD2    C5 8830   4.014   2.155  11.276  0.3419 -0.3589 -0.1870
  592MPD2     H 8831   3.973   2.240  11.647 -2.3195 -0.2042  0.3342
  592MPD2    H1 8832   3.870   2.010  11.311  2.1041 -1.2128 -0.7762
  592MPD2    H2 8833   4.187   2.274  11.286 -1.0179 -1.0379 -1.2972
  592MPD2    H3 8834   4.019   2.130  11.170  3.9775 -2.4597  0.4703
  592MPD2     N 8835   3.805   2.053  11.574  0.0483  0.2490 -0.9171
  592MPD2    H5 8836   3.803   2.093  11.667  0.4948 -0.4876 -0.5899
  592MPD2    N1 8837   4.182   2.350  11.529 -0.1703  0.4005 -0.1039
  592MPD2    H7 8838   4.263   2.367  11.471  0.8177 -0.3014  1.0733
  593TMC3    C1 8839   4.281   2.515  11.676 -0.2240 -0.7623  0.1685
  593TMC3    C2 8840   4.269   2.580  11.797  0.1119  0.8019  0.4847
  593TMC3    C3 8841   4.332   2.702  11.800  0.2093 -0.2441  0.2553
  593TMC3    C4 8842   4.368   2.556  11.577  0.3344 -0.2156  0.8612
  593TMC3    C5 8843   4.428   2.679  11.589  0.3262 -0.6546  0.2169
  593TMC3    C6 8844   4.415   2.748  11.702 -0.3265  0.0464  0.3665
  593TMC3     C 8845   4.188   2.407  11.657  0.8155  0.3029  0.1325
  593TMC3     O 8846   4.116   2.384  11.753  0.2067 -0.5811  0.3085
  593TMC3     H 8847   4.202   2.550  11.877 -0.4079  0.6686 -0.0090
  593TMC3    H1 8848   4.387   2.503  11.485 -1.0512 -0.2013  0.5603
  593TMC3    H2 8849   4.442   2.852  11.704  0.6886 -0.2165  0.1446
  593TMC3    C7 8850   4.509   2.742  11.481 -0.1341  0.0291  0.2801
  593TMC3    C8 8851   4.301   2.785  11.911 -0.6824 -1.4878 -0.2192
  593TMC3    O1 8852   4.572   2.841  11.516  0.2952 -0.2346 -0.3238
  593TMC3    O2 8853   4.211   2.747  11.982 -0.7117 -0.3132 -0.3263
  594MPD2     C 8854   3.041   0.852  14.890 -0.0936 -0.7411  0.2832
  594MPD2    C1 8855   2.946   0.928  14.826 -0.2389  0.5057  0.0697
  594MPD2    C2 8856   2.984   1.021  14.735  0.6440  0.0180  0.0281
  594MPD2    C3 8857   3.122   1.062  14.727  0.9265  0.4847 -0.6410
  594MPD2    C4 8858   3.210   0.987  14.801 -0.2823 -0.9192  0.6227
  594MPD2    C5 8859   3.172   0.880  14.879  0.2185  0.4370  0.4953
  594MPD2     H 8860   2.906   1.077  14.685 -1.4714 -1.1426  2.0123
  594MPD2    H1 8861   3.317   1.005  14.793 -0.4453  1.2701  3.2249
  594MPD2    H2 8862   3.019   0.788  14.975  0.0386  0.5964  1.3236
  594MPD2    H3 8863   3.245   0.827  14.939 -0.0597  0.0216  0.4689
  594MPD2     N 8864   3.154   1.160  14.632  0.6004 -0.5853 -0.4940
  594MPD2    H5 8865   3.086   1.197  14.566  1.3356  0.7148 -0.5281
  594MPD2    N1 8866   2.815   0.901  14.853  0.1613 -0.1558  0.0488
  594MPD2    H7 8867   2.789   0.823  14.913  0.9110 -1.2626 -1.0491
  595TMC3    C1 8868   3.447   1.411  14.375  0.1322  0.7560  0.7077
  595TMC3    C2 8869   3.412   1.296  14.437 -0.3830 -0.4478 -0.0637
  595TMC3    C3 8870   3.290   1.291  14.494 -0.8996 -0.1748 -0.2486
  595TMC3    C4 8871   3.368   1.520  14.365  0.3785 -0.4126  0.5654
  595TMC3    C5 8872   3.243   1.510  14.428 -0.1348 -0.0779 -0.2668
  595TMC3    C6 8873   3.202   1.403  14.497  0.7508 -0.5796 -0.1769
  595TMC3     C 8874   3.573   1.420  14.312 -0.1263  0.0060 -0.3179
  595TMC3     O 8875   3.614   1.526  14.272  0.2973  0.3168  0.2454
  595TMC3     H 8876   3.480   1.212  14.430 -0.3288 -0.3163 -1.0182
  595TMC3    H1 8877   3.403   1.603  14.305  0.2630 -1.0508 -0.3757
  595TMC3    H2 8878   3.100   1.398  14.533  0.8520 -1.9299 -0.0725
  595TMC3    C7 8879   3.185   1.636  14.463  0.6986  0.2227 -0.6605
  595TMC3    C8 8880   3.285   1.193  14.592 -0.6626  0.2154 -0.2333
  595TMC3    O1 8881   3.107   1.639  14.557  0.1228  0.5510 -0.5086
  595TMC3    O2 8882   3.389   1.130  14.608  0.1842 -0.3426  0.2703
  596MPD2     C 8883   1.979   3.791  16.947  0.1491 -0.2204  0.2578
  596MPD2    C1 8884   1.946   3.903  16.871 -0.4146 -0.5812  0.2123
  596MPD2    C2 8885   1.962   3.893  16.731  0.0598 -0.0806 -0.3244
  596MPD2    C3 8886   2.026   3.788  16.672 -1.2026 -0.6732 -0.3205
  596MPD2    C4 8887   2.061   3.679  16.750  0.0185 -0.2175 -0.1888
  596MPD2    C5 8888   2.028   3.679  16.881  0.2008 -1.0291  0.3314
  596MPD2     H 8889   1.933   3.976  16.667 -0.2251  1.1705  1.4384
  596MPD2    H1 8890   2.102   3.591  16.703 -0.3118 -0.3368 -0.2560
  596MPD2    H2 8891   1.976   3.797  17.056 -0.3893 -0.6571  0.2643
  596MPD2    H3 8892   2.056   3.590  16.935  0.9208 -2.5045 -2.4781
  596MPD2     N 8893   2.060   3.782  16.535  0.1253 -0.1942  0.3958
  596MPD2    H5 8894   2.103   3.699  16.494 -1.3150 -0.2799 -0.9545
  596MPD2    N1 8895   1.892   4.020  16.920 -0.3499  0.1876  0.0965
  596MPD2    H7 8896   1.886   4.094  16.850 -4.0273 -0.5923 -0.3939
  597TMC3    C1 8897   1.803   4.175  17.065 -0.5775 -0.7592 -0.5285
  597TMC3    C2 8898   1.874   4.271  17.000 -0.3118 -0.3900  0.0774
  597TMC3    C3 8899   1.811   4.394  16.988 -0.3228 -0.8882  0.8099
  597TMC3    C4 8900   1.693   4.201  17.144 -0.2901 -0.4015 -0.4087
  597TMC3    C5 8901   1.643   4.335  17.139  0.4249  0.1426  0.5709
  597TMC3    C6 8902   1.709   4.435  17.065 -0.2849 -0.7186 -0.0258
  597TMC3     C 8903   1.839   4.039  17.047  0.0727 -0.0989  0.3614
  597TMC3     O 8904   1.793   3.951  17.115  0.3347  0.4145 -0.2400
  597TMC3     H 8905   1.967   4.242  16.952 -0.5649  1.6961 -1.7127
  597TMC3    H1 8906   1.641   4.121  17.196  1.5192 -0.9228  0.5964
  597TMC3    H2 8907   1.678   4.538  17.049 -2.1803 -1.4321 -0.8878
  597TMC3    C7 8908   1.539   4.363  17.237  0.9505 -0.4172 -0.3703
  597TMC3    C8 8909   1.874   4.496  16.907 -0.1127  0.0350 -0.0738
  597TMC3    O1 8910   1.475   4.270  17.287 -0.8139 -0.0690 -0.4010
  597TMC3    O2 8911   1.860   4.611  16.934 -0.0641 -0.0945 -0.8011
  598TMC3    C1 8912   0.193   0.677  15.576 -0.7540 -0.5177  0.3716
  598TMC3    C2 8913   0.067   0.640  15.530 -1.8485 -0.6682 -0.2557
  598TMC3    C3 8914   0.025   0.675  15.406  0.0249  0.1608 -0.8501
  598TMC3    C4 8915   0.266   0.760  15.496  0.6041 -0.5490 -0.3522
  598TMC3    C5 8916   0.222   0.793  15.372  0.0719  0.0917 -0.2314
  598TMC3    C6 8917   0.105   0.748  15.324 -0.0883 -0.2478 -0.1036
  598TMC3     C 8918   0.243   0.625  15.696  0.1601  0.1409  0.1790
  598TMC3     O 8919   0.168   0.567  15.770  0.7006  0.1143 -0.8180
  598TMC3     H 8920   0.032   0.559  15.593 -1.6603 -1.1390 -0.7542
  598TMC3    H1 8921   0.358   0.794  15.541  1.7425 -1.2780 -2.1129
  598TMC3    H2 8922   0.062   0.778  15.229 -0.5472 -0.3562  0.0689
  598TMC3    C7 8923   0.278   0.910  15.314 -0.2849  0.4070 -0.5479
  598TMC3    C8 8924   4.640   0.609  15.361 -0.8975 -0.6691 -0.4308
  598TMC3    O1 8925   0.334   0.994  15.386  0.0740 -0.2018  0.5265
  598TMC3    O2 8926   4.620   0.596  15.243 -0.3331  0.2770 -0.2808
  599MPD2     C 8927   0.327   2.986  15.821  0.2652  0.3088 -0.5001
  599MPD2    C1 8928   0.285   2.853  15.831  0.0429  0.1443  0.6680
  599MPD2    C2 8929   0.184   2.816  15.922  0.4491  1.0229 -0.1786
  599MPD2    C3 8930   0.114   2.913  15.988 -0.2052 -0.2004 -0.5342
  599MPD2    C4 8931   0.150   3.045  15.974  0.0842 -0.6432  0.0299
  599MPD2    C5 8932   0.261   3.083  15.894 -0.2098  0.5567 -0.3886
  599MPD2     H 8933   0.163   2.710  15.930  1.2423  1.1930  3.8591
  599MPD2    H1 8934   0.082   3.119  16.016  0.9581  1.8139 -2.9001
  599MPD2    H2 8935   0.416   3.020  15.770  1.3656 -1.1194  0.4708
  599MPD2    H3 8936   0.285   3.187  15.875 -0.2838  0.9684  1.7927
  599MPD2     N 8937   0.015   2.879  16.079  0.1730  0.1834 -0.1188
  599MPD2    H5 8938   4.716   2.945  16.149 -0.6279  0.2782 -0.5794
  599MPD2    N1 8939   0.363   2.757  15.759 -0.2062  0.6534  0.1594
  599MPD2    H7 8940   0.443   2.785  15.702  1.6431 -4.5567  0.2237
  600TMC3    C1 8941   4.590   2.750  16.204  0.0752 -0.2458 -0.9247
  600TMC3    C2 8942   4.493   2.660  16.189  0.7125 -0.1329  0.3002
  600TMC3    C3 8943   4.422   2.631  16.304 -0.2562  0.3580 -0.7734
  600TMC3    C4 8944   4.627   2.804  16.323  1.0806 -0.6864 -0.4016
  600TMC3    C5 8945   4.548   2.771  16.431 -0.3525 -0.5581  0.0936
  600TMC3    C6 8946   4.446   2.681  16.426 -0.1533 -0.3458  0.0763
  600TMC3     C 8947   4.685   2.756  16.095 -0.7392  0.0278 -0.2761
  600TMC3     O 8948   4.694   2.658  16.028 -0.1707 -0.2880 -0.2790
  600TMC3     H 8949   4.484   2.613  16.092 -0.9902 -0.1136  0.4536
  600TMC3    H1 8950   4.715   2.867  16.329 -0.7896  1.8074  0.6804
  600TMC3    H2 8951   4.393   2.665  16.519  0.6308 -1.5306  0.3182
  600TMC3    C7 8952   4.549   2.867  16.541 -0.5520 -0.2406 -0.4590
  600TMC3    C8 8953   4.322   2.528  16.291  0.0073 -0.1385 -0.2250
  600TMC3    O1 8954   4.468   2.853  16.629  0.0862  0.4411  0.1886
  600TMC3    O2 8955   4.273   2.515  16.184 -0.5487 -0.4960  0.4229
  601MPD2     C 8956   2.483   1.798   0.399  0.2244 -0.9806  0.6333
  601MPD2    C1 8957   2.457   1.676   0.349 -0.0827  0.7073  0.7915
  601MPD2    C2 8958   2.477   1.566   0.419 -0.7324 -0.3782 -0.1721
  601MPD2    C3 8959   2.510   1.570   0.554  0.2780  0.5349 -0.4477
  601MPD2    C4 8960   2.542   1.694   0.607 -0.4919 -0.1160  0.4581
  601MPD2    C5 8961   2.532   1.800   0.524 -0.0339 -0.0431  0.2948
  601MPD2     H 8962   2.450   1.473   0.370  1.6252 -0.6658 -0.9119
  601MPD2    H1 8963   2.572   1.709   0.710 -0.2023  0.1624  0.3354
  601MPD2    H2 8964   2.468   1.891   0.345 -0.3162 -0.2387  2.0562
  601MPD2    H3 8965   2.564   1.894   0.568  1.0583 -0.4906  0.4694
  601MPD2     N 8966   2.504   1.458   0.638  0.6492 -0.1771  0.1014
  601MPD2    H5 8967   2.512   1.476   0.738 -0.5167 -1.4559  0.4228
  601MPD2    N1 8968   2.428   1.654   0.211 -0.4346  0.3113 -0.2009
  601MPD2    H7 8969   2.420   1.556   0.185 -0.4197  0.5387 -1.0782
  602TMC3    C1 8970   2.353   1.695  17.723 -0.5252  0.0280  0.0539
  602TMC3    C2 8971   2.384   1.742  17.595 -0.3521  0.5517  0.2454
  602TMC3    C3 8972   2.300   1.716  17.487  0.5852 -0.1536 -0.0869
  602TMC3    C4 8973   2.251   1.611   0.009  0.2763 -0.0782  0.0026
  602TMC3    C5 8974   2.169   1.588  17.640  0.9333  0.8300 -0.1450
  602TMC3    C6 8975   2.187   1.645  17.521  0.4934 -1.0749 -0.1220
  602TMC3     C 8976   2.422   1.743   0.109 -0.0781 -0.3522 -0.1922
  602TMC3     O 8977   2.466   1.856   0.095 -0.1052  0.5830 -0.4700
  602TMC3     H 8978   2.470   1.805  17.576  0.6946 -0.7105  0.8603
  602TMC3    H1 8979   2.216   1.574   0.105  0.1967  0.9159  0.3542
  602TMC3    H2 8980   2.120   1.611  17.443  1.1639  0.7340 -1.5013
  602TMC3    C7 8981   2.043   1.529  17.664  0.0213 -0.3207  0.0735
  602TMC3    C8 8982   2.303   1.810  17.376 -0.3179  0.3217 -0.4118
  602TMC3    O1 8983   2.024   1.452   0.024 -0.2511 -0.0044 -0.1645
  602TMC3    O2 8984   2.405   1.863  17.334 -0.0361 -0.5108  0.1151
  603TMC3    C1 8985   0.560   1.292  11.221  0.2920 -0.3067 -0.3371
  603TMC3    C2 8986   0.591   1.260  11.352 -0.0620 -0.6659 -0.2884
  603TMC3    C3 8987   0.622   1.362  11.442 -0.1691  0.2723 -0.3571
  603TMC3    C4 8988   0.548   1.413  11.169 -0.1570  0.6152  0.2020
  603TMC3    C5 8989   0.592   1.508  11.258 -0.3670  1.0365 -0.8323
  603TMC3    C6 8990   0.615   1.489  11.394  0.8273  0.3795  0.2866
  603TMC3     C 8991   0.478   1.190  11.149 -0.3135  0.1455  0.0007
  603TMC3     O 8992   0.444   1.227  11.038  0.0656 -0.1221  0.0871
  603TMC3     H 8993   0.611   1.158  11.385  0.7650 -1.3734 -2.9589
  603TMC3    H1 8994   0.531   1.431  11.064 -2.3840  0.3350  0.5253
  603TMC3    H2 8995   0.653   1.573  11.451 -1.8438  2.3574 -0.8176
  603TMC3    C7 8996   0.563   1.650  11.227  0.0463 -0.0878  0.0530
  603TMC3    C8 8997   0.602   1.344  11.583 -0.0559 -0.4041 -0.3758
  603TMC3    O1 8998   0.626   1.732  11.292  0.3967 -0.3219  0.3972
  603TMC3    O2 8999   0.520   1.256  11.612  0.3149 -0.5161  0.2020
  604MPD2     C 9000   1.015   0.044  16.382 -0.2230  0.6104  0.1831
  604MPD2    C1 9001   0.955   0.136  16.297  0.3618 -0.1088 -0.8345
  604MPD2    C2 9002   1.015   0.177  16.179  0.6134  0.9491 -0.2207
  604MPD2    C3 9003   1.140   0.132  16.145 -0.4634  0.9385  0.1300
  604MPD2    C4 9004   1.202   0.028  16.224 -0.5572 -0.8199  0.0186
  604MPD2    C5 9005   1.138   4.718  16.336  0.7821 -0.0324 -0.3555
  604MPD2     H 9006   0.961   0.246  16.115  0.8744  0.4778 -0.9607
  604MPD2    H1 9007   1.298   4.718  16.201 -0.8638 -1.6066  0.2302
  604MPD2    H2 9008   0.976   0.014  16.478  0.5146  1.4914  0.7497
  604MPD2    H3 9009   1.182   4.629  16.381  1.9769  1.0696  0.6468
  604MPD2     N 9010   1.193   0.174  16.019  0.0048 -0.3813 -0.1368
  604MPD2    H5 9011   1.139   0.243  15.969  0.0151 -0.3746 -0.1388
  604MPD2    N1 9012   0.835   0.196  16.345 -0.1443  0.3610 -0.1180
  604MPD2    H7 9013   0.805   0.166  16.438  1.0130 -1.4393 -0.3185
  605TMC3    C1 9014   0.681   0.370  16.391  0.5391  0.1300 -0.3590
  605TMC3    C2 9015   0.706   0.346  16.523  0.4081 -0.5220  0.2089
  605TMC3    C3 9016   0.654   0.434  16.616 -0.0166 -0.1828  0.0186
  605TMC3    C4 9017   0.605   0.478  16.353  0.2347  0.0295  0.9697
  605TMC3    C5 9018   0.560   0.563  16.449  0.8243  0.1583 -0.0915
  605TMC3    C6 9019   0.585   0.546  16.584  0.3440 -0.3109 -0.4794
  605TMC3     C 9020   0.772   0.307  16.301  0.1745 -0.1998 -0.4347
  605TMC3     O 9021   0.795   0.373  16.198  0.2872 -0.0614 -0.1226
  605TMC3     H 9022   0.787   0.283  16.557  0.1875 -2.3677 -2.6723
  605TMC3    H1 9023   0.593   0.493  16.246 -1.0542 -0.3016  1.0718
  605TMC3    H2 9024   0.559   0.615  16.664  1.7450 -2.2520  1.6780
  605TMC3    C7 9025   0.469   0.674  16.428  0.3393 -0.5180 -0.4105
  605TMC3    C8 9026   0.712   0.434  16.745 -0.3624 -0.2262 -0.5547
  605TMC3    O1 9027   0.461   0.752  16.525 -0.2342  0.1221  0.6519
  605TMC3    O2 9028   0.646   0.393  16.840  0.2452  0.7411  0.2863
  606TMC3    C1 9029   1.458   3.730  17.718  0.4590  0.6205  0.8019
  606TMC3    C2 9030   1.547   3.763   0.082  0.0217 -0.2950  0.2881
  606TMC3    C3 9031   1.682   3.767   0.050 -0.0657  1.0141  0.1574
  606TMC3    C4 9032   1.497   3.690  17.596 -0.5256  0.4675  1.2830
  606TMC3    C5 9033   1.632   3.690  17.573  0.1429 -0.5541  0.1205
  606TMC3    C6 9034   1.729   3.738  17.661  0.1457 -0.5234  0.2571
  606TMC3     C 9035   1.332   3.676   0.024 -0.4144  0.1924 -0.1230
  606TMC3     O 9036   1.285   3.584  17.691  0.5005  0.5902 -0.1537
  606TMC3     H 9037   1.520   3.787   0.184  0.1630  0.1448  0.2206
  606TMC3    H1 9038   1.417   3.662  17.528  1.0300 -0.2443 -0.2409
  606TMC3    H2 9039   1.832   3.748  17.628  0.2660 -1.4015  0.3570
  606TMC3    C7 9040   1.680   3.634  17.447  0.4432 -0.6893 -0.0206
  606TMC3    C8 9041   1.788   3.780   0.145  0.0786  0.0537 -0.7692
  606TMC3    O1 9042   1.795   3.662  17.409  0.1075  0.1909 -0.4549
  606TMC3    O2 9043   1.902   3.768   0.100 -0.0302  0.2263 -0.9588
  607MPD2     C 9044   3.950   1.745  11.947  1.4491 -0.8198 -1.3001
  607MPD2    C1 9045   4.036   1.766  12.048  0.4031 -1.2160  0.3727
  607MPD2    C2 9046   4.020   1.694  12.164 -0.2308  0.3514 -0.1243
  607MPD2    C3 9047   3.921   1.604  12.183  0.3969 -0.5183 -0.1202
  607MPD2    C4 9048   3.841   1.563  12.078 -0.2450  0.2262 -0.4242
  607MPD2    C5 9049   3.857   1.638  11.960 -0.0298 -0.2807 -0.3783
  607MPD2     H 9050   4.086   1.715  12.247  0.3710 -1.7303 -0.0691
  607MPD2    H1 9051   3.763   1.488  12.088 -0.6123  0.4467 -1.6401
  607MPD2    H2 9052   3.944   1.796  11.852 -0.5625  1.6097  0.1520
  607MPD2    H3 9053   3.784   1.612  11.884 -0.0887  0.7061 -0.6570
  607MPD2     N 9054   3.923   1.539  12.310 -0.1590  0.4914  0.1469
  607MPD2    H5 9055   3.987   1.589  12.371 -0.2834  0.7371  0.0761
  607MPD2    N1 9056   4.136   1.865  12.043 -0.2577  0.2370 -0.0356
  607MPD2    H7 9057   4.201   1.868  12.120  1.2066 -2.9192 -1.1503
  608TMC3    C1 9058   4.226   2.068  12.001  0.1035  0.0431  0.8176
  608TMC3    C2 9059   4.250   2.082  12.136  0.2996  0.0249  0.1159
  608TMC3    C3 9060   4.351   2.159  12.176 -0.7737  0.1147  0.2254
  608TMC3    C4 9061   4.295   2.142  11.908  0.2121 -0.1602  0.6169
  608TMC3    C5 9062   4.406   2.213  11.953 -0.0667  0.3448 -0.4046
  608TMC3    C6 9063   4.432   2.231  12.088 -0.3785  0.4598  0.0062
  608TMC3     C 9064   4.134   1.969  11.954  0.5545 -0.3151 -0.3449
  608TMC3     O 9065   4.070   1.997  11.853 -0.1402  0.2414 -0.2728
  608TMC3     H 9066   4.169   2.048  12.200  0.7507 -0.6106  0.3442
  608TMC3    H1 9067   4.259   2.152  11.806 -1.1641 -1.9869  0.9351
  608TMC3    H2 9068   4.515   2.286  12.131 -0.7117 -0.7412  2.1585
  608TMC3    C7 9069   4.490   2.263  11.846  0.0750  0.0483  0.0614
  608TMC3    C8 9070   4.359   2.177  12.322  0.1642  0.7005  0.2565
  608TMC3    O1 9071   4.490   2.201  11.744  0.3764 -0.3141  0.6306
  608TMC3    O2 9072   4.413   2.275  12.374  0.1860  0.0576  0.5276
  609TMC3    C1 9073   2.627   0.926   9.178  0.2809 -0.2032  0.4548
  609TMC3    C2 9074   2.515   0.847   9.183 -0.0180 -0.5356  0.2086
  609TMC3    C3 9075   2.530   0.719   9.227  0.4221 -0.0896  0.0713
  609TMC3    C4 9076   2.747   0.874   9.199  0.7838  0.5696  0.2104
  609TMC3    C5 9077   2.758   0.740   9.246  0.0093  0.3706 -0.0355
  609TMC3    C6 9078   2.646   0.663   9.270  0.5137 -0.3882  0.0482
  609TMC3     C 9079   2.605   1.055   9.240  0.2619 -0.0411 -0.6292
  609TMC3     O 9080   2.493   1.079   9.275  0.1639  0.4302  1.2346
  609TMC3     H 9081   2.417   0.889   9.160  0.2237  0.4812  1.0344
  609TMC3    H1 9082   2.844   0.922   9.187  1.0693  0.1335  0.7684
  609TMC3    H2 9083   2.645   0.564   9.315  1.0042 -0.2334  0.4068
  609TMC3    C7 9084   2.888   0.703   9.297 -0.3791  0.0956 -0.5242
  609TMC3    C8 9085   2.406   0.628   9.213 -0.5925  0.1431  0.2995
  609TMC3    O1 9086   2.960   0.798   9.333 -0.0999  0.0816  0.3872
  609TMC3    O2 9087   2.416   0.512   9.261  0.0316  0.0106  0.5666
  610TMC3    C1 9088   0.095   2.076  12.845 -0.0571  0.1297 -0.0473
  610TMC3    C2 9089   0.066   2.112  12.715 -0.7273  0.0119  0.0100
  610TMC3    C3 9090   0.121   2.036  12.621  1.2078 -0.5851  0.1973
  610TMC3    C4 9091   0.167   1.960  12.876  0.8002  0.0330 -0.7856
  610TMC3    C5 9092   0.217   1.890  12.768 -0.3138 -0.6358 -0.0048
  610TMC3    C6 9093   0.208   1.929  12.639 -0.5884  0.2638  0.2631
  610TMC3     C 9094   0.004   2.138  12.944  0.0513  0.3986 -0.4085
  610TMC3     O 9095   4.729   2.077  13.051  0.4001 -0.0882 -0.2450
  610TMC3     H 9096   0.009   2.200  12.690  0.2846  0.7167  0.2128
  610TMC3    H1 9097   0.180   1.931  12.979 -0.8089  0.9009 -0.3364
  610TMC3    H2 9098   0.249   1.864  12.562 -0.7935  0.7711 -0.2751
  610TMC3    C7 9099   0.293   1.771  12.796  0.2877  0.2447  0.0524
  610TMC3    C8 9100   0.125   2.105  12.494  0.7018  0.1456  0.2791
  610TMC3    O1 9101   0.348   1.759  12.903 -0.6018  0.6359  0.3694
  610TMC3    O2 9102   0.099   2.225  12.493 -0.0061  0.2197 -0.2865
  611MPD2     C 9103   4.442   1.297  10.592  0.8169 -0.2039 -0.1131
  611MPD2    C1 9104   4.396   1.386  10.497  0.6090  0.5316 -0.2492
  611MPD2    C2 9105   4.472   1.499  10.473 -0.3256  0.6106  0.2342
  611MPD2    C3 9106   4.592   1.521  10.540  0.1972 -0.8964 -0.5042
  611MPD2    C4 9107   4.628   1.437  10.639  0.2639  0.6349  0.2305
  611MPD2    C5 9108   4.548   1.324  10.670 -0.1789 -0.7596 -0.1019
  611MPD2     H 9109   4.433   1.565  10.396  0.4485 -0.7388 -1.3130
  611MPD2    H1 9110   4.715   1.464  10.697 -0.7839  2.3622  0.9980
  611MPD2    H2 9111   4.399   1.199  10.605 -0.9632  0.2833 -2.1711
  611MPD2    H3 9112   4.590   1.268  10.753  3.7087  0.8516 -0.9944
  611MPD2     N 9113   4.684   1.626  10.513 -0.1266 -0.1904 -0.0804
  611MPD2    H5 9114   0.043   1.620  10.555 -0.9586 -1.9386  1.5221
  611MPD2    N1 9115   4.280   1.348  10.429  1.0860 -0.6357 -0.1433
  611MPD2    H7 9116   4.238   1.258  10.453  1.6350 -0.6422  0.7854
  612TMC3    C1 9117   0.043   1.829  10.433  0.7336 -0.4260  0.1337
  612TMC3    C2 9118   0.106   1.855  10.552 -0.1010 -0.0960 -0.8377
  612TMC3    C3 9119   0.187   1.959  10.555  0.2003 -0.6723 -0.8141
  612TMC3    C4 9120   0.041   1.914  10.330  0.2765 -0.1838 -0.7803
  612TMC3    C5 9121   0.121   2.023  10.341  0.1400 -0.0779  0.0356
  612TMC3    C6 9122   0.193   2.048  10.457 -0.6903  0.2527 -0.5857
  612TMC3     C 9123   4.671   1.723  10.425  0.4088  0.7593  0.3049
  612TMC3     O 9124   4.583   1.753  10.350  0.9724 -0.2070 -0.2581
  612TMC3     H 9125   0.091   1.787  10.635  1.6603  1.2913  0.6360
  612TMC3    H1 9126   4.705   1.897  10.249  0.8291 -0.6696 -1.1551
  612TMC3    H2 9127   0.250   2.139  10.474 -1.5140  0.4207  1.2038
  612TMC3    C7 9128   0.077   2.147  10.283  0.2219 -0.3249  0.3581
  612TMC3    C8 9129   0.240   1.999  10.680  0.4087 -0.6456 -0.8521
  612TMC3    O1 9130   0.086   2.248  10.350  0.3433  0.2250  0.1470
  612TMC3    O2 9131   0.272   2.114  10.692 -0.6252 -0.4302  0.1331
  613MPD2     C 9132   3.459   3.744  16.597 -0.4277 -0.4534 -0.0142
  613MPD2    C1 9133   3.452   3.830  16.487 -0.0849  0.6202 -0.1800
  613MPD2    C2 9134   3.537   3.806  16.377  0.3590 -0.2163  0.2747
  613MPD2    C3 9135   3.624   3.695  16.374 -0.0738 -0.1368 -0.5271
  613MPD2    C4 9136   3.632   3.622  16.486 -0.3490  0.6092  0.2850
  613MPD2    C5 9137   3.553   3.643  16.593  0.0893 -0.0014  0.5098
  613MPD2     H 9138   3.543   3.880  16.298  1.2609 -1.2325 -0.6117
  613MPD2    H1 9139   3.699   3.537  16.486 -0.9088  0.1486 -1.1454
  613MPD2    H2 9140   3.391   3.755  16.681 -0.2806 -1.8199  0.2781
  613MPD2    H3 9141   3.565   3.575  16.677  0.2666 -0.0487  0.4459
  613MPD2     N 9142   3.723   3.679  16.268  0.0099 -0.1875  0.1544
  613MPD2    H5 9143   3.797   3.609  16.275 -1.0153 -1.1232  1.4405
  613MPD2    N1 9144   3.382   3.948  16.491 -0.2202 -0.9362 -0.0850
  613MPD2    H7 9145   3.341   3.962  16.583 -1.3326  0.6004 -0.8073
  614TMC3    C1 9146   3.345   4.177  16.454 -0.2612  0.3167 -0.5839
  614TMC3    C2 9147   3.447   4.228  16.527 -0.7998  0.7013 -0.2326
  614TMC3    C3 9148   3.493   4.354  16.513 -0.4537  0.1458  0.5959
  614TMC3    C4 9149   3.269   4.254  16.373 -0.0929 -0.7334  0.6010
  614TMC3    C5 9150   3.298   4.389  16.370  0.3918 -0.0700 -0.3494
  614TMC3    C6 9151   3.414   4.439  16.434 -0.2512 -0.1467  0.8952
  614TMC3     C 9152   3.377   4.049  16.401  0.0451  0.5940 -0.3045
  614TMC3     O 9153   3.397   4.042  16.286  0.0121 -0.4103 -0.5283
  614TMC3     H 9154   3.501   4.167  16.599 -0.5141  0.6765 -0.4660
  614TMC3    H1 9155   3.186   4.204  16.325 -0.4232 -1.6495  2.1394
  614TMC3    H2 9156   3.449   4.540  16.418 -0.0743 -0.6795 -1.9438
  614TMC3    C7 9157   3.202   4.483  16.311 -0.2630  0.1087 -0.0269
  614TMC3    C8 9158   3.633   4.341  16.485 -0.0630 -0.1545  0.1097
  614TMC3    O1 9159   3.177   4.590  16.365  0.6300 -0.3030  0.1281
  614TMC3    O2 9160   3.678   4.406  16.391  0.2339  0.1821  0.0722
  615MPD2     C 9161   2.417   0.713  16.716  0.3209 -0.4575  0.6518
  615MPD2    C1 9162   2.496   0.814  16.656  0.0561  0.6874 -0.0476
  615MPD2    C2 9163   2.553   0.791  16.535 -0.3910 -0.0701 -0.3252
  615MPD2    C3 9164   2.535   0.660  16.475 -0.7211  0.1753 -0.1550
  615MPD2    C4 9165   2.469   0.560  16.544 -0.2069 -0.7674  0.7915
  615MPD2    C5 9166   2.414   0.592  16.658  0.3449 -0.0556 -0.3050
  615MPD2     H 9167   2.612   0.869  16.489 -0.2381  0.1882  0.3118
  615MPD2    H1 9168   2.460   0.461  16.501  1.6039  0.6853 -2.9516
  615MPD2    H2 9169   2.367   0.732  16.810 -0.1232 -0.7912  0.4872
  615MPD2    H3 9170   2.368   0.506  16.707 -2.6505  0.5678 -2.0593
  615MPD2     N 9171   2.594   0.630  16.348 -0.4545  0.7058  0.1924
  615MPD2    H5 9172   2.581   0.534  16.319 -3.2451  0.9642  0.5379
  615MPD2    N1 9173   2.507   0.947  16.711 -0.3813 -0.3536  0.1230
  615MPD2    H7 9174   2.569   1.015  16.669 -1.2661 -0.0333 -0.6728
  616TMC3    C1 9175   2.448   1.130  16.831 -0.2639  0.7277  0.0941
  616TMC3    C2 9176   2.578   1.188  16.805  0.7169 -0.6295  0.8164
  616TMC3    C3 9177   2.574   1.329  16.795 -0.1474 -0.1986 -0.2828
  616TMC3    C4 9178   2.336   1.203  16.847 -0.2810  0.2666 -1.1401
  616TMC3    C5 9179   2.340   1.337  16.841  0.3013  0.5213  0.1668
  616TMC3    C6 9180   2.463   1.403  16.826  0.3826 -0.0131  0.1152
  616TMC3     C 9181   2.420   0.987  16.811  0.1181 -0.2007 -0.4006
  616TMC3     O 9182   2.312   0.947  16.846 -0.1600  0.4133 -0.1706
  616TMC3     H 9183   2.671   1.134  16.790  0.3515 -0.8787 -0.5792
  616TMC3    H1 9184   2.240   1.155  16.860 -0.8915  1.0390 -2.8178
  616TMC3    H2 9185   2.470   1.511  16.832 -1.8092  0.0717  1.1274
  616TMC3    C7 9186   2.236   1.408  16.773  0.1058 -0.2701  0.9434
  616TMC3    C8 9187   2.692   1.414  16.762  0.1595 -0.0747 -0.4550
  616TMC3    O1 9188   2.273   1.496  16.689 -0.3142 -0.3700  0.4094
  616TMC3    O2 9189   2.691   1.539  16.770 -0.0351  0.2906 -0.6502
  617MPD2     C 9190   0.988   3.836  13.325 -0.0971 -0.4116 -0.0370
  617MPD2    C1 9191   1.029   3.797  13.453  0.3028 -0.1121 -0.5803
  617MPD2    C2 9192   0.937   3.741  13.536  0.2449  0.0610 -0.2721
  617MPD2    C3 9193   0.804   3.721  13.500 -1.3456 -0.6414  0.2129
  617MPD2    C4 9194   0.775   3.754  13.367  0.3356  0.4464  0.1512
  617MPD2    C5 9195   0.861   3.820  13.284 -0.1801  0.7104 -0.1201
  617MPD2     H 9196   0.972   3.718  13.637 -1.6321  1.3773  0.6628
  617MPD2    H1 9197   0.674   3.734  13.333 -0.2609  1.1914  1.4435
  617MPD2    H2 9198   1.062   3.869  13.253 -1.3351 -1.2182 -1.6511
  617MPD2    H3 9199   0.835   3.843  13.181  1.7329 -1.0328 -0.9890
  617MPD2     N 9200   0.711   3.656  13.577  0.0688 -0.2260  0.0768
  617MPD2    H5 9201   0.623   3.639  13.529 -0.0069 -1.0094  0.4877
  617MPD2    N1 9202   1.158   3.832  13.489  0.1568 -0.6568  0.0549
  617MPD2    H7 9203   1.226   3.857  13.418  0.9003 -2.2465  0.2162
  618TMC3    C1 9204   1.350   3.827  13.624  0.3341  0.4833  0.3362
  618TMC3    C2 9205   1.404   3.874  13.747  0.0747 -0.9034  0.0190
  618TMC3    C3 9206   1.539   3.888  13.751  0.5864  0.4601  0.8354
  618TMC3    C4 9207   1.430   3.807  13.510 -0.1594  0.2217  0.2447
  618TMC3    C5 9208   1.563   3.832  13.525 -0.7390  0.3076  0.3865
  618TMC3    C6 9209   1.616   3.864  13.641  0.3702  0.0524  0.6117
  618TMC3     C 9210   1.208   3.806  13.614 -0.3674  0.5563 -0.1225
  618TMC3     O 9211   1.148   3.805  13.722  0.4734  0.4934 -0.1899
  618TMC3     H 9212   1.341   3.895  13.833  0.2016 -1.2512  0.1976
  618TMC3    H1 9213   1.387   3.782  13.414  1.2918 -0.7223 -0.1653
  618TMC3    H2 9214   1.721   3.892  13.642  1.0999 -2.6980  1.0366
  618TMC3    C7 9215   1.647   3.743  13.449 -0.6984  0.0562  0.1297
  618TMC3    C8 9216   1.578   3.823  13.870  0.1487  0.5349 -0.1147
  618TMC3    O1 9217   1.584   3.665  13.375  0.2528 -0.1036  0.5929
  618TMC3    O2 9218   1.521   3.853  13.973 -0.4565  0.1604  0.3338
  619MPD2     C 9219   2.329   4.436  14.266  0.2341  0.0181 -0.3888
  619MPD2    C1 9220   2.250   4.389  14.164  0.0501 -0.3160 -0.6067
  619MPD2    C2 9221   2.112   4.376  14.172  0.0663 -0.0337  0.0500
  619MPD2    C3 9222   2.045   4.442  14.270  0.1803  0.3338  0.4966
  619MPD2    C4 9223   2.124   4.489  14.376  0.0519 -0.0130  0.1420
  619MPD2    C5 9224   2.262   4.479  14.376  0.2603  0.8631  0.1611
  619MPD2     H 9225   2.051   4.342  14.090 -0.4273 -1.0566  0.8483
  619MPD2    H1 9226   2.069   4.547  14.449  1.0826  2.9274 -1.3834
  619MPD2    H2 9227   2.437   4.444  14.268  0.1959  1.1337 -2.6160
  619MPD2    H3 9228   2.320   4.522  14.457 -0.9283  0.7625  1.0710
  619MPD2     N 9229   1.903   4.478  14.271  0.1718  0.2199  0.3384
  619MPD2    H5 9230   1.865   4.536  14.345  0.1051 -2.2758  2.2626
  619MPD2    N1 9231   2.304   4.363  14.036 -0.2131 -0.3049  0.6167
  619MPD2    H7 9232   2.231   4.357  13.965  0.0453 -1.1496  0.4291
  620TMC3    C1 9233   2.438   4.395  13.848 -0.5805 -0.2317 -0.4300
  620TMC3    C2 9234   2.334   4.332  13.792 -0.5976 -0.3631 -0.3300
  620TMC3    C3 9235   2.256   4.388  13.694 -0.1849 -0.3139  0.0015
  620TMC3    C4 9236   2.487   4.504  13.789 -0.1277 -0.1612 -0.1825
  620TMC3    C5 9237   2.406   4.567  13.693  0.1436 -0.3345 -0.7181
  620TMC3    C6 9238   2.290   4.506  13.642 -0.4532  0.0576  0.1747
  620TMC3     C 9239   2.433   4.389  13.991  0.1786  0.2624 -0.0564
  620TMC3     O 9240   2.524   4.433  14.063  0.1775  0.6378 -0.4132
  620TMC3     H 9241   2.308   4.229  13.811  0.8038 -0.3343  1.6232
  620TMC3    H1 9242   2.573   4.553  13.835 -1.7811  2.7390 -0.1851
  620TMC3    H2 9243   2.235   4.545  13.557 -1.0842 -1.3390 -0.0534
  620TMC3    C7 9244   2.406   4.712  13.696  0.0379 -0.4917  0.5647
  620TMC3    C8 9245   2.114   4.377  13.733  0.3271  0.1632 -0.3433
  620TMC3    O1 9246   2.514   0.031  13.719  0.9363 -0.4210  0.3848
  620TMC3    O2 9247   2.098   4.337  13.847 -0.0375  0.0064 -0.1440
  621MPD2     C 9248   2.226   0.701   9.967  0.6439  0.1398  0.0089
  621MPD2    C1 9249   2.332   0.728  10.047  0.2865  0.1148  0.5986
  621MPD2    C2 9250   2.456   0.731   9.977  0.6695 -0.4506 -0.4582
  621MPD2    C3 9251   2.477   0.716   9.841  0.5292  0.3556  0.0499
  621MPD2    C4 9252   2.366   0.686   9.769  0.1875 -0.7362  0.3843
  621MPD2    C5 9253   2.240   0.677   9.832 -0.4466  0.1635  0.1861
  621MPD2     H 9254   2.544   0.743  10.039 -0.1215 -1.7682  0.9333
  621MPD2    H1 9255   2.366   0.677   9.661 -0.3997 -1.8346  0.4697
  621MPD2    H2 9256   2.131   0.683  10.015  0.8951 -2.1838 -0.3562
  621MPD2    H3 9257   2.150   0.654   9.777 -0.2103 -0.5909  0.1260
  621MPD2     N 9258   2.609   0.724   9.801 -0.7152  0.4304  0.7823
  621MPD2    H5 9259   2.681   0.731   9.872 -0.7772 -1.0211  0.9949
  621MPD2    N1 9260   2.322   0.743  10.190 -0.3046  0.2551 -0.3681
  621MPD2    H7 9261   2.411   0.737  10.240 -0.1987  0.9318 -0.4659
  622TMC3    C1 9262   2.204   0.754  10.396 -0.0015  1.0024 -0.4396
  622TMC3    C2 9263   2.100   0.807  10.452 -0.4334  0.2855  0.0348
  622TMC3    C3 9264   2.067   0.771  10.585 -0.2236  0.0088  0.3845
  622TMC3    C4 9265   2.268   0.644  10.450  0.0974  0.0013  0.3289
  622TMC3    C5 9266   2.234   0.604  10.578  0.9795  0.7775  0.2794
  622TMC3    C6 9267   2.134   0.673  10.651 -0.0291  0.0156 -0.0230
  622TMC3     C 9268   2.204   0.763  10.253  0.2971 -0.1941  0.0188
  622TMC3     O 9269   2.102   0.813  10.205  0.8272  0.6297  0.2059
  622TMC3     H 9270   2.053   0.896  10.410  1.6228  1.3746  0.0449
  622TMC3    H1 9271   2.363   0.619  10.405  0.6842  1.2900  0.8477
  622TMC3    H2 9272   2.125   0.645  10.755 -0.9746 -1.6030 -0.5291
  622TMC3    C7 9273   2.283   0.476  10.633 -0.5559  0.2002 -0.0541
  622TMC3    C8 9274   1.941   0.813  10.641  0.4061 -0.3858  0.3299
  622TMC3    O1 9275   2.257   0.447  10.747  0.1047  0.0632  0.1879
  622TMC3    O2 9276   1.907   0.788  10.753 -0.2165 -0.1221 -0.2056
  623MPD2     C 9277   1.279   0.810  15.904  0.6609  0.2601 -0.6352
  623MPD2    C1 9278   1.181   0.779  15.995  0.0751 -0.1315 -0.3561
  623MPD2    C2 9279   1.220   0.788  16.132 -0.6468 -0.2043 -0.7433
  623MPD2    C3 9280   1.348   0.802  16.172  0.5974  0.5685  0.0696
  623MPD2    C4 9281   1.447   0.816  16.076  0.3610 -1.1183 -0.0264
  623MPD2    C5 9282   1.411   0.827  15.945 -0.0844 -0.2165  0.8943
  623MPD2     H 9283   1.143   0.750  16.197  0.2008  1.5432  1.2628
  623MPD2    H1 9284   1.547   0.847  16.102 -0.1985 -0.0259  0.8285
  623MPD2    H2 9285   1.259   0.822  15.798 -1.3848 -0.6512 -0.3347
  623MPD2    H3 9286   1.485   0.845  15.869  0.9762 -1.7067  1.5754
  623MPD2     N 9287   1.377   0.792  16.311 -0.0534  0.0289  0.3506
  623MPD2    H5 9288   1.294   0.786  16.370 -0.2642 -0.2686  0.0261
  623MPD2    N1 9289   1.044   0.738  15.967 -0.9187  0.2400 -1.1910
  623MPD2    H7 9290   0.996   0.713  16.053 -0.3660  2.6912 -0.1854
  624TMC3    C1 9291   1.595   0.730  16.718 -0.6633  0.2955  0.0608
  624TMC3    C2 9292   1.490   0.776  16.791  0.0317  0.1998  0.1494
  624TMC3    C3 9293   1.383   0.831  16.721  0.1356 -0.2331 -0.2277
  624TMC3    C4 9294   1.606   0.737  16.576  0.1454  0.2668 -0.0360
  624TMC3    C5 9295   1.500   0.798  16.514 -0.5954 -0.3027 -0.4300
  624TMC3    C6 9296   1.393   0.852  16.584  0.2340 -0.6982 -0.0513
  624TMC3     C 9297   1.709   0.721  16.796  0.0278  0.4289 -0.2092
  624TMC3     O 9298   1.707   0.773  16.909  0.6436 -0.0502 -0.3554
  624TMC3     H 9299   1.478   0.777  16.899  1.1398  1.0421  0.2609
  624TMC3    H1 9300   1.695   0.697  16.528 -0.0583 -0.1397 -0.0762
  624TMC3    H2 9301   1.318   0.911  16.531  0.3021 -0.4979  0.0767
  624TMC3    C7 9302   1.508   0.795  16.369  1.0228  0.5360  0.7246
  624TMC3    C8 9303   1.256   0.791  16.768 -0.8096 -0.6350 -0.0189
  624TMC3    O1 9304   1.616   0.789  16.316 -0.1661  0.0323  0.5135
  624TMC3    O2 9305   1.161   0.841  16.703 -0.0146 -0.7417  0.6461
  625MPD2     C 9306   1.654   1.980   0.717 -0.2209 -0.6623  0.6989
  625MPD2    C1 9307   1.670   2.114   0.749 -0.3059 -0.1184 -0.0018
  625MPD2    C2 9308   1.767   2.155   0.833  0.4644 -0.3112  0.1469
  625MPD2    C3 9309   1.863   2.067   0.882 -0.8751 -0.1374  0.2485
  625MPD2    C4 9310   1.845   1.930   0.857 -0.0996 -0.3242  0.7331
  625MPD2    C5 9311   1.737   1.895   0.783 -0.8882 -0.6025  0.5154
  625MPD2     H 9312   1.791   2.260   0.849 -0.1847  0.4239 -3.7385
  625MPD2    H1 9313   1.919   1.854   0.881 -0.4067 -0.2740  1.8629
  625MPD2    H2 9314   1.573   1.952   0.651  1.1407 -1.3899 -0.6468
  625MPD2    H3 9315   1.736   1.789   0.763  2.8551 -0.8660  1.5803
  625MPD2     N 9316   1.964   2.127   0.966  0.0317 -0.7115  0.1005
  625MPD2    H5 9317   1.949   2.227   0.974 -2.3751 -1.0585 -0.2756
  625MPD2    N1 9318   1.585   2.210   0.693  0.0581  0.0393 -1.0929
  625MPD2    H7 9319   1.592   2.306   0.725  3.2794 -1.5061  2.7944
  626TMC3    C1 9320   1.387   2.304   0.588 -0.3269 -0.1583  0.7345
  626TMC3    C2 9321   1.335   2.332   0.467 -0.0837  0.6861 -0.3848
  626TMC3    C3 9322   1.274   2.454   0.456 -0.0156  0.1589  0.2124
  626TMC3    C4 9323   1.364   2.382   0.698  0.0025  0.4398  0.1731
  626TMC3    C5 9324   1.297   2.498   0.681  0.3048  0.1126 -0.0313
  626TMC3    C6 9325   1.243   2.539   0.564 -0.2186  0.3558  0.3852
  626TMC3     C 9326   1.479   2.191   0.606  0.4925  0.2419  0.1633
  626TMC3     O 9327   1.452   2.095   0.532  0.2327  0.4952  0.7228
  626TMC3     H 9328   1.355   2.268   0.382  0.9880 -1.4745  1.4813
  626TMC3    H1 9329   1.393   2.345   0.796 -1.7131  1.3732  1.0389
  626TMC3    H2 9330   1.197   2.637   0.558 -2.1232 -0.6995 -2.7225
  626TMC3    C7 9331   1.244   2.549   0.810 -0.1177 -0.0672  0.2637
  626TMC3    C8 9332   1.264   2.508   0.319  0.5052  0.1972  0.6759
  626TMC3    O1 9333   1.319   2.531   0.904 -0.3092  0.0959 -0.1767
  626TMC3    O2 9334   1.266   2.423   0.231 -0.1590  0.3297 -0.0089
  627MPD2     C 9335   0.249   2.527  14.323  0.5756 -0.2343 -0.6920
  627MPD2    C1 9336   0.313   2.480  14.434 -0.5038 -0.5477 -0.7649
  627MPD2    C2 9337   0.289   2.350  14.482  0.0492  0.0279 -1.1541
  627MPD2    C3 9338   0.199   2.271  14.412  0.1422 -0.0802 -0.3934
  627MPD2    C4 9339   0.132   2.318  14.303  0.1023  0.3651 -0.5839
  627MPD2    C5 9340   0.154   2.450  14.264  0.1863 -0.5093 -0.2492
  627MPD2     H 9341   0.342   2.310  14.567  0.5083 -0.3161 -1.6025
  627MPD2    H1 9342   0.056   2.269  14.243 -1.5440  2.2436 -0.0310
  627MPD2    H2 9343   0.260   2.624  14.275  0.1759  0.0997 -0.0980
  627MPD2    H3 9344   0.084   2.492  14.193  1.8496  2.0398 -0.3716
  627MPD2     N 9345   0.177   2.146  14.470 -0.1909  0.0257  0.5433
  627MPD2    H5 9346   0.215   2.127  14.562  2.5470  0.7770 -0.4282
  627MPD2    N1 9347   0.406   2.563  14.510  0.0860  0.0566  0.6169
  627MPD2    H7 9348   0.453   2.520  14.589 -0.5952 -0.1311  0.9290
  628TMC3    C1 9349   0.573   2.723  14.531 -0.4463 -0.0937  0.5279
  628TMC3    C2 9350   0.670   2.628  14.560 -0.9899  0.3167  0.3382
  628TMC3    C3 9351   0.791   2.662  14.610  0.0980  0.1959  0.2544
  628TMC3    C4 9352   0.605   2.855  14.539 -0.0056  0.2042 -0.8300
  628TMC3    C5 9353   0.725   2.892  14.597 -0.0031  0.0966  0.2332
  628TMC3    C6 9354   0.817   2.794  14.636  0.1861  0.4096 -0.5154
  628TMC3     C 9355   0.449   2.690  14.473 -0.1497  0.5178  0.0179
  628TMC3     O 9356   0.395   2.769  14.404  0.2537  0.1773  0.1613
  628TMC3     H 9357   0.648   2.525  14.537  1.9440  0.0948 -1.4313
  628TMC3    H1 9358   0.542   2.929  14.490 -0.3739 -0.0509 -0.7366
  628TMC3    H2 9359   0.919   2.831  14.641  0.4607 -0.4161  0.0581
  628TMC3    C7 9360   0.752   3.032  14.603  0.1285  0.3266 -0.4885
  628TMC3    C8 9361   0.904   2.572  14.596 -0.2779 -0.0226  0.0865
  628TMC3    O1 9362   0.811   3.070  14.703  0.3709 -0.2465 -0.1794
  628TMC3    O2 9363   0.906   2.486  14.508 -0.2485 -0.3937  0.2471
  629MPD2     C 9364   3.195   1.463  16.663  0.3427 -0.4379  0.4183
  629MPD2    C1 9365   3.162   1.329  16.653 -0.8154  0.0752 -0.4168
  629MPD2    C2 9366   3.028   1.295  16.677  1.2954 -0.0799  0.2609
  629MPD2    C3 9367   2.933   1.391  16.706 -0.1643  0.6498 -0.2965
  629MPD2    C4 9368   2.966   1.526  16.709  0.5942 -0.3482 -0.1524
  629MPD2    C5 9369   3.099   1.562  16.699 -0.3488 -0.5915 -0.3282
  629MPD2     H 9370   2.994   1.192  16.679 -0.5377  0.5852  3.0779
  629MPD2    H1 9371   2.898   1.609  16.726 -0.0619 -0.6786 -1.1442
  629MPD2    H2 9372   3.302   1.481  16.664  0.1198  1.0582 -1.2757
  629MPD2    H3 9373   3.118   1.668  16.701 -0.1228 -0.6718  2.0734
  629MPD2     N 9374   2.805   1.340  16.737 -0.3819  0.2579  0.2926
  629MPD2    H5 9375   2.786   1.242  16.719  0.4717  0.4502 -1.5955
  629MPD2    N1 9376   3.259   1.237  16.612  0.9956 -0.1351 -0.4094
  629MPD2    H7 9377   3.351   1.275  16.591  0.7161 -0.6119 -2.5477
  630TMC3    C1 9378   3.376   1.049  16.569  0.3291  0.5941  0.1672
  630TMC3    C2 9379   3.434   1.096  16.454  0.6200 -0.1922 -0.0870
  630TMC3    C3 9380   3.562   1.061  16.429  0.3758  0.1785  0.0983
  630TMC3    C4 9381   3.438   0.964  16.657 -0.7623 -0.5608 -0.7417
  630TMC3    C5 9382   3.561   0.916  16.613 -0.1187 -0.3527  0.4037
  630TMC3    C6 9383   3.636   0.974  16.511  0.8604  0.6680  0.3516
  630TMC3     C 9384   3.246   1.100  16.605  0.0354 -0.0241 -0.3000
  630TMC3     O 9385   3.164   1.025  16.660 -0.2170 -0.1896 -0.1639
  630TMC3     H 9386   3.367   1.150  16.388  1.4362  0.9461  0.0228
  630TMC3    H1 9387   3.374   0.916  16.731 -1.3583  0.7450 -0.3874
  630TMC3    H2 9388   3.725   0.935  16.465  1.0962  3.3190 -1.4396
  630TMC3    C7 9389   3.608   0.797  16.688  0.0299 -0.1263 -0.1760
  630TMC3    C8 9390   3.645   1.130  16.335  0.0695 -0.0210  0.8178
  630TMC3    O1 9391   3.540   0.758  16.779 -0.0812 -0.3186  0.7040
  630TMC3    O2 9392   3.767   1.107  16.326  0.4274  0.4677 -0.0948
  631MPD2     C 9393   1.938   0.825  15.798  0.7918 -0.3523 -0.3997
  631MPD2    C1 9394   2.037   0.906  15.748 -0.8227 -0.0570  0.0380
  631MPD2    C2 9395   2.173   0.873  15.773  0.6548  0.1553 -0.3125
  631MPD2    C3 9396   2.199   0.761  15.841 -0.1878  0.0396  0.2791
  631MPD2    C4 9397   2.103   0.681  15.893  0.0273  0.2224 -0.7278
  631MPD2    C5 9398   1.976   0.720  15.868 -0.2867 -0.3634 -0.5450
  631MPD2     H 9399   2.261   0.929  15.743 -0.7006  0.8047 -3.1185
  631MPD2    H1 9400   2.111   0.589  15.949 -1.3794  0.2747 -0.4549
  631MPD2    H2 9401   1.832   0.837  15.778  0.8393  1.6082  0.5628
  631MPD2    H3 9402   1.892   0.662  15.904  0.1087 -1.5843 -1.5864
  631MPD2     N 9403   2.336   0.740  15.867  0.0664 -0.2319 -0.2245
  631MPD2    H5 9404   2.406   0.792  15.815 -0.4193  1.1238  0.4781
  631MPD2    N1 9405   2.000   1.022  15.673  0.4715  0.2211 -0.3568
  631MPD2    H7 9406   1.908   1.065  15.680  0.7050  0.7750 -0.6914
  632TMC3    C1 9407   2.024   1.210  15.540 -0.6425 -0.0118 -0.4374
  632TMC3    C2 9408   1.922   1.275  15.610 -0.0447 -0.1127  0.6336
  632TMC3    C3 9409   1.888   1.400  15.575  0.7283 -0.6223 -0.0776
  632TMC3    C4 9410   2.088   1.272  15.434  0.1916 -0.0988 -0.0891
  632TMC3    C5 9411   2.035   1.395  15.400  0.4276  0.6307  0.1231
  632TMC3    C6 9412   1.945   1.467  15.467  0.2359  0.0401 -0.2466
  632TMC3     C 9413   2.086   1.095  15.599  0.2661  0.9939 -0.0175
  632TMC3     O 9414   2.195   1.061  15.559 -0.8246  0.1349  0.2944
  632TMC3     H 9415   1.872   1.233  15.696  0.5638 -0.3533  0.8649
  632TMC3    H1 9416   2.167   1.221  15.381  0.3358 -1.6513  1.6205
  632TMC3    H2 9417   1.906   1.563  15.434  1.3691 -0.1183 -2.0222
  632TMC3    C7 9418   2.092   1.464  15.285 -0.1201  0.1964  0.3900
  632TMC3    C8 9419   1.791   1.478  15.651 -0.4580  0.0363  0.1506
  632TMC3    O1 9420   2.151   1.409  15.195  0.1400  0.2067  0.2786
  632TMC3    O2 9421   1.773   1.429  15.758  0.1156  0.2493  0.1933
  633MPD2     C 9422   1.223   3.576  17.298 -0.5528  0.5293 -0.2232
  633MPD2    C1 9423   1.289   3.532  17.179  0.6994 -0.0509  0.4422
  633MPD2    C2 9424   1.248   3.412  17.129 -0.0467 -0.1156  0.6491
  633MPD2    C3 9425   1.162   3.328  17.203  0.6363 -0.1510  0.3794
  633MPD2    C4 9426   1.116   3.362  17.329 -0.9651 -0.0479  0.2296
  633MPD2    C5 9427   1.139   3.490  17.372  0.2632  0.6697 -0.0230
  633MPD2     H 9428   1.296   3.373  17.040  0.6245  2.8036 -0.2692
  633MPD2    H1 9429   1.053   3.290  17.381 -0.9222 -0.2390  0.0160
  633MPD2    H2 9430   1.221   3.677  17.338  2.9375  0.7579 -0.6762
  633MPD2    H3 9431   1.087   3.526  17.460  1.6835  3.5785 -0.3597
  633MPD2     N 9432   1.146   3.194  17.162  0.6160  0.7244  0.6037
  633MPD2    H5 9433   1.087   3.139  17.225 -0.5818  1.4995  0.1502
  633MPD2    N1 9434   1.378   3.607  17.092  0.2050  0.4003  0.4506
  633MPD2    H7 9435   1.397   3.557  17.005 -4.6315  2.7295 -1.9390
  634TMC3    C1 9436   1.516   3.775  17.000 -0.4393 -0.4277  0.4861
  634TMC3    C2 9437   1.591   3.692  16.928  0.7196 -0.0050 -0.2594
  634TMC3    C3 9438   1.635   3.739  16.809  0.4607  0.0145 -0.0938
  634TMC3    C4 9439   1.499   3.904  16.965  0.5034 -0.0822  0.0742
  634TMC3    C5 9440   1.549   3.946  16.845 -0.1944 -0.4363 -0.7285
  634TMC3    C6 9441   1.620   3.866  16.765  0.1030  0.5204  0.1744
  634TMC3     C 9442   1.422   3.732  17.112 -1.0757  0.3645 -0.0225
  634TMC3     O 9443   1.404   3.813  17.201  0.4349 -0.3845 -0.4378
  634TMC3     H 9444   1.618   3.596  16.969  3.0801  0.6941 -0.1878
  634TMC3    H1 9445   1.423   3.957  17.022  0.0808  3.0093 -3.3159
  634TMC3    H2 9446   1.653   3.902  16.669  1.7759  1.0161  0.9432
  634TMC3    C7 9447   1.535   4.086  16.808  0.5694 -0.8134  0.0912
  634TMC3    C8 9448   1.656   3.631  16.713 -0.8468  0.1003 -0.0442
  634TMC3    O1 9449   1.583   4.113  16.699 -0.1654 -0.3251 -0.4577
  634TMC3    O2 9450   1.674   3.519  16.755  0.2537  0.1995  0.1754
  635TMC3    C1 9451   2.276   0.510   0.078 -0.1543 -0.3087  0.5228
  635TMC3    C2 9452   2.343   0.575  17.715  0.1262  0.5394  0.3420
  635TMC3    C3 9453   2.315   0.539  17.587  0.1303 -0.2179  0.2798
  635TMC3    C4 9454   2.182   0.406   0.066  0.1447  0.0541 -0.5637
  635TMC3    C5 9455   2.152   0.385  17.668  0.2760  0.0538 -0.3707
  635TMC3    C6 9456   2.229   0.434  17.566 -0.0359  0.3939 -0.2503
  635TMC3     C 9457   2.286   0.566   0.208 -0.3603  0.3251  0.7540
  635TMC3     O 9458   2.369   0.654   0.219 -0.1233  0.2857  0.1158
  635TMC3     H 9459   2.392   0.670  17.729 -2.6455  2.0001  0.1749
  635TMC3    H1 9460   2.130   0.356   0.146  0.7049 -1.9519 -1.4655
  635TMC3    H2 9461   2.199   0.416  17.464 -0.6240  2.0737 -0.3755
  635TMC3    C7 9462   2.046   0.301  17.629 -0.1752 -0.1652  0.5358
  635TMC3    C8 9463   2.406   0.572  17.477  0.3201 -0.0272 -0.0508
  635TMC3    O1 9464   2.054   0.256  17.519 -0.1328  0.5335  0.2655
  635TMC3    O2 9465   2.385   0.518  17.370 -0.0726  0.0332 -0.1251
  636MPD2     C 9466   3.311   4.096  15.722  0.0688  0.0936  0.8149
  636MPD2    C1 9467   3.315   4.024  15.840 -0.3533  0.7830 -0.2746
  636MPD2    C2 9468   3.438   3.985  15.891  1.0117  0.3531 -0.1398
  636MPD2    C3 9469   3.551   3.992  15.813 -0.0203  0.5365 -0.5725
  636MPD2    C4 9470   3.550   4.063  15.693  0.1067  0.1005 -0.3970
  636MPD2    C5 9471   3.428   4.120  15.656 -0.6653 -0.1900  0.8399
  636MPD2     H 9472   3.440   3.943  15.991 -2.0694 -1.5552 -0.8597
  636MPD2    H1 9473   3.644   4.083  15.642  1.0444  0.4857  1.5139
  636MPD2    H2 9474   3.219   4.137  15.680  2.3995  2.5485 -1.8378
  636MPD2    H3 9475   3.431   4.174  15.561  0.0615 -2.0449 -0.1891
  636MPD2     N 9476   3.675   3.939  15.866 -0.2266  0.7930 -0.5360
  636MPD2    H5 9477   3.672   3.890  15.955 -1.7967  1.6135 -0.1501
  636MPD2    N1 9478   3.197   4.008  15.916  0.2989  0.4598 -0.0330
  636MPD2    H7 9479   3.212   3.966  16.007 -1.5772  0.6075  0.3446
  637TMC3    C1 9480   3.901   3.882  15.899 -0.9931 -0.5532 -0.6686
  637TMC3    C2 9481   3.838   3.776  15.961 -0.0608 -0.0102  0.1164
  637TMC3    C3 9482   3.853   3.750  16.094  0.7397 -0.4619  0.0960
  637TMC3    C4 9483   3.986   3.965  15.968 -0.0591 -0.5595  0.0752
  637TMC3    C5 9484   4.000   3.942  16.102 -0.4049  0.2025 -0.2211
  637TMC3    C6 9485   3.941   3.832  16.160  0.4685 -0.0664  0.8613
  637TMC3     C 9486   3.805   3.945  15.812  0.6781 -0.0839  0.2727
  637TMC3     O 9487   3.844   3.998  15.709  0.0723 -0.0614  0.6857
  637TMC3     H 9488   3.779   3.709  15.899  0.6692  1.1339 -1.7943
  637TMC3    H1 9489   4.010   4.058  15.917 -1.5822 -0.2377 -0.0374
  637TMC3    H2 9490   3.945   3.828  16.268 -1.2280  0.0742  0.9284
  637TMC3    C7 9491   3.979   4.069  16.172 -0.5157 -0.1363  0.0081
  637TMC3    C8 9492   3.725   3.753  16.153 -0.2306 -1.3866 -0.4524
  637TMC3    O1 9493   3.916   4.164  16.122  0.4171  0.2250  0.7556
  637TMC3    O2 9494   3.631   3.792  16.081  0.7344  0.2761  0.0927
  638MPD2     C 9495   2.534   3.325  15.392 -0.0852 -0.4676 -0.2698
  638MPD2    C1 9496   2.550   3.240  15.282  0.0530  0.1030  0.0236
  638MPD2    C2 9497   2.557   3.103  15.305  0.6381 -0.3800  0.7667
  638MPD2    C3 9498   2.550   3.050  15.436  0.4668 -0.1328  0.6200
  638MPD2    C4 9499   2.527   3.135  15.541  0.2080  0.5985  0.2062
  638MPD2    C5 9500   2.524   3.268  15.519  0.5370  0.2841  0.2002
  638MPD2     H 9501   2.567   3.035  15.221 -1.3743  2.8857 -2.0604
  638MPD2    H1 9502   2.519   3.102  15.644 -0.0729  0.9261  0.2900
  638MPD2    H2 9503   2.534   3.433  15.382  1.3101 -0.3091  1.4682
  638MPD2    H3 9504   2.515   3.332  15.606  0.9576 -1.3030  1.4255
  638MPD2     N 9505   2.564   2.910  15.451  0.0128  0.4086  0.0838
  638MPD2    H5 9506   2.584   2.856  15.367 -0.7508 -1.7687  1.3194
  638MPD2    N1 9507   2.583   3.272  15.147 -0.6158  0.3504  0.7723
  638MPD2    H7 9508   2.613   3.194  15.090  0.1434 -0.4490  2.2702
  639TMC3    C1 9509   2.630   2.718  15.545 -0.0502  0.7752 -0.2853
  639TMC3    C2 9510   2.555   2.637  15.466  0.1184 -0.2403  0.2888
  639TMC3    C3 9511   2.616   2.550  15.384 -0.2164  0.0444  0.6264
  639TMC3    C4 9512   2.760   2.728  15.519 -0.3380 -0.5477 -0.3518
  639TMC3    C5 9513   2.824   2.650  15.428 -0.2774 -0.1877 -0.3257
  639TMC3    C6 9514   2.752   2.558  15.362 -0.6731 -0.3366 -0.0329
  639TMC3     C 9515   2.581   2.852  15.570 -0.3009 -0.2796  0.3363
  639TMC3     O 9516   2.599   2.891  15.685  0.1284  0.4129 -0.3442
  639TMC3     H 9517   2.447   2.646  15.478  0.4052  1.5229  1.5297
  639TMC3    H1 9518   2.811   2.797  15.586 -1.8967  0.0359  0.2198
  639TMC3    H2 9519   2.799   2.491  15.291 -2.7369  0.3513 -2.0470
  639TMC3    C7 9520   2.934   2.713  15.361 -0.4567 -0.3258  0.3795
  639TMC3    C8 9521   2.537   2.462  15.298 -0.7919 -0.1004  0.1403
  639TMC3    O1 9522   2.966   2.826  15.398  0.2151  0.5663  0.3815
  639TMC3    O2 9523   2.588   2.412  15.200  1.1868 -0.5358  0.0626
  640MPD2     C 9524   2.513   1.605   9.344 -0.6021  0.5570 -0.6300
  640MPD2    C1 9525   2.610   1.660   9.421  0.9702 -0.1589  0.0321
  640MPD2    C2 9526   2.579   1.727   9.537 -0.5039 -0.6491  0.3795
  640MPD2    C3 9527   2.454   1.712   9.593  0.8661  0.0613 -0.6712
  640MPD2    C4 9528   2.357   1.656   9.513 -0.0035  0.6518 -0.2591
  640MPD2    C5 9529   2.380   1.605   9.392  0.1679 -1.0389 -0.5535
  640MPD2     H 9530   2.658   1.778   9.592 -0.2787 -0.4399 -0.1362
  640MPD2    H1 9531   2.255   1.638   9.547  0.8226  0.0179  1.8932
  640MPD2    H2 9532   2.543   1.553   9.254 -2.3769  0.3346 -1.1001
  640MPD2    H3 9533   2.298   1.559   9.339 -0.3383  1.2103 -1.7244
  640MPD2     N 9534   2.417   1.773   9.716 -0.2402 -0.2862  0.0673
  640MPD2    H5 9535   2.322   1.755   9.747 -0.8488  0.9924 -1.0587
  640MPD2    N1 9536   2.743   1.658   9.363  0.2868  0.3742 -0.2708
  640MPD2    H7 9537   2.756   1.609   9.275 -3.2877  1.6873 -1.5259
  641TMC3    C1 9538   2.980   1.667   9.356 -0.0017  0.3408 -0.6841
  641TMC3    C2 9539   3.097   1.634   9.416 -0.7955 -0.3139 -0.2006
  641TMC3    C3 9540   3.199   1.581   9.345 -0.0874  0.3568  0.1674
  641TMC3    C4 9541   2.971   1.657   9.221 -0.6033 -0.2374  0.7267
  641TMC3    C5 9542   3.070   1.601   9.150 -0.3086  0.1145 -0.6555
  641TMC3    C6 9543   3.183   1.560   9.211  0.7156 -0.6382  0.0063
  641TMC3     C 9544   2.856   1.679   9.434 -0.4139 -0.5398 -0.1953
  641TMC3     O 9545   2.870   1.724   9.549 -0.6031 -0.1425  0.3798
  641TMC3     H 9546   3.096   1.627   9.524  0.0513  0.1661 -0.1559
  641TMC3    H1 9547   2.879   1.679   9.167 -1.0343  2.1525  2.4237
  641TMC3    H2 9548   3.259   1.508   9.154  2.6727  1.8463  0.3710
  641TMC3    C7 9549   3.044   1.584   9.009  0.3878  0.1688 -0.5152
  641TMC3    C8 9550   3.275   1.484   9.407 -0.1215  0.3984  0.0410
  641TMC3    O1 9551   2.993   1.677   8.955 -0.2033  0.2351 -0.4404
  641TMC3    O2 9552   3.271   1.374   9.354  0.2805  0.6239  0.0093
  642TMC3    C1 9553   4.195   2.579  12.452 -0.1787  0.4707  0.1687
  642TMC3    C2 9554   4.311   2.613  12.388  0.1057  0.1337 -0.1286
  642TMC3    C3 9555   4.329   2.588  12.258 -0.0367  0.5469 -0.0138
  642TMC3    C4 9556   4.104   2.501  12.383 -0.5008  0.3170 -0.4652
  642TMC3    C5 9557   4.137   2.462  12.252  0.2051 -0.0637 -0.1382
  642TMC3    C6 9558   4.241   2.513  12.180 -0.7246 -0.4744 -0.0317
  642TMC3     C 9559   4.159   2.653  12.577  0.0313  0.0198  0.1027
  642TMC3     O 9560   4.240   2.734  12.619 -0.5181 -0.0194  0.6189
  642TMC3     H 9561   4.377   2.667  12.456  1.5260  1.0232 -2.1901
  642TMC3    H1 9562   4.010   2.473  12.429 -1.2532  0.2095 -2.0640
  642TMC3    H2 9563   4.252   2.486  12.075 -1.2955 -1.2033  0.0936
  642TMC3    C7 9564   4.055   2.350  12.201  0.5935 -0.1953 -0.0665
  642TMC3    C8 9565   4.461   2.607  12.197 -0.6010 -0.2645 -0.3676
  642TMC3    O1 9566   4.045   2.329  12.080 -0.4176 -0.0270  0.2053
  642TMC3    O2 9567   4.486   2.533  12.109  0.1057  0.4609  0.4192
  643TMC3    C1 9568   3.439   1.408   0.453 -0.0062  0.2888  0.3048
  643TMC3    C2 9569   3.305   1.388   0.449 -0.3649 -0.0805 -0.3909
  643TMC3    C3 9570   3.252   1.327   0.337  0.2178 -0.2624  0.4198
  643TMC3    C4 9571   3.522   1.367   0.355 -0.2466  0.9004  0.0071
  643TMC3    C5 9572   3.468   1.291   0.259 -0.7744 -0.7924  1.8122
  643TMC3    C6 9573   3.333   1.263   0.254 -0.4716  0.3867 -0.5599
  643TMC3     C 9574   3.487   1.523   0.524  0.3976  0.0721  0.4650
  643TMC3     O 9575   3.416   1.621   0.515 -0.5230  0.3422 -0.3542
  643TMC3     H 9576   3.244   1.446   0.517 -1.3171 -1.5094 -0.0367
  643TMC3    H1 9577   3.628   1.390   0.356 -0.2424  0.8800  0.0332
  643TMC3    H2 9578   3.288   1.229   0.162 -0.9089  1.4776 -0.7447
  643TMC3    C7 9579   3.522   1.331   0.131  0.9250 -0.3470 -0.3468
  643TMC3    C8 9580   3.172   1.418   0.254 -0.1831  0.0894  0.2967
  643TMC3    O1 9581   3.575   1.439   0.136 -0.2532  0.2877 -0.1925
  643TMC3    O2 9582   3.083   1.371   0.186  0.0035 -0.3133  0.9178
  644MPD2     C 9583   3.748   1.934  10.178 -0.0512  0.2360 -0.0766
  644MPD2    C1 9584   3.746   1.940  10.038  0.3412 -0.6244  0.1094
  644MPD2    C2 9585   3.708   2.060   9.981 -0.7899  0.0455 -0.0102
  644MPD2    C3 9586   3.657   2.161  10.059  0.2140 -0.5401 -0.5102
  644MPD2    C4 9587   3.653   2.154  10.196  0.0610 -0.3325  0.1113
  644MPD2    C5 9588   3.706   2.041  10.256 -0.3368 -0.0619  0.9565
  644MPD2     H 9589   3.718   2.079   9.875  2.8690  1.5087  0.6210
  644MPD2    H1 9590   3.620   2.233  10.262  1.9769  0.0280  0.6376
  644MPD2    H2 9591   3.800   1.847  10.216  1.7480  1.7410  0.8999
  644MPD2    H3 9592   3.718   2.046  10.363 -0.0403 -2.1950  1.0205
  644MPD2     N 9593   3.594   2.269   9.990 -0.8171  0.0510  0.2039
  644MPD2    H5 9594   3.588   2.260   9.889  1.9327 -1.0975  0.1367
  644MPD2    N1 9595   3.785   1.825   9.961  0.0905 -0.1047  0.0410
  644MPD2    H7 9596   3.808   1.737  10.006 -1.7461 -0.5096  0.2052
  645TMC3    C1 9597   3.506   2.474   9.934  0.0568 -0.9061 -0.9482
  645TMC3    C2 9598   3.431   2.410   9.836  0.0620 -0.2694  0.8851
  645TMC3    C3 9599   3.349   2.500   9.771 -0.2282 -0.3632 -0.6548
  645TMC3    C4 9600   3.483   2.601   9.981 -0.1780 -0.1035 -0.2277
  645TMC3    C5 9601   3.379   2.672   9.926  0.2689  0.1499  0.0107
  645TMC3    C6 9602   3.317   2.624   9.816  0.2025 -0.6357  0.2379
  645TMC3     C 9603   3.558   2.389  10.037  0.1802  0.4899 -0.5669
  645TMC3     O 9604   3.557   2.423  10.154 -0.3894  0.1831  0.8418
  645TMC3     H 9605   3.424   2.303   9.824 -0.4188 -0.4861  3.1841
  645TMC3    H1 9606   3.537   2.651  10.061 -2.4533  2.6284 -0.3763
  645TMC3    H2 9607   3.249   2.689   9.762 -1.3075 -2.2851  0.1349
  645TMC3    C7 9608   3.383   2.816   9.945  0.4214  0.1229 -0.1951
  645TMC3    C8 9609   3.252   2.455   9.673 -0.5805 -0.0706 -0.5144
  645TMC3    O1 9610   3.486   2.869   9.991  0.4420 -0.1617  0.6049
  645TMC3    O2 9611   3.146   2.512   9.656  0.4438  0.4088  0.4989
  646MPD2     C 9612   2.822   1.789  14.507 -0.2869  0.0451 -0.2579
  646MPD2    C1 9613   2.756   1.776  14.622  0.1757  0.5647  0.1014
  646MPD2    C2 9614   2.640   1.857  14.647  0.1709 -0.1347  0.0510
  646MPD2    C3 9615   2.608   1.960  14.555  0.1429 -0.4385 -0.1213
  646MPD2    C4 9616   2.690   1.977  14.446 -0.7062  0.0503  1.3709
  646MPD2    C5 9617   2.795   1.890  14.423  0.3992 -0.5031  0.3552
  646MPD2     H 9618   2.587   1.832  14.738 -0.5842  0.7607 -0.1485
  646MPD2    H1 9619   2.671   2.051  14.369 -4.3662 -1.2535  1.0497
  646MPD2    H2 9620   2.907   1.728  14.477 -0.6683 -0.2376 -0.7538
  646MPD2    H3 9621   2.851   1.895  14.330  0.5855  0.8000  0.5320
  646MPD2     N 9622   2.488   2.020  14.580 -0.2012 -0.2058 -0.1118
  646MPD2    H5 9623   2.427   1.978  14.650 -0.9492 -0.3470 -0.8477
  646MPD2    N1 9624   2.813   1.681  14.706  0.1391 -0.0399 -0.5316
  646MPD2    H7 9625   2.901   1.644  14.670 -0.5286  0.0154 -2.2109
  647TMC3    C1 9626   2.848   1.529  14.882  0.1686 -0.2610  0.0408
  647TMC3    C2 9627   2.787   1.424  14.953  0.0536 -0.0190  0.3448
  647TMC3    C3 9628   2.862   1.311  14.984  0.4881  0.9764 -1.2597
  647TMC3    C4 9629   2.978   1.538  14.865  0.2653 -0.0770 -0.1889
  647TMC3    C5 9630   3.046   1.424  14.896  0.3805  0.7123  0.1621
  647TMC3    C6 9631   2.992   1.315  14.964 -0.2736 -0.4639 -0.0363
  647TMC3     C 9632   2.763   1.633  14.829  0.7508  0.1502  0.6104
  647TMC3     O 9633   2.662   1.658  14.893 -0.2205  0.4163  0.2925
  647TMC3     H 9634   2.680   1.426  14.969 -0.1650  2.1089 -1.3520
  647TMC3    H1 9635   3.024   1.623  14.815  1.4415 -0.4794  0.2086
  647TMC3    H2 9636   3.050   1.226  14.984  0.2279  0.0415  0.7316
  647TMC3    C7 9637   3.189   1.433  14.902  0.1690 -0.0030  0.3905
  647TMC3    C8 9638   2.815   1.213  15.078 -0.2457  0.8441  0.0322
  647TMC3    O1 9639   3.243   1.353  14.977 -0.3838  0.2125  0.4641
  647TMC3    O2 9640   2.903   1.158  15.141  0.3144 -0.4450 -0.4122
  648TMC3    C1 9641   2.066   3.831  16.301 -0.9061 -0.1050  0.7079
  648TMC3    C2 9642   2.178   3.750  16.283 -0.0491 -0.0669 -0.0572
  648TMC3    C3 9643   2.213   3.723  16.150  1.0273  0.1624 -0.1523
  648TMC3    C4 9644   2.005   3.889  16.193 -0.0402 -0.2084  0.4430
  648TMC3    C5 9645   2.047   3.872  16.062 -0.4463  1.5027 -0.0989
  648TMC3    C6 9646   2.149   3.778  16.041  0.6722 -0.7468 -0.0142
  648TMC3     C 9647   2.017   3.868  16.438  0.4929  0.1573  0.3196
  648TMC3     O 9648   1.960   3.974  16.449  0.2738  0.1892  0.0615
  648TMC3     H 9649   2.231   3.719  16.372  3.2258 -1.1848 -2.4035
  648TMC3    H1 9650   1.927   3.958  16.225  0.7088  0.9175 -0.1560
  648TMC3    H2 9651   2.171   3.750  15.938 -1.3691 -1.0535 -0.3733
  648TMC3    C7 9652   2.005   3.962  15.947 -0.0353  0.8556 -0.1814
  648TMC3    C8 9653   2.332   3.643  16.129 -0.0973  0.5985  0.0127
  648TMC3    O1 9654   2.070   3.967  15.843 -0.2172 -1.0951 -0.2853
  648TMC3    O2 9655   2.388   3.648  16.020 -0.5214 -0.2201  0.3956
  649TMC3    C1 9656   0.965   0.145  13.369  0.2549 -0.1339  1.1180
  649TMC3    C2 9657   1.083   0.082  13.333 -0.0771  0.7981  0.6436
  649TMC3    C3 9658   1.131   4.712  13.404 -0.1670  0.3647  0.4201
  649TMC3    C4 9659   0.898   0.103  13.477  0.5602  0.2432  0.3547
  649TMC3    C5 9660   0.951   4.732  13.552  0.1885 -0.6583 -0.3571
  649TMC3    C6 9661   1.069   4.669  13.514  0.7596  0.1616  0.5443
  649TMC3     C 9662   0.897   0.227  13.269 -0.2742  0.1051  0.1627
  649TMC3     O 9663   0.805   0.294  13.314 -0.3887 -0.5695 -0.3357
  649TMC3     H 9664   1.146   0.119  13.252  0.6384 -0.5987  0.5556
  649TMC3    H1 9665   0.800   0.141  13.501  0.4728  0.1994  0.0716
  649TMC3    H2 9666   1.108   4.578  13.559 -0.1881 -0.0941  0.8544
  649TMC3    C7 9667   0.874   4.678  13.664 -0.0107  0.5951 -0.0492
  649TMC3    C8 9668   1.275   4.696  13.423 -0.4060  0.8257 -0.6466
  649TMC3    O1 9669   0.757   4.710  13.660  0.2639 -0.2037  0.1105
  649TMC3    O2 9670   1.321   4.696  13.537 -0.0019  0.4983  0.3217
  650TMC3    C1 9671   3.536   1.480  12.547  0.3836 -0.3811  0.2333
  650TMC3    C2 9672   3.561   1.599  12.606 -0.9724  0.6658 -0.5508
  650TMC3    C3 9673   3.558   1.708  12.520  0.9778 -0.0838 -0.0226
  650TMC3    C4 9674   3.528   1.460  12.410  0.0961  0.0911 -0.2537
  650TMC3    C5 9675   3.504   1.566  12.326  0.2161 -0.0049 -0.4979
  650TMC3    C6 9676   3.517   1.689  12.384  0.0068  0.6512 -0.8312
  650TMC3     C 9677   3.557   1.361  12.628 -0.4083  0.3719 -0.1451
  650TMC3     O 9678   3.551   1.386  12.751 -0.3766  0.0583 -0.3575
  650TMC3     H 9679   3.573   1.618  12.713  2.0510 -2.7603 -0.2842
  650TMC3    H1 9680   3.507   1.362  12.370  1.0178 -0.6259  1.0413
  650TMC3    H2 9681   3.488   1.778  12.330 -1.0211  0.1118 -1.1646
  650TMC3    C7 9682   3.389   1.545  12.244  0.0866 -0.4396 -0.0540
  650TMC3    C8 9683   3.482   1.815  12.579  0.0256  0.2590 -0.3282
  650TMC3    O1 9684   3.316   1.453  12.274  0.3551  0.4709  0.4495
  650TMC3    O2 9685   3.531   1.866  12.677  0.3364  0.0054 -0.1229
  651MPD2     C 9686   2.133   3.444  11.107 -0.2211 -0.4573  0.2511
  651MPD2    C1 9687   2.123   3.546  11.016 -0.8113  0.3465  0.5343
  651MPD2    C2 9688   2.200   3.662  11.033 -0.0811  0.6026  0.0039
  651MPD2    C3 9689   2.306   3.674  11.124 -0.0303  0.1507  0.1215
  651MPD2    C4 9690   2.328   3.559  11.201 -0.1005  0.0121 -0.2859
  651MPD2    C5 9691   2.244   3.454  11.195  0.5809 -0.3012  0.0557
  651MPD2     H 9692   2.181   3.744  10.963  0.6191  0.7210 -0.0489
  651MPD2    H1 9693   2.409   3.554  11.272  0.7440 -1.3797 -1.3415
  651MPD2    H2 9694   2.078   3.351  11.110 -1.8918  0.5729  1.3418
  651MPD2    H3 9695   2.258   3.372  11.265 -1.8243 -1.0587 -0.3520
  651MPD2     N 9696   2.380   3.791  11.125 -0.2734 -0.0708 -0.0337
  651MPD2    H5 9697   2.355   3.861  11.055 -1.7603  0.1818  0.7504
  651MPD2    N1 9698   2.033   3.546  10.914  0.9156  0.1909 -0.0908
  651MPD2    H7 9699   2.029   3.631  10.859  0.7950 -0.3342 -0.8797
  652TMC3    C1 9700   2.786   4.033  11.186  1.0515  0.0968  0.2393
  652TMC3    C2 9701   2.686   3.953  11.231  0.6504 -0.2348  1.2301
  652TMC3    C3 9702   2.574   3.925  11.161  0.2199  0.3693 -0.0333
  652TMC3    C4 9703   2.771   4.098  11.068  0.2483 -0.2180 -0.6487
  652TMC3    C5 9704   2.662   4.061  10.994  0.2608  0.1233  0.0168
  652TMC3    C6 9705   2.567   3.971  11.036  0.3674  0.4475  0.1958
  652TMC3     C 9706   2.920   4.010  11.243 -0.2129  0.2427  0.5396
  652TMC3     O 9707   2.929   3.916  11.320 -0.0464  0.0675 -0.0774
  652TMC3     H 9708   2.687   3.926  11.335 -1.2629 -2.0515  0.7725
  652TMC3    H1 9709   2.841   4.170  11.027 -0.4133  1.4733  1.2187
  652TMC3    H2 9710   2.467   3.972  10.997  1.1207 -1.1135 -1.7512
  652TMC3    C7 9711   2.646   4.118  10.863 -0.6553  0.1819 -0.0078
  652TMC3    C8 9712   2.487   3.817  11.211 -0.6214 -0.1133  0.2947
  652TMC3    O1 9713   2.567   4.054  10.798  0.7104  0.6910 -0.0912
  652TMC3    O2 9714   2.522   3.756  11.309  0.1878 -0.2567  0.2426
  653MPD2     C 9715   0.786   3.810   0.041  0.5378  0.1767  0.1296
  653MPD2    C1 9716   0.791   3.910  17.686 -0.2690 -0.4774  1.1570
  653MPD2    C2 9717   0.792   3.881  17.549 -0.2635 -0.7683  0.1607
  653MPD2    C3 9718   0.817   3.752  17.503  0.2090  0.5880 -0.2811
  653MPD2    C4 9719   0.814   3.654  17.602 -0.4321 -0.2291  0.1008
  653MPD2    C5 9720   0.800   3.681  17.734  0.3665 -0.5971  0.2045
  653MPD2     H 9721   0.776   3.959  17.475  1.6548 -0.8187 -0.2977
  653MPD2    H1 9722   0.814   3.546  17.591  1.5003 -0.2880  0.6700
  653MPD2    H2 9723   0.788   3.832   0.147  0.1239 -0.9728  0.3806
  653MPD2    H3 9724   0.791   3.609   0.080  0.9259  1.2737  1.9385
  653MPD2     N 9725   0.826   3.727  17.364 -0.6506 -0.3604  0.2612
  653MPD2    H5 9726   0.842   3.813  17.312 -1.4712  0.0453  0.6799
  653MPD2    N1 9727   0.792   4.041   0.006  0.5502  0.2065  0.7385
  653MPD2    H7 9728   0.780   4.055   0.105 -1.5748 -0.5715  0.5758
  654TMC3    C1 9729   0.816   3.613  17.157  0.5064  0.1810 -0.2622
  654TMC3    C2 9730   0.763   3.725  17.093  0.2113  0.2946  0.7052
  654TMC3    C3 9731   0.757   3.713  16.959 -0.5595 -0.1716  0.0908
  654TMC3    C4 9732   0.842   3.496  17.085 -0.3132 -0.4025 -0.9967
  654TMC3    C5 9733   0.826   3.495  16.950 -0.1038 -1.0147  0.1629
  654TMC3    C6 9734   0.785   3.600  16.880 -0.0238 -0.2206 -0.0503
  654TMC3     C 9735   0.825   3.605  17.299 -0.0543  0.1662  0.4805
  654TMC3     O 9736   0.827   3.494  17.344 -0.3898 -0.4451  0.2430
  654TMC3     H 9737   0.747   3.822  17.139 -0.5627  1.1644 -1.4417
  654TMC3    H1 9738   0.886   3.411  17.136 -1.9097 -0.4544  0.2813
  654TMC3    H2 9739   0.753   3.589  16.777 -0.6092  0.4798  0.0576
  654TMC3    C7 9740   0.832   3.369  16.872  0.4654 -0.4122 -0.2232
  654TMC3    C8 9741   0.734   3.831  16.885 -0.2907  0.5044 -0.4503
  654TMC3    O1 9742   0.850   3.386  16.754  0.3136  0.5190  0.3476
  654TMC3    O2 9743   0.666   3.918  16.943 -0.3095  0.3908 -0.3760
  655MPD2     C 9744   2.679   3.955  15.690  0.2202 -0.1243 -0.3831
  655MPD2    C1 9745   2.557   3.996  15.634 -0.3833  0.2729  0.2776
  655MPD2    C2 9746   2.520   3.947  15.516 -0.2238 -0.1040 -0.6863
  655MPD2    C3 9747   2.606   3.868  15.440  0.1672  0.2612  0.2208
  655MPD2    C4 9748   2.738   3.848  15.489 -0.1097  0.0327 -0.5958
  655MPD2    C5 9749   2.769   3.879  15.616  0.2543 -0.0410 -0.6292
  655MPD2     H 9750   2.425   3.980  15.476  0.3004  0.6985 -1.2702
  655MPD2    H1 9751   2.806   3.782  15.438 -0.0448  1.0162 -1.7679
  655MPD2    H2 9752   2.713   3.993  15.785 -2.0512 -0.1115  0.4233
  655MPD2    H3 9753   2.856   3.845  15.671  1.2053 -0.2137 -2.2356
  655MPD2     N 9754   2.574   3.815  15.315  0.3271 -0.3535  0.0841
  655MPD2    H5 9755   2.651   3.774  15.265 -0.4077 -0.9816 -0.5404
  655MPD2    N1 9756   2.476   4.099  15.698 -0.6094  0.2623  0.2071
  655MPD2    H7 9757   2.392   4.129  15.650 -0.2453  0.3615 -0.3631
  656TMC3    C1 9758   2.381   4.245  15.857  0.2167 -0.5407  0.0116
  656TMC3    C2 9759   2.314   4.233  15.979 -0.3433  0.4612 -0.1466
  656TMC3    C3 9760   2.211   4.317  16.001  0.9217  0.8740  0.4116
  656TMC3    C4 9761   2.344   4.336  15.760 -0.3829 -0.4290  0.2993
  656TMC3    C5 9762   2.239   4.418  15.793  0.0061  0.3785 -0.2452
  656TMC3    C6 9763   2.170   4.407  15.909  0.1335 -0.0772 -0.1642
  656TMC3     C 9764   2.492   4.154  15.819  0.2616  0.0089  0.1541
  656TMC3     O 9765   2.560   4.106  15.911 -0.6878  0.0625 -0.2542
  656TMC3     H 9766   2.350   4.158  16.048 -0.1511  0.6411 -0.0503
  656TMC3    H1 9767   2.402   4.334  15.668 -2.8629  2.1885 -1.3078
  656TMC3    H2 9768   2.073   4.454  15.926 -0.5707 -1.1936 -1.0833
  656TMC3    C7 9769   2.196   4.515  15.689 -0.1569  0.2007 -0.4128
  656TMC3    C8 9770   2.125   4.290  16.114  0.4268  0.6170 -0.2684
  656TMC3    O1 9771   2.246   4.503  15.578  0.1856  0.6024  0.1004
  656TMC3    O2 9772   2.132   4.187  16.179 -0.0501  0.0060  0.3773
  657TMC3    C1 9773   1.145   3.667  15.461 -0.1339  0.0680 -0.2361
  657TMC3    C2 9774   1.068   3.620  15.568  0.6432  0.3976  0.3493
  657TMC3    C3 9775   0.948   3.679  15.599  0.2385 -0.4945 -1.3104
  657TMC3    C4 9776   1.102   3.780  15.393 -0.5598  1.0674 -0.4606
  657TMC3    C5 9777   0.974   3.827  15.426  0.4968 -0.4035  0.1690
  657TMC3    C6 9778   0.900   3.782  15.533 -0.1803 -0.0308  0.2039
  657TMC3     C 9779   1.249   3.584  15.400  0.6960 -0.1320 -0.2287
  657TMC3     O 9780   1.272   3.619  15.286  0.1938  0.5970  0.2312
  657TMC3     H 9781   1.105   3.534  15.623  0.0382  1.4887  2.4946
  657TMC3    H1 9782   1.174   3.824  15.324  0.7169 -1.1839 -0.5710
  657TMC3    H2 9783   0.805   3.829  15.557 -0.6433 -0.0033 -1.7170
  657TMC3    C7 9784   0.929   3.949  15.369  0.3506 -0.1770 -0.1699
  657TMC3    C8 9785   0.911   3.670  15.737 -0.3915  0.5423  0.0215
  657TMC3    O1 9786   0.810   3.975  15.368 -0.5485 -0.2976 -0.2476
  657TMC3    O2 9787   0.790   3.655  15.749  0.2946  0.2472  0.5834
  658MPD2     C 9788   2.895   4.047  14.823  0.6637  0.3655 -0.8985
  658MPD2    C1 9789   2.812   3.948  14.766 -0.7804 -0.3541 -0.0256
  658MPD2    C2 9790   2.823   3.913  14.633 -0.3440 -0.4222 -0.9326
  658MPD2    C3 9791   2.906   3.994  14.554  0.0319  0.7876  1.4100
  658MPD2    C4 9792   2.987   4.090  14.609  0.6158  0.1604  0.5873
  658MPD2    C5 9793   2.985   4.115  14.741 -0.4621 -0.0539 -0.0384
  658MPD2     H 9794   2.770   3.829  14.590  1.4398 -1.9491 -0.1247
  658MPD2    H1 9795   3.064   4.144  14.555  0.2840 -0.5582 -0.5884
  658MPD2    H2 9796   2.891   4.065  14.930 -3.5734 -1.0375 -0.8071
  658MPD2    H3 9797   3.043   4.195  14.786 -0.2909  0.2813 -0.8574
  658MPD2     N 9798   2.896   3.980  14.411 -0.1468  0.0354  0.2673
  658MPD2    H5 9799   2.927   4.054  14.349  0.6953  1.7793  2.7872
  658MPD2    N1 9800   2.714   3.886  14.847 -0.3072 -0.2836 -0.0574
  658MPD2    H7 9801   2.714   3.904  14.947  1.6747  1.3714 -0.3401
  659TMC3    C1 9802   2.509   3.785  14.898  0.0076  0.3710 -0.2457
  659TMC3    C2 9803   2.540   3.803  15.032  0.3655  0.0079 -0.1988
  659TMC3    C3 9804   2.438   3.770  15.115  0.1690 -0.3760  0.1258
  659TMC3    C4 9805   2.396   3.734  14.850 -0.1283  0.5217  0.2844
  659TMC3    C5 9806   2.302   3.698  14.944  0.3622 -0.4933  0.5696
  659TMC3    C6 9807   2.316   3.715  15.071  0.7352 -0.1646 -0.7627
  659TMC3     C 9808   2.615   3.803  14.804  0.2487  0.1393  0.2013
  659TMC3     O 9809   2.587   3.766  14.695 -0.2305  0.1098  0.7231
  659TMC3     H 9810   2.627   3.857  15.066  0.3977 -0.7825  0.9924
  659TMC3    H1 9811   2.369   3.712  14.747 -0.0400 -0.7354  0.5315
  659TMC3    H2 9812   2.236   3.687  15.139  0.6236 -1.4113 -1.4007
  659TMC3    C7 9813   2.162   3.695  14.910  0.0784  0.4548 -0.4009
  659TMC3    C8 9814   2.447   3.811  15.255  0.5294 -0.5540 -0.1855
  659TMC3    O1 9815   2.065   3.643  14.960  0.8871  0.6206 -0.1479
  659TMC3    O2 9816   2.339   3.837  15.305 -0.4863 -0.0812  0.1015
  660MPD2     C 9817   0.594   2.941  12.665  0.2686  0.1878  0.0312
  660MPD2    C1 9818   0.474   2.998  12.648  0.8830 -0.1716  0.2034
  660MPD2    C2 9819   0.368   2.948  12.722  0.6169 -0.1786 -0.1153
  660MPD2    C3 9820   0.386   2.854  12.815  0.0854  0.5789  0.4943
  660MPD2    C4 9821   0.509   2.805  12.849 -0.0882 -0.7240  0.6203
  660MPD2    C5 9822   0.617   2.849  12.772 -0.0635 -0.6391  0.3722
  660MPD2     H 9823   0.265   2.969  12.698  1.2335  1.6404 -1.1178
  660MPD2    H1 9824   0.529   2.733  12.928  1.6963 -1.9236 -0.9381
  660MPD2    H2 9825   0.673   2.972  12.597  1.0921 -0.0625  0.8753
  660MPD2    H3 9826   0.719   2.814  12.788 -0.1670 -0.6950  0.9125
  660MPD2     N 9827   0.288   2.801  12.891 -0.1770 -0.2909 -0.6301
  660MPD2    H5 9828   0.322   2.752  12.973 -1.6644  2.3547  1.5797
  660MPD2    N1 9829   0.453   3.100  12.555 -0.7851  0.0220  0.6048
  660MPD2    H7 9830   0.534   3.138  12.507  0.2043 -2.0357  0.6474
  661TMC3    C1 9831   0.323   3.245  12.422  0.0263 -0.7669  0.5599
  661TMC3    C2 9832   0.402   3.207  12.318 -0.6807  0.2436 -0.3303
  661TMC3    C3 9833   0.336   3.185  12.200 -0.8186 -0.3186  0.2057
  661TMC3    C4 9834   0.194   3.271  12.398  0.6005 -0.6183  0.2544
  661TMC3    C5 9835   0.137   3.250  12.279 -0.1375 -0.2204 -0.1401
  661TMC3    C6 9836   0.205   3.206  12.176  0.1805 -0.5023 -0.6340
  661TMC3     C 9837   0.346   3.182  12.551  0.5299  0.1436 -0.1163
  661TMC3     O 9838   0.267   3.192  12.644 -0.0540  0.5035  0.0004
  661TMC3     H 9839   0.509   3.201  12.330 -0.6094  0.5270 -0.8622
  661TMC3    H1 9840   0.124   3.299  12.476 -0.4599 -0.5780 -0.6977
  661TMC3    H2 9841   0.157   3.205  12.079 -2.8737 -0.8718  0.8983
  661TMC3    C7 9842   4.721   3.235  12.276 -0.3826 -0.1873 -0.2092
  661TMC3    C8 9843   0.424   3.181  12.086 -0.4778  0.2150 -0.8526
  661TMC3    O1 9844   4.659   3.306  12.353 -0.5209  0.2266  0.3428
  661TMC3    O2 9845   0.539   3.214  12.112  0.5992 -0.1808  0.2247
  662MPD2     C 9846   0.987   2.258  17.514  0.0791 -0.5323  0.0906
  662MPD2    C1 9847   0.882   2.235  17.428 -0.0766  0.2329 -0.6154
  662MPD2    C2 9848   0.789   2.328  17.402  0.2149  0.2246 -0.1682
  662MPD2    C3 9849   0.796   2.455  17.462 -0.5733 -0.1855 -0.4638
  662MPD2    C4 9850   0.895   2.476  17.547  0.4199  0.7641  0.0587
  662MPD2    C5 9851   0.986   2.380  17.585 -0.1438 -0.2156 -0.6249
  662MPD2     H 9852   0.709   2.303  17.334  1.4178 -2.0264 -0.7553
  662MPD2    H1 9853   0.897   2.573  17.597 -1.3944  0.2189  1.1770
  662MPD2    H2 9854   1.060   2.180  17.533  2.5258  1.0999 -2.4929
  662MPD2    H3 9855   1.056   2.407  17.663 -0.2298 -0.8726 -0.3267
  662MPD2     N 9856   0.705   2.559  17.442 -0.0316 -0.8030 -0.5586
  662MPD2    H5 9857   0.709   2.635  17.510  0.0891  1.1964 -2.7915
  662MPD2    N1 9858   0.862   2.113  17.359 -0.0523 -0.2884 -0.5535
  662MPD2    H7 9859   0.793   2.127  17.286 -0.2539 -0.4324 -0.3876
  663TMC3    C1 9860   0.868   1.888  17.283  0.3876 -0.1995 -0.3871
  663TMC3    C2 9861   0.750   1.905  17.208 -0.2872  0.3802 -0.1913
  663TMC3    C3 9862   0.686   1.806  17.142  0.2110 -0.3951 -0.5383
  663TMC3    C4 9863   0.915   1.764  17.299 -0.6944  0.7325 -0.4478
  663TMC3    C5 9864   0.838   1.663  17.243 -0.0924 -0.6031  0.2012
  663TMC3    C6 9865   0.717   1.678  17.173  0.1453 -1.0129 -0.0509
  663TMC3     C 9866   0.927   1.990  17.366 -0.9243 -0.1727 -0.3786
  663TMC3     O 9867   1.014   1.951  17.441  0.1832 -0.4026 -0.5492
  663TMC3     H 9868   0.709   2.004  17.191  0.0877  0.3859 -1.0946
  663TMC3    H1 9869   1.004   1.743  17.356 -1.4798  0.3521  0.6416
  663TMC3    H2 9870   0.675   1.599  17.112  2.1074 -1.6034 -0.6667
  663TMC3    C7 9871   0.883   1.523  17.267 -0.8909 -0.3879 -0.2642
  663TMC3    C8 9872   0.546   1.844  17.144 -0.1020 -0.4197  0.1907
  663TMC3    O1 9873   1.006   1.507  17.280 -0.1606 -0.0711 -0.2851
  663TMC3    O2 9874   0.520   1.918  17.050 -0.0513 -0.1948  0.0399
  664MPD2     C 9875   3.137   0.199  17.558  0.3511  0.2651 -0.6431
  664MPD2    C1 9876   3.206   0.313  17.598 -0.2371  0.1958 -0.1372
  664MPD2    C2 9877   3.166   0.362  17.717 -0.0757 -0.3404 -0.7787
  664MPD2    C3 9878   3.071   0.304   0.064 -0.0602 -0.7198 -0.5606
  664MPD2    C4 9879   3.005   0.194   0.020  0.1654  0.8580  0.1682
  664MPD2    C5 9880   3.040   0.141  17.633 -0.9129  0.1854 -0.1266
  664MPD2     H 9881   3.210   0.452   0.023  3.1728 -1.0032 -2.8572
  664MPD2    H1 9882   2.911   0.162   0.063  1.2094 -2.5734 -0.1514
  664MPD2    H2 9883   3.155   0.167  17.456  0.8736  1.2157 -0.8475
  664MPD2    H3 9884   2.978   0.062  17.592 -1.2605 -0.0655  0.8705
  664MPD2     N 9885   3.043   0.365   0.189  0.2655  0.0651  0.4442
  664MPD2    H5 9886   3.088   0.454   0.204  1.5057 -0.2035 -1.6664
  664MPD2    N1 9887   3.299   0.389  17.524  0.1473 -0.1359  0.5111
  664MPD2    H7 9888   3.331   0.469  17.579 -1.1217  1.2337 -0.7555
  665TMC3    C1 9889   2.951   0.397   0.401  0.2261  0.1549  0.1566
  665TMC3    C2 9890   2.933   0.327   0.514 -0.0929  0.0704  0.1912
  665TMC3    C3 9891   2.941   0.398   0.630  0.1992 -0.2232  0.0416
  665TMC3    C4 9892   2.970   0.531   0.400  1.1032  0.4883 -0.5186
  665TMC3    C5 9893   2.983   0.593   0.518 -0.0512 -0.2246  0.2189
  665TMC3    C6 9894   2.969   0.528   0.637  0.0591 -0.7071  0.1379
  665TMC3     C 9895   2.956   0.307   0.285 -0.6937 -0.4341 -0.0394
  665TMC3     O 9896   2.874   0.215   0.278 -0.3707  0.8681  0.0621
  665TMC3     H 9897   2.910   0.221   0.510  0.4773 -0.0600  0.4864
  665TMC3    H1 9898   2.979   0.581   0.304  1.3089 -2.5538 -2.0890
  665TMC3    H2 9899   2.976   0.575   0.734  0.8618 -0.5907  0.0276
  665TMC3    C7 9900   3.019   0.733   0.516 -0.0865  0.1328 -0.1716
  665TMC3    C8 9901   2.950   0.331   0.756  0.2240 -0.2015 -0.5298
  665TMC3    O1 9902   3.000   0.799   0.417  0.0029  0.0934 -0.1296
  665TMC3    O2 9903   3.035   0.380   0.832 -0.2195  0.0131  0.0633
  666TMC3    C1 9904   2.791   0.749   9.657 -0.4802 -0.1197  0.1448
  666TMC3    C2 9905   2.865   0.670   9.736  0.1338 -0.0867 -0.6284
  666TMC3    C3 9906   2.982   0.723   9.785  0.2859  0.3731  1.0649
  666TMC3    C4 9907   2.829   0.871   9.616  0.8806  0.2271 -0.8533
  666TMC3    C5 9908   2.947   0.922   9.662  0.8425  0.7241  0.0402
  666TMC3    C6 9909   3.027   0.845   9.745 -0.1356  0.3537 -0.0552
  666TMC3     C 9910   2.649   0.736   9.672  0.4667  0.7759  0.0685
  666TMC3     O 9911   2.582   0.771   9.576 -0.4233 -0.3475 -0.1150
  666TMC3     H 9912   2.823   0.579   9.778 -0.3791  1.4013  2.0792
  666TMC3    H1 9913   2.752   0.929   9.567  0.0872 -0.7727 -0.7882
  666TMC3    H2 9914   3.114   0.892   9.790  1.9157 -2.2098 -1.3401
  666TMC3    C7 9915   2.905   1.048   9.721 -0.1034 -0.4759  0.1385
  666TMC3    C8 9916   3.036   0.659   9.905  0.6633  0.3451 -0.0508
  666TMC3    O1 9917   2.802   1.033   9.783 -0.5467  0.6748  0.3942
  666TMC3    O2 9918   2.984   0.551   9.933  0.5806  0.0147 -0.0702
  667MPD2     C 9919   0.029   0.500  14.804 -0.6005  0.3559 -0.3360
  667MPD2    C1 9920   4.637   0.566  14.806  0.1639  0.3373 -0.5776
  667MPD2    C2 9921   4.523   0.510  14.746  0.8168 -0.1805  0.1524
  667MPD2    C3 9922   4.537   0.388  14.679 -1.0311  0.1895 -0.0494
  667MPD2    C4 9923   4.661   0.319  14.673  0.1645 -0.4328 -0.6843
  667MPD2    C5 9924   0.035   0.379  14.737 -0.3415 -0.1302 -0.1303
  667MPD2     H 9925   4.429   0.563  14.748  1.1052  0.2133  3.1325
  667MPD2    H1 9926   4.672   0.223  14.623  0.8564 -0.8562  0.2895
  667MPD2    H2 9927   0.112   0.538  14.864 -0.0998 -0.3942 -0.5538
  667MPD2    H3 9928   0.133   0.333  14.727 -0.1254  0.4137 -0.4824
  667MPD2     N 9929   4.427   0.310  14.627  0.0301  0.4228  0.6304
  667MPD2    H5 9930   4.445   0.217  14.591 -0.2190  1.5923 -2.5131
  667MPD2    N1 9931   4.607   0.686  14.876 -0.0407 -0.4082 -0.2418
  667MPD2    H7 9932   4.511   0.718  14.885  0.4044  0.4344  1.6818
  668TMC3    C1 9933   4.635   0.881  15.002  0.5461 -0.1160 -0.0147
  668TMC3    C2 9934   4.709   0.994  15.013  0.2964  0.8023  0.3874
  668TMC3    C3 9935   4.703   1.062  15.131  0.4462 -0.1380  0.0845
  668TMC3    C4 9936   4.531   0.851  15.092 -0.3745  0.3377 -0.5874
  668TMC3    C5 9937   4.520   0.926  15.205  0.0183  0.1738  0.0765
  668TMC3    C6 9938   4.609   1.038  15.226 -1.0513  0.6607  0.1116
  668TMC3     C 9939   4.701   0.765  14.937  0.3419 -0.5802 -0.2299
  668TMC3     O 9940   0.091   0.765  14.934  0.1880 -0.2513 -0.2698
  668TMC3     H 9941   0.056   1.022  14.947 -1.1750  2.4124 -0.7286
  668TMC3    H1 9942   4.468   0.764  15.076 -0.9407  0.5310  0.5708
  668TMC3    H2 9943   4.591   1.097  15.316 -0.5060  3.1919 -1.4245
  668TMC3    C7 9944   4.418   0.903  15.314 -0.3732 -0.7088  0.0105
  668TMC3    C8 9945   0.034   1.191  15.140 -0.9904  0.3269  0.6885
  668TMC3    O1 9946   4.429   0.969  15.414 -0.1961  0.3732  0.4357
  668TMC3    O2 9947   0.037   1.240  15.250  0.3551 -0.1910 -0.1099
  669TMC3    C1 9948   2.482   0.741  14.997  0.1451 -0.7193  0.4310
  669TMC3    C2 9949   2.361   0.762  14.941 -0.1212  0.1759  0.0987
  669TMC3    C3 9950   2.357   0.850  14.835 -0.7361  0.6257 -0.4353
  669TMC3    C4 9951   2.594   0.823  14.974  0.0295 -0.4641 -0.2537
  669TMC3    C5 9952   2.581   0.914  14.877 -0.1696  0.1767 -0.4547
  669TMC3    C6 9953   2.465   0.925  14.800  0.3141  1.1841  0.0747
  669TMC3     C 9954   2.486   0.634  15.091 -0.6576  0.0563  0.1531
  669TMC3     O 9955   2.381   0.601  15.149 -0.0484  0.3429 -0.0460
  669TMC3     H 9956   2.281   0.695  14.970  1.8237 -1.6306  1.3702
  669TMC3    H1 9957   2.680   0.821  15.041 -2.0145  1.8169  2.4261
  669TMC3    H2 9958   2.467   0.991  14.715  0.1919  0.2615 -0.6513
  669TMC3    C7 9959   2.699   0.961  14.806 -0.6377  0.1717  0.0382
  669TMC3    C8 9960   2.278   0.803  14.727 -0.4053  0.0543 -0.5580
  669TMC3    O1 9961   2.684   1.055  14.730 -0.7640 -0.0727  0.0498
  669TMC3    O2 9962   2.191   0.724  14.754 -0.0621 -0.0497 -0.8215
  670MPD2     C 9963   1.197   2.870  13.318  0.0894  0.6396  0.1772
  670MPD2    C1 9964   1.269   2.977  13.362 -0.4111  0.4066  0.0087
  670MPD2    C2 9965   1.212   3.080  13.424  0.2113  0.2246  0.6996
  670MPD2    C3 9966   1.070   3.082  13.430  0.3616  0.7178 -0.0229
  670MPD2    C4 9967   1.000   2.973  13.389 -0.2902  0.0959  0.6296
  670MPD2    C5 9968   1.063   2.867  13.333  0.5950 -0.1310 -0.2527
  670MPD2     H 9969   1.276   3.157  13.466 -1.2985  1.5574  0.5549
  670MPD2    H1 9970   0.893   2.967  13.402 -0.5868 -1.0799 -2.4219
  670MPD2    H2 9971   1.256   2.796  13.264  0.5813  1.6413 -0.6585
  670MPD2    H3 9972   1.001   2.782  13.309  0.8298 -0.7660  1.4153
  670MPD2     N 9973   1.011   3.174  13.517  0.7394  1.0317 -0.4015
  670MPD2    H5 9974   1.078   3.230  13.568  1.8434  1.2086 -2.0587
  670MPD2    N1 9975   1.411   2.976  13.358 -0.0387 -0.1870  0.4850
  670MPD2    H7 9976   1.462   3.057  13.392  0.2958  0.4453 -1.5186
  671TMC3    C1 9977   0.846   3.252  13.655  0.0313 -1.2021 -0.0885
  671TMC3    C2 9978   0.939   3.258  13.762 -0.7365 -0.1059  0.0125
  671TMC3    C3 9979   0.897   3.217  13.884  0.3952 -0.7254  0.0297
  671TMC3    C4 9980   0.715   3.212  13.672 -0.2814 -0.1945 -0.4812
  671TMC3    C5 9981   0.682   3.163  13.791  0.4055 -0.2257 -0.1710
  671TMC3    C6 9982   0.770   3.159  13.902 -0.2380 -0.4314  0.7571
  671TMC3     C 9983   0.883   3.208  13.523 -0.2422 -0.2889  0.3832
  671TMC3     O 9984   0.799   3.194  13.433  0.2283 -0.1732  0.8794
  671TMC3     H 9985   1.042   3.291  13.755 -1.0989  1.4994  1.9473
  671TMC3    H1 9986   0.647   3.191  13.591  0.4013  0.4669 -1.2222
  671TMC3    H2 9987   0.740   3.117  13.997 -1.2406 -3.1058 -0.7282
  671TMC3    C7 9988   0.586   3.055  13.793 -0.4071 -0.2628 -0.0890
  671TMC3    C8 9989   1.011   3.157  13.954  0.3614 -0.1709  0.2004
  671TMC3    O1 9990   0.566   3.003  13.685  0.2182 -0.2297  0.0480
  671TMC3    O2 9991   1.104   3.110  13.890  0.4379 -0.2070  0.1062
  672MPD2     C 9992   0.658   3.337   0.997  0.2220  0.3165  0.0142
  672MPD2    C1 9993   0.791   3.292   1.001 -0.7673 -0.5401  0.5813
  672MPD2    C2 9994   0.879   3.365   1.074 -0.2101 -0.4724  0.5816
  672MPD2    C3 9995   0.845   3.476   1.147 -0.2101 -0.4054 -0.3525
  672MPD2    C4 9996   0.717   3.518   1.142 -1.0238  0.4605 -0.0415
  672MPD2    C5 9997   0.625   3.445   1.072 -0.1835  0.3509 -0.1519
  672MPD2     H 9998   0.984   3.340   1.067  0.1698  1.4464 -0.3603
  672MPD2    H1 9999   0.687   3.600   1.208 -0.9046  0.5881 -0.1466
  672MPD2    H210000   0.575   3.302   0.937  0.0001 -1.0901  1.1391
  672MPD2    H310001   0.522   3.477   1.080 -0.4558 -0.2382 -1.3051
  672MPD2     N10002   0.936   3.542   1.232  0.3431 -0.0634 -0.3256
  672MPD2    H510003   0.891   3.604   1.299  0.7007 -0.5024  0.3226
  672MPD2    N110004   0.825   3.177   0.932 -0.1967 -0.2926  0.5862
  672MPD2    H710005   0.925   3.160   0.939 -0.3271 -0.4644  1.9429
  673TMC3    C110006   0.801   3.029   0.763 -0.1582  0.3426  0.0234
  673TMC3    C210007   0.929   2.978   0.770 -0.5867  0.3225 -0.2284
  673TMC3    C310008   0.982   2.935   0.650 -0.5350  0.6179  0.5882
  673TMC3    C410009   0.724   3.037   0.649  0.3603  0.1293  0.0602
  673TMC3    C510010   0.786   2.998   0.532  0.0667  0.6092  0.3086
  673TMC3    C610011   0.909   2.951   0.538 -0.1008  0.2006  0.1644
  673TMC3     C10012   0.742   3.087   0.875  0.1327  0.3492  0.1241
  673TMC3     O10013   0.621   3.081   0.881  0.1511 -0.0225 -0.0481
  673TMC3     H10014   0.975   2.966   0.867  0.8728  0.2121 -0.9457
  673TMC3    H110015   0.625   3.080   0.645 -1.2116 -3.4168  0.7966
  673TMC3    H210016   0.956   2.941   0.441 -1.9294  2.9915 -1.0052
  673TMC3    C710017   0.763   3.081   0.415  0.1307  0.5972 -0.0968
  673TMC3    C810018   1.120   2.900   0.637  0.7851 -0.1720 -0.4189
  673TMC3    O110019   0.789   3.040   0.304 -0.2103  0.2114 -0.0614
  673TMC3    O210020   1.149   2.855   0.527 -0.0709 -0.2317 -0.0218
  674MPD2     C10021   0.487   3.573  17.486  0.7369 -1.1702 -0.5227
  674MPD2    C110022   0.473   3.442  17.518  0.1129  0.3393  0.2145
  674MPD2    C210023   0.360   3.400  17.590 -0.8049 -0.6306  0.3058
  674MPD2    C310024   0.263   3.493  17.620 -0.2454  0.0343  0.1778
  674MPD2    C410025   0.274   3.624  17.571  0.4093 -0.9596  0.6342
  674MPD2    C510026   0.382   3.661  17.503  0.1171  0.5306 -0.1126
  674MPD2     H10027   0.355   3.298  17.626 -0.6078 -0.3501  1.1315
  674MPD2    H110028   0.202   3.701  17.596 -0.6597 -1.9320  0.5244
  674MPD2    H210029   0.580   3.617  17.451 -0.3830  1.0056 -0.8254
  674MPD2    H310030   0.395   3.763  17.469  0.1362 -0.0895 -1.9325
  674MPD2     N10031   0.151   3.455  17.698  0.2071 -0.3211 -0.2572
  674MPD2    H510032   0.164   3.367   0.012  0.0228 -0.7019 -0.9031
  674MPD2    N110033   0.585   3.358  17.495  0.5094  0.0048  0.2604
  674MPD2    H710034   0.672   3.399  17.460 -0.2716  0.3767 -1.2502
  675TMC3    C110035   0.732   3.166  17.518 -1.1129  1.0362  0.1599
  675TMC3    C210036   0.714   3.036  17.546  0.6169  0.4694  0.3481
  675TMC3    C310037   0.777   2.988  17.659  0.6173 -0.5104  0.3981
  675TMC3    C410038   0.821   3.237  17.590  0.5337 -0.1923  1.0305
  675TMC3    C510039   0.878   3.185  17.705 -0.2420 -0.2671 -0.1947
  675TMC3    C610040   0.852   3.059   0.011  0.6542  0.0336  0.3144
  675TMC3     C10041   0.595   3.223  17.515 -0.2213 -0.3102 -0.2142
  675TMC3     O10042   0.502   3.144  17.522 -0.5734 -0.6463 -0.7433
  675TMC3     H10043   0.658   2.971  17.480  0.4513  0.6798  0.2811
  675TMC3    H110044   0.852   3.336  17.561  1.3365 -0.4953  0.8246
  675TMC3    H210045   0.913   3.015   0.090  2.7836  0.7558 -0.9308
  675TMC3    C710046   0.992   3.251   0.034  0.2210  0.2734  0.1509
  675TMC3    C810047   0.760   2.845  17.695  0.0726 -0.6853 -0.5913
  675TMC3    O110048   1.052   3.341  17.709  0.3482 -0.7845  0.1353
  675TMC3    O210049   0.758   2.759  17.611  0.1009 -0.0787 -0.0167
  676MPD2     C10050   3.631   1.581  10.963  0.7164  0.1266  0.0475
  676MPD2    C110051   3.577   1.516  11.073 -0.3640  0.0357 -0.3379
  676MPD2    C210052   3.639   1.395  11.112 -0.3189 -0.1427  1.0573
  676MPD2    C310053   3.757   1.350  11.053 -0.5355  0.4570 -0.0932
  676MPD2    C410054   3.818   1.431  10.955  0.0535  0.0694 -0.4809
  676MPD2    C510055   3.750   1.538  10.904 -0.3854 -0.5475 -0.4299
  676MPD2     H10056   3.598   1.344  11.198  0.1027 -0.2539  1.1885
  676MPD2    H110057   3.906   1.390  10.907 -0.0074 -0.5518 -0.0620
  676MPD2    H210058   3.577   1.660  10.912 -1.3012 -1.7008 -0.6120
  676MPD2    H310059   3.786   1.586  10.814  2.3842  0.6964  1.3300
  676MPD2     N10060   3.818   1.224  11.072 -0.1156  0.2228  0.2665
  676MPD2    H510061   3.891   1.203  11.005  1.1026  0.8148  1.4124
  676MPD2    N110062   3.459   1.555  11.134  0.7312 -0.1945 -0.2573
  676MPD2    H710063   3.415   1.491  11.199  1.4853  0.2629  0.7107
  677TMC3    C110064   3.285   1.683  11.204 -0.5938  0.0902 -0.6275
  677TMC3    C210065   3.190   1.581  11.200 -0.3114  0.1504  0.3975
  677TMC3    C310066   3.094   1.598  11.291 -0.2956 -0.0660  0.1240
  677TMC3    C410067   3.279   1.794  11.276  0.1719  0.0619  0.4476
  677TMC3    C510068   3.174   1.814  11.360 -0.7672 -0.9029 -0.2918
  677TMC3    C610069   3.073   1.715  11.363  0.4191 -0.1733  0.4001
  677TMC3     C10070   3.404   1.673  11.123 -0.0589  0.3208 -0.1260
  677TMC3     O10071   3.451   1.777  11.082 -0.0554  0.2450  0.4251
  677TMC3     H10072   3.207   1.484  11.154  0.0933  0.2849  0.2680
  677TMC3    H110073   3.364   1.862  11.272 -0.0666  0.6440  4.9318
  677TMC3    H210074   2.980   1.720  11.417 -0.3234 -2.1662 -0.6549
  677TMC3    C710075   3.188   1.886  11.486  0.6069 -0.3609 -0.2193
  677TMC3    C810076   3.011   1.481  11.312 -1.4437  0.9451  0.7110
  677TMC3    O110077   3.094   1.880  11.564  0.0778  0.0530  0.2746
  677TMC3    O210078   2.968   1.436  11.207  0.0823 -0.0619 -0.4500
  678MPD2     C10079   4.596   1.385   1.417  0.2760 -0.7843 -0.9481
  678MPD2    C110080   4.581   1.332   1.288 -0.2367  0.4598 -0.5496
  678MPD2    C210081   4.454   1.304   1.244 -0.6670  0.0316  0.4975
  678MPD2    C310082   4.346   1.349   1.319 -0.1143 -0.6222 -0.1326
  678MPD2    C410083   4.364   1.396   1.448  0.4385 -0.6958 -0.6764
  678MPD2    C510084   4.484   1.427   1.487  0.0773 -0.7066  0.4797
  678MPD2     H10085   4.445   1.258   1.147 -4.2372 -0.3590  1.0029
  678MPD2    H110086   4.283   1.425   1.513  1.3763  0.7064 -0.1305
  678MPD2    H210087   4.690   1.423   1.454 -0.4601 -0.8125  0.9532
  678MPD2    H310088   4.504   1.478   1.581  2.6432 -0.5288 -0.1713
  678MPD2     N10089   4.213   1.333   1.259 -0.2644 -0.8160 -0.8006
  678MPD2    H510090   4.208   1.279   1.173 -1.0403  2.2734 -2.7070
  678MPD2    N110091   4.691   1.315   1.202 -0.8128 -0.1074 -0.9683
  678MPD2    H710092   4.676   1.264   1.116  1.7430 -1.7192 -0.4399
  679TMC3    C110093   0.223   1.232   0.898  1.3117  0.0636  0.8997
  679TMC3    C210094   0.160   1.238   1.024 -0.3663 -0.3250  0.2290
  679TMC3    C310095   0.171   1.359   1.100  0.4123  0.4033 -0.5803
  679TMC3    C410096   0.309   1.334   0.862 -0.1732  0.1389  0.4400
  679TMC3    C510097   0.312   1.453   0.934 -0.2931  0.6126  0.4007
  679TMC3    C610098   0.236   1.473   1.049  0.3081  0.3986  0.1528
  679TMC3     C10099   0.242   1.106   0.842 -0.2517  0.3890 -0.7907
  679TMC3     O10100   0.350   1.078   0.795  0.1413 -0.3143 -0.1640
  679TMC3     H10101   0.116   1.152   1.073 -1.8044  1.3216  1.8701
  679TMC3    H110102   0.376   1.317   0.779 -2.6316 -4.6078 -0.5644
  679TMC3    H210103   0.236   1.565   1.106  0.9113  0.5059 -0.0241
  679TMC3    C710104   0.346   1.574   0.856 -0.9688  0.1477  0.0974
  679TMC3    C810105   0.079   1.384   1.215 -0.4839 -0.3753 -0.0027
  679TMC3    O110106   0.265   1.661   0.869  0.5343 -0.3298  0.0274
  679TMC3    O210107   0.113   1.465   1.302 -0.2316  0.7068  0.0725
  680MPD2     C10108   0.205   0.488  13.999  0.2022 -0.2844 -0.1936
  680MPD2    C110109   0.320   0.429  14.055 -0.3724  0.3617  0.7267
  680MPD2    C210110   0.427   0.521  14.077 -0.3888 -0.0178 -0.3882
  680MPD2    C310111   0.426   0.651  14.039  0.2327  0.5113  0.2218
  680MPD2    C410112   0.313   0.693  13.971 -0.0397 -0.6383  0.1417
  680MPD2    C510113   0.200   0.621  13.958 -1.0867 -0.1857 -0.3530
  680MPD2     H10114   0.512   0.480  14.131 -0.7590  0.0177  0.2329
  680MPD2    H110115   0.293   0.799  13.961 -1.0803 -0.6631  1.9009
  680MPD2    H210116   0.116   0.427  13.987 -2.1650  2.9074  0.9836
  680MPD2    H310117   0.111   0.665  13.916 -1.3739 -0.3532  0.0819
  680MPD2     N10118   0.525   0.745  14.082  0.5966  0.4043 -0.5777
  680MPD2    H510119   0.502   0.840  14.055  0.7587 -0.1878 -2.7941
  680MPD2    N110120   0.324   0.295  14.095 -0.2760 -0.6453  0.2647
  680MPD2    H710121   0.413   0.250  14.111 -0.5188 -1.5155 -0.8903
  681TMC3    C110122   0.256   0.089  14.186  0.1436  0.3786  0.1059
  681TMC3    C210123   0.174   0.043  14.287 -0.0851  0.0034  0.0013
  681TMC3    C310124   0.225   4.694  14.382 -0.1334 -0.2334 -0.1747
  681TMC3    C410125   0.378   0.031  14.164 -0.1000  0.9408 -0.0630
  681TMC3    C510126   0.426   4.674  14.253 -0.0227  0.0246 -0.1013
  681TMC3    C610127   0.351   4.634  14.366  0.0800  0.8657  0.7101
  681TMC3     C10128   0.214   0.214  14.129 -0.3050 -0.2003  0.6747
  681TMC3     O10129   0.095   0.244  14.136 -0.7971  0.6187  0.1258
  681TMC3     H10130   0.069   0.067  14.291 -0.2462 -0.6677 -0.2181
  681TMC3    H110131   0.449   0.066  14.090 -2.2420  1.7550 -1.7153
  681TMC3    H210132   0.380   4.544  14.419 -2.3291 -0.5596 -0.3750
  681TMC3    C710133   0.564   4.638  14.252  0.9074  0.3805 -0.6693
  681TMC3    C810134   0.196   4.724  14.515  0.7047  0.2675 -0.4704
  681TMC3    O110135   0.617   4.595  14.354 -0.0519  0.4858 -0.5694
  681TMC3    O210136   0.082   0.037  14.533  0.3128  0.0403 -0.2377
  682MPD2     C10137   2.486   1.655  10.871  0.6712 -0.5417 -0.4374
  682MPD2    C110138   2.466   1.518  10.848  0.5529  0.3316  0.0650
  682MPD2    C210139   2.392   1.445  10.933  0.1405  0.0206 -0.1871
  682MPD2    C310140   2.345   1.509  11.055 -0.0901 -1.0788 -0.2927
  682MPD2    C410141   2.371   1.640  11.074  0.4235  0.6439 -0.5652
  682MPD2    C510142   2.432   1.719  10.980 -0.3928  0.0635 -0.6004
  682MPD2     H10143   2.370   1.341  10.912 -2.3436  0.2984  0.9768
  682MPD2    H110144   2.346   1.688  11.168  1.2431 -0.9660  0.4622
  682MPD2    H210145   2.535   1.716  10.796  0.8407  0.2700  0.3327
  682MPD2    H310146   2.429   1.825  10.999 -0.4022 -0.3618  1.7105
  682MPD2     N10147   2.289   1.439  11.170  0.4938 -0.3447 -0.4062
  682MPD2    H510148   2.259   1.498  11.247  2.8091 -1.3852  1.2624
  682MPD2    N110149   2.514   1.457  10.731  0.1171 -0.1738 -0.3002
  682MPD2    H710150   2.490   1.358  10.730 -1.0261  0.1327 -2.4127
  683TMC3    C110151   2.191   1.301  11.529  0.4396  0.9461 -1.0094
  683TMC3    C210152   2.135   1.175  11.533 -0.5882 -0.3823 -0.0381
  683TMC3    C310153   2.124   1.106  11.420  0.2299 -0.4778 -0.6533
  683TMC3    C410154   2.239   1.349  11.407 -0.5122  0.4519  0.2850
  683TMC3    C510155   2.244   1.264  11.301  0.2774  0.2694  0.3499
  683TMC3    C610156   2.183   1.142  11.301  0.7197 -0.4484 -0.3209
  683TMC3     C10157   2.238   1.380  11.646 -0.1514 -0.3272 -0.0101
  683TMC3     O10158   2.338   1.449  11.634  0.0584 -0.1812 -0.0287
  683TMC3     H10159   2.115   1.125  11.627 -0.8991 -0.4758 -0.1524
  683TMC3    H110160   2.289   1.445  11.407 -0.1790  0.2798 -0.4146
  683TMC3    H210161   2.180   1.077  11.214  3.8893  1.2524 -1.7058
  683TMC3    C710162   2.265   1.309  11.170  0.9051  0.4251  0.4705
  683TMC3    C810163   2.044   0.984  11.412  0.2510  0.3517  0.1456
  683TMC3    O110164   2.268   1.225  11.078  0.1517 -0.2213  0.4766
  683TMC3    O210165   2.040   0.917  11.309  0.4492  0.6337  0.6025
  684MPD2     C10166   0.776   0.867  16.493 -0.7530 -0.0481  0.0202
  684MPD2    C110167   0.715   0.939  16.395 -0.2484  0.0836  0.3671
  684MPD2    C210168   0.687   1.067  16.413  0.3397  1.1523  0.0933
  684MPD2    C310169   0.738   1.141  16.512  0.2317 -0.7836 -0.0471
  684MPD2    C410170   0.809   1.077  16.608  0.1097  0.3004 -0.5729
  684MPD2    C510171   0.821   0.937  16.605  0.8128  0.1071 -0.3248
  684MPD2     H10172   0.625   1.113  16.337 -0.4109 -2.0348 -1.2191
  684MPD2    H110173   0.857   1.148  16.675  1.7242 -1.3496  0.0036
  684MPD2    H210174   0.790   0.760  16.493  4.5435  0.6527  1.8619
  684MPD2    H310175   0.865   0.891  16.693  1.1164 -0.1973 -0.6427
  684MPD2     N10176   0.742   1.284  16.491  0.1593  0.3125 -0.0454
  684MPD2    H510177   0.802   1.337  16.553 -0.4850 -0.5007  1.2663
  684MPD2    N110178   0.683   0.888  16.265  0.4608 -0.2271 -0.6157
  684MPD2    H710179   0.634   0.954  16.206  1.3347  0.2311 -0.8306
  685TMC3    C110180   0.705   0.772  16.060  0.5338 -0.3425  0.2338
  685TMC3    C210181   0.628   0.867  15.997 -0.3439  0.0160  0.0089
  685TMC3    C310182   0.647   0.882  15.859  0.7781 -0.3505  0.8088
  685TMC3    C410183   0.790   0.697  15.988 -0.0502 -0.5815 -0.2802
  685TMC3    C510184   0.834   0.736  15.863 -0.8957  0.0212 -0.5342
  685TMC3    C610185   0.757   0.826  15.792 -0.3634  0.0316 -0.1351
  685TMC3     C10186   0.727   0.775  16.208  0.2803 -0.0846 -0.6804
  685TMC3     O10187   0.806   0.689  16.257 -0.0063  0.6416 -0.1500
  685TMC3     H10188   0.545   0.904  16.058 -3.2274  0.1283 -3.9877
  685TMC3    H110189   0.847   0.620  16.039  2.3833  0.6068 -1.2025
  685TMC3    H210190   0.777   0.854  15.689  0.8875  1.5722  0.5307
  685TMC3    C710191   0.973   0.750  15.845 -0.2479  0.5384  0.4895
  685TMC3    C810192   0.552   0.961  15.783  0.4581 -0.1336  0.0839
  685TMC3    O110193   1.011   0.809  15.744  0.1059 -0.2675 -0.0368
  685TMC3    O210194   0.527   0.937  15.666  0.6046 -0.2992  0.5827
  686MPD2     C10195   2.438   1.195  15.733  0.4276  0.3867 -0.5345
  686MPD2    C110196   2.445   1.110  15.841  0.1907 -0.0256  0.3928
  686MPD2    C210197   2.556   1.024  15.850  0.2164 -0.1459  0.0895
  686MPD2    C310198   2.651   1.016  15.749 -0.0286  0.1373 -0.3061
  686MPD2    C410199   2.629   1.087  15.634 -0.2801  0.2242  0.9170
  686MPD2    C510200   2.530   1.180  15.634 -0.7870  0.0328  0.1678
  686MPD2     H10201   2.576   0.965  15.939  0.2309  1.8681  1.4325
  686MPD2    H110202   2.688   1.065  15.546 -1.8491  1.0608 -0.3444
  686MPD2    H210203   2.359   1.266  15.713 -1.5763 -1.6905  0.0193
  686MPD2    H310204   2.533   1.236  15.542 -2.6831 -0.6121 -0.2904
  686MPD2     N10205   2.773   0.940  15.761  0.3609  0.3792  0.0538
  686MPD2    H510206   2.839   0.950  15.684 -0.6256  0.2535 -0.8026
  686MPD2    N110207   2.338   1.106  15.934  0.1762  0.2829 -0.6336
  686MPD2    H710208   2.256   1.165  15.923  1.2304  1.7287 -0.6845
  687TMC3    C110209   2.712   0.777  15.934 -0.0390 -0.6317  0.8089
  687TMC3    C210210   2.592   0.723  15.883  0.0536  0.5127  0.0796
  687TMC3    C310211   2.530   0.634  15.960 -0.0567 -0.4787  0.9513
  687TMC3    C410212   2.759   0.755  16.051 -0.7917  0.7170 -0.6865
  687TMC3    C510213   2.686   0.673  16.135  0.8073 -0.1536 -0.3314
  687TMC3    C610214   2.577   0.610  16.083  0.8085 -0.6922  0.4902
  687TMC3     C10215   2.813   0.837  15.848 -0.1072 -0.1831  0.5784
  687TMC3     O10216   2.917   0.768  15.851 -0.0692 -0.0946  0.3284
  687TMC3     H10217   2.570   0.725  15.777  2.8530  0.5378 -0.4927
  687TMC3    H110218   2.851   0.801  16.087 -2.3782  2.7180  0.7885
  687TMC3    H210219   2.521   0.540  16.145 -1.6328  1.4431  0.6957
  687TMC3    C710220   2.682   0.712  16.276  0.4063  0.0706  0.9115
  687TMC3    C810221   2.386   0.649  15.965  0.3946 -1.2797  0.6039
  687TMC3    O110222   2.724   0.823  16.307 -0.0499  0.1981 -0.5840
  687TMC3    O210223   2.328   0.575  16.047 -0.2943 -0.2030  0.4394
  688MPD2     C10224   1.306   4.691  17.547 -0.4129 -0.3529  0.4494
  688MPD2    C110225   1.261   4.562  17.511  0.2657 -0.0031 -0.5304
  688MPD2    C210226   1.341   4.499  17.417  1.1993  0.2027  0.1894
  688MPD2    C310227   1.446   4.564  17.351 -0.4299 -0.0453  0.4105
  688MPD2    C410228   1.473   4.698  17.374  0.0996 -0.6559 -0.1152
  688MPD2    C510229   1.405   0.024  17.476 -0.2171  0.1273 -0.0514
  688MPD2     H10230   1.319   4.397  17.388  1.4855  0.0367  0.5616
  688MPD2    H110231   1.550   0.027  17.331  0.7467 -0.7406  0.9215
  688MPD2    H210232   1.255   0.010  17.626  0.8349  2.0513 -0.3662
  688MPD2    H310233   1.425   0.127  17.504  3.5208 -0.1082 -1.7982
  688MPD2     N10234   1.529   4.500  17.259 -0.5321 -0.0854 -0.3521
  688MPD2    H510235   1.598   4.553  17.207  2.4350 -1.1230  2.4995
  688MPD2    N110236   1.158   4.491  17.586 -0.2864 -0.1884  0.1392
  688MPD2    H710237   1.140   4.396  17.556  0.2453 -0.7992  1.7592
  689TMC3    C110238   0.995   4.459   0.013  0.0840 -0.0433 -0.3791
  689TMC3    C210239   0.965   4.482   0.145 -0.0885  0.2022 -0.2779
  689TMC3    C310240   0.877   4.395   0.206  0.2326 -0.2363 -0.0521
  689TMC3    C410241   0.950   4.354  17.677  0.5006  0.1782 -0.2285
  689TMC3    C510242   0.870   4.264   0.011 -0.4050 -0.0014 -0.7461
  689TMC3    C610243   0.825   4.284   0.142 -0.5332 -0.1548  0.5686
  689TMC3     C10244   1.078   4.555  17.688 -0.3223 -0.0315 -0.5439
  689TMC3     O10245   1.088   4.661   0.016 -0.1696  0.0987 -0.4343
  689TMC3     H10246   1.010   4.561   0.203 -0.0372 -0.8464  1.1017
  689TMC3    H110247   0.969   4.339  17.571 -2.0171  0.3353 -0.7137
  689TMC3    H210248   0.755   4.224   0.198 -1.6142  0.0742 -0.5309
  689TMC3    C710249   0.843   4.146  17.668  0.1509  0.4067 -0.0611
  689TMC3    C810250   0.833   4.433   0.333 -0.1303  0.2295 -0.1713
  689TMC3    O110251   0.863   4.152  17.544 -0.4071 -0.1313 -0.1929
  689TMC3    O210252   0.908   4.507   0.395  0.0532 -0.1635  0.1900
  690MPD2     C10253   3.955   1.735  15.574  0.0787 -0.2307  0.0904
  690MPD2    C110254   3.864   1.732  15.468 -0.1418 -0.2634 -0.4042
  690MPD2    C210255   3.912   1.765  15.341  0.4568  0.5387  0.4530
  690MPD2    C310256   4.047   1.783  15.323 -0.4565  0.4764  0.3440
  690MPD2    C410257   4.132   1.771  15.427  0.1489 -1.2778  0.2012
  690MPD2    C510258   4.081   1.757  15.553  0.1531 -0.0816  0.3668
  690MPD2     H10259   3.850   1.772  15.253  1.4373  0.7552 -0.2287
  690MPD2    H110260   4.236   1.796  15.408  0.2277  1.2321  4.0335
  690MPD2    H210261   3.924   1.718  15.676  2.4998 -0.6493  0.7574
  690MPD2    H310262   4.142   1.765  15.643 -0.3747  1.7084  0.5674
  690MPD2     N10263   4.086   1.814  15.188 -0.1528  0.1509 -0.2593
  690MPD2    H510264   4.015   1.823  15.117 -0.1243  0.1242 -0.2914
  690MPD2    N110265   3.736   1.687  15.483 -0.0236  0.8427  0.9100
  690MPD2    H710266   3.680   1.667  15.401 -1.8908  1.1372  2.1283
  691TMC3    C110267   3.558   1.590  15.592 -0.6328  0.4961  0.6527
  691TMC3    C210268   3.461   1.600  15.692  0.5734 -0.1609  0.1284
  691TMC3    C310269   3.369   1.496  15.717 -0.1345 -0.2404  0.1256
  691TMC3    C410270   3.557   1.480  15.514  0.1817 -0.0457  0.9653
  691TMC3    C510271   3.460   1.383  15.533 -0.4028 -1.0526  0.3145
  691TMC3    C610272   3.373   1.380  15.643 -0.4580  0.3683  0.0102
  691TMC3     C10273   3.680   1.660  15.605  0.0966  0.7855 -0.1179
  691TMC3     O10274   3.700   1.709  15.719  0.0469  0.3063  0.0824
  691TMC3     H10275   3.469   1.679  15.765 -2.5492  1.1683 -0.9887
  691TMC3    H110276   3.632   1.462  15.438 -1.3380  1.0337 -0.7953
  691TMC3    H210277   3.316   1.292  15.671  0.8444  0.2150  2.1959
  691TMC3    C710278   3.496   1.259  15.477  0.2787 -0.2888  0.1241
  691TMC3    C810279   3.268   1.506  15.813  0.3912  0.1544 -0.1835
  691TMC3    O110280   3.616   1.243  15.455 -0.1838  0.6834  0.5491
  691TMC3    O210281   3.223   1.400  15.856  0.0520 -0.2582  0.5714
  692TMC3    C110282   0.419   2.545  15.661 -0.9621 -1.0838 -0.1986
  692TMC3    C210283   0.555   2.571  15.675 -1.0749  0.5603  0.1033
  692TMC3    C310284   0.656   2.474  15.676 -0.3022 -0.1831 -0.3134
  692TMC3    C410285   0.384   2.412  15.661 -0.1619  0.2232  0.5788
  692TMC3    C510286   0.479   2.314  15.671  0.4383  0.1455 -0.2930
  692TMC3    C610287   0.613   2.346  15.691 -0.5521 -0.4121  0.1195
  692TMC3     C10288   0.326   2.626  15.734  0.2949  0.1685 -0.4058
  692TMC3     O10289   0.226   2.558  15.768  0.7353  0.7066 -0.2412
  692TMC3     H10290   0.590   2.671  15.652 -0.8777  0.5410  0.3234
  692TMC3    H110291   0.282   2.381  15.642  0.4765 -1.1232 -0.6743
  692TMC3    H210292   0.683   2.266  15.669  0.8298  0.9510 -0.3552
  692TMC3    C710293   0.443   2.170  15.662 -0.1596 -0.6100  0.7573
  692TMC3    C810294   0.773   2.512  15.754 -0.3523  0.8046 -0.4233
  692TMC3    O110295   0.343   2.136  15.607 -0.1187  0.3110 -0.2767
  692TMC3    O210296   0.842   2.416  15.784 -0.4587  0.7071 -0.0304
  693MPD2     C10297   0.227   4.189  10.797  0.3289  0.3563 -0.1934
  693MPD2    C110298   0.325   4.284  10.804  0.1009 -0.5544 -0.7611
  693MPD2    C210299   0.456   4.245  10.777  0.0765 -1.1551  0.0472
  693MPD2    C310300   0.488   4.113  10.758 -0.0041  0.1972 -0.1655
  693MPD2    C410301   0.386   4.020  10.762  0.3643  0.3300 -0.0472
  693MPD2    C510302   0.257   4.056  10.783 -0.5349 -0.1669 -0.9532
  693MPD2     H10303   0.529   4.325  10.776 -0.0805 -1.0309 -0.8587
  693MPD2    H110304   0.400   3.914  10.747 -0.2363 -0.2297  3.1815
  693MPD2    H210305   0.127   4.220  10.828  0.2105  0.1211 -0.3468
  693MPD2    H310306   0.174   3.987  10.790  0.1500 -1.1470 -2.3732
  693MPD2     N10307   0.621   4.068  10.743 -0.4190  0.8711  0.1058
  693MPD2    H510308   0.634   3.967  10.748  3.6234  1.3895  0.4171
  693MPD2    N110309   0.285   4.415  10.836 -0.3931  0.6358  0.4380
  693MPD2    H710310   0.184   4.422  10.847 -0.5449  2.0324 -1.8465
  694TMC3    C110311   0.283   4.644  10.882 -0.0931 -0.3809  0.5877
  694TMC3    C210312   0.158   4.662  10.831 -0.8774  0.4705  0.1542
  694TMC3    C310313   0.082   0.026  10.887  0.3397 -0.0178  0.3061
  694TMC3    C410314   0.349   0.008  10.957 -0.5473 -0.1072  0.5595
  694TMC3    C510315   0.267   0.104  11.008  0.8922 -0.6784 -0.3532
  694TMC3    C610316   0.131   0.117  10.979 -0.1554 -0.3200  0.1500
  694TMC3     C10317   0.365   4.526  10.846 -0.3045  0.3806  0.4924
  694TMC3     O10318   0.481   4.540  10.878  0.2230 -0.6161 -0.2502
  694TMC3     H10319   0.110   4.588  10.768  0.2244 -0.7784  0.7812
  694TMC3    H110320   0.451   0.000  10.992 -1.0497  0.1164  2.0771
  694TMC3    H210321   0.067   0.198  11.011  0.1919  0.6414 -1.5909
  694TMC3    C710322   0.306   0.137  11.141  0.3822 -0.1791  0.0698
  694TMC3    C810323   4.679   0.047  10.842 -0.2859  0.1084 -0.6770
  694TMC3    O110324   0.427   0.147  11.164  0.0330 -0.4919 -0.7434
  694TMC3    O210325   4.605   0.100  10.924 -0.3603  0.2799 -0.3463
  695MPD2     C10326   1.032   2.176  13.531  0.7563  0.6360 -0.0142
  695MPD2    C110327   0.974   2.261  13.624 -0.1874  0.3654  0.4247
  695MPD2    C210328   0.855   2.326  13.591 -0.1441  0.1650 -0.1912
  695MPD2    C310329   0.785   2.302  13.477 -0.0998  0.2601 -0.1313
  695MPD2    C410330   0.853   2.219  13.384 -0.1194  0.7432  0.3817
  695MPD2    C510331   0.970   2.153  13.413  0.1715 -0.2650 -0.1136
  695MPD2     H10332   0.811   2.391  13.666  0.1551 -3.4396  3.0786
  695MPD2    H110333   0.805   2.190  13.291 -0.3155  0.3793  0.6004
  695MPD2    H210334   1.118   2.115  13.556  0.5436 -0.7330 -2.6296
  695MPD2    H310335   1.024   2.089  13.344 -1.3375 -1.1872 -0.4224
  695MPD2     N10336   0.661   2.369  13.458  0.0888  0.4109  0.3276
  695MPD2    H510337   0.618   2.414  13.538 -0.6837 -1.0519  0.7471
  695MPD2    N110338   1.044   2.310  13.735  0.2994  0.3662  0.3973
  695MPD2    H710339   0.998   2.377  13.797  1.5005  1.8156 -0.2805
  696TMC3    C110340   0.477   2.449  13.354 -0.3732  0.6961  0.0491
  696TMC3    C210341   0.409   2.426  13.470  0.0267  0.2595 -0.3904
  696TMC3    C310342   0.329   2.527  13.529 -0.3089  0.4753  0.7670
  696TMC3    C410343   0.459   2.570  13.292  0.1604  0.1759 -0.1957
  696TMC3    C510344   0.370   2.660  13.343 -0.3546  0.5302  1.1734
  696TMC3    C610345   0.300   2.637  13.457 -0.6172 -0.5112  0.3981
  696TMC3     C10346   0.601   2.378  13.335  0.4026 -0.4271 -0.7198
  696TMC3     O10347   0.653   2.388  13.225  0.0222 -0.6304  0.5792
  696TMC3     H10348   0.437   2.347  13.538 -1.0414  1.0524  0.9867
  696TMC3    H110349   0.531   2.597  13.216 -0.5572  0.1040 -0.8982
  696TMC3    H210350   0.230   2.707  13.501 -0.7132  0.6482 -1.6114
  696TMC3    C710351   0.356   2.789  13.277  0.0954 -0.1124  0.0530
  696TMC3    C810352   0.391   2.559  13.660 -0.1702  0.3151  0.0113
  696TMC3    O110353   0.397   2.810  13.166  0.0190 -0.0304 -0.1838
  696TMC3    O210354   0.513   2.577  13.660  0.4133  0.1466 -0.7876
  697MPD2     C10355   0.345   4.253  15.991  0.1090 -0.2718  0.0276
  697MPD2    C110356   0.284   4.223  15.869  0.5837 -0.6825  0.3249
  697MPD2    C210357   0.292   4.314  15.770  0.1857  0.0676  0.3017
  697MPD2    C310358   0.356   4.437  15.781  0.4136 -0.2623  0.2614
  697MPD2    C410359   0.417   4.464  15.898  0.4369 -0.1142  0.0415
  697MPD2    C510360   0.416   4.369  15.995  0.1990 -0.4585  0.6229
  697MPD2     H10361   0.255   4.282  15.673  0.4622 -0.9433  0.5226
  697MPD2    H110362   0.457   4.563  15.917  0.3108 -0.5292  2.4069
  697MPD2    H210363   0.345   4.183  16.073 -1.9944  0.6788  0.8304
  697MPD2    H310364   0.465   4.395  16.089  1.5742  1.1898 -0.5469
  697MPD2     N10365   0.346   4.517  15.671 -0.7218 -0.0782  0.1551
  697MPD2    H510366   0.288   4.484  15.594 -1.0536  2.1409 -0.5646
  697MPD2    N110367   0.231   4.099  15.842 -0.3631 -0.4781  0.3757
  697MPD2    H710368   0.225   4.089  15.741 -3.5071  2.0045  0.3106
  698TMC3    C110369   0.377   4.702  15.525  1.2932  0.0923 -0.6260
  698TMC3    C210370   0.344   0.100  15.521  0.0004 -0.4620 -0.5758
  698TMC3    C310371   0.267   0.133  15.417  0.2615 -0.0944 -0.0392
  698TMC3    C410372   0.357   4.612  15.422 -0.9575 -1.2486 -0.0910
  698TMC3    C510373   0.269   4.651  15.324  0.0859 -0.3865  0.2714
  698TMC3    C610374   0.229   0.047  15.315 -0.6347  0.0113  0.4726
  698TMC3     C10375   0.389   4.650  15.659  0.2321  0.1200  0.4014
  698TMC3     O10376   0.410   0.002  15.741  0.3036  0.3870 -0.3111
  698TMC3     H10377   0.362   0.167  15.605 -0.3476 -1.2105  0.1024
  698TMC3    H110378   0.378   4.506  15.428  0.1834 -1.0639 -0.8277
  698TMC3    H210379   0.201   0.086  15.217 -0.4274  0.8059  0.7289
  698TMC3    C710380   0.240   4.578  15.208 -0.4142  0.2207  0.2202
  698TMC3    C810381   0.236   0.278  15.389  0.5356 -0.1656 -0.0817
  698TMC3    O110382   0.133   4.607  15.163  0.7583 -0.0781 -0.4158
  698TMC3    O210383   0.126   0.296  15.340  0.3055 -0.1511  0.1413
  699TMC3    C110384   0.067   2.757  12.980  0.0641  0.0507 -0.2227
  699TMC3    C210385   0.113   2.649  13.050 -0.5660  0.2871 -0.0524
  699TMC3    C310386   0.024   2.591  13.138  0.0591 -0.3289 -0.9829
  699TMC3    C410387   4.670   2.798  12.978 -0.1824 -0.9893  0.3018
  699TMC3    C510388   4.582   2.728  13.054  0.6870  0.5660 -0.1799
  699TMC3    C610389   4.627   2.629  13.138 -0.2478 -0.2625 -0.5286
  699TMC3     C10390   0.150   2.802  12.870  0.6889 -0.0551  0.4245
  699TMC3     O10391   0.090   2.852  12.778  0.4307  0.0407  0.3941
  699TMC3     H10392   0.216   2.617  13.064  0.1388  2.3325 -0.5823
  699TMC3    H110393   4.646   2.886  12.921  0.1951 -1.4939 -0.6466
  699TMC3    H210394   4.546   2.577  13.188  0.0168  1.4667  1.7388
  699TMC3    C710395   4.472   2.815  13.110 -0.0493 -0.4983 -0.1798
  699TMC3    C810396   0.056   2.461  13.195  0.4790 -0.5501 -0.8297
  699TMC3    O110397   4.425   2.803  13.222 -0.2299 -0.3553  0.4480
  699TMC3    O210398   4.731   2.422  13.293  0.3134  0.3280  0.4631
  700TMC3    C110399   4.063   4.445  17.191 -0.0367 -0.1859 -0.5845
  700TMC3    C210400   4.182   4.394  17.164  0.2130 -0.4865 -0.0862
  700TMC3    C310401   4.295   4.461  17.212 -0.3172 -0.4048  0.0555
  700TMC3    C410402   4.043   4.540  17.285 -0.1095 -0.4322 -0.0885
  700TMC3    C510403   4.154   4.600  17.341 -0.5959 -0.4436 -0.2901
  700TMC3    C610404   4.284   4.559  17.311  0.7106  0.4897  0.0641
  700TMC3     C10405   3.975   4.462  17.080  0.9637  0.1158  0.5551
  700TMC3     O10406   3.909   4.365  17.044  0.1874 -0.0301 -0.7000
  700TMC3     H10407   4.186   4.332  17.076 -0.8693  1.1085 -1.2464
  700TMC3    H110408   3.946   4.579  17.313 -0.4881 -1.9633  0.7665
  700TMC3    H210409   4.373   4.611  17.345 -0.3905  1.0995  2.0438
  700TMC3    C710410   4.131   0.005  17.388  0.2478 -0.3709 -0.4827
  700TMC3    C810411   4.413   4.458  17.128  0.0225 -0.1114 -0.0646
  700TMC3    O110412   4.034   0.067  17.347  0.2513 -0.3230  0.3309
  700TMC3    O210413   4.431   4.362  17.053 -0.0910  0.8633 -0.4641
  701TMC3    C110414   4.142   3.398  15.959  0.4033 -0.3448 -0.1046
  701TMC3    C210415   4.130   3.303  15.862 -0.3262 -0.6990 -0.3057
  701TMC3    C310416   4.145   3.346  15.730 -0.1346  0.3514 -0.4179
  701TMC3    C410417   4.156   3.533  15.922 -0.7417 -0.9863  0.6760
  701TMC3    C510418   4.181   3.567  15.795  0.5198 -0.3057  0.5296
  701TMC3    C610419   4.169   3.474  15.691 -0.1376 -0.6354  0.2250
  701TMC3     C10420   4.110   3.361  16.091 -0.1005  0.5252  0.5440
  701TMC3     O10421   4.056   3.257  16.115 -0.0185  0.2238 -0.0067
  701TMC3     H10422   4.115   3.198  15.885  2.4014 -0.8328  0.8912
  701TMC3    H110423   4.141   3.609  15.998 -1.9995  0.1444 -0.7075
  701TMC3    H210424   4.185   3.509  15.589  0.8837  0.2492  0.6825
  701TMC3    C710425   4.207   3.702  15.754 -0.4308 -0.4179 -0.8767
  701TMC3    C810426   4.125   3.246  15.625  0.0953  0.1500  0.3606
  701TMC3    O110427   4.169   3.739  15.641  0.7641  0.1631 -0.6806
  701TMC3    O210428   4.142   3.124  15.652  0.2384  0.4018 -0.0925
  702MPD2     C10429   3.685   0.704  10.597  0.6990  0.3731  0.2226
  702MPD2    C110430   3.789   0.792  10.647 -0.3173 -0.6794 -0.6093
  702MPD2    C210431   3.832   0.892  10.564 -0.0743 -0.3141 -0.8025
  702MPD2    C310432   3.779   0.906  10.439  0.5376 -0.3040  0.5135
  702MPD2    C410433   3.681   0.824  10.396  0.7875 -0.9234  0.5580
  702MPD2    C510434   3.629   0.724  10.470  0.4323  0.0884 -0.3816
  702MPD2     H10435   3.898   0.967  10.606 -0.9098  0.8475 -1.5739
  702MPD2    H110436   3.642   0.840  10.296 -0.9869  0.2939  1.4374
  702MPD2    H210437   3.626   0.643  10.665 -1.0697  1.7699 -0.0635
  702MPD2    H310438   3.536   0.672  10.449  1.1850 -1.5043  0.1969
  702MPD2     N10439   3.827   1.010  10.357 -0.5316 -0.9361 -0.1701
  702MPD2    H510440   3.768   1.056  10.288 -0.5476  0.9995  1.1275
  702MPD2    N110441   3.812   0.785  10.786 -0.7186 -0.4515 -0.2388
  702MPD2    H710442   3.756   0.733  10.853 -3.2327  1.2351 -1.0260
  703TMC3    C110443   3.969   1.185  10.293  0.0489 -0.2951 -0.2156
  703TMC3    C210444   3.861   1.272  10.272 -0.0327 -1.0133  0.0615
  703TMC3    C310445   3.876   1.403  10.231 -0.3054 -0.1635 -0.2507
  703TMC3    C410446   4.095   1.239  10.294  0.0399 -0.0087  0.0573
  703TMC3    C510447   4.103   1.371  10.280 -0.4499  0.1112 -0.3141
  703TMC3    C610448   3.998   1.460  10.243  0.0053 -0.2304  0.7590
  703TMC3     C10449   3.954   1.060  10.368  0.6361  0.0524  0.7053
  703TMC3     O10450   4.054   1.021  10.421 -0.3100  0.0813  0.2688
  703TMC3     H10451   3.758   1.237  10.274 -1.0188  1.8624 -1.1326
  703TMC3    H110452   4.183   1.176  10.299  0.8644  1.1479 -0.1021
  703TMC3    H210453   4.019   1.566  10.244  3.0308 -0.8378 -1.2056
  703TMC3    C710454   4.213   1.435  10.345 -0.1164  0.1442 -0.3458
  703TMC3    C810455   3.772   1.492  10.199 -1.1498 -0.1810  0.0034
  703TMC3    O110456   4.230   1.555  10.333 -0.4912  0.1139  0.1376
  703TMC3    O210457   3.789   1.590  10.126  0.4146  0.3611  1.1452
  704TMC3    C110458   1.605   3.878  12.532 -0.5730 -0.4407  0.2904
  704TMC3    C210459   1.696   3.853  12.428  0.4757 -0.0299 -0.2810
  704TMC3    C310460   1.813   3.778  12.442  0.0218  0.3548  0.3960
  704TMC3    C410461   1.631   3.811  12.651  0.7915 -0.4226  0.0506
  704TMC3    C510462   1.751   3.748  12.656 -0.1267  0.0058  0.9655
  704TMC3    C610463   1.847   3.723  12.565 -0.7801  0.6560 -0.5932
  704TMC3     C10464   1.478   3.955  12.515 -0.6881 -0.1759 -0.0313
  704TMC3     O10465   1.396   3.940  12.603  0.2715  0.1437 -0.1167
  704TMC3     H10466   1.669   3.883  12.327 -2.0479  0.0212  0.4266
  704TMC3    H110467   1.563   3.814  12.735  0.1618 -1.1204 -0.4293
  704TMC3    H210468   1.926   3.648  12.567 -0.7672  0.6618 -0.8434
  704TMC3    C710469   1.755   3.661  12.768  0.4510 -0.4523 -0.5125
  704TMC3    C810470   1.835   3.699  12.327  0.5939  0.1262 -0.0639
  704TMC3    O110471   1.651   3.619  12.814 -0.3275 -0.1300  0.6801
  704TMC3    O210472   1.846   3.576  12.348  0.8650 -0.4157  0.1719
  705MPD2     C10473   0.841   2.129  16.496  0.2772 -0.0386 -0.1520
  705MPD2    C110474   0.842   2.261  16.458  0.0633  0.7298  0.7219
  705MPD2    C210475   0.722   2.327  16.444 -0.2011  0.6998 -0.1138
  705MPD2    C310476   0.604   2.258  16.462 -0.2363  0.1232  0.2005
  705MPD2    C410477   0.609   2.117  16.482  0.1476 -0.4400 -1.1633
  705MPD2    C510478   0.727   2.057  16.507  0.4105  0.3988 -0.0546
  705MPD2     H10479   0.725   2.434  16.426  0.0751  0.2552 -2.6872
  705MPD2    H110480   0.517   2.060  16.480 -0.0027 -0.2654  0.5544
  705MPD2    H210481   0.932   2.074  16.521 -0.1659 -0.4905  0.4667
  705MPD2    H310482   0.740   1.953  16.534 -0.4710  0.7494  1.7142
  705MPD2     N10483   0.474   2.318  16.465  0.4067 -0.1886  0.0762
  705MPD2    H510484   0.405   2.245  16.479 -0.3686  0.4439 -0.4599
  705MPD2    N110485   0.958   2.330  16.423 -0.1031 -0.2943 -0.5830
  705MPD2    H710486   0.955   2.431  16.427 -0.4210 -0.2828 -1.0654
  706TMC3    C110487   1.395   2.363  16.245  0.7228  0.0196  0.4652
  706TMC3    C210488   1.398   2.502  16.240  1.1526  0.5116 -0.0525
  706TMC3    C310489   1.290   2.556  16.297  0.3797 -0.2192  0.9305
  706TMC3    C410490   1.307   2.286  16.312  0.5778 -0.1945  0.2034
  706TMC3    C510491   1.200   2.349  16.362  0.5764  0.9551 -0.1813
  706TMC3    C610492   1.187   2.486  16.354  0.3703 -0.2518  0.2542
  706TMC3     C10493   1.492   2.285  16.175 -0.8628 -0.3460 -0.5693
  706TMC3     O10494   1.524   2.182  16.232  0.6933  0.6079 -0.4545
  706TMC3     H10495   1.478   2.559  16.193  2.3348 -0.7967  0.3560
  706TMC3    H110496   1.315   2.178  16.321 -0.3946 -0.1914  1.1091
  706TMC3    H210497   1.093   2.537  16.375 -0.0926 -1.4206  0.9619
  706TMC3    C710498   1.073   2.268  16.374  0.1608  0.0713  0.1717
  706TMC3    C810499   1.264   2.695  16.280  0.5847  0.9255  0.2587
  706TMC3    O110500   1.071   2.149  16.346  0.0464 -0.1731  0.7197
  706TMC3    O210501   1.300   2.742  16.175 -0.2357  0.2805 -0.1460
  707TMC3    C110502   3.111   1.264   1.872 -0.0668 -0.1074 -0.3576
  707TMC3    C210503   3.177   1.186   1.961  0.1853 -0.6130 -0.4690
  707TMC3    C310504   3.105   1.105   2.042 -0.5561 -0.1151  0.2125
  707TMC3    C410505   2.969   1.250   1.877 -0.2175 -0.4214  0.0226
  707TMC3    C510506   2.905   1.163   1.957 -0.1126 -1.1338  0.4902
  707TMC3    C610507   2.969   1.090   2.046 -0.0515 -0.2625  0.1848
  707TMC3     C10508   3.155   1.260   1.737 -0.8136  0.2037  0.1651
  707TMC3     O10509   3.235   1.168   1.722  0.6573 -0.1037 -0.1723
  707TMC3     H10510   3.282   1.211   1.971  0.2512 -1.1534  0.1844
  707TMC3    H110511   2.899   1.305   1.815 -1.1895 -2.4400 -0.6904
  707TMC3    H210512   2.905   1.022   2.102 -0.3821 -1.9892 -2.3032
  707TMC3    C710513   2.755   1.162   1.969  0.3058 -0.0370 -0.4688
  707TMC3    C810514   3.166   0.986   2.084  0.2014 -0.3869 -0.1890
  707TMC3    O110515   2.705   1.055   1.994  0.4217 -0.1314 -0.3555
  707TMC3    O210516   3.258   0.993   2.164 -1.0036 -0.3558 -0.0242
  708MPD2     C10517   4.711   0.480  13.605 -1.2968  0.4477 -0.0090
  708MPD2    C110518   4.596   0.536  13.563 -0.7606  0.2989  0.2941
  708MPD2    C210519   4.490   0.552  13.655 -0.2196  0.3126  0.0471
  708MPD2    C310520   4.494   0.493  13.782  0.5003 -0.4818 -0.3696
  708MPD2    C410521   4.607   0.427  13.816 -0.7515 -0.6031 -0.0801
  708MPD2    C510522   4.722   0.427  13.731  0.1044 -0.3399  0.4181
  708MPD2     H10523   4.398   0.598  13.621 -1.5287 -1.6840  0.8376
  708MPD2    H110524   4.609   0.381  13.915 -0.5308 -0.9218 -0.2355
  708MPD2    H210525   0.067   0.481  13.545 -1.2933  0.4602 -0.0035
  708MPD2    H310526   0.089   0.395  13.757  0.7437  2.6659  1.6781
  708MPD2     N10527   4.386   0.494  13.876  0.0520 -0.1665  0.1817
  708MPD2    H510528   4.415   0.488  13.973 -1.2625  0.3457  0.6150
  708MPD2    N110529   4.583   0.584  13.430 -0.0214 -0.2722 -0.4543
  708MPD2    H710530   4.636   0.546  13.352 -2.5040 -0.7602 -1.9024
  709TMC3    C110531   4.491   0.721  13.263 -0.4135  0.4863  0.3054
  709TMC3    C210532   4.473   0.605  13.187 -0.1691  0.2869 -0.0538
  709TMC3    C310533   4.386   0.609  13.085 -0.2027 -0.5428 -1.1252
  709TMC3    C410534   4.402   0.821  13.247 -0.1746  0.3106 -0.9849
  709TMC3    C510535   4.304   0.811  13.153 -1.1558 -0.0865  0.6016
  709TMC3    C610536   4.304   0.714  13.059 -0.6359  0.3953 -0.5797
  709TMC3     C10537   4.513   0.700  13.405 -0.1139  0.2127 -0.3075
  709TMC3     O10538   4.450   0.774  13.479  0.2080 -0.3318  0.5502
  709TMC3     H10539   4.518   0.510  13.212 -0.0985  0.4821  0.5724
  709TMC3    H110540   4.406   0.907  13.312  1.2193  1.2382 -2.2978
  709TMC3    H210541   4.222   0.708  12.989  0.8234  0.1652 -2.2595
  709TMC3    C710542   4.174   0.849  13.207  0.5454 -0.3748 -0.5841
  709TMC3    C810543   4.348   0.479  13.037  0.0490  0.0866  0.4459
  709TMC3    O110544   4.090   0.870  13.123  0.6457  0.4623 -0.0019
  709TMC3    O210545   4.368   0.381  13.107  0.0887  0.0130  0.0620
  710TMC3    C110546   0.004   2.061   0.238  0.3843  0.0263  0.1668
  710TMC3    C210547   0.064   2.055   0.115  0.5893 -0.4902  0.4147
  710TMC3    C310548   0.186   1.995   0.109 -0.1407 -0.7875  0.9766
  710TMC3    C410549   0.053   2.005   0.354  0.6398 -0.4811  0.8341
  710TMC3    C510550   0.174   1.946   0.335 -0.0429  0.4434 -0.8161
  710TMC3    C610551   0.234   1.927   0.215 -0.1497 -0.2086 -0.4147
  710TMC3     C10552   4.625   2.149   0.243  0.6981 -0.8323 -0.8752
  710TMC3     O10553   4.566   2.161   0.138  0.0118  0.3854 -0.1862
  710TMC3     H10554   0.014   2.096   0.029  2.4606  0.1298 -0.3925
  710TMC3    H110555   0.013   2.022   0.453 -2.3241 -0.2939 -0.3872
  710TMC3    H210556   0.331   1.880   0.206 -0.3179 -0.3334 -1.5139
  710TMC3    C710557   0.238   1.898   0.455  0.1981  0.2269  0.8362
  710TMC3    C810558   0.252   1.974  17.720  0.4514 -0.8331  0.1745
  710TMC3    O110559   0.168   1.868   0.551  0.4635 -0.2017  0.1200
  710TMC3    O210560   0.353   1.908  17.727 -0.2584 -0.2222 -0.2144
  711TMC3    C110561   4.627   3.041  15.124  0.1973  0.4703  0.1499
  711TMC3    C210562   4.678   3.159  15.179  0.0482  0.1364 -0.5508
  711TMC3    C310563   0.065   3.153  15.236 -0.0431  0.4589  0.3278
  711TMC3    C410564   4.693   2.919  15.123  0.5799  0.2592  0.0644
  711TMC3    C510565   0.085   2.918  15.181  0.0442 -0.8155 -0.9503
  711TMC3    C610566   0.135   3.033  15.242 -0.1016 -0.4876 -0.0791
  711TMC3     C10567   4.523   3.057  15.025  0.0283 -0.4430  0.0626
  711TMC3     O10568   4.482   2.954  14.973  0.3112 -0.5531 -0.2832
  711TMC3     H10569   4.632   3.257  15.179  0.6281  0.4103  3.2545
  711TMC3    H110570   4.656   2.824  15.085  2.3366 -0.1388 -0.6257
  711TMC3    H210571   0.226   3.026  15.299  0.0305 -2.2709 -0.5272
  711TMC3    C710572   0.164   2.796  15.179 -0.1179 -0.7423 -0.7913
  711TMC3    C810573   0.077   3.248  15.346 -0.4169 -0.2082 -0.8206
  711TMC3    O110574   0.286   2.807  15.168 -0.1830  0.7364  0.4009
  711TMC3    O210575   4.714   3.323  15.364  0.5223  0.4870  0.0027
  712MPD2     C10576   1.234   4.285  13.558 -0.4865 -0.1444 -0.7392
  712MPD2    C110577   1.185   4.215  13.670  0.3627 -0.0716  0.1594
  712MPD2    C210578   1.249   4.230  13.792  0.1174 -0.7561  0.1314
  712MPD2    C310579   1.340   4.326  13.810 -0.0860 -0.3366  0.0472
  712MPD2    C410580   1.385   4.405  13.704  0.4906  0.0320 -0.4024
  712MPD2    C510581   1.334   4.379  13.578 -0.0650  0.7764  0.2305
  712MPD2     H10582   1.224   4.171  13.880 -0.5918  0.0305  0.4664
  712MPD2    H110583   1.443   4.495  13.717  1.1076 -0.1111 -2.0631
  712MPD2    H210584   1.204   4.258  13.457  0.7610 -1.6575 -0.7019
  712MPD2    H310585   1.374   4.438  13.497  0.9200  0.7075  0.6701
  712MPD2     N10586   1.377   4.358  13.942  0.0453  0.0916  0.9123
  712MPD2    H510587   1.380   4.290  14.017  1.6388 -2.5343 -1.5468
  712MPD2    N110588   1.067   4.137  13.667 -0.5472  0.5450 -0.5376
  712MPD2    H710589   1.040   4.086  13.751  0.9420  3.4525  1.6765
  713TMC3    C110590   1.455   4.506  14.112  0.2570  0.2245 -0.2822
  713TMC3    C210591   1.578   4.445  14.123 -0.2307  0.3160  0.0415
  713TMC3    C310592   1.681   4.510  14.184  0.4460 -0.7695  0.4852
  713TMC3    C410593   1.443   4.640  14.140  0.0976 -0.4200  0.0665
  713TMC3    C510594   1.549   4.699  14.199 -0.8909 -0.7257 -0.0734
  713TMC3    C610595   1.667   4.640  14.223  0.0669 -0.2319 -0.1439
  713TMC3     C10596   1.394   4.488  13.987 -0.3997  0.1800  0.1375
  713TMC3     O10597   1.373   4.592  13.925 -0.8381 -0.1558 -0.8299
  713TMC3     H10598   1.596   4.345  14.085 -0.9125 -0.1775  1.0295
  713TMC3    H110599   1.348   4.691  14.130  0.2354 -0.2987 -0.6567
  713TMC3    H210600   1.742   4.699  14.274 -1.4674  0.1584  1.6812
  713TMC3    C710601   1.556   0.106  14.184  0.2172  0.4631  0.2620
  713TMC3    C810602   1.812   4.449  14.167  0.0523  0.1818  0.3201
  713TMC3    O110603   1.663   0.171  14.183  0.2482  0.0767  0.3504
  713TMC3    O210604   1.820   4.373  14.070  0.1816  0.6302  0.3757
  714MPD2     C10605   3.502   2.781   1.772 -0.3783  0.1077  0.7649
  714MPD2    C110606   3.517   2.727   1.646  0.0889 -0.4656 -0.1977
  714MPD2    C210607   3.428   2.749   1.547  0.3438  0.2371 -0.0707
  714MPD2    C310608   3.316   2.824   1.570 -0.2077 -0.0273 -0.3945
  714MPD2    C410609   3.295   2.884   1.691  0.0163  0.2916  0.2122
  714MPD2    C510610   3.389   2.855   1.796 -0.0995 -0.1652  0.5567
  714MPD2     H10611   3.442   2.703   1.450  0.2821 -0.7678  0.4030
  714MPD2    H110612   3.214   2.954   1.710 -1.7179 -1.7001  0.1510
  714MPD2    H210613   3.571   2.763   1.854 -0.2031  0.4156  0.6850
  714MPD2    H310614   3.361   2.885   1.897 -0.3819  1.9102 -0.1411
  714MPD2     N10615   3.237   2.847   1.458 -0.2079  0.4317 -0.0701
  714MPD2    H510616   3.259   2.828   1.360 -1.3063  0.3226 -0.2935
  714MPD2    N110617   3.632   2.654   1.638  0.4746  0.4513 -0.1134
  714MPD2    H710618   3.694   2.647   1.719  2.3508 -0.7215 -1.6642
  715TMC3    C110619   3.806   2.531   1.548  0.3308  0.1406 -0.5219
  715TMC3    C210620   3.844   2.410   1.489 -0.2684 -0.4220 -0.0883
  715TMC3    C310621   3.964   2.365   1.512  0.1836 -0.8616  0.4243
  715TMC3    C410622   3.896   2.606   1.620  0.1786  0.2851 -0.4648
  715TMC3    C510623   4.027   2.561   1.620 -0.4646 -0.3661 -0.4629
  715TMC3    C610624   4.067   2.441   1.570  0.3175  0.8348 -0.0502
  715TMC3     C10625   3.666   2.571   1.532  0.6628 -0.2707  0.9269
  715TMC3     O10626   3.622   2.545   1.424  0.1263 -0.5505  0.6898
  715TMC3     H10627   3.773   2.345   1.439  2.3417 -3.0595 -0.2959
  715TMC3    H110628   3.868   2.706   1.653  0.3533  0.5952 -1.2489
  715TMC3    H210629   4.171   2.409   1.569  0.1632  0.3642 -0.7255
  715TMC3    C710630   4.133   2.627   1.694 -0.7309 -0.0671  0.5834
  715TMC3    C810631   4.005   2.240   1.456  0.0189  0.1124 -0.3343
  715TMC3    O110632   4.252   2.590   1.675 -0.5992 -0.0345  0.1316
  715TMC3    O210633   3.986   2.225   1.338  0.6384  0.0369 -0.0557
  716MPD2     C10634   3.420   1.544   9.741  0.1963  0.6703  0.2998
  716MPD2    C110635   3.394   1.471   9.630  0.9388 -0.2797  0.1089
  716MPD2    C210636   3.439   1.340   9.623 -0.6515 -0.6349  0.6541
  716MPD2    C310637   3.508   1.283   9.722 -0.2648 -0.2126 -0.1159
  716MPD2    C410638   3.542   1.359   9.827  0.0982  0.0083 -0.1548
  716MPD2    C510639   3.496   1.488   9.842 -0.6851 -0.9381  0.1840
  716MPD2     H10640   3.435   1.278   9.534  2.1076 -0.8744  0.6900
  716MPD2    H110641   3.604   1.318   9.906  0.5670  3.4659  1.2695
  716MPD2    H210642   3.399   1.650   9.739 -0.6825  0.5171  1.5078
  716MPD2    H310643   3.518   1.547   9.930 -1.0007 -2.1810  1.0902
  716MPD2     N10644   3.541   1.143   9.708  0.5181 -0.3573 -0.4264
  716MPD2    H510645   3.505   1.097   9.625 -0.5468  1.1752 -0.8296
  716MPD2    N110646   3.324   1.539   9.524 -0.3116  0.0122  0.2222
  716MPD2    H710647   3.309   1.638   9.536 -2.8044 -0.4081  0.4826
  717TMC3    C110648   3.588   0.930   9.789  0.0709  0.4888 -0.1621
  717TMC3    C210649   3.476   0.895   9.718  0.4290  0.0011 -0.3437
  717TMC3    C310650   3.424   0.771   9.736  0.4711  0.0290  0.2050
  717TMC3    C410651   3.627   0.850   9.894 -0.3288  0.2215 -0.1344
  717TMC3    C510652   3.549   0.736   9.922 -0.2538 -0.2336 -0.1632
  717TMC3    C610653   3.451   0.689   9.841 -0.0938 -0.4205  0.3831
  717TMC3     C10654   3.616   1.075   9.792  0.3182 -0.0078  0.8271
  717TMC3     O10655   3.697   1.117   9.877 -0.1172  0.4305 -0.0892
  717TMC3     H10656   3.436   0.947   9.632 -0.6025  1.4579  1.0214
  717TMC3    H110657   3.714   0.884   9.950 -1.4494 -1.5860  2.6790
  717TMC3    H210658   3.382   0.612   9.875  0.1201 -1.9005 -2.5636
  717TMC3    C710659   3.604   0.646  10.020  0.3148 -0.4908 -0.6330
  717TMC3    C810660   3.325   0.738   9.625  0.5484  0.2434  0.8554
  717TMC3    O110661   3.690   0.701  10.088  0.2285 -0.3630  0.0905
  717TMC3    O210662   3.277   0.824   9.555  0.1215  0.0580 -0.4381
  718MPD2     C10663   2.810   4.454  12.417  0.5797  0.6253  0.0281
  718MPD2    C110664   2.841   4.326  12.392  0.3539  0.4249  0.2391
  718MPD2    C210665   2.741   4.236  12.399 -0.3838  0.0202  0.2659
  718MPD2    C310666   2.607   4.274  12.420 -0.3482 -0.3087 -0.0424
  718MPD2    C410667   2.575   4.411  12.409 -0.2364 -0.0435  0.2129
  718MPD2    C510668   2.680   4.499  12.415  0.4171  0.1419 -0.1190
  718MPD2     H10669   2.774   4.135  12.420 -1.4685 -0.7065 -1.4022
  718MPD2    H110670   2.477   4.457  12.401 -1.7276 -3.1001  1.3208
  718MPD2    H210671   2.892   4.525  12.423  1.3141 -0.3176  0.9065
  718MPD2    H310672   2.668   4.604  12.438  1.1377  0.1881  0.0214
  718MPD2     N10673   2.518   4.172  12.474 -0.9235 -0.5874  0.7495
  718MPD2    H510674   2.559   4.079  12.467 -0.1858 -0.1517 -0.8150
  718MPD2    N110675   2.982   4.283  12.394 -0.0220  0.8157 -0.0328
  718MPD2    H710676   3.050   4.355  12.416  0.8807  0.5570 -1.9192
  719TMC3    C110677   3.142   4.125  12.420 -0.0948 -0.2257 -0.3015
  719TMC3    C210678   3.141   4.013  12.491 -0.4600  0.4855  0.7532
  719TMC3    C310679   3.244   3.978  12.575  0.0162 -0.0606  0.2374
  719TMC3    C410680   3.251   4.210  12.428 -0.5474  0.2232  0.7458
  719TMC3    C510681   3.349   4.185  12.528  0.9711  0.2342  0.0592
  719TMC3    C610682   3.345   4.069  12.601  0.3407  0.3480  0.2585
  719TMC3     C10683   3.023   4.156  12.354  0.3371 -0.4605 -0.7663
  719TMC3     O10684   2.957   4.070  12.301 -0.0756 -0.4318 -0.0528
  719TMC3     H10685   3.061   3.940  12.487 -0.5759  0.6339  0.3821
  719TMC3    H110686   3.244   4.309  12.385  1.9237  0.1341  0.1468
  719TMC3    H210687   3.423   4.040  12.671  0.7778  0.5542 -0.1511
  719TMC3    C710688   3.469   4.268  12.515 -0.1123 -0.1080  0.3901
  719TMC3    C810689   3.198   3.914  12.691  0.0177 -0.8585 -0.2329
  719TMC3    O110690   3.486   4.342  12.419  0.8557 -0.7076 -0.2072
  719TMC3    O210691   3.254   3.807  12.718  0.0255  0.0990 -0.6029
  720MPD2     C10692   1.553   1.295  14.211  0.3795 -0.5798  0.3937
  720MPD2    C110693   1.621   1.385  14.125  0.0481  0.3928 -1.1739
  720MPD2    C210694   1.732   1.449  14.167  0.4962  0.1335 -0.2288
  720MPD2    C310695   1.787   1.420  14.290 -0.8119 -0.0339 -0.5919
  720MPD2    C410696   1.719   1.332  14.378  0.7222  0.2916  0.3014
  720MPD2    C510697   1.607   1.261  14.331  0.3244 -0.5205 -0.2150
  720MPD2     H10698   1.772   1.529  14.105  1.3923  0.7881  1.1847
  720MPD2    H110699   1.762   1.302  14.472  2.8943 -0.3155 -0.8833
  720MPD2    H210700   1.461   1.247  14.181  0.7471 -1.2121  0.2932
  720MPD2    H310701   1.564   1.180  14.388  0.2589 -2.3134 -2.7830
  720MPD2     N10702   1.902   1.497  14.333  0.2232 -0.2330 -0.6800
  720MPD2    H510703   1.932   1.576  14.277  0.5028  1.0232  1.2489
  720MPD2    N110704   1.582   1.411  13.991  0.2783 -0.7522  0.2937
  720MPD2    H710705   1.637   1.475  13.935 -1.4766  0.8860  0.4540
  721TMC3    C110706   2.068   1.589  14.477  0.5893  0.0612  0.6547
  721TMC3    C210707   2.090   1.647  14.597  0.6999 -0.3765  0.4680
  721TMC3    C310708   2.208   1.721  14.617 -0.2972 -0.2268  0.4263
  721TMC3    C410709   2.166   1.584  14.382  0.2288 -0.0425 -0.2785
  721TMC3    C510710   2.276   1.660  14.402 -0.1930  0.0666  0.6367
  721TMC3    C610711   2.302   1.733  14.519 -0.3784 -0.2354  0.2137
  721TMC3     C10712   1.954   1.502  14.460 -0.1886 -0.6399  0.0407
  721TMC3     O10713   1.907   1.450  14.561  0.0642 -0.8276 -0.2821
  721TMC3     H10714   2.010   1.647  14.671  0.0974 -0.8653 -0.1870
  721TMC3    H110715   2.169   1.512  14.301  2.2818  0.3396 -0.5537
  721TMC3    H210716   2.392   1.792  14.531 -0.6753  0.3026 -0.1923
  721TMC3    C710717   2.385   1.581  14.355  0.6344  0.1377 -0.0069
  721TMC3    C810718   2.223   1.789  14.743 -0.4740  0.1558  0.1557
  721TMC3    O110719   2.371   1.520  14.249 -0.1947 -0.3279 -0.5085
  721TMC3    O210720   2.298   1.885  14.736  0.2765  0.0035 -0.3156
  722MPD2     C10721   0.431   0.137  13.829  0.5802 -0.2060 -0.4873
  722MPD2    C110722   0.456   0.236  13.737  0.0043 -0.2166  0.2459
  722MPD2    C210723   0.375   0.254  13.629  0.2387  0.0523 -0.4272
  722MPD2    C310724   0.260   0.170  13.611  0.7897  0.2126  0.3613
  722MPD2    C410725   0.245   0.062  13.693 -0.1549 -0.0626 -0.3090
  722MPD2    C510726   0.327   0.054  13.809 -0.4084  0.1348 -0.4045
  722MPD2     H10727   0.382   0.340  13.564 -0.1874  1.2996  1.2007
  722MPD2    H110728   0.170   4.717  13.688 -2.7561  2.4537 -0.8617
  722MPD2    H210729   0.493   0.111  13.914  0.1958 -1.9901 -0.7466
  722MPD2    H310730   0.320   4.698  13.871  2.3561 -1.8582 -2.9900
  722MPD2     N10731   0.178   0.198  13.502 -0.2628  0.3389 -0.6228
  722MPD2    H510732   0.199   0.275  13.440 -0.8270 -0.3446 -1.6573
  722MPD2    N110733   0.573   0.322  13.750 -0.2496 -0.2418 -0.1652
  722MPD2    H710734   0.597   0.381  13.671 -0.3478  0.7716  0.5504
  723TMC3    C110735   4.724   0.156  13.365 -0.3375  0.3744  0.3604
  723TMC3    C210736   4.619   0.076  13.336 -0.2937 -1.3434  0.6295
  723TMC3    C310737   4.568   0.091  13.211  0.1598 -0.4745  0.1575
  723TMC3    C410738   0.044   0.254  13.276 -0.1982 -0.1460 -0.6820
  723TMC3    C510739   4.713   0.263  13.155 -1.3091  0.2498  0.1291
  723TMC3    C610740   4.611   0.179  13.122 -0.0564 -0.1957  0.2048
  723TMC3     C10741   0.060   0.125  13.488 -0.3849  0.1657  0.3816
  723TMC3     O10742   4.733   0.045  13.564 -0.0394 -0.2344 -0.2265
  723TMC3     H10743   4.585   4.732  13.404  1.4956 -1.2429  1.6332
  723TMC3    H110744   0.130   0.318  13.295 -0.9670  1.3730 -2.3567
  723TMC3    H210745   4.555   0.184  13.029  1.1381 -2.3465 -0.6187
  723TMC3    C710746   4.717   0.399  13.108  0.3959  0.2821  0.5013
  723TMC3    C810747   4.462   0.007  13.170  0.3433 -0.0642  0.1523
  723TMC3    O110748   0.017   0.480  13.194 -0.6215  0.3834  0.0311
  723TMC3    O210749   4.355   0.029  13.229 -0.3650 -0.2305 -0.0971
  724TMC3    C110750   1.101   2.579   9.933  0.2061  0.1344  0.4063
  724TMC3    C210751   1.027   2.692   9.911  0.2636  0.5296  0.1431
  724TMC3    C310752   1.081   2.798   9.834 -0.3485 -0.1916  0.6980
  724TMC3    C410753   1.224   2.561   9.868  0.1372 -0.1374 -0.1625
  724TMC3    C510754   1.265   2.663   9.785  1.1115 -0.1842 -0.2737
  724TMC3    C610755   1.193   2.778   9.756  0.1828 -0.0428  0.2070
  724TMC3     C10756   1.065   2.476  10.038 -0.1187 -0.2004  0.3000
  724TMC3     O10757   1.142   2.386  10.074  0.0336 -0.6106 -0.0610
  724TMC3     H10758   0.942   2.714   9.975  1.1862  0.7343  1.2939
  724TMC3    H110759   1.279   2.469   9.886  0.1229 -0.5543 -2.1728
  724TMC3    H210760   1.240   2.852   9.693 -2.3397 -0.0977 -1.7804
  724TMC3    C710761   1.398   2.658   9.724 -0.3262  0.0181  0.6551
  724TMC3    C810762   0.997   2.911   9.810  0.8680  0.4674 -0.6632
  724TMC3    O110763   1.410   2.717   9.618  0.5110 -0.2953  0.4495
  724TMC3    O210764   0.880   2.895   9.844  0.2378  0.6388  0.2051
  725TMC3    C110765   2.036   1.566  12.854  0.4323  0.2537  0.1279
  725TMC3    C210766   1.946   1.580  12.753 -0.6685 -0.0470  0.5966
  725TMC3    C310767   1.888   1.461  12.713  0.2442  0.0812  0.3535
  725TMC3    C410768   2.051   1.453  12.929 -0.5519  0.2782  0.7900
  725TMC3    C510769   1.989   1.343  12.886  0.1108 -0.9202 -0.2602
  725TMC3    C610770   1.904   1.345  12.780  0.0169 -0.1914 -0.2186
  725TMC3     C10771   2.099   1.692  12.895 -0.4813  0.7227  0.3385
  725TMC3     O10772   2.217   1.681  12.924  0.4659 -0.2842 -0.1491
  725TMC3     H10773   1.917   1.673  12.705 -1.8998  1.0795  3.5275
  725TMC3    H110774   2.115   1.457  13.016 -0.6445 -2.2553  0.9839
  725TMC3    H210775   1.861   1.249  12.754  1.7385 -1.3317  1.1961
  725TMC3    C710776   2.009   1.224  12.956  0.4783  0.0449 -0.0634
  725TMC3    C810777   1.806   1.449  12.587  0.0748  0.1811 -0.4647
  725TMC3    O110778   2.014   1.125  12.882  0.1189  0.5043  0.3693
  725TMC3    O210779   1.729   1.353  12.581 -0.5469 -0.0613 -0.6125
  726MPD2     C10780   0.410   2.911  10.549  0.5971 -0.4555  0.5998
  726MPD2    C110781   0.352   3.028  10.600 -0.1404 -0.3230  0.2771
  726MPD2    C210782   0.219   3.021  10.641 -0.0059  0.1542 -1.3203
  726MPD2    C310783   0.153   2.899  10.631 -0.3215 -0.2171 -0.5766
  726MPD2    C410784   0.215   2.794  10.571 -0.5457 -0.3409 -0.2313
  726MPD2    C510785   0.343   2.800  10.538  0.6452 -0.2645  0.2672
  726MPD2     H10786   0.176   3.107  10.690 -0.6373 -0.7197 -0.3307
  726MPD2    H110787   0.171   2.695  10.572  0.1714 -0.6858 -4.7580
  726MPD2    H210788   0.510   2.901  10.509  0.7591  1.1062  0.6068
  726MPD2    H310789   0.382   2.714  10.486  1.2067  1.2286 -1.7510
  726MPD2     N10790   0.026   2.890  10.684  0.3888  0.3878  0.3396
  726MPD2    H510791   4.716   2.799  10.670  0.5420  0.4766 -0.7832
  726MPD2    N110792   0.426   3.151  10.617 -0.2903 -0.1200  0.2395
  726MPD2    H710793   0.371   3.231  10.646 -1.0498 -0.6302  0.2038
  727TMC3    C110794   0.616   3.294  10.604 -0.4773  0.1783  0.5270
  727TMC3    C210795   0.739   3.317  10.561 -1.1184 -0.4908  0.3217
  727TMC3    C310796   0.791   3.443  10.549  0.3290 -0.2516  0.7135
  727TMC3    C410797   0.522   3.398  10.613 -0.1850 -0.4072  0.7843
  727TMC3    C510798   0.578   3.525  10.595  0.1205  0.5841 -0.3454
  727TMC3    C610799   0.711   3.553  10.576 -0.4143  0.0687  0.1120
  727TMC3     C10800   0.563   3.158  10.594 -0.4880  0.1588  0.1528
  727TMC3     O10801   0.642   3.067  10.573 -0.3384 -0.1804  0.7093
  727TMC3     H10802   0.801   3.242  10.512 -2.1211  0.0561 -1.7855
  727TMC3    H110803   0.416   3.390  10.634 -0.4531 -1.5562 -1.0992
  727TMC3    H210804   0.745   3.655  10.585 -2.1101  0.6735 -0.3140
  727TMC3    C710805   0.484   3.640  10.564  0.2962 -0.0215  0.5157
  727TMC3    C810806   0.906   3.450  10.464 -0.3766 -0.8583 -0.0013
  727TMC3    O110807   0.537   3.741  10.519 -0.2161  0.7407  0.0788
  727TMC3    O210808   0.912   3.394  10.352 -0.0148 -0.4003 -0.0378
  728TMC3    C110809   4.235   1.845  14.999 -0.0752  0.0653 -0.0351
  728TMC3    C210810   4.356   1.900  14.973  0.0956  0.2734  0.5624
  728TMC3    C310811   4.368   2.009  14.884 -0.3145  0.3807 -0.2380
  728TMC3    C410812   4.123   1.897  14.941  0.5309  0.5618  0.2686
  728TMC3    C510813   4.143   2.002  14.851 -0.4399 -0.0989 -0.0848
  728TMC3    C610814   4.265   2.053  14.817  0.3850 -0.2597  0.3926
  728TMC3     C10815   4.217   1.814  15.139 -0.2583  0.1086 -0.0226
  728TMC3     O10816   4.321   1.783  15.201 -0.2275  0.3463  0.0698
  728TMC3     H10817   4.444   1.865  15.025  0.7915 -0.1725 -0.9027
  728TMC3    H110818   4.026   1.849  14.948  1.0422 -0.5364 -0.2673
  728TMC3    H210819   4.265   2.134  14.745 -1.0624 -0.4819  0.1405
  728TMC3    C710820   4.025   2.051  14.777  0.0118 -0.7560 -0.0697
  728TMC3    C810821   4.491   2.091  14.915  0.1603 -0.3322 -0.2580
  728TMC3    O110822   3.934   1.975  14.753 -0.6860 -0.7110 -0.0428
  728TMC3    O210823   4.535   2.091  15.030  0.1482  0.4440 -0.7990
  729MPD2     C10824   1.620   2.452  16.512  0.4152 -0.3743 -0.1991
  729MPD2    C110825   1.598   2.586  16.493  0.5589 -0.4687  0.3843
  729MPD2    C210826   1.510   2.651  16.580  0.3507 -0.4546  0.5728
  729MPD2    C310827   1.468   2.592  16.696  0.3796  0.1318  0.5581
  729MPD2    C410828   1.499   2.459  16.713  0.1202  0.7372  0.2524
  729MPD2    C510829   1.569   2.392  16.616  0.3693  0.2126 -0.7214
  729MPD2     H10830   1.508   2.759  16.568 -1.9500 -0.4626  1.0730
  729MPD2    H110831   1.475   2.403  16.803 -4.4619  0.6035 -1.0571
  729MPD2    H210832   1.683   2.393  16.446  2.1367  0.6869  0.5019
  729MPD2    H310833   1.590   2.288  16.640  0.7161  1.0114  2.4581
  729MPD2     N10834   1.402   2.660  16.796 -0.9597  0.6496 -0.2674
  729MPD2    H510835   1.378   2.609  16.880 -0.2353  1.0412  0.1771
  729MPD2    N110836   1.673   2.658  16.396 -0.3150  0.3328 -0.3018
  729MPD2    H710837   1.747   2.609  16.345  1.3128 -0.5287  2.8974
  730TMC3    C110838   1.329   2.837  16.927 -0.1614  0.2437  0.0123
  730TMC3    C210839   1.426   2.825  17.020  0.0379  0.1120  1.3574
  730TMC3    C310840   1.422   2.904  17.135  0.6112  0.2229  0.2596
  730TMC3    C410841   1.237   2.939  16.932 -0.2051 -0.1327 -0.0034
  730TMC3    C510842   1.217   3.000  17.050  0.2598  0.1992 -0.3417
  730TMC3    C610843   1.307   2.976  17.147 -0.4966 -0.6383  0.9568
  730TMC3     C10844   1.363   2.794  16.793  0.1810 -0.0526 -0.9711
  730TMC3     O10845   1.368   2.884  16.709 -0.2560 -1.2206  0.4577
  730TMC3     H10846   1.511   2.761  17.001  1.0084  1.5353  0.9031
  730TMC3    H110847   1.166   2.959  16.852  0.5062 -1.6640 -1.0185
  730TMC3    H210848   1.278   3.010  17.246 -1.1001 -0.2836  0.6567
  730TMC3    C710849   1.184   3.141  17.039  0.3867 -0.5117 -0.2686
  730TMC3    C810850   1.545   2.991  17.138 -0.8854  0.6396 -0.6726
  730TMC3    O110851   1.221   3.199  16.938 -0.3694 -0.1985  0.1276
  730TMC3    O210852   1.638   2.953  17.067 -0.1512  0.2665 -0.1087
  731MPD2     C10853   1.406   1.237  12.763  0.2721 -0.9254 -0.2134
  731MPD2    C110854   1.485   1.126  12.781  0.6957  0.2468 -0.6673
  731MPD2    C210855   1.448   1.025  12.867 -0.4479  0.2536  0.0650
  731MPD2    C310856   1.327   1.027  12.933  0.2677 -0.1238 -0.4986
  731MPD2    C410857   1.252   1.142  12.919 -0.0371 -0.0129 -0.2820
  731MPD2    C510858   1.285   1.247  12.834  0.5299  0.1111  0.5121
  731MPD2     H10859   1.508   0.936  12.879  1.7305  1.6247 -0.5025
  731MPD2    H110860   1.153   1.146  12.963 -0.5352 -3.2386 -1.1477
  731MPD2    H210861   1.427   1.313  12.690 -2.2192  1.0199  1.0930
  731MPD2    H310862   1.222   1.332  12.812  0.2740  0.1662  1.4645
  731MPD2     N10863   1.290   0.918  13.009 -0.0758 -0.4018  0.2543
  731MPD2    H510864   1.358   0.843  13.020  0.5897  0.3173  1.0771
  731MPD2    N110865   1.597   1.124  12.702 -0.2744  0.0674  0.3851
  731MPD2    H710866   1.602   1.199  12.634  3.2813  1.1747  1.8757
  732TMC3    C110867   1.777   1.036  12.570  0.6941 -0.1203 -0.4457
  732TMC3    C210868   1.713   1.073  12.450  0.0309 -1.1200 -0.6428
  732TMC3    C310869   1.791   1.120  12.349 -0.3118 -0.1515  0.2123
  732TMC3    C410870   1.912   1.052  12.593 -0.5772  0.4298  0.5147
  732TMC3    C510871   1.983   1.103  12.487  0.2971  0.0557 -0.4638
  732TMC3    C610872   1.926   1.124  12.366 -0.4176 -0.0367  0.3950
  732TMC3     C10873   1.701   1.028  12.689 -1.0058  0.9879  0.3937
  732TMC3     O10874   1.714   0.928  12.762  0.1060 -0.0491  0.4010
  732TMC3     H10875   1.606   1.086  12.439  0.0062 -0.1805  0.7728
  732TMC3    H110876   1.945   1.035  12.695 -0.1646  1.5182  0.5670
  732TMC3    H210877   1.988   1.153  12.282 -1.4308  0.9894 -0.0064
  732TMC3    C710878   2.132   1.131  12.504  0.0331 -0.1076 -0.1601
  732TMC3    C810879   1.741   1.104  12.211  0.0874 -0.4636  0.1249
  732TMC3    O110880   2.181   1.193  12.413  0.1468  0.2682 -0.3060
  732TMC3    O210881   1.795   1.177  12.127 -0.6216 -0.2419 -0.1504
  733TMC3    C110882   2.191   4.016  12.774 -0.8100  0.1374  0.8119
  733TMC3    C210883   2.225   4.086  12.657  0.1190 -0.1675 -0.1129
  733TMC3    C310884   2.354   4.093  12.622 -0.4214 -0.1941  0.5722
  733TMC3    C410885   2.276   3.970  12.859 -0.2807 -0.6621  0.0210
  733TMC3    C510886   2.404   3.982  12.820  0.2531 -0.2130 -0.1280
  733TMC3    C610887   2.452   4.036  12.697  0.1374 -0.3798 -0.2565
  733TMC3     C10888   2.048   4.013  12.802 -0.2234  0.2217  0.1300
  733TMC3     O10889   1.980   4.049  12.710 -0.2248  0.3575 -0.0238
  733TMC3     H10890   2.153   4.132  12.591  0.7437  2.0795  0.7618
  733TMC3    H110891   2.249   3.920  12.952 -0.2714 -0.4262  0.1487
  733TMC3    H210892   2.552   4.020  12.660  0.2897 -0.6457  0.2718
  733TMC3    C710893   2.506   3.902  12.885  0.2205  0.2624  0.8671
  733TMC3    C810894   2.391   4.198  12.522 -0.2210  0.3136 -0.2294
  733TMC3    O110895   2.475   3.789  12.928 -0.1544  0.3252  0.0594
  733TMC3    O210896   2.326   4.300  12.517  0.5966 -0.1897 -0.3829
  734MPD2     C10897   4.233   1.969  12.780 -0.6507 -0.0366 -0.2382
  734MPD2    C110898   4.190   1.887  12.679 -0.1795  0.1255  0.0445
  734MPD2    C210899   4.220   1.927  12.550 -0.2939  0.4186  0.2554
  734MPD2    C310900   4.271   2.055  12.519  0.4311 -0.0393 -0.1343
  734MPD2    C410901   4.309   2.139  12.622 -0.6029 -0.3406  0.0341
  734MPD2    C510902   4.294   2.093  12.753  0.5062 -0.6299 -0.4368
  734MPD2     H10903   4.210   1.872  12.457 -0.8548  1.4384 -0.2923
  734MPD2    H110904   4.361   2.232  12.602 -3.1287  1.0674 -0.0881
  734MPD2    H210905   4.231   1.946  12.886 -0.3275 -1.1657 -0.4807
  734MPD2    H310906   4.323   2.155  12.837  2.9859 -0.7597 -1.2072
  734MPD2     N10907   4.298   2.072  12.384 -0.7319  0.3471 -0.3269
  734MPD2    H510908   4.268   1.996  12.323  1.4726 -0.4403 -0.4130
  734MPD2    N110909   4.127   1.758  12.697 -0.6053 -0.4080  0.2690
  734MPD2    H710910   4.113   1.718  12.789 -1.9075 -0.6667 -0.0527
  735TMC3    C110911   4.043   1.549  12.638  0.6584 -0.2141  0.4043
  735TMC3    C210912   3.926   1.526  12.567  0.5661  0.4724  0.4857
  735TMC3    C310913   3.911   1.409  12.496  0.2535  0.7080 -0.1439
  735TMC3    C410914   4.139   1.456  12.638 -0.0317  0.0793 -0.2867
  735TMC3    C510915   4.118   1.329  12.584 -0.5116  0.6632  0.9984
  735TMC3    C610916   3.998   1.301  12.518 -0.6809 -0.4908  0.3994
  735TMC3     C10917   4.090   1.679  12.597  0.3558 -0.1609 -0.5063
  735TMC3     O10918   4.063   1.711  12.483  0.4601 -0.2421 -0.9391
  735TMC3     H10919   3.866   1.614  12.550 -0.2314 -0.1653 -0.0094
  735TMC3    H110920   4.237   1.472  12.681 -0.0792  0.7896 -0.4261
  735TMC3    H210921   3.977   1.206  12.470  0.3401  0.2203 -1.4507
  735TMC3    C710922   4.241   1.254  12.562 -0.1690 -0.1577  0.6944
  735TMC3    C810923   3.857   1.430  12.362 -0.5009 -0.1469  0.0390
  735TMC3    O110924   4.338   1.322  12.541  0.4490 -0.0805  0.2120
  735TMC3    O210925   3.775   1.357  12.301 -0.1914  0.6700 -0.2851
  736MPD2     C10926   4.265   0.890  12.479 -0.6201 -0.0304  0.0926
  736MPD2    C110927   4.311   1.018  12.511  0.0365 -0.2364  0.0721
  736MPD2    C210928   4.448   1.050  12.501  0.1719 -0.3987  0.7810
  736MPD2    C310929   4.543   0.951  12.459  0.0964  0.2570 -0.0471
  736MPD2    C410930   4.494   0.829  12.435 -0.1863  0.5364  0.8685
  736MPD2    C510931   4.363   0.800  12.452 -0.0583 -0.0865 -0.1487
  736MPD2     H10932   4.497   1.143  12.529  0.0869  0.1626 -0.9645
  736MPD2    H110933   4.560   0.756  12.389 -2.2931 -0.1911 -0.9842
  736MPD2    H210934   4.164   0.850  12.483 -1.2481  1.4077 -1.8573
  736MPD2    H310935   4.331   0.696  12.447 -0.3103 -0.0398  0.4485
  736MPD2     N10936   4.682   0.961  12.422 -1.1753 -0.2152 -0.4471
  736MPD2    H510937   4.732   0.878  12.391  0.3426  0.1651  0.9688
  736MPD2    N110938   4.211   1.123  12.530  0.3784  0.2358  0.3557
  736MPD2    H710939   4.116   1.090  12.545  0.2825  0.5795  0.5010
  737TMC3    C110940   0.154   1.063  12.347  0.2966 -0.8304  0.5293
  737TMC3    C210941   0.215   1.187  12.316 -0.2366 -0.1010 -0.6839
  737TMC3    C310942   0.330   1.172  12.236  0.5355 -0.0607 -0.3558
  737TMC3    C410943   0.195   0.943  12.300 -0.5743 -0.5662  0.0678
  737TMC3    C510944   0.305   0.940  12.218 -0.6641 -0.1832 -0.5622
  737TMC3    C610945   0.373   1.049  12.181  0.0394 -0.3709 -0.0314
  737TMC3     C10946   0.019   1.078  12.397  0.3028 -0.5669 -1.2251
  737TMC3     O10947   4.713   1.191  12.414  0.5033  0.9923 -0.0892
  737TMC3     H10948   0.168   1.280  12.346 -1.2780 -1.7838  2.8358
  737TMC3    H110949   0.148   0.848  12.319  0.0488 -0.9908 -0.5176
  737TMC3    H210950   0.461   1.038  12.119 -1.5695 -0.5353 -2.2732
  737TMC3    C710951   0.317   0.810  12.145  0.1160  0.2003  0.5839
  737TMC3    C810952   0.395   1.296  12.201 -0.2459  0.5340 -1.1879
  737TMC3    O110953   0.286   0.713  12.209  1.0222  0.4388 -0.2611
  737TMC3    O210954   0.378   1.397  12.273 -0.9408  0.7366 -0.3742
  738MPD2     C10955   0.292   0.495  15.186  0.0320 -0.1440  0.0973
  738MPD2    C110956   0.371   0.473  15.297 -0.0234  0.7978 -0.2892
  738MPD2    C210957   0.485   0.553  15.315 -0.2022  0.4311  0.0831
  738MPD2    C310958   0.528   0.646  15.217 -0.1237 -0.0814 -0.6187
  738MPD2    C410959   0.442   0.661  15.113 -0.0731  0.2365 -0.1267
  738MPD2    C510960   0.325   0.592  15.096 -0.4860  0.1721 -0.6550
  738MPD2     H10961   0.541   0.523  15.403 -1.7598  0.8171  1.2143
  738MPD2    H110962   0.471   0.723  15.029 -0.3842  1.7171  0.8579
  738MPD2    H210963   0.203   0.435  15.172  0.9293 -1.5063  0.1663
  738MPD2    H310964   0.277   0.610  15.000  1.8438 -1.8209 -2.1628
  738MPD2     N10965   0.650   0.715  15.210  0.2525 -0.1768 -0.0363
  738MPD2    H510966   0.673   0.760  15.122  1.0456  1.4932  1.0302
  738MPD2    N110967   0.349   0.359  15.381  0.5818  0.2096  0.3770
  738MPD2    H710968   0.434   0.334  15.431  2.5368  0.4070 -2.8614
  739TMC3    C110969   0.866   0.785  15.283 -0.0604 -0.2594  0.2628
  739TMC3    C210970   0.908   0.787  15.151  0.6481 -0.3249  0.6902
  739TMC3    C310971   1.009   0.874  15.118 -0.6022  0.5912 -0.2078
  739TMC3    C410972   0.924   0.861  15.380  0.3463 -0.6136 -0.5129
  739TMC3    C510973   1.017   0.951  15.343  0.0218  0.7041  0.7752
  739TMC3    C610974   1.059   0.967  15.208  0.2579 -0.1912  0.5191
  739TMC3     C10975   0.743   0.722  15.310  0.1547 -0.1774 -0.4996
  739TMC3     O10976   0.727   0.674  15.423 -0.1184 -0.2868 -0.0458
  739TMC3     H10977   0.869   0.727  15.069 -1.7657 -0.2816  1.7980
  739TMC3    H110978   0.885   0.853  15.480 -0.9804 -3.2562 -1.2424
  739TMC3    H210979   1.133   1.034  15.166 -0.2291 -0.2905 -0.5039
  739TMC3    C710980   1.038   1.066  15.425  0.0014 -0.6580 -0.1084
  739TMC3    C810981   1.052   0.871  14.979  1.2505  0.3115 -0.1233
  739TMC3    O110982   0.965   1.085  15.523  0.3910 -0.4519  0.8416
  739TMC3    O210983   0.997   0.787  14.903 -0.2829  0.0131  0.0481
  740TMC3    C110984   1.334   2.061  14.430 -0.2285 -0.1310 -0.1951
  740TMC3    C210985   1.418   2.074  14.532  0.2281 -0.0408 -0.6669
  740TMC3    C310986   1.543   2.018  14.509 -0.1197  0.2592 -0.7799
  740TMC3    C410987   1.374   2.020  14.303  0.0831  0.2320  0.6743
  740TMC3    C510988   1.496   1.964  14.292  0.1188 -0.6792  0.4506
  740TMC3    C610989   1.587   1.961  14.393  0.2293  0.0430 -0.4725
  740TMC3     C10990   1.199   2.098  14.452 -1.4882 -0.4788  0.1263
  740TMC3     O10991   1.148   2.163  14.357 -0.7506 -0.1317 -0.1859
  740TMC3     H10992   1.391   2.085  14.636  0.9603 -2.1636 -0.2606
  740TMC3    H110993   1.296   2.010  14.228 -0.1997  0.6366  0.9144
  740TMC3    H210994   1.683   1.911  14.381 -0.5602 -1.4550 -0.4746
  740TMC3    C710995   1.529   1.877  14.177 -0.1912  0.6403  0.4652
  740TMC3    C810996   1.624   1.995  14.628 -0.0943 -0.3012  0.1226
  740TMC3    O110997   1.622   1.798  14.193  0.2989  0.7253 -0.1249
  740TMC3    O210998   1.619   2.080  14.715  0.7504  0.3117 -0.3009
  741TMC3    C110999   0.774   1.279  14.389 -0.0829 -0.2219 -0.3197
  741TMC3    C211000   0.677   1.196  14.431  0.0579 -0.5889 -0.2293
  741TMC3    C311001   0.688   1.123  14.543  0.3163 -0.2141  0.5778
  741TMC3    C411002   0.885   1.292  14.466 -0.0419  0.1702 -0.9561
  741TMC3    C511003   0.900   1.215  14.582 -0.4202  0.1494 -0.0041
  741TMC3    C611004   0.804   1.123  14.619  0.6642 -0.2195  0.4882
  741TMC3     C11005   0.730   1.383  14.294  0.1206 -0.1234 -0.5829
  741TMC3     O11006   0.618   1.371  14.249  0.6036 -0.2036  0.6558
  741TMC3     H11007   0.584   1.203  14.377  0.5207 -0.0320 -0.9654
  741TMC3    H111008   0.959   1.370  14.449  2.0902 -1.4233  1.0237
  741TMC3    H211009   0.822   1.053  14.701 -0.0178 -0.9608  0.0039
  741TMC3    C711010   1.023   1.234  14.650 -0.1193 -0.0938 -0.7034
  741TMC3    C811011   0.586   1.019  14.558 -0.5202 -0.0483  0.0114
  741TMC3    O111012   1.113   1.277  14.576  0.2881 -0.5728  0.1736
  741TMC3    O211013   0.470   1.046  14.528 -0.2599  0.1262  0.2503
  742TMC3    C111014   0.712   4.022  15.845 -0.6906 -0.8237 -0.8034
  742TMC3    C211015   0.611   4.010  15.750 -0.5873  0.7703 -0.0510
  742TMC3    C311016   0.625   4.076  15.627  0.4359  0.4002  0.3159
  742TMC3    C411017   0.833   4.084  15.824  0.2298  0.1505 -0.2660
  742TMC3    C511018   0.845   4.138  15.697 -0.5579 -0.4381  0.3232
  742TMC3    C611019   0.747   4.137  15.603 -0.0505  0.1237 -0.3505
  742TMC3     C11020   0.692   3.964  15.977 -0.7472  0.5461 -0.6059
  742TMC3     O11021   0.740   4.019  16.076  0.3448 -0.2953 -0.1163
  742TMC3     H11022   0.510   3.987  15.782  1.0657 -1.2708  3.6839
  742TMC3    H111023   0.909   4.091  15.900 -0.1211  0.1035  0.0907
  742TMC3    H211024   0.776   4.176  15.506  1.2773  1.6521  0.6665
  742TMC3    C711025   0.980   4.190  15.674  0.1572 -0.5773  0.4853
  742TMC3    C811026   0.517   4.086  15.537  0.1013 -0.0783  0.2453
  742TMC3    O111027   1.066   4.133  15.735  0.1168  0.2937 -0.1387
  742TMC3    O211028   0.401   4.067  15.574  0.0803  0.0124 -0.5271
  743MPD2     C11029   3.224   4.355   1.559 -0.2569  0.8366  0.2740
  743MPD2    C111030   3.288   4.478   1.575 -0.0684  0.3445 -0.6456
  743MPD2    C211031   3.422   4.482   1.604  0.1513 -0.2232 -0.3872
  743MPD2    C311032   3.497   4.364   1.625  0.1714  0.2302 -0.7259
  743MPD2    C411033   3.431   4.248   1.619  0.1572 -0.1420  0.0089
  743MPD2    C511034   3.303   4.242   1.582  0.0637 -0.3612  0.0310
  743MPD2     H11035   3.482   4.572   1.609 -0.2390  0.0850 -1.3023
  743MPD2    H111036   3.481   4.152   1.632 -1.7181 -1.0456  0.6163
  743MPD2    H211037   3.117   4.345   1.543 -0.0556 -0.1519 -0.4264
  743MPD2    H311038   3.253   4.146   1.575  0.8041 -0.8698  1.7965
  743MPD2     N11039   3.639   4.369   1.638  0.3815  0.4029 -1.1726
  743MPD2    H511040   3.681   4.461   1.633 -0.1548  0.5452 -3.3405
  743MPD2    N111041   3.211   4.596   1.553 -0.7129  0.3424  0.5679
  743MPD2    H711042   3.118   4.585   1.514 -1.0096 -1.1079  1.6834
  744TMC3    C111043   3.184   0.099   1.565  0.0020  0.0990  0.3204
  744TMC3    C211044   3.191   0.211   1.646 -0.5606 -0.2789 -0.3519
  744TMC3    C311045   3.130   0.323   1.598 -0.0497  0.1861 -0.3952
  744TMC3    C411046   3.123   0.098   1.441  0.3594  0.1242  0.3611
  744TMC3    C511047   3.075   0.218   1.401  0.1983 -0.1114 -0.6684
  744TMC3    C611048   3.066   0.332   1.476  0.3645 -1.2349 -0.6117
  744TMC3     C11049   3.256   4.717   1.606 -0.4358 -0.0675 -0.2047
  744TMC3     O11050   3.341   0.016   1.685  0.0130  0.0174  0.7798
  744TMC3     H11051   3.234   0.208   1.746  0.5646  0.9795 -0.7987
  744TMC3    H111052   3.122   0.006   1.384 -1.1925  0.4657 -0.1770
  744TMC3    H211053   3.035   0.431   1.445  1.6382  0.2467  2.8341
  744TMC3    C711054   3.009   0.226   1.273 -0.4756  0.5649 -0.1468
  744TMC3    C811055   3.120   0.438   1.680  0.3695 -0.3545  0.4265
  744TMC3    O111056   2.958   0.332   1.235 -0.2598  0.4651 -0.2271
  744TMC3    O211057   3.048   0.525   1.637  0.2741  0.1620  0.8377
  745TMC3    C111058   0.850   4.099  13.598 -0.3420  0.5721 -0.0419
  745TMC3    C211059   0.817   4.104  13.730  0.7643 -0.1537 -0.5851
  745TMC3    C311060   0.718   4.194  13.773  0.3251  0.7584  0.1617
  745TMC3    C411061   0.771   4.174  13.513  0.4162  0.3853 -0.2563
  745TMC3    C511062   0.681   4.265  13.558 -0.6622 -0.1832  0.8005
  745TMC3    C611063   0.643   4.273  13.690  0.4244  0.4194 -0.4523
  745TMC3     C11064   0.984   4.136  13.561 -0.4142  0.2272 -0.0031
  745TMC3     O11065   0.993   4.181  13.442 -0.0298 -0.3462 -0.3679
  745TMC3     H11066   0.865   4.039  13.802 -0.1485 -1.4508 -1.1557
  745TMC3    H111067   0.770   4.151  13.407 -0.3398 -0.3277 -0.1016
  745TMC3    H211068   0.583   4.358  13.721 -0.7080 -0.2020 -0.9646
  745TMC3    C711069   0.692   4.391  13.484  0.0001 -0.4576  0.2118
  745TMC3    C811070   0.694   4.218  13.910  0.2361  0.5471  0.1091
  745TMC3    O111071   0.600   4.474  13.484  0.0951  0.2444 -0.1150
  745TMC3    O211072   0.589   4.276  13.941 -0.1616  0.2170 -0.2640
  746TMC3    C111073   3.830   0.994  11.148  0.7294 -0.4791 -0.3813
  746TMC3    C211074   3.916   0.972  11.043 -0.1222  0.0134 -0.2920
  746TMC3    C311075   3.910   0.846  10.985  0.3758 -0.1039  0.6180
  746TMC3    C411076   3.756   0.897  11.215 -0.0268  0.2366 -0.4516
  746TMC3    C511077   3.769   0.774  11.156 -0.0802 -0.2419 -0.0723
  746TMC3    C611078   3.834   0.749  11.038 -0.4845 -0.3925  0.3786
  746TMC3     C11079   3.781   1.127  11.165  0.9247  0.2037 -0.0659
  746TMC3     O11080   3.688   1.135  11.241 -0.1375  0.0112 -0.1173
  746TMC3     H11081   3.986   1.045  11.004  0.3330 -0.6347 -0.6858
  746TMC3    H111082   3.684   0.918  11.293  0.7432  1.1113  0.0217
  746TMC3    H211083   3.836   0.652  10.991 -0.0755 -1.0836  1.8229
  746TMC3    C711084   3.639   0.721  11.138  0.1610 -0.1041 -0.1786
  746TMC3    C811085   3.922   0.848  10.843 -0.5319 -0.1080 -0.2810
  746TMC3    O111086   3.602   0.702  11.024  0.4220  0.2483  0.3618
  746TMC3    O211087   4.023   0.887  10.786 -0.0108  0.1277 -0.0830
  747TMC3    C111088   0.616   0.681  11.110  0.7059  0.2383 -0.3980
  747TMC3    C211089   0.521   0.648  11.205  0.0244  0.6915  0.5018
  747TMC3    C311090   0.528   0.715  11.324  0.6725  0.2752  0.2208
  747TMC3    C411091   0.710   0.781  11.131 -0.1806  0.0949  0.6902
  747TMC3    C511092   0.713   0.849  11.248  0.1460  0.0401 -0.5236
  747TMC3    C611093   0.620   0.811  11.348  0.2512  0.0903  0.2044
  747TMC3     C11094   0.595   0.639  10.974  0.1532  0.4840 -0.4159
  747TMC3     O11095   0.473   0.632  10.944 -0.2430  0.4023  0.4312
  747TMC3     H11096   0.439   0.580  11.188  1.0759 -0.5063  0.1893
  747TMC3    H111097   0.774   0.811  11.049 -3.6724  1.8936 -1.3782
  747TMC3    H211098   0.642   0.855  11.444 -1.7252 -0.8948  1.1016
  747TMC3    C711099   0.830   0.923  11.289  0.6441 -0.4128  0.2138
  747TMC3    C811100   0.458   0.655  11.440  0.9333  0.0079 -0.4373
  747TMC3    O111101   0.815   1.021  11.364  0.2210  0.0288 -0.5112
  747TMC3    O211102   0.411   0.544  11.417 -0.0647  0.2919  0.1294
  748MPD2     C11103   2.510   2.063   1.990  0.4755  0.5962  0.1118
  748MPD2    C111104   2.602   1.965   2.023 -0.6272  0.1948  0.4802
  748MPD2    C211105   2.729   1.975   1.971 -0.1021  0.2791 -1.3552
  748MPD2    C311106   2.750   2.075   1.880  0.8325 -0.1867 -0.1385
  748MPD2    C411107   2.657   2.169   1.845 -0.6598  0.3742 -0.0252
  748MPD2    C511108   2.539   2.165   1.910  0.1346 -0.1890 -0.0367
  748MPD2     H11109   2.808   1.908   2.003  1.2022  2.5646  0.1725
  748MPD2    H111110   2.667   2.237   1.761 -0.2980 -1.9365 -1.8379
  748MPD2    H211111   2.411   2.053   2.033 -0.0501  1.4506 -0.9305
  748MPD2    H311112   2.453   2.222   1.876  0.5476 -1.6943 -3.6348
  748MPD2     N11113   2.883   2.075   1.830 -0.1367 -0.2346 -0.9740
  748MPD2    H511114   2.943   2.003   1.869 -0.5009 -0.0920 -0.1346
  748MPD2    N111115   2.560   1.858   2.115 -0.5675 -0.1839  0.1211
  748MPD2    H711116   2.465   1.861   2.152 -0.8913 -0.3348 -0.7058
  749TMC3    C111117   3.032   2.086   1.651  0.4499 -0.6093 -0.7751
  749TMC3    C211118   3.105   1.988   1.711  0.2953  0.4815 -0.0753
  749TMC3    C311119   3.174   1.895   1.629 -0.4623  0.2115  0.1729
  749TMC3    C411120   3.039   2.108   1.516  0.0312 -0.9236  0.3459
  749TMC3    C511121   3.128   2.032   1.444 -0.1749  0.1925 -0.6479
  749TMC3    C611122   3.196   1.926   1.501 -0.9689 -0.3104 -0.0450
  749TMC3     C11123   2.917   2.147   1.721 -0.8544 -0.1410  0.2017
  749TMC3     O11124   2.854   2.230   1.657  0.0687 -0.1911  0.1948
  749TMC3     H11125   3.113   1.985   1.819  1.5720  0.5323 -0.1682
  749TMC3    H111126   2.988   2.193   1.472 -0.1191 -0.2085  1.9018
  749TMC3    H211127   3.268   1.869   1.444  0.2603  0.7878  0.4137
  749TMC3    C711128   3.154   2.063   1.309  1.0590 -0.3186 -0.1250
  749TMC3    C811129   3.247   1.796   1.699  0.0645  0.9592  0.1864
  749TMC3    O111130   3.127   2.177   1.283 -0.0423 -0.4502  0.2815
  749TMC3    O211131   3.261   1.808   1.820 -0.1352 -0.0591  0.4063
  750MPD2     C11132   3.550   2.811  11.332  0.2764 -0.0517  0.0529
  750MPD2    C111133   3.416   2.785  11.299 -0.3629 -0.4533  0.0582
  750MPD2    C211134   3.398   2.670  11.220 -0.4345 -0.2228 -0.3653
  750MPD2    C311135   3.509   2.596  11.170 -0.5258  0.4420  0.6703
  750MPD2    C411136   3.635   2.635  11.209 -0.4450 -0.8205  0.6246
  750MPD2    C511137   3.654   2.747  11.283  0.2990 -0.0790 -0.0775
  750MPD2     H11138   3.298   2.638  11.195 -0.2768 -1.0402  0.0479
  750MPD2    H111139   3.719   2.576  11.174  0.9159  0.5710  1.5959
  750MPD2    H211140   3.571   2.900  11.391  1.4399  0.2106 -0.7651
  750MPD2    H311141   3.754   2.774  11.316 -0.5307  2.1673  0.5866
  750MPD2     N11142   3.492   2.484  11.086 -0.2263  0.0831  0.5969
  750MPD2    H511143   3.575   2.427  11.078  1.6630  3.0321 -0.7146
  750MPD2    N111144   3.307   2.860  11.344 -0.1230  0.1043 -0.7403
  750MPD2    H711145   3.328   2.934  11.410  1.7989 -0.0403 -1.1903
  751TMC3    C111146   3.385   2.301  10.974 -0.1971 -0.2329 -0.1299
  751TMC3    C211147   3.280   2.211  10.990  0.2337  0.2836  0.1657
  751TMC3    C311148   3.304   2.082  10.967 -0.0112 -0.6444 -0.2647
  751TMC3    C411149   3.509   2.268  10.926 -0.0001  0.3347  0.0177
  751TMC3    C511150   3.523   2.135  10.893 -0.1052 -0.0403  0.5401
  751TMC3    C611151   3.424   2.042  10.915  0.9014 -0.1528  0.3483
  751TMC3     C11152   3.369   2.434  11.038  0.0094  0.6289  0.2641
  751TMC3     O11153   3.252   2.463  11.050  0.1899 -0.6265  0.7986
  751TMC3     H11154   3.179   2.229  11.024 -0.6422  0.6063 -2.6207
  751TMC3    H111155   3.592   2.337  10.913  1.1135 -1.0310 -0.0857
  751TMC3    H211156   3.446   1.938  10.899  1.6709  0.0331  0.2156
  751TMC3    C711157   3.629   2.106  10.804  0.3720  0.0391  0.2938
  751TMC3    C811158   3.205   1.973  10.954 -0.6650 -0.9348  0.1927
  751TMC3    O111159   3.726   2.177  10.795 -0.2957  0.0135  0.2879
  751TMC3    O211160   3.234   1.869  10.903  0.0056  0.1505  0.2014
  752TMC3    C111161   1.966   2.719  17.318 -0.6977  0.4196 -0.3252
  752TMC3    C211162   2.024   2.643  17.421 -0.9548  0.6548 -0.6862
  752TMC3    C311163   1.948   2.635  17.534 -1.0137 -0.1229  0.1776
  752TMC3    C411164   1.838   2.773  17.325  0.3964 -0.4857  0.2102
  752TMC3    C511165   1.770   2.759  17.443 -0.3822 -0.4058 -0.2229
  752TMC3    C611166   1.824   2.694  17.549 -0.4902 -0.0212  0.0321
  752TMC3     C11167   2.063   2.771  17.228 -0.8919  0.1793 -0.6164
  752TMC3     O11168   2.181   2.769  17.255 -0.5001 -0.1846 -0.2476
  752TMC3     H11169   2.127   2.610  17.414 -0.7066  1.7391 -2.0752
  752TMC3    H111170   1.812   2.850  17.254 -1.3380 -1.7980 -0.5890
  752TMC3    H211171   1.765   2.693  17.640 -0.4079 -1.3883  0.0735
  752TMC3    C711172   1.643   2.823  17.447  0.2436  0.3375 -0.7032
  752TMC3    C811173   2.005   2.560  17.651 -0.7558  0.3764 -0.3543
  752TMC3    O111174   1.551   2.756  17.405 -0.1299 -0.7282  0.0095
  752TMC3    O211175   1.944   2.579   0.022  0.1060 -0.0957  0.0372
  753TMC3    C111176   4.339   3.918  13.560 -0.8885  0.1088  0.0035
  753TMC3    C211177   4.406   3.890  13.677 -0.6742  0.1749 -0.3142
  753TMC3    C311178   4.473   3.771  13.683 -0.0071 -0.3567 -0.2537
  753TMC3    C411179   4.335   3.823  13.457  0.1809  0.3779  0.1659
  753TMC3    C511180   4.390   3.702  13.475  1.0315  0.1497  0.2468
  753TMC3    C611181   4.462   3.671  13.589 -0.1197  0.3798 -0.1716
  753TMC3     C11182   4.300   4.055  13.510  0.6640 -0.0084 -0.4095
  753TMC3     O11183   4.227   4.059  13.412 -0.4186  0.0641 -0.8694
  753TMC3     H11184   4.398   3.958  13.761 -0.6802 -0.3344  0.0981
  753TMC3    H111185   4.284   3.842  13.363  1.4711 -0.9453 -0.8163
  753TMC3    H211186   4.499   3.570  13.597  3.8492  1.6610 -2.6300
  753TMC3    C711187   4.373   3.596  13.368 -0.0069  0.0251 -0.5262
  753TMC3    C811188   4.551   3.724  13.801 -0.2015 -0.2191 -0.6513
  753TMC3    O111189   4.277   3.614  13.291 -0.1719  0.4554 -0.1556
  753TMC3    O211190   4.599   3.612  13.803  0.2021  0.5436  0.1544
  754MPD2     C11191   3.344   2.346  13.208  0.3637 -0.4298  0.5221
  754MPD2    C111192   3.288   2.219  13.217 -0.2251 -0.3752  0.1163
  754MPD2    C211193   3.158   2.208  13.178 -0.1115 -0.8906  0.0435
  754MPD2    C311194   3.078   2.319  13.158  0.4819  0.3748 -0.4883
  754MPD2    C411195   3.139   2.440  13.152  0.2253  0.5184 -0.2665
  754MPD2    C511196   3.269   2.454  13.178  0.1381  0.1167 -0.2029
  754MPD2     H11197   3.107   2.112  13.181 -1.4985 -0.0256  3.6535
  754MPD2    H111198   3.081   2.527  13.123  0.9848  0.7710 -1.0427
  754MPD2    H211199   3.443   2.371  13.246  0.6381 -3.4891  1.7810
  754MPD2    H311200   3.311   2.553  13.188 -1.3896  0.8895 -1.3826
  754MPD2     N11201   2.939   2.315  13.136  0.0516  0.4969  0.2890
  754MPD2    H511202   2.895   2.401  13.106  1.8349  1.5775  0.7491
  754MPD2    N111203   3.374   2.116  13.257  0.1779 -0.6451 -0.0253
  754MPD2    H711204   3.472   2.140  13.268  0.3889 -1.1471 -0.8056
  755MPD2     C11205   2.563   3.050  13.309  0.5080 -0.2342 -0.6718
  755MPD2    C111206   2.492   2.954  13.377  0.2853 -0.0508 -0.3303
  755MPD2    C211207   2.510   2.826  13.349 -0.0968 -0.5117 -0.0179
  755MPD2    C311208   2.591   2.776  13.243  0.1177 -0.0072 -0.4796
  755MPD2    C411209   2.668   2.877  13.181 -0.6366 -0.8666 -0.1453
  755MPD2    C511210   2.649   3.011  13.208 -0.2198  0.0940  0.3152
  755MPD2     H11211   2.451   2.758  13.410 -1.8825  0.9542 -0.1030
  755MPD2    H111212   2.746   2.851  13.111 -1.2734 -1.2893 -0.7008
  755MPD2    H211213   2.565   3.153  13.343  1.1124 -0.7091  0.7246
  755MPD2    H311214   2.717   3.077  13.156 -1.1603  1.5513  0.9368
  755MPD2     N11215   2.602   2.641  13.216  0.0234 -0.0912  0.2145
  755MPD2    H511216   2.675   2.607  13.154 -0.1469  2.9774 -1.6535
  755MPD2    N111217   2.389   2.986  13.470  0.4188 -1.1687 -0.7099
  755MPD2    H711218   2.370   2.911  13.535 -2.0064 -0.2306 -0.3535
  756MPD2     C11219   2.809   3.723   9.706 -0.2154  0.0058 -0.1207
  756MPD2    C111220   2.721   3.632   9.772 -0.5034  0.0492 -0.1969
  756MPD2    C211221   2.591   3.619   9.724  0.1118 -0.3387  0.3260
  756MPD2    C311222   2.550   3.695   9.615  0.1148  0.5041  0.0777
  756MPD2    C411223   2.640   3.777   9.550  0.0111 -0.0697 -0.2033
  756MPD2    C511224   2.768   3.792   9.596  0.7634 -0.5868 -0.2692
  756MPD2     H11225   2.532   3.536   9.761 -0.1177  0.4251  1.6902
  756MPD2    H111226   2.612   3.814   9.452 -0.3362  1.4424  0.4654
  756MPD2    H211227   2.909   3.748   9.740  0.2335 -2.3039  0.1923
  756MPD2    H311228   2.830   3.869   9.552 -0.4969  0.8200  0.4253
  756MPD2     N11229   2.421   3.689   9.569  0.1154 -0.2264  0.4706
  756MPD2    H511230   2.357   3.639   9.629 -3.3008  1.5534 -1.6845
  756MPD2    N111231   2.751   3.561   9.889 -0.0504  0.1413  0.4259
  756MPD2    H711232   2.672   3.523   9.941 -2.3241  2.0955 -1.5867
  757MPD2     C11233   1.945   3.005   9.824 -0.7362  0.4251 -0.6983
  757MPD2    C111234   2.073   3.056   9.839 -0.6622 -0.0467 -0.0424
  757MPD2    C211235   2.096   3.182   9.788 -0.0974 -0.2916 -0.1217
  757MPD2    C311236   2.012   3.235   9.699 -0.2418 -0.6169 -0.1251
  757MPD2    C411237   1.893   3.172   9.668 -0.0412  0.3025  0.4602
  757MPD2    C511238   1.859   3.058   9.736  0.3951  0.5092  0.0705
  757MPD2     H11239   2.188   3.238   9.807  0.9475 -1.6264 -1.2535
  757MPD2    H111240   1.825   3.210   9.592  0.6674 -0.2967 -0.4771
  757MPD2    H211241   1.919   2.909   9.868  0.1358  0.3306 -0.4053
  757MPD2    H311242   1.767   3.011   9.702  0.5717  0.3251 -0.1553
  757MPD2     N11243   2.051   3.356   9.631 -0.0807  0.1455 -0.0681
  757MPD2    H511244   2.130   3.404   9.673 -0.3220  0.5949 -0.1189
  757MPD2    N111245   2.152   2.991   9.936 -0.1615  0.0073  0.1664
  757MPD2    H711246   2.112   2.907   9.977  1.6112 -1.2223 -0.6033
  758MPD2     C11247   3.290   2.534  15.989  0.2039 -0.5491  0.5396
  758MPD2    C111248   3.269   2.413  16.048  0.1028 -0.2181  0.7605
  758MPD2    C211249   3.216   2.410  16.178  0.7320  0.3036  0.2430
  758MPD2    C311250   3.193   2.526  16.248 -0.1418  0.3765  0.0817
  758MPD2    C411251   3.220   2.646  16.190 -0.2919 -0.4516  1.2768
  758MPD2    C511252   3.272   2.652  16.062  0.0761  0.9829  0.0285
  758MPD2     H11253   3.203   2.312  16.222  0.1842  0.2582 -0.0075
  758MPD2    H111254   3.197   2.741  16.237 -1.6457 -1.7024  3.1509
  758MPD2    H211255   3.346   2.538  15.897 -1.5479 -1.5856 -0.5705
  758MPD2    H311256   3.305   2.743  16.013  0.7540  1.3232  1.1097
  758MPD2     N11257   3.160   2.523  16.385 -0.4773  0.4915  0.4707
  758MPD2    H511258   3.170   2.613  16.430  1.4415  0.2575  0.5302
  758MPD2    N111259   3.312   2.300  15.970 -0.3508  0.0148 -0.2858
  758MPD2    H711260   3.368   2.320  15.888 -0.4186  0.8744 -0.1252
  759MPD2     C11261   1.632   1.235   9.665 -0.2384  0.3422 -0.5277
  759MPD2    C111262   1.662   1.200   9.794  0.4683  0.4942  0.3450
  759MPD2    C211263   1.785   1.234   9.846  0.3802 -0.4852  0.0791
  759MPD2    C311264   1.883   1.303   9.772 -0.5157  0.4230 -0.5544
  759MPD2    C411265   1.848   1.324   9.640 -0.2334 -0.0667 -0.0767
  759MPD2    C511266   1.728   1.285   9.591  0.2687  0.2495 -0.5652
  759MPD2     H11267   1.801   1.221   9.952  3.0359 -1.4185 -0.4407
  759MPD2    H111268   1.910   1.377   9.568  1.2362 -1.2388  0.3051
  759MPD2    H211269   1.536   1.212   9.621 -1.0494  0.7524  1.0771
  759MPD2    H311270   1.701   1.310   9.489 -0.6885  3.0375  0.3673
  759MPD2     N11271   2.002   1.337   9.837  0.5728 -0.2608  0.0988
  759MPD2    H511272   2.015   1.323   9.937 -0.3047  0.9424  0.3675
  759MPD2    N111273   1.561   1.142   9.872  0.7869 -0.9545  0.3721
  759MPD2    H711274   1.587   1.131   9.969  0.0691 -1.2578  0.5318
  760MPD2     C11275   1.745   2.541  12.082 -0.5588 -0.0947  0.5125
  760MPD2    C111276   1.863   2.539  12.011  0.9245  0.2755 -0.1784
  760MPD2    C211277   1.903   2.416  11.957 -0.4336  0.0913 -0.1476
  760MPD2    C311278   1.831   2.300  11.974  0.6740 -0.5882 -0.1225
  760MPD2    C411279   1.711   2.304  12.043  0.1466  0.6064 -0.3417
  760MPD2    C511280   1.669   2.421  12.096 -0.1557 -0.4215 -0.3421
  760MPD2     H11281   2.002   2.408  11.912 -0.3192 -1.0091  0.2875
  760MPD2    H111282   1.649   2.215  12.049  1.5607 -0.3532  0.2193
  760MPD2    H211283   1.709   2.632  12.128 -1.1131 -0.8576  1.5851
  760MPD2    H311284   1.567   2.432  12.132 -0.2321  0.1804 -0.7507
  760MPD2     N11285   1.872   2.178  11.921  0.3907 -0.3646  0.1454
  760MPD2    H511286   1.805   2.101  11.925 -0.5368  0.4870  1.0475
  760MPD2    N111287   1.956   2.648  11.995 -0.4387  0.8137 -0.1017
  760MPD2    H711288   2.034   2.645  11.930 -1.4729  2.1292 -1.4063
  761MPD2     C11289   2.790   1.710  11.089 -0.0878 -0.3623  0.7133
  761MPD2    C111290   2.871   1.698  10.979 -0.4819 -0.7047 -0.4771
  761MPD2    C211291   2.963   1.798  10.963 -0.5716 -0.7965  0.2080
  761MPD2    C311292   2.983   1.905  11.041  0.2392  0.3056 -0.7244
  761MPD2    C411293   2.893   1.921  11.145 -0.3971  0.2761 -0.6854
  761MPD2    C511294   2.798   1.823  11.168 -0.3982 -0.2607  0.3500
  761MPD2     H11295   3.039   1.780  10.887 -1.1688  0.8701 -0.7856
  761MPD2    H111296   2.897   2.004  11.215 -1.5336 -0.3206  0.0914
  761MPD2    H211297   2.708   1.639  11.091 -0.0912 -0.3535  0.8760
  761MPD2    H311298   2.739   1.834  11.258 -1.0031  1.3635 -0.2568
  761MPD2     N11299   3.099   1.991  11.038 -0.1471  0.1443  0.1034
  761MPD2    H511300   3.097   2.063  11.109 -1.5752  1.1058 -0.9045
  761MPD2    N111301   2.867   1.578  10.901  0.1378  0.1838  0.2478
  761MPD2    H711302   2.818   1.495  10.932 -3.2315  1.8640 -0.6480
  762MPD2     C11303   3.272   1.625  10.238  0.4976  0.1309  0.1132
  762MPD2    C111304   3.291   1.508  10.309  0.0554 -0.4894  0.9621
  762MPD2    C211305   3.421   1.459  10.329 -0.0563  0.0908  0.6836
  762MPD2    C311306   3.528   1.515  10.258 -0.1850 -0.4929  0.4066
  762MPD2    C411307   3.501   1.635  10.183 -0.0820  0.3318  0.0186
  762MPD2    C511308   3.376   1.687  10.176 -0.2399  0.0248 -0.0102
  762MPD2     H11309   3.443   1.368  10.384 -0.1246 -1.2199 -1.4666
  762MPD2    H111310   3.581   1.683  10.127  0.5460 -0.1068  0.5321
  762MPD2    H211311   3.170   1.661  10.230  0.3107 -0.3126  0.5470
  762MPD2    H311312   3.360   1.774  10.114 -0.1996  2.6696  3.6504
  762MPD2     N11313   3.650   1.453  10.259 -0.4847 -0.5465  0.0917
  762MPD2    H511314   3.658   1.380  10.329 -1.4607  0.5867  1.3754
  762MPD2    N111315   3.183   1.457  10.383  0.1953  0.0580 -0.7502
  762MPD2    H711316   3.092   1.499  10.364  0.2934  0.1844 -0.9359
  763MPD2     C11317   0.461   2.347  16.066  0.8386  0.0594  0.3304
  763MPD2    C111318   0.336   2.412  16.071  0.0554 -0.5681 -0.1581
  763MPD2    C211319   0.332   2.535  16.135  0.2221 -0.0040  0.0543
  763MPD2    C311320   0.440   2.603  16.189  0.3802  0.6651 -0.7136
  763MPD2    C411321   0.563   2.536  16.180  0.0849 -0.2937 -0.0177
  763MPD2    C511322   0.569   2.410  16.125 -0.4390 -0.4737 -0.4916
  763MPD2     H11323   0.232   2.574  16.155  0.7392  0.9830  0.7189
  763MPD2    H111324   0.644   2.598  16.216 -0.1598 -0.0362  0.0878
  763MPD2    H211325   0.478   2.247  16.027  1.7598  0.5301 -0.4820
  763MPD2    H311326   0.669   2.374  16.102 -0.2133  0.8576 -1.5849
  763MPD2     N11327   0.437   2.737  16.227 -0.1136  0.7005  0.3051
  763MPD2    H511328   0.524   2.789  16.238  0.5909 -0.3843 -0.0725
  763MPD2    N111329   0.221   2.364  16.009 -0.0279  0.5102 -0.1055
  763MPD2    H711330   0.147   2.434  16.009 -1.0961 -0.6103  1.4980
  764MPD2     C11331   2.708   3.894  17.545 -0.1428 -0.0029 -0.7555
  764MPD2    C111332   2.657   3.771  17.491 -0.1403 -0.7800 -0.3026
  764MPD2    C211333   2.637   3.665  17.579 -0.4200 -0.4480 -0.3805
  764MPD2    C311334   2.653   3.677  17.718  0.1425 -0.2906 -0.4509
  764MPD2    C411335   2.684   3.801   0.027  0.3765  0.5212 -0.3662
  764MPD2    C511336   2.719   3.899  17.682  0.7489  0.4131  0.0229
  764MPD2     H11337   2.607   3.574  17.528  0.0308 -0.8466  0.0703
  764MPD2    H111338   2.685   3.814   0.135 -0.0785  1.2073 -0.4518
  764MPD2    H211339   2.725   3.981  17.483 -0.9174  0.4837 -0.2867
  764MPD2    H311340   2.754   3.990  17.730  1.4943  0.0337  0.2108
  764MPD2     N11341   2.612   3.572   0.074  0.1721 -0.0096 -0.0803
  764MPD2    H511342   2.554   3.500   0.032  1.3168 -1.4322  0.7703
  764MPD2    N111343   2.622   3.749  17.352  0.0778 -0.3903  0.1989
  764MPD2    H711344   2.584   3.658  17.328 -0.9916  0.2539 -0.5363
  765MPD2     C11345   2.890   1.747  16.058 -0.4301  0.2383  0.2444
  765MPD2    C111346   2.961   1.840  15.982 -0.0410 -0.5128  0.7116
  765MPD2    C211347   3.079   1.795  15.917  0.5130 -0.0701  0.1696
  765MPD2    C311348   3.116   1.666  15.920 -0.3626  0.8241 -0.4475
  765MPD2    C411349   3.045   1.575  15.994 -0.3161  0.5169  0.2582
  765MPD2    C511350   2.936   1.626  16.066 -0.5021 -0.2115 -0.1119
  765MPD2     H11351   3.134   1.870  15.861  0.9324 -0.7954 -0.3914
  765MPD2    H111352   3.069   1.470  16.005  2.2692  1.0099 -0.6785
  765MPD2    H211353   2.807   1.786  16.116  0.2190  0.2400  1.1713
  765MPD2    H311354   2.884   1.558  16.133 -2.1907 -0.6219 -1.8148
  765MPD2     N11355   3.223   1.632  15.834  0.5240  0.3351  0.2808
  765MPD2    H511356   3.267   1.705  15.780  1.8398  0.5487  1.6585
  765MPD2    N111357   2.907   1.969  15.975  0.4455 -0.3831  0.7468
  765MPD2    H711358   2.823   1.989  16.029  0.7584  0.1581  1.0273
  766MPD2     C11359   2.586   1.911  15.479  0.3217  0.2571 -0.2696
  766MPD2    C111360   2.596   2.049  15.488  0.0300 -0.0462  0.0384
  766MPD2    C211361   2.610   2.120  15.363 -0.0614 -0.1175  0.3520
  766MPD2    C311362   2.618   2.053  15.240  0.5008  0.3370  0.2210
  766MPD2    C411363   2.608   1.918  15.244 -0.0985  0.9428 -0.1217
  766MPD2    C511364   2.589   1.842  15.357  0.2390 -0.2384  0.1174
  766MPD2     H11365   2.622   2.227  15.373 -2.8703  0.2055  0.4011
  766MPD2    H111366   2.621   1.857  15.155 -0.7899 -1.3334  1.3270
  766MPD2    H211367   2.563   1.842  15.560  0.3806 -0.7376 -1.1045
  766MPD2    H311368   2.594   1.734  15.357 -3.1623 -0.3881 -0.9508
  766MPD2     N11369   2.647   2.126  15.122  0.2922  1.0592  0.5121
  766MPD2    H511370   2.618   2.223  15.122 -1.0800  0.6509 -0.1855
  766MPD2    N111371   2.609   2.100  15.620  0.6735 -0.1677 -0.0965
  766MPD2    H711372   2.623   2.039  15.699  0.6861 -0.6129 -0.4431
  767MPD2     C11373   2.219   2.305  15.368 -0.4121 -0.7712 -0.2781
  767MPD2    C111374   2.326   2.350  15.298  0.2073  0.2383  0.1648
  767MPD2    C211375   2.309   2.347  15.160 -0.0552  0.9144  0.3620
  767MPD2    C311376   2.212   2.271  15.089  0.0171  0.1213  0.1149
  767MPD2    C411377   2.120   2.212  15.171  0.4995  0.1141  0.4428
  767MPD2    C511378   2.120   2.231  15.304 -0.3206 -0.0235 -0.5823
  767MPD2     H11379   2.383   2.388  15.092  0.4126 -1.4423 -0.5391
  767MPD2    H111380   2.039   2.149  15.137  1.5968 -1.6090  1.0155
  767MPD2    H211381   2.220   2.321  15.475  1.8114 -0.7972 -0.2811
  767MPD2    H311382   2.045   2.186  15.367 -0.5772  1.8976  0.4962
  767MPD2     N11383   2.221   2.268  14.947  0.2988  0.1053  0.1214
  767MPD2    H511384   2.295   2.301  14.885 -0.1081  0.8915  0.0455
  767MPD2    N111385   2.428   2.419  15.367  0.2213  0.0195  0.3828
  767MPD2    H711386   2.410   2.441  15.464  2.0533 -0.2783  0.7844
  768MPD2     C11387   3.644   0.334  10.694 -0.3507  0.1365  0.2363
  768MPD2    C111388   3.579   0.359  10.810  0.6728  0.2400 -0.1527
  768MPD2    C211389   3.660   0.365  10.923  0.1418  0.4688 -0.4810
  768MPD2    C311390   3.801   0.381  10.926  0.1141 -0.0105 -1.3949
  768MPD2    C411391   3.859   0.395  10.807 -0.0201 -0.0751 -0.1305
  768MPD2    C511392   3.783   0.360  10.696 -0.4695  0.0083 -0.0762
  768MPD2     H11393   3.616   0.363  11.022  0.2727 -3.1714 -0.4708
  768MPD2    H111394   3.961   0.431  10.798  0.1486 -0.0179  1.9480
  768MPD2    H211395   3.593   0.317  10.599  1.2961 -0.2147 -0.5737
  768MPD2    H311396   3.850   0.349  10.611 -0.5454  1.0695 -0.2646
  768MPD2     N11397   3.886   0.388  11.044  0.6676 -0.3935 -0.2705
  768MPD2    H511398   3.986   0.391  11.027  0.8404  0.1188  0.8825
  768MPD2    N111399   3.440   0.374  10.821  0.3421  0.2639 -0.3242
  768MPD2    H711400   3.401   0.401  10.911 -0.5390  2.2215 -1.2806
  769MPD2     C11401   4.128   3.112  15.136 -0.4363 -0.3282 -0.0074
  769MPD2    C111402   4.062   3.235  15.144  0.2459 -0.6391 -0.1699
  769MPD2    C211403   4.056   3.303  15.265  0.3185  0.2696 -0.3294
  769MPD2    C311404   4.109   3.244  15.374 -0.3199 -0.1290 -0.1488
  769MPD2    C411405   4.182   3.126  15.362  0.0412 -0.0412  0.4760
  769MPD2    C511406   4.184   3.057  15.246  0.2411 -0.0219  0.1560
  769MPD2     H11407   4.006   3.399  15.273  1.0710  0.4372  2.1199
  769MPD2    H111408   4.234   3.078  15.444  2.0298 -0.4343 -1.0171
  769MPD2    H211409   4.122   3.057  15.043  0.2244  0.4097 -0.4925
  769MPD2    H311410   4.228   2.958  15.238 -2.3517 -1.0069 -1.8846
  769MPD2     N11411   4.096   3.307  15.501 -0.0512 -0.1868 -0.3402
  769MPD2    H511412   4.052   3.398  15.506  2.3752  1.0225 -0.7227
  769MPD2    N111413   4.001   3.276  15.027 -0.1951  0.0186 -0.3274
  769MPD2    H711414   3.981   3.199  14.963  3.6594 -0.7151 -0.6386
  770MPD2     C11415   3.616   2.776  14.455 -0.0954  0.2906  0.5514
  770MPD2    C111416   3.672   2.760  14.585  0.8847 -0.3066  0.9682
  770MPD2    C211417   3.718   2.873  14.650 -0.2403  0.1228  0.2925
  770MPD2    C311418   3.710   2.998  14.587  0.1921  1.0212 -0.1843
  770MPD2    C411419   3.653   3.000  14.460 -0.1078  0.8309 -0.6645
  770MPD2    C511420   3.609   2.890  14.389 -0.7560  0.1043 -0.3017
  770MPD2     H11421   3.767   2.873  14.746  0.0768  1.6246  0.1290
  770MPD2    H111422   3.653   3.093  14.404 -1.0111 -0.9079 -3.5430
  770MPD2    H211423   3.576   2.695  14.395 -0.3650  0.1282  0.9435
  770MPD2    H311424   3.580   2.907  14.286  0.9183 -0.1870 -0.8194
  770MPD2     N11425   3.759   3.116  14.651 -0.3468 -0.5957 -0.3734
  770MPD2    H511426   3.796   3.114  14.745 -2.0102 -1.9435  0.2578
  770MPD2    N111427   3.668   2.636  14.650  0.3001 -0.5215 -0.1291
  770MPD2    H711428   3.630   2.560  14.594  2.4869 -0.4027 -1.7753
  771MPD2     C11429   0.181   1.368  13.824 -0.2409 -0.3470  0.1917
  771MPD2    C111430   0.178   1.472  13.731 -0.0169  0.8680  0.0445
  771MPD2    C211431   0.165   1.438  13.596  0.2201 -0.3032 -0.6828
  771MPD2    C311432   0.149   1.307  13.549  0.2001  0.3645 -1.0068
  771MPD2    C411433   0.155   1.208  13.643  0.4928  0.0500 -0.3465
  771MPD2    C511434   0.176   1.239  13.774  0.5663 -1.2923  0.2135
  771MPD2     H11435   0.173   1.516  13.522  0.5221 -1.6777 -2.1006
  771MPD2    H111436   0.157   1.100  13.630 -2.7787 -0.3747  2.5235
  771MPD2    H211437   0.172   1.379  13.931 -2.0881 -0.4430  0.0635
  771MPD2    H311438   0.172   1.162  13.850  1.7340 -1.7013 -0.1405
  771MPD2     N11439   0.130   1.292  13.408 -0.5220 -0.1962 -0.4421
  771MPD2    H511440   0.116   1.368  13.343 -0.2834  0.4430  0.2553
  771MPD2    N111441   0.187   1.615  13.759 -0.3071  0.3733 -0.1651
  771MPD2    H711442   0.185   1.676  13.678  1.3314  2.5592  1.4597
  772MPD2     C11443   4.552   2.254  14.068 -0.4257  0.1477 -0.3988
  772MPD2    C111444   4.565   2.123  14.032 -0.0588  0.0348  0.5631
  772MPD2    C211445   4.453   2.040  14.031  0.2527 -0.4964 -0.4216
  772MPD2    C311446   4.325   2.091  14.053  0.1126 -0.1164  0.3254
  772MPD2    C411447   4.318   2.225  14.088  0.0566  0.2575  0.0119
  772MPD2    C511448   4.429   2.305  14.097  0.3442  0.0723 -0.2244
  772MPD2     H11449   4.463   1.934  14.009  1.5068 -0.1682 -1.4272
  772MPD2    H111450   4.225   2.265  14.128  1.1792  0.9895  1.9218
  772MPD2    H211451   4.634   2.325  14.072  0.9512 -1.4808  0.2666
  772MPD2    H311452   4.433   2.400  14.150 -2.6131  0.7218 -1.1189
  772MPD2     N11453   4.205   2.019  14.042  0.1078 -0.0732  0.4682
  772MPD2    H511454   4.116   2.065  14.056  0.1682  0.1403  0.1351
  772MPD2    N111455   4.685   2.070  13.983 -1.0687  0.0460 -1.0136
  772MPD2    H711456   4.674   1.973  13.955  0.7671 -0.9463  1.7599
  773MPD2     C11457   3.784   2.263   0.666  0.3734  0.1392 -0.4507
  773MPD2    C111458   3.742   2.170   0.573 -0.1607 -0.5207 -0.0152
  773MPD2    C211459   3.824   2.060   0.568  0.5600  0.1508 -0.1090
  773MPD2    C311460   3.942   2.045   0.640  0.4487  0.2569 -0.1186
  773MPD2    C411461   3.977   2.143   0.735  0.8119  0.6736 -0.0791
  773MPD2    C511462   3.895   2.250   0.745  0.2677  0.4875  0.3208
  773MPD2     H11463   3.812   1.978   0.499 -0.6820 -0.4906  0.8609
  773MPD2    H111464   4.064   2.136   0.800  0.0833 -2.2338  0.5812
  773MPD2    H211465   3.730   2.353   0.694 -0.3980  0.0158 -1.5613
  773MPD2    H311466   3.919   2.326   0.818  1.5347 -0.0616  0.4754
  773MPD2     N11467   4.024   1.937   0.598 -0.0090  0.6044 -0.5249
  773MPD2    H511468   3.997   1.886   0.514  0.3930  0.5417 -0.6162
  773MPD2    N111469   3.633   2.183   0.481  0.2439 -0.7184  0.3345
  773MPD2    H711470   3.629   2.114   0.407 -1.2527 -0.1482 -0.1171
  774MPD2     C11471   3.034   1.106  13.443 -0.2955  0.3663  0.7286
  774MPD2    C111472   3.002   1.189  13.553  0.2876  0.9110 -0.2031
  774MPD2    C211473   3.006   1.328  13.534 -1.2807 -0.8074  0.1868
  774MPD2    C311474   3.039   1.377  13.407 -0.2770  0.4445  0.5122
  774MPD2    C411475   3.070   1.294  13.297  0.1473  0.4465 -0.2113
  774MPD2    C511476   3.075   1.157  13.322  0.6295 -0.0773  0.0260
  774MPD2     H11477   2.993   1.399  13.614  3.2637  2.0517 -1.5864
  774MPD2    H111478   3.101   1.320  13.197  2.1635  0.6719  0.4724
  774MPD2    H211479   3.026   0.998  13.448  2.9013  0.1915  2.3145
  774MPD2    H311480   3.088   1.092  13.236 -0.0347 -0.5486  0.2859
  774MPD2     N11481   3.055   1.518  13.399 -0.4440 -0.3607 -0.2130
  774MPD2    H511482   3.063   1.567  13.488  0.1910 -0.5040 -0.1949
  774MPD2    N111483   2.976   1.131  13.680 -0.2125 -0.3038  0.0184
  774MPD2    H711484   2.994   1.032  13.688  0.2038  0.0780  3.8086
  775MPD2     C11485   4.442   3.156  15.727  0.7130 -0.1429  0.3806
  775MPD2    C111486   4.470   3.217  15.848 -1.0565 -0.3104  0.2125
  775MPD2    C211487   4.500   3.356  15.838 -0.3542  0.9272 -0.2871
  775MPD2    C311488   4.496   3.434  15.727 -0.1668  0.5419  0.7522
  775MPD2    C411489   4.469   3.363  15.609  0.1115  0.0835  0.2769
  775MPD2    C511490   4.440   3.228  15.612 -0.0135  0.2419 -0.3073
  775MPD2     H11491   4.528   3.407  15.929  3.3374  0.9706 -1.4699
  775MPD2    H111492   4.482   3.408  15.511 -2.6822 -1.8534 -0.9578
  775MPD2    H211493   4.416   3.052  15.708  0.9007 -0.1489  0.1426
  775MPD2    H311494   4.425   3.187  15.513  2.0810  1.5097 -1.1511
  775MPD2     N11495   4.552   3.563  15.712  0.1151  0.4975  0.6060
  775MPD2    H511496   4.563   3.599  15.618  3.2173 -1.3683  0.2568
  775MPD2    N111497   4.464   3.138  15.968  0.1944  0.4651  0.0237
  775MPD2    H711498   4.442   3.040  15.959 -0.8856  0.7385 -0.3946
  776MPD2     C11499   3.393   3.377  11.623  0.5145 -0.0958  0.3155
  776MPD2    C111500   3.263   3.396  11.574 -0.3719 -0.1061  0.5248
  776MPD2    C211501   3.212   3.524  11.588 -0.5323  0.2898 -0.7390
  776MPD2    C311502   3.295   3.627  11.639 -0.5903 -0.3156 -0.7812
  776MPD2    C411503   3.422   3.598  11.680  0.1700  0.8267 -0.1925
  776MPD2    C511504   3.476   3.472  11.673  0.2670  0.5443  0.8249
  776MPD2     H11505   3.114   3.550  11.550 -0.6859  0.8393  0.0503
  776MPD2    H111506   3.496   3.668  11.719 -0.0616  1.8874 -1.6754
  776MPD2    H211507   3.443   3.281  11.619  2.7149  1.0721 -0.4048
  776MPD2    H311508   3.568   3.447  11.724  0.0819  0.9884  1.3798
  776MPD2     N11509   3.265   3.761  11.644  0.5073  0.1211 -0.7740
  776MPD2    H511510   3.335   3.821  11.686 -0.0583 -0.6175  1.2320
  776MPD2    N111511   3.194   3.291  11.516  0.1332 -0.0421 -0.0082
  776MPD2    H711512   3.248   3.205  11.517  0.7277  0.3138 -1.1980
  777MPD2     C11513   3.259   1.134   0.728 -0.0183 -0.1413 -0.0344
  777MPD2    C111514   3.297   1.022   0.801  0.3832 -0.0689  0.0030
  777MPD2    C211515   3.250   0.894   0.767  0.2088  0.0849 -0.2631
  777MPD2    C311516   3.159   0.884   0.659 -0.3141  0.1041  0.2214
  777MPD2    C411517   3.117   1.000   0.599  0.1912  0.5939 -0.1415
  777MPD2    C511518   3.164   1.129   0.634  0.2799  0.2468  0.1551
  777MPD2     H11519   3.265   0.807   0.830 -3.6266 -2.3257 -2.5857
  777MPD2    H111520   3.061   0.987   0.507  1.1017  0.3214 -0.6626
  777MPD2    H211521   3.289   1.237   0.744  1.1042 -0.3093 -1.0279
  777MPD2    H311522   3.135   1.217   0.578  0.9301 -0.4093 -1.1947
  777MPD2     N11523   3.096   0.759   0.628  0.3412  0.0899  0.3374
  777MPD2    H511524   3.125   0.680   0.684 -0.9656 -1.3325 -1.0003
  777MPD2    N111525   3.378   1.049   0.915 -0.3198 -0.1228  0.3192
  777MPD2    H711526   3.399   1.148   0.927 -2.0691  0.3942 -0.8979
  778MPD2     C11527   0.124   1.464  15.106 -0.3594 -0.1579 -0.8265
  778MPD2    C111528   0.138   1.370  15.006 -0.1764 -0.0279 -0.3667
  778MPD2    C211529   0.226   1.395  14.905 -0.1708  0.8472  0.3365
  778MPD2    C311530   0.290   1.512  14.887 -0.0558  0.2593  0.7454
  778MPD2    C411531   0.259   1.610  14.978 -0.0166 -0.7071 -0.1199
  778MPD2    C511532   0.176   1.593  15.089 -0.4788  0.2500 -0.2114
  778MPD2     H11533   0.238   1.318  14.829 -2.1912  0.3309  0.5647
  778MPD2    H111534   0.313   1.704  14.974 -3.2703  1.1534 -0.1652
  778MPD2    H211535   0.060   1.445  15.192 -1.1791 -0.5277 -1.5245
  778MPD2    H311536   0.155   1.673  15.159 -1.1598 -1.5780  1.6941
  778MPD2     N11537   0.377   1.523  14.776 -0.4098  0.6709 -0.3003
  778MPD2    H511538   0.393   1.443  14.715 -0.7874  1.0803 -0.9417
  778MPD2    N111539   0.084   1.242  15.019 -0.3802  0.1578 -0.1159
  778MPD2    H711540   0.081   1.181  14.937 -0.1040 -1.6745  1.2443
  779MPD2     C11541   4.374   0.041  14.293  0.4077 -0.2739  0.4869
  779MPD2    C111542   4.489   0.049  14.361  0.1773  0.6530 -0.0138
  779MPD2    C211543   4.559   0.162  14.367 -0.7200 -0.0780 -0.4539
  779MPD2    C311544   4.517   0.275  14.306  0.5528 -0.7996  0.3237
  779MPD2    C411545   4.394   0.266  14.237  0.5913 -0.6652  0.5629
  779MPD2    C511546   4.325   0.150  14.240  0.3466  0.2562 -0.1053
  779MPD2     H11547   4.659   0.159  14.409 -1.4817 -0.6087  1.3483
  779MPD2    H111548   4.355   0.348  14.178 -0.4583 -0.7501  1.1375
  779MPD2    H211549   4.322   4.681  14.279  3.9632 -2.1755  0.1117
  779MPD2    H311550   4.232   0.137  14.186  0.8431 -2.6569 -0.2909
  779MPD2     N11551   4.598   0.386  14.314  0.7714  0.1209 -0.3467
  779MPD2    H511552   4.680   0.385  14.375 -0.5142  0.3081  1.3886
  779MPD2    N111553   4.543   4.667  14.427 -0.3620  0.3109  0.2261
  779MPD2    H711554   4.636   4.680  14.465 -0.0534 -1.9169  0.2101
  780MPD2     C11555   4.103   4.624   0.860  0.4155 -0.0070  0.3736
  780MPD2    C111556   3.987   4.578   0.796 -0.5090 -0.4331  0.5056
  780MPD2    C211557   3.961   4.629   0.667 -0.1180 -0.8999  0.1039
  780MPD2    C311558   4.045   4.721   0.607  0.1410  0.0666  0.7179
  780MPD2    C411559   4.161   0.033   0.676  0.1313 -0.2151 -0.0642
  780MPD2    C511560   4.193   4.713   0.797  0.1898 -0.1746  0.9313
  780MPD2     H11561   3.870   4.606   0.613  0.4914  1.7517 -2.0306
  780MPD2    H111562   4.225   0.106   0.629 -0.8073  0.6444 -0.0016
  780MPD2    H211563   4.119   4.591   0.962 -2.4702 -0.2816  0.7417
  780MPD2    H311564   4.278   0.010   0.858  0.7712 -2.5268  1.3019
  780MPD2     N11565   4.023   0.020   0.475  0.1715  0.2918  0.4503
  780MPD2    H511566   3.949   4.702   0.429 -0.3553 -0.4094  2.0960
  780MPD2    N111567   3.906   4.474   0.852  0.5738  0.1069 -0.6424
  780MPD2    H711568   3.933   4.436   0.942 -0.3012  0.3625 -0.2712
  781MPD2     C11569   0.975   1.896  11.977 -0.2930  0.3711  0.5657
  781MPD2    C111570   1.022   1.765  11.991  0.8936 -0.2665  0.0180
  781MPD2    C211571   1.076   1.704  11.886  0.0088 -0.0106 -0.8226
  781MPD2    C311572   1.101   1.773  11.768 -0.3085  0.2881  0.5420
  781MPD2    C411573   1.055   1.902  11.756  0.2855 -0.4851  0.1779
  781MPD2    C511574   0.991   1.968  11.862 -0.4643  0.8347  1.1189
  781MPD2     H11575   1.103   1.599  11.899  2.2869  0.5950 -0.5898
  781MPD2    H111576   1.077   1.964  11.670  0.2355  0.2878  0.7259
  781MPD2    H211577   0.933   1.950  12.061 -1.2876  0.7724 -0.1857
  781MPD2    H311578   0.970   2.074  11.856 -0.7769  0.5948 -2.0371
  781MPD2     N11579   1.161   1.718  11.656  0.5503  0.5185 -0.3337
  781MPD2    H511580   1.184   1.785  11.582  0.6719  1.1602  0.2875
  781MPD2    N111581   1.001   1.692  12.111 -0.1762 -0.1418 -0.0828
  781MPD2    H711582   1.031   1.595  12.113  0.7384  0.1446  0.2597
  782MPD2     C11583   4.222   2.543  10.168  0.3774  0.0563  0.4312
  782MPD2    C111584   4.288   2.481  10.276  0.5298 -0.0092  0.0524
  782MPD2    C211585   4.316   2.551  10.393  1.2138 -1.0416 -0.1050
  782MPD2    C311586   4.289   2.686  10.395  0.4807 -0.1783 -0.5468
  782MPD2    C411587   4.247   2.756  10.277  0.1042  0.2972 -0.6689
  782MPD2    C511588   4.215   2.679  10.164  0.1622 -0.0717 -0.3315
  782MPD2     H11589   4.344   2.495  10.482 -1.3258 -0.6016  0.9574
  782MPD2    H111590   4.237   2.864  10.266 -0.9492  0.2869  0.2171
  782MPD2    H211591   4.198   2.484  10.081 -2.6802 -1.0816  2.0273
  782MPD2    H311592   4.182   2.734  10.077 -1.4669 -0.0345  0.3177
  782MPD2     N11593   4.305   2.752  10.524  0.0773  0.2326  0.0403
  782MPD2    H511594   4.322   2.689  10.601  1.2509 -0.9232 -1.1661
  782MPD2    N111595   4.322   2.337  10.276 -0.0457  0.2237  0.2256
  782MPD2    H711596   4.369   2.296  10.356 -0.4813  1.5421  1.1537
  783MPD2     C11597   3.629   1.807  10.596  0.2130 -0.5310  0.1736
  783MPD2    C111598   3.682   1.926  10.645 -0.1114 -0.0327 -0.6349
  783MPD2    C211599   3.804   1.973  10.598 -0.2404  0.4586  0.7164
  783MPD2    C311600   3.877   1.892  10.508  0.5486  0.1316  0.0193
  783MPD2    C411601   3.829   1.777  10.469 -0.0415  0.0304 -0.4926
  783MPD2    C511602   3.711   1.730  10.520  0.1161  0.2328 -0.1295
  783MPD2     H11603   3.850   2.061  10.641  1.4897  0.0509 -0.3085
  783MPD2    H111604   3.877   1.718  10.392  1.6850 -0.7556  1.2010
  783MPD2    H211605   3.538   1.766  10.636 -0.7048  1.0651 -0.2736
  783MPD2    H311606   3.670   1.634  10.495  1.2740 -0.6536  1.3605
  783MPD2     N11607   4.007   1.939  10.476  0.1769 -0.0183  0.0511
  783MPD2    H511608   4.037   2.015  10.536  0.2382  0.7633 -0.9731
  783MPD2    N111609   3.597   1.993  10.737  0.5036  0.3532 -0.6036
  783MPD2    H711610   3.504   1.957  10.756  1.1772 -0.3461  1.3377
  784MPD2     C11611   1.606   2.815   0.744  0.3363  0.2189  0.3303
  784MPD2    C111612   1.542   2.842   0.862  0.2212  0.2746  0.2689
  784MPD2    C211613   1.406   2.868   0.864  0.0480 -0.2436 -0.4804
  784MPD2    C311614   1.341   2.881   0.744  0.4470  0.1928  0.4355
  784MPD2    C411615   1.410   2.867   0.624  0.2118 -0.2072  0.4861
  784MPD2    C511616   1.541   2.835   0.628 -0.4114  0.4730  0.1578
  784MPD2     H11617   1.353   2.896   0.955 -0.2632  4.3732 -2.0553
  784MPD2    H111618   1.387   2.892   0.521 -1.7452 -0.0794  0.9512
  784MPD2    H211619   1.713   2.799   0.740  0.7263  3.1338 -0.7745
  784MPD2    H311620   1.593   2.822   0.534 -1.7846  0.2046 -0.5718
  784MPD2     N11621   1.202   2.918   0.748  0.3338  0.3163 -0.4310
  784MPD2    H511622   1.153   2.924   0.837  0.0803  1.2710 -0.6354
  784MPD2    N111623   1.617   2.841   0.986  0.2185  0.5995  0.1093
  784MPD2    H711624   1.556   2.883   1.056 -2.1539 -1.0470 -0.9525
  785MPD2     C11625   1.314   1.336  10.914 -0.5202 -0.4350  0.0804
  785MPD2    C111626   1.219   1.434  10.875  0.9478 -0.3686 -1.2319
  785MPD2    C211627   1.120   1.397  10.793 -0.4831 -0.1559 -0.0206
  785MPD2    C311628   1.122   1.273  10.731 -0.4463  0.4614 -0.0114
  785MPD2    C411629   1.222   1.175  10.763 -0.2026 -1.0685  0.5400
  785MPD2    C511630   1.315   1.212  10.860 -0.2661 -0.5127 -0.2232
  785MPD2     H11631   1.034   1.463  10.795  0.0050  0.4444  1.4608
  785MPD2    H111632   1.225   1.074  10.722 -0.0583 -0.1952 -1.5800
  785MPD2    H211633   1.388   1.352  10.992 -3.5947 -0.7925  3.0837
  785MPD2    H311634   1.390   1.142  10.894 -1.8678 -0.9669  2.3304
  785MPD2     N11635   1.019   1.248  10.641 -0.1022 -0.1068 -0.0954
  785MPD2    H511636   0.956   1.328  10.632 -1.1425 -0.7849  1.1770
  785MPD2    N111637   1.211   1.557  10.938 -0.3738 -0.0343 -0.3406
  785MPD2    H711638   1.134   1.610  10.896  0.6976  0.6585 -1.4198
  786MPD2     C11639   0.337   4.127  15.064 -0.0962  0.4723 -0.0596
  786MPD2    C111640   0.474   4.086  15.061  0.1667  0.4571 -0.0001
  786MPD2    C211641   0.542   4.065  15.176 -0.5547  0.2990 -0.5370
  786MPD2    C311642   0.484   4.104  15.297 -0.0949  0.5189  1.0970
  786MPD2    C411643   0.359   4.155  15.303  0.5884  0.0479  0.2331
  786MPD2    C511644   0.291   4.171  15.185  0.1294  0.5107  0.3847
  786MPD2     H11645   0.644   4.029  15.169 -0.6071  0.2228 -0.9228
  786MPD2    H111646   0.316   4.181  15.399  1.0133 -1.0529  0.7193
  786MPD2    H211647   0.269   4.143  14.981  1.7108 -0.5556 -1.7453
  786MPD2    H311648   0.195   4.219  15.198  0.2671  1.0222 -0.5056
  786MPD2     N11649   0.568   4.084  15.411  0.1852 -0.3902  0.2593
  786MPD2    H511650   0.664   4.051  15.408 -0.1205 -1.2868  0.3941
  786MPD2    N111651   0.535   4.064  14.936  0.5601 -0.1313 -0.2646
  786MPD2    H711652   0.635   4.052  14.938  0.8284  2.4382  0.7355
  787MPD2     C11653   0.869   3.606  14.847  0.6720 -1.5012  0.1911
  787MPD2    C111654   0.903   3.675  14.737 -0.2933 -0.0485  0.7058
  787MPD2    C211655   0.972   3.607  14.636 -0.1617  0.2271  0.5465
  787MPD2    C311656   1.021   3.479  14.659  0.7607 -0.1407  0.3337
  787MPD2    C411657   0.975   3.411  14.765 -0.1462  0.5134  0.6157
  787MPD2    C511658   0.895   3.475  14.858 -0.6158  0.3729  0.9630
  787MPD2     H11659   1.003   3.657  14.544  0.5022 -1.0281  0.0769
  787MPD2    H111660   0.982   3.304  14.785 -1.8909  0.1914 -0.4801
  787MPD2    H211661   0.824   3.658  14.930  0.0708 -0.4503 -0.8022
  787MPD2    H311662   0.862   3.417  14.943  1.2258  0.9804  2.0855
  787MPD2     N11663   1.109   3.428  14.561  0.2515  0.1926 -0.2295
  787MPD2    H511664   1.122   3.493  14.485 -4.8712  1.7711  0.2397
  787MPD2    N111665   0.850   3.802  14.718 -0.9020 -0.2137 -0.3937
  787MPD2    H711666   0.797   3.839  14.796  1.2097  0.9756  0.4823
  788MPD2     C11667   2.163   2.802   1.082  0.2464  0.1166 -0.3562
  788MPD2    C111668   2.210   2.726   0.972  0.2133  0.0823  0.0811
  788MPD2    C211669   2.207   2.782   0.845  0.7000  0.6177 -0.3716
  788MPD2    C311670   2.163   2.918   0.823  0.1286  0.0197 -0.3038
  788MPD2    C411671   2.118   2.989   0.936  1.0497  0.0616  0.1896
  788MPD2    C511672   2.120   2.930   1.063 -0.2651  0.1572 -0.3482
  788MPD2     H11673   2.232   2.720   0.760 -0.4330 -2.0908  1.2490
  788MPD2    H111674   2.092   3.094   0.925 -0.2003 -0.3478 -0.7424
  788MPD2    H211675   2.158   2.754   1.179 -0.7413 -0.8590 -0.8911
  788MPD2    H311676   2.082   2.981   1.151 -1.7467 -0.2081 -0.7654
  788MPD2     N11677   2.158   2.980   0.695  0.1452  0.0010 -0.7877
  788MPD2    H511678   2.119   3.074   0.698 -2.3843 -1.0253 -1.0799
  788MPD2    N111679   2.235   2.587   0.989  0.5561 -0.1720 -0.4836
  788MPD2    H711680   2.277   2.541   0.909  1.5640 -2.0160  1.0884
  789MPD2     C11681   2.890   2.132  16.632  0.4467  0.0606  0.0485
  789MPD2    C111682   2.811   2.075  16.732  0.1627 -0.1845  0.2275
  789MPD2    C211683   2.678   2.115  16.747 -0.4242 -0.2972  0.2377
  789MPD2    C311684   2.627   2.221  16.670 -0.5502 -0.5568  0.3658
  789MPD2    C411685   2.704   2.275  16.572  0.5502 -0.0887  0.0153
  789MPD2    C511686   2.828   2.221  16.544 -0.2613  0.8215 -0.3168
  789MPD2     H11687   2.627   2.078  16.836  0.2174 -0.0601  0.7073
  789MPD2    H111688   2.665   2.352  16.507  2.6502  0.7729 -0.2210
  789MPD2    H211689   2.996   2.108  16.629  0.3245 -0.4019 -0.5941
  789MPD2    H311690   2.888   2.269  16.468  0.5982  0.2493  0.0057
  789MPD2     N11691   2.501   2.278  16.698  0.2439 -0.2575 -0.2607
  789MPD2    H511692   2.486   2.360  16.640  1.1043  0.6728  0.8357
  789MPD2    N111693   2.869   1.984  16.826 -0.0667 -0.2266 -0.0164
  789MPD2    H711694   2.809   1.957  16.904 -1.6163 -0.4927 -1.3175
  790MPD2     C11695   3.911   3.640  13.709  0.2001  0.3442  0.3286
  790MPD2    C111696   3.998   3.561  13.636 -0.1922 -0.0929  0.6772
  790MPD2    C211697   3.964   3.519  13.510 -0.4069 -0.2419  0.2694
  790MPD2    C311698   3.837   3.559  13.456  0.5973 -0.4474 -0.3993
  790MPD2    C411699   3.750   3.637  13.536  0.1101 -0.5403  0.1377
  790MPD2    C511700   3.783   3.671  13.666 -0.4474 -0.1587  0.5419
  790MPD2     H11701   4.027   3.448  13.458 -1.1176 -0.1703 -0.6820
  790MPD2    H111702   3.651   3.668  13.504  1.1491  0.3376 -2.1969
  790MPD2    H211703   3.934   3.685  13.805 -2.2275  0.1075  1.0420
  790MPD2    H311704   3.721   3.733  13.729 -0.9236  0.0132 -0.0923
  790MPD2     N11705   3.796   3.511  13.328 -1.2067 -0.1455 -0.1044
  790MPD2    H511706   3.868   3.470  13.269  0.7330  0.4735  1.8561
  790MPD2    N111707   4.116   3.508  13.701  0.6483 -0.5481 -0.2217
  790MPD2    H711708   4.130   3.540  13.796  0.6219  1.0221 -0.7399
  791MPD2     C11709   3.045   3.401  13.086 -0.7003  0.0120 -0.1511
  791MPD2    C111710   3.137   3.327  13.013  0.2634  0.0783  0.0319
  791MPD2    C211711   3.084   3.223  12.931 -0.1322 -0.6391 -0.4594
  791MPD2    C311712   2.948   3.195  12.928 -0.0046  0.2504  0.4493
  791MPD2    C411713   2.857   3.282  12.989 -0.1866 -0.0410 -0.5151
  791MPD2    C511714   2.910   3.388  13.064  0.0681  0.2277  0.0695
  791MPD2     H11715   3.160   3.172  12.872  1.6770  1.5152  0.0160
  791MPD2    H111716   2.750   3.272  12.979 -0.0573 -1.5153 -0.3285
  791MPD2    H211717   3.074   3.485  13.148 -0.8790 -1.9590  2.6010
  791MPD2    H311718   2.843   3.456  13.116  1.2887 -0.8571  3.0713
  791MPD2     N11719   2.908   3.089  12.845 -0.0476 -0.0160 -0.7827
  791MPD2    H511720   2.974   3.023  12.806  0.7084  0.7477 -0.7850
  791MPD2    N111721   3.267   3.363  13.020  0.0425  0.2709  0.2593
  791MPD2    H711722   3.294   3.442  13.078  1.4452 -1.8995  2.6042
  792MPD2     C11723   3.559   2.996  10.972  0.2805 -0.1673 -0.3725
  792MPD2    C111724   3.475   3.075  11.043 -0.0217  0.0157 -0.8375
  792MPD2    C211725   3.341   3.045  11.040 -0.1972 -0.3408  0.1929
  792MPD2    C311726   3.302   2.929  10.980  0.2164  0.0790 -0.1183
  792MPD2    C411727   3.383   2.855  10.901  0.2611  0.1543  0.1421
  792MPD2    C511728   3.510   2.896  10.896 -0.3967 -1.0280  0.9882
  792MPD2     H11729   3.271   3.091  11.108 -0.7268  1.6675 -1.7011
  792MPD2    H111730   3.349   2.771  10.843 -0.5107  0.5275  0.0546
  792MPD2    H211731   3.664   3.016  10.951  0.6691 -1.3466  0.4699
  792MPD2    H311732   3.575   2.835  10.835  1.9660  1.7932  0.6817
  792MPD2     N11733   3.170   2.879  10.976 -0.6713  0.3518 -0.5026
  792MPD2    H511734   3.166   2.793  10.923 -1.0673 -0.6449  1.1521
  792MPD2    N111735   3.518   3.182  11.127  0.0707  0.7139 -0.0322
  792MPD2    H711736   3.617   3.191  11.146 -0.1527  0.6514  1.1859
  793MPD2     C11737   2.497   3.100  10.464  1.1322  0.0832  0.0058
  793MPD2    C111738   2.628   3.127  10.499 -0.4175 -0.7243 -0.1490
  793MPD2    C211739   2.677   3.073  10.614  0.6339 -0.0966  0.6012
  793MPD2    C311740   2.598   3.004  10.704  0.2760  0.6957  0.0487
  793MPD2    C411741   2.470   2.985  10.666  0.0380 -0.4852  0.3411
  793MPD2    C511742   2.420   3.034  10.551  0.7757  0.3570  0.2092
  793MPD2     H11743   2.785   3.077  10.623  0.6601  0.8311 -0.1195
  793MPD2    H111744   2.402   2.946  10.740 -0.8346  0.5449  0.0794
  793MPD2    H211745   2.453   3.139  10.373  0.4921 -1.7366 -0.4757
  793MPD2    H311746   2.316   3.016  10.529  1.0221 -0.9319  0.0920
  793MPD2     N11747   2.662   2.960  10.823  0.1655 -0.0167 -0.0193
  793MPD2    H511748   2.758   2.988  10.839  0.9081 -1.4745 -1.9029
  793MPD2    N111749   2.714   3.204  10.420 -0.1874  0.8648  0.1382
  793MPD2    H711750   2.805   3.225  10.460 -0.3460  0.7003  0.5801
  794MPD2     C11751   3.096   2.805   0.133 -0.2894  0.4860  0.4218
  794MPD2    C111752   3.154   2.708   0.064 -0.0980  0.3266 -0.1272
  794MPD2    C211753   3.155   2.711  17.657  0.1914 -0.0970 -0.1212
  794MPD2    C311754   3.093   2.816  17.592 -0.0066 -0.5257 -0.4087
  794MPD2    C411755   3.046   2.926  17.666 -0.2326 -0.5531  0.0655
  794MPD2    C511756   3.052   2.920   0.070  0.0506  0.6497 -0.3216
  794MPD2     H11757   3.193   2.622  17.609  0.8110  0.3993 -0.5642
  794MPD2    H111758   3.000   3.002  17.603  1.0280  0.0408 -0.1389
  794MPD2    H211759   3.081   2.806   0.240  0.7183 -1.4148  0.5995
  794MPD2    H311760   3.001   2.994   0.130 -1.6147  0.1965 -1.1853
  794MPD2     N11761   3.069   2.822  17.448 -0.2125  0.0479  0.4531
  794MPD2    H511762   3.023   2.904  17.411 -0.7810 -0.6952 -0.4632
  794MPD2    N111763   3.208   2.593   0.124  0.0534 -0.4179 -0.0292
  794MPD2    H711764   3.257   2.533   0.058  0.4448 -0.2330  0.0919
  795MPD2     C11765   1.304   0.564  14.181 -0.0744  0.8999  0.2209
  795MPD2    C111766   1.223   0.463  14.129  0.3994 -0.1423  0.0753
  795MPD2    C211767   1.273   0.335  14.130  0.2572  0.2434  0.4527
  795MPD2    C311768   1.395   0.305  14.178 -0.1487  0.5254  0.0447
  795MPD2    C411769   1.478   0.403  14.233  0.0494  0.3537 -0.3087
  795MPD2    C511770   1.424   0.533  14.224 -0.4043  0.2913  1.6077
  795MPD2     H11771   1.209   0.254  14.097 -0.0258  0.5922  0.1431
  795MPD2    H111772   1.579   0.384  14.266 -0.0513 -0.7483 -0.6360
  795MPD2    H211773   1.274   0.668  14.173 -0.4571  0.8048  0.4409
  795MPD2    H311774   1.483   0.618  14.256 -0.5751  1.4173 -1.1497
  795MPD2     N11775   1.432   0.168  14.174  0.1232  0.2981 -0.5079
  795MPD2    H511776   1.346   0.115  14.166 -0.6890  1.8104 -1.6927
  795MPD2    N111777   1.098   0.473  14.066 -0.9266  0.5100 -0.6285
  795MPD2    H711778   1.070   0.386  14.022 -1.4426  0.0219  0.6658
  796MPD2     C11779   0.497   1.693  15.851 -0.3809 -0.3711  0.4009
  796MPD2    C111780   0.566   1.779  15.933 -0.3528  0.6019 -0.6352
  796MPD2    C211781   0.573   1.917  15.893 -0.3041 -0.1400  0.7499
  796MPD2    C311782   0.508   1.962  15.780  0.3926  0.1670 -0.5417
  796MPD2    C411783   0.429   1.875  15.710  0.2852 -0.3984  1.2930
  796MPD2    C511784   0.423   1.738  15.750 -0.5756  0.5618 -0.1219
  796MPD2     H11785   0.619   1.991  15.958  0.6963 -0.2395  0.1527
  796MPD2    H111786   0.372   1.901  15.621  0.6332 -0.7092  0.9770
  796MPD2    H211787   0.487   1.588  15.875 -0.0964 -0.7179 -0.9784
  796MPD2    H311788   0.363   1.677  15.682  0.2594 -0.0350 -0.3173
  796MPD2     N11789   0.526   2.097  15.745  0.0158 -0.5452 -0.0449
  796MPD2    H511790   0.601   2.148  15.791 -0.4790  1.1435 -1.0964
  796MPD2    N111791   0.622   1.716  16.048  0.0650 -0.5431  0.1942
  796MPD2    H711792   0.622   1.615  16.053  1.8252 -0.6108 -1.5350
  797MPD2     C11793   1.759   1.471  17.590 -0.5388  0.3382  0.6882
  797MPD2    C111794   1.815   1.591  17.578 -0.6328  0.0900  0.4855
  797MPD2    C211795   1.753   1.695  17.521  0.3805 -0.5031 -0.1443
  797MPD2    C311796   1.619   1.679  17.484 -0.6971  0.9234 -0.2830
  797MPD2    C411797   1.557   1.556  17.497 -0.2167 -0.6261  0.6325
  797MPD2    C511798   1.633   1.455  17.550  0.8451 -0.2933  0.3050
  797MPD2     H11799   1.800   1.793  17.515 -0.5082 -0.0052  1.0135
  797MPD2    H111800   1.453   1.537  17.472 -0.7907  0.2120  2.3689
  797MPD2    H211801   1.821   1.392  17.630 -0.2723 -0.5314 -1.4236
  797MPD2    H311802   1.585   1.358  17.551 -1.8403  1.0199 -0.7933
  797MPD2     N11803   1.557   1.776  17.398  0.3321  0.2895 -0.9736
  797MPD2    H511804   1.606   1.865  17.394 -2.2913  1.8191  0.9700
  797MPD2    N111805   1.950   1.614  17.611 -0.9821  0.8533  0.8328
  797MPD2    H711806   1.983   1.704  17.577  0.7701 -0.1627 -0.1429
  798MPD2     C11807   1.995   2.088  17.070  0.5284 -0.1994  0.2132
  798MPD2    C111808   1.921   2.047  17.179 -0.5015 -0.0026 -0.0961
  798MPD2    C211809   1.993   1.983  17.278 -0.0130 -0.4172  0.3328
  798MPD2    C311810   2.124   1.949  17.265  0.3591 -0.3926  0.7147
  798MPD2    C411811   2.201   2.004  17.166 -0.3208 -1.1160  0.5846
  798MPD2    C511812   2.135   2.080  17.065 -0.4555 -0.1162 -0.3194
  798MPD2     H11813   1.937   1.935  17.358  0.3819  1.1222  1.5385
  798MPD2    H111814   2.308   1.990  17.149  0.1726  1.7252  1.3580
  798MPD2    H211815   1.949   2.143  16.989  4.0418  3.1691  0.4532
  798MPD2    H311816   2.191   2.126  16.984  1.1257 -0.2496  0.7013
  798MPD2     N11817   2.175   1.855  17.357 -1.0720 -0.1659  0.1634
  798MPD2    H511818   2.118   1.821  17.434  1.7520 -0.7536  1.9924
  798MPD2    N111819   1.784   2.073  17.176 -0.1974 -0.6786 -0.6313
  798MPD2    H711820   1.740   2.120  17.098 -2.7433 -0.2976  1.0346
  799MPD2     C11821   0.715   3.325  14.558  0.4763  0.3489  0.5541
  799MPD2    C111822   0.712   3.233  14.457 -0.0913  0.2371 -0.1753
  799MPD2    C211823   0.661   3.277  14.339 -0.1474 -0.0190 -0.7390
  799MPD2    C311824   0.647   3.407  14.309 -0.4184  0.0750  0.4097
  799MPD2    C411825   0.656   3.503  14.409  0.2872  0.4882 -0.1560
  799MPD2    C511826   0.681   3.456  14.535 -0.0684  0.2748 -0.5390
  799MPD2     H11827   0.647   3.202  14.262 -0.0993 -1.4160  0.6225
  799MPD2    H111828   0.643   3.610  14.415  2.3120  0.8518 -2.0847
  799MPD2    H211829   0.735   3.292  14.659 -0.1805 -1.5951  0.0462
  799MPD2    H311830   0.692   3.524  14.619  2.6089  0.2389 -0.8662
  799MPD2     N11831   0.609   3.448  14.179  0.4181 -0.0846 -0.7974
  799MPD2    H511832   0.593   3.544  14.154 -0.9493  0.0199  0.4971
  799MPD2    N111833   0.714   3.093  14.483  0.4912 -0.3432 -0.5444
  799MPD2    H711834   0.706   3.037  14.399  0.2906 -0.9490 -0.1211
  800MPD2     C11835   0.850   4.313  14.391 -0.3924  0.2132  0.0119
  800MPD2    C111836   0.960   4.268  14.324 -0.1144 -0.0609  0.6819
  800MPD2    C211837   0.938   4.220  14.190 -0.1850  0.6842 -0.3568
  800MPD2    C311838   0.812   4.226  14.129  0.4404  0.0925  0.0819
  800MPD2    C411839   0.705   4.251  14.209 -0.2437 -0.5925  0.3857
  800MPD2    C511840   0.726   4.294  14.339 -0.3066 -0.0914 -0.6764
  800MPD2     H11841   1.023   4.209  14.125 -0.9980 -0.0215 -1.2901
  800MPD2    H111842   0.599   4.247  14.186  0.0531 -0.2959 -1.0491
  800MPD2    H211843   0.856   4.346  14.494 -1.4601  0.0498  0.1274
  800MPD2    H311844   0.639   4.340  14.386  0.3470  1.2841 -0.8082
  800MPD2     N11845   0.805   4.190  13.990  0.0623  0.1600 -0.0198
  800MPD2    H511846   0.883   4.143  13.945  0.7717  0.6351  0.7298
  800MPD2    N111847   1.086   4.295  14.381 -0.5702 -0.4970  0.1398
  800MPD2    H711848   1.098   4.340  14.471 -0.1636 -1.0389  0.3548
  801MPD2     C11849   1.393   0.168  14.516 -0.1702  0.6880 -0.1776
  801MPD2    C111850   1.286   0.087  14.525 -0.0582 -0.0885 -0.1023
  801MPD2    C211851   1.166   0.146  14.564 -0.0069  0.0459  0.0953
  801MPD2    C311852   1.153   0.285  14.591  0.2775  0.0764  0.2706
  801MPD2    C411853   1.271   0.360  14.575 -0.9038  0.0962 -0.3766
  801MPD2    C511854   1.387   0.307  14.540  0.4260  0.3660 -0.5288
  801MPD2     H11855   1.077   0.088  14.582  2.6579 -2.8487  4.0339
  801MPD2    H111856   1.279   0.464  14.602 -0.9174 -0.0461  0.1630
  801MPD2    H211857   1.484   0.131  14.469  0.3765  4.2822 -1.8841
  801MPD2    H311858   1.475   0.371  14.536  0.8746 -0.1842  0.4027
  801MPD2     N11859   1.057   0.341  14.680  0.6872 -0.0125  0.2147
  801MPD2    H511860   1.081   0.432  14.717 -1.2108 -0.8895  3.6100
  801MPD2    N111861   1.303   4.680  14.536  0.3920 -0.1275 -0.2978
  801MPD2    H711862   1.223   4.620  14.551 -0.4563  1.2121  0.5543
  802MPD2     C11863   4.681   0.239   0.115 -0.6897 -1.0739  0.4599
  802MPD2    C111864   0.009   0.341   0.041  0.1781 -0.0315  0.6072
  802MPD2    C211865   0.116   0.312  17.689 -0.2325  0.1591 -0.1050
  802MPD2    C311866   0.157   0.182  17.673 -0.8147 -0.6926 -0.5155
  802MPD2    C411867   0.101   0.081   0.011  0.5565  0.5502  0.1907
  802MPD2    C511868   0.001   0.113   0.098 -0.2472 -0.2205 -0.0137
  802MPD2     H11869   0.160   0.389  17.628  0.5257  0.4252  0.7777
  802MPD2    H111870   0.133   4.711  17.733  0.1454  0.8397 -3.2557
  802MPD2    H211871   4.603   0.250   0.190  0.8725  0.9757  1.7828
  802MPD2    H311872   4.673   0.034   0.138 -2.3787  0.6871 -1.5177
  802MPD2     N11873   0.274   0.160  17.581 -0.1821  0.2159  0.0732
  802MPD2    H511874   0.324   0.243  17.553 -0.3683  0.3503  0.1410
  802MPD2    N111875   4.696   0.473   0.033 -0.0218 -0.2507  0.0539
  802MPD2    H711876   0.008   0.536  17.703  1.7442 -0.1756  1.3930
  803MPD2     C11877   1.435   2.804  12.159 -0.7187  0.5954  0.8062
  803MPD2    C111878   1.549   2.879  12.176  0.7743 -0.0720 -0.3336
  803MPD2    C211879   1.601   2.883  12.305 -0.2320  0.4766 -0.3436
  803MPD2    C311880   1.540   2.802  12.405  0.7526  0.7525  0.1906
  803MPD2    C411881   1.438   2.715  12.374  0.4197  0.0974 -0.0943
  803MPD2    C511882   1.385   2.713  12.251 -0.5500 -0.5367  0.1097
  803MPD2     H11883   1.678   2.956  12.327 -1.1504  0.8350  1.6326
  803MPD2    H111884   1.397   2.647  12.447 -0.5277  1.3063  0.4908
  803MPD2    H211885   1.385   2.818  12.064  0.1195 -1.2330  0.0922
  803MPD2    H311886   1.292   2.660  12.232  0.4754 -2.5612  0.6646
  803MPD2     N11887   1.585   2.796  12.542  0.0959 -0.8113 -0.1735
  803MPD2    H511888   1.549   2.721  12.600  2.2258 -2.2720 -0.7177
  803MPD2    N111889   1.601   2.946  12.060  0.1294  0.4735  0.0047
  803MPD2    H711890   1.685   3.002  12.075  0.3794 -0.1702  0.9848
  804MPD2     C11891   1.101   0.002  17.057  0.7020 -0.4588 -0.9611
  804MPD2    C111892   1.052   4.714  17.185  0.3043  0.3472 -0.1217
  804MPD2    C211893   1.082   0.071  17.289  0.0170  0.2180 -0.2209
  804MPD2    C311894   1.167   0.176  17.257  0.0345  0.1268  0.4722
  804MPD2    C411895   1.214   0.199  17.135  0.1339  0.1976  0.4371
  804MPD2    C511896   1.179   0.109  17.038  1.0570  0.8463  0.0623
  804MPD2     H11897   1.061   0.052  17.394 -3.0290  4.6730 -0.0554
  804MPD2    H111898   1.277   0.280  17.101 -0.7526  1.2466  1.3247
  804MPD2    H211899   1.078   4.667  16.976  1.2522 -2.6836  0.7531
  804MPD2    H311900   1.222   0.127  16.940 -0.2174  0.2879 -0.6033
  804MPD2     N11901   1.210   0.250  17.368  0.3523 -1.3303  0.1285
  804MPD2    H511902   1.181   0.217  17.459  2.1714  0.2873  1.2810
  804MPD2    N111903   0.978   4.595  17.207 -0.6982 -0.0298 -0.2523
  804MPD2    H711904   0.996   4.527  17.134  0.6615  2.4372 -2.2112
  805MPD2     C11905   0.153   3.388  15.607 -0.1768 -0.4753  0.4613
  805MPD2    C111906   0.240   3.317  15.529  0.0449 -0.5013 -0.2511
  805MPD2    C211907   0.374   3.319  15.575 -0.3774 -0.5054  0.1492
  805MPD2    C311908   0.416   3.378  15.695  0.2385  0.9725  0.1632
  805MPD2    C411909   0.316   3.426  15.777  0.5201  0.7344  0.1154
  805MPD2    C511910   0.183   3.434  15.733  0.3946  0.1977  0.2521
  805MPD2     H11911   0.445   3.274  15.507  1.0226 -0.3380  1.5251
  805MPD2    H111912   0.348   3.466  15.873 -1.4028 -3.8844  2.6326
  805MPD2    H211913   0.050   3.407  15.580  0.6407  1.1662 -1.5122
  805MPD2    H311914   0.115   3.474  15.808 -2.0995  0.4089 -2.1480
  805MPD2     N11915   0.552   3.368  15.740 -0.2984 -0.4936  0.4938
  805MPD2    H511916   0.620   3.338  15.671 -1.2983  0.3394 -0.8463
  805MPD2    N111917   0.202   3.250  15.403  0.1378 -0.3005  1.0111
  805MPD2    H711918   0.268   3.192  15.351  0.1073  0.6922 -0.1539
  806MPD2     C11919   0.502   2.532   0.281  0.5730 -1.0122  0.0949
  806MPD2    C111920   0.504   2.667   0.335  0.1069 -0.7289 -0.0677
  806MPD2    C211921   0.572   2.773   0.264 -0.5701 -0.1359  0.2768
  806MPD2    C311922   0.644   2.738   0.152  0.6229 -0.0276 -0.5369
  806MPD2    C411923   0.657   2.607   0.119 -0.0669  0.2464  0.4627
  806MPD2    C511924   0.589   2.509   0.178  0.3081  0.0200  0.4945
  806MPD2     H11925   0.581   2.873   0.304  2.8706 -1.0165  1.7191
  806MPD2    H111926   0.712   2.574   0.031 -0.1281  0.1306  0.4679
  806MPD2    H211927   0.449   2.453   0.332 -0.1397  0.4086  1.5226
  806MPD2    H311928   0.597   2.408   0.139  1.7919  0.2513  0.1832
  806MPD2     N11929   0.711   2.843   0.085 -0.4816 -0.0261 -0.5816
  806MPD2    H511930   0.693   2.935   0.123 -0.0055 -0.9443  1.9042
  806MPD2    N111931   0.427   2.685   0.453 -0.3942  0.8413  0.7312
  806MPD2    H711932   0.395   2.600   0.499 -0.1234  0.0701 -0.5079
  807MPD2     C11933   0.482   2.224   0.685 -0.1930 -0.5710 -0.2269
  807MPD2    C111934   0.459   2.271   0.811  1.0616  0.0577  0.5477
  807MPD2    C211935   0.511   2.199   0.922  0.0947  0.0640  0.2136
  807MPD2    C311936   0.595   2.088   0.904 -0.1179 -0.5472 -0.2509
  807MPD2    C411937   0.629   2.047   0.768 -0.3308 -0.6682  0.0279
  807MPD2    C511938   0.568   2.112   0.665 -0.0451 -0.3087  0.4865
  807MPD2     H11939   0.493   2.226   1.025  0.4966 -1.0773  0.5793
  807MPD2    H111940   0.690   1.960   0.749  1.2597  0.1606  1.3969
  807MPD2    H211941   0.440   2.258   0.591  0.9913 -1.9712 -1.2566
  807MPD2    H311942   0.577   2.070   0.565 -0.1713  0.5794  0.0987
  807MPD2     N11943   0.631   2.015   1.026  0.0111  0.5477 -0.2695
  807MPD2    H511944   0.579   2.038   1.110 -0.6915 -1.9747 -0.0101
  807MPD2    N111945   0.373   2.384   0.842 -0.3294 -0.4983 -0.5501
  807MPD2    H711946   0.362   2.421   0.936  2.1062  0.1294 -0.5336
  808MPD2     C11947   1.084   4.199   9.454  0.3173  0.4119  0.1916
  808MPD2    C111948   1.217   4.165   9.448  0.0554 -0.6736 -0.5140
  808MPD2    C211949   1.306   4.264   9.458  0.1186 -0.1022  0.3195
  808MPD2    C311950   1.271   4.398   9.463  0.3865  0.0820  0.6257
  808MPD2    C411951   1.137   4.430   9.461 -0.0807  1.5552 -0.5334
  808MPD2    C511952   1.046   4.330   9.467  0.3205  0.1084  0.5151
  808MPD2     H11953   1.411   4.238   9.459  0.2883  0.5727 -0.0332
  808MPD2    H111954   1.104   4.531   9.481 -1.6523  1.1922 -1.3515
  808MPD2    H211955   1.006   4.124   9.447 -1.3034  2.0279  0.8792
  808MPD2    H311956   0.945   4.353   9.500  0.4285  2.9896 -1.1661
  808MPD2     N11957   1.360   4.499   9.482  0.6236  0.1422  0.2049
  808MPD2    H511958   1.317   4.585   9.515 -0.1592 -0.0057 -0.4412
  808MPD2    N111959   1.277   4.032   9.431 -0.0298 -0.0709 -0.2499
  808MPD2    H711960   1.378   4.028   9.428  0.0259 -0.6002  2.2050
  809MPD2     C11961   2.390   4.623   9.486  0.1220 -0.6088  0.0255
  809MPD2    C111962   2.335   4.691   9.590  0.8272 -0.0672 -0.6169
  809MPD2    C211963   2.192   4.707   9.592 -0.0234 -0.1091  0.0022
  809MPD2    C311964   2.112   4.671   9.484  0.3592 -0.3821  0.6101
  809MPD2    C411965   2.184   4.615   9.372 -0.3050  0.3119 -0.4903
  809MPD2    C511966   2.319   4.591   9.371 -0.2783  0.5475 -0.4232
  809MPD2     H11967   2.151   0.029   9.675  1.6148 -2.9784  2.7727
  809MPD2    H111968   2.128   4.586   9.284 -0.3877 -1.7975  0.2469
  809MPD2    H211969   2.492   4.587   9.483 -0.1062 -1.2884  0.4781
  809MPD2    H311970   2.357   4.510   9.309  1.6311 -0.7446  2.4142
  809MPD2     N11971   1.973   4.697   9.474 -0.2538 -0.0224 -0.2579
  809MPD2    H511972   1.921   4.654   9.399 -1.3371  1.1819 -0.2011
  809MPD2    N111973   2.401   4.721   9.710  0.3975 -0.1679 -0.6558
  809MPD2    H711974   2.348   0.016   9.791  0.0427 -0.1983 -0.8791
  810MPD2     C11975   1.374   2.837  10.045  0.6700 -0.9240 -0.3594
  810MPD2    C111976   1.272   2.934  10.051 -0.1145 -0.4823  0.1669
  810MPD2    C211977   1.297   3.057   9.994 -0.5537 -0.6774  0.1368
  810MPD2    C311978   1.419   3.091   9.941  0.6949  0.4251  0.3642
  810MPD2    C411979   1.514   2.991   9.932 -0.2107  0.0802 -0.4249
  810MPD2    C511980   1.492   2.866   9.977  0.2621 -0.4783  0.0156
  810MPD2     H11981   1.224   3.133  10.021 -0.2873 -0.1252 -0.7119
  810MPD2    H111982   1.611   3.006   9.887 -0.7054 -2.0907 -2.2390
  810MPD2    H211983   1.353   2.742  10.092  1.3761  0.0933  2.0081
  810MPD2    H311984   1.565   2.786   9.974 -1.2870 -1.9537  2.1099
  810MPD2     N11985   1.452   3.224   9.900 -0.3522 -0.1984 -0.2228
  810MPD2    H511986   1.552   3.230   9.885 -0.4235 -0.3798 -0.7579
  810MPD2    N111987   1.151   2.912  10.121  0.9465  0.2073  0.2546
  810MPD2    H711988   1.092   2.995  10.123 -0.2679 -0.5843 -2.6807
  811MPD2     C11989   0.332   3.034  10.221  0.4222 -0.1623  0.1625
  811MPD2    C111990   0.463   3.074  10.231  0.1748  0.5430 -0.1404
  811MPD2    C211991   0.493   3.210  10.228 -0.5257 -0.2360  0.6053
  811MPD2    C311992   0.392   3.305  10.210 -0.2565  0.0742 -0.4126
  811MPD2    C411993   0.263   3.261  10.211 -0.7527  0.2289 -0.2440
  811MPD2    C511994   0.231   3.122  10.215 -0.4616  0.4438 -0.1874
  811MPD2     H11995   0.595   3.245  10.236 -0.3193 -1.0890  1.6629
  811MPD2    H111996   0.183   3.333  10.195  0.4920  2.0884  1.8722
  811MPD2    H211997   0.306   2.929  10.229  1.0060 -0.1996  1.4340
  811MPD2    H311998   0.125   3.100  10.222 -0.0633 -0.6658  2.1541
  811MPD2     N11999   0.440   3.444  10.190  0.5177  0.5321  0.3137
  811MPD2    H512000   0.540   3.457  10.189  0.4153  1.1967 -1.1916
  811MPD2    N112001   0.563   2.976  10.254 -0.3358  0.5336  0.2766
  811MPD2    H712002   0.546   2.876  10.258  2.2010  0.0385 -1.3770
  812MPD2     C12003   4.175   3.364  12.157 -0.0309 -0.4676  0.8076
  812MPD2    C112004   4.226   3.490  12.167 -0.8645  0.2432 -0.2395
  812MPD2    C212005   4.307   3.505  12.282 -0.5279  0.3401  0.9961
  812MPD2    C312006   4.319   3.414  12.382 -0.1141 -0.2370 -0.2846
  812MPD2    C412007   4.245   3.296  12.373 -0.3160 -0.8535 -0.2230
  812MPD2    C512008   4.182   3.269  12.253  0.4178 -0.1285  0.2368
  812MPD2     H12009   4.365   3.595  12.298  2.5249 -1.4822 -0.0033
  812MPD2    H112010   4.229   3.233  12.460 -1.9941 -0.3459 -0.1603
  812MPD2    H212011   4.124   3.344  12.063  1.5384 -0.1336 -0.0979
  812MPD2    H312012   4.133   3.174  12.234  0.1005  0.0023  0.3972
  812MPD2     N12013   4.388   3.451  12.503  0.1156 -0.0909  0.1781
  812MPD2    H512014   4.431   3.543  12.513 -1.2902  0.6840 -0.8663
  812MPD2    N112015   4.217   3.596  12.070  0.0710  0.3590  0.1080
  812MPD2    H712016   4.276   3.678  12.074  0.8771 -0.1420 -1.4370
  813MPD2     C12017   3.344   0.232  12.422  0.1092 -0.3499 -0.1860
  813MPD2    C112018   3.452   0.276  12.492 -0.2450  0.2576 -0.1076
  813MPD2    C212019   3.433   0.296  12.629 -0.0867  0.2129  0.0136
  813MPD2    C312020   3.317   0.248  12.691 -0.0233  0.0845  0.4448
  813MPD2    C412021   3.213   0.192  12.619  0.5869 -0.3057  0.0261
  813MPD2    C512022   3.225   0.193  12.478 -0.7146  0.0646  0.3896
  813MPD2     H12023   3.512   0.333  12.694  0.1494  1.1587 -0.8210
  813MPD2    H112024   3.122   0.159  12.666  0.9661 -0.9865  0.2854
  813MPD2    H212025   3.347   0.211  12.315 -0.1124 -2.5714  0.2265
  813MPD2    H312026   3.149   0.175  12.403  0.7366 -2.6672 -0.4494
  813MPD2     N12027   3.305   0.274  12.830 -0.7132  0.2123  0.1055
  813MPD2    H512028   3.389   0.304  12.878  0.4129 -0.2556 -1.5711
  813MPD2    N112029   3.576   0.310  12.434 -0.3016  0.4610 -0.0140
  813MPD2    H712030   3.650   0.322  12.502 -0.0028  0.5649 -0.3542
  814MPD2     C12031   3.774   1.930  12.287 -0.5213 -0.6664 -0.4853
  814MPD2    C112032   3.808   1.997  12.169  0.1129  0.6887 -0.3133
  814MPD2    C212033   3.883   2.115  12.184  0.1995  0.1928  0.3046
  814MPD2    C312034   3.920   2.167  12.305 -0.0715 -0.2043 -0.6219
  814MPD2    C412035   3.899   2.084  12.415  0.1724 -0.2579 -0.2000
  814MPD2    C512036   3.831   1.966  12.404  0.5893 -0.3266  0.1891
  814MPD2     H12037   3.904   2.162  12.088  2.7635 -0.1013  0.7008
  814MPD2    H112038   3.928   2.107  12.517  1.9713 -4.5306  0.2229
  814MPD2    H212039   3.705   1.846  12.290 -1.7065  0.2464 -1.8081
  814MPD2    H312040   3.818   1.912  12.497 -1.5602  2.2994  1.4064
  814MPD2     N12041   4.006   2.277  12.312  0.6774  0.4182  0.0444
  814MPD2    H512042   4.028   2.300  12.409  4.2966 -0.1418 -0.6270
  814MPD2    N112043   3.750   1.968  12.043  0.1739  0.4408  0.2483
  814MPD2    H712044   3.773   2.031  11.967  2.2042 -0.9193 -0.2460
  815MPD2     C12045   0.099   0.040  12.151 -0.0676  0.1832  0.3823
  815MPD2    C112046   0.033   4.654  12.179 -0.0153 -0.5050 -0.4401
  815MPD2    C212047   4.652   4.656  12.259 -0.1515 -0.4104 -0.4837
  815MPD2    C312048   4.597   0.043  12.297 -0.8716 -0.1427  0.8104
  815MPD2    C412049   4.663   0.160  12.267  0.2806 -0.1432  0.3469
  815MPD2    C512050   0.046   0.155  12.204  0.0372  1.0242  0.0582
  815MPD2     H12051   4.602   4.565  12.290 -0.8369  1.0503  2.7223
  815MPD2    H112052   4.621   0.256  12.294  1.6383  1.2100 -2.3554
  815MPD2    H212053   0.187   0.051  12.088 -1.6473  1.4973 -1.6227
  815MPD2    H312054   0.095   0.247  12.174 -0.0737  1.3045  0.7333
  815MPD2     N12055   4.465   0.048  12.358  0.5351  0.1037 -0.1664
  815MPD2    H512056   4.417   4.694  12.375  0.6006  0.3319  1.1770
  815MPD2    N112057   0.085   4.540  12.111  0.0317  0.1661 -0.6525
  815MPD2    H712058   0.144   4.567  12.033  0.3714  1.7387  0.1606
  816MPD2     C12059   4.730   4.616  17.211  0.2411 -0.5214  0.1650
  816MPD2    C112060   4.642   4.549  17.133  0.6458  0.5653 -0.3209
  816MPD2    C212061   4.687   4.483  17.016 -0.8612  0.4928  0.2246
  816MPD2    C312062   0.082   4.510  16.969  0.6297 -0.0635  0.5755
  816MPD2    C412063   0.166   4.586  17.047 -0.0282  0.1030  0.1803
  816MPD2    C512064   0.121   4.636  17.160 -0.3434 -0.1220  0.4077
  816MPD2     H12065   4.614   4.436  16.951  1.0006 -0.5767 -1.0815
  816MPD2    H112066   0.270   4.612  17.027 -0.3934  0.1034 -1.7707
  816MPD2    H212067   4.694   4.666  17.300 -0.7279 -0.4607 -0.2555
  816MPD2    H312068   0.186   4.709  17.207 -0.6708 -0.7301  1.7879
  816MPD2     N12069   0.128   4.456  16.845  0.1035 -0.3317  0.9624
  816MPD2    H512070   0.063   4.406  16.785 -2.2006  2.2699  1.2703
  816MPD2    N112071   4.509   4.539  17.187  0.6722 -0.0063  0.0857
  816MPD2    H712072   4.485   4.595  17.268 -2.5321 -0.4714 -0.5535
  817MPD2     C12073   4.211   0.926  10.002  0.2679 -0.5618  0.3973
  817MPD2    C112074   4.072   0.908   9.989 -0.3752  0.5357 -0.0005
  817MPD2    C212075   3.998   1.014   9.956 -0.0589  0.5625 -0.5963
  817MPD2    C312076   4.051   1.137   9.940 -0.3266 -0.4476 -0.1635
  817MPD2    C412077   4.179   1.162   9.977 -1.3413  0.4336 -0.2079
  817MPD2    C512078   4.262   1.057  10.009  0.0068  0.3801  0.4399
  817MPD2     H12079   3.893   0.998   9.933  0.3704 -0.1661 -2.0343
  817MPD2    H112080   4.215   1.264   9.986 -1.5727  0.3916  1.3138
  817MPD2    H212081   4.281   0.846  10.022 -0.3266 -1.0840  0.3668
  817MPD2    H312082   4.366   1.060  10.039  0.8110  0.6000 -2.3575
  817MPD2     N12083   3.967   1.240   9.893  0.1275 -0.0529 -0.6132
  817MPD2    H512084   3.872   1.210   9.875 -0.3228  0.5663  0.7134
  817MPD2    N112085   4.015   0.776   9.977 -0.7194  0.5889  0.0058
  817MPD2    H712086   3.921   0.765   9.942  0.3748  0.1226 -2.7989
  818MPD2     C12087   3.049   1.451  10.012 -0.3725  0.3490 -0.1857
  818MPD2    C112088   2.944   1.363  10.032  0.2195 -0.0741 -0.3657
  818MPD2    C212089   2.926   1.263   9.931 -0.1476 -0.0717  0.9429
  818MPD2    C312090   3.014   1.246   9.827  0.0452  0.3049  0.2661
  818MPD2    C412091   3.112   1.338   9.808  0.0679 -0.1469  0.4180
  818MPD2    C512092   3.122   1.439   9.902  0.7615  0.6741  0.9453
  818MPD2     H12093   2.853   1.185   9.944 -0.4425 -0.0197 -0.3915
  818MPD2    H112094   3.189   1.336   9.731 -2.3041  0.2365 -1.9767
  818MPD2    H212095   3.067   1.533  10.080  1.1729  2.3074 -2.9764
  818MPD2    H312096   3.202   1.511   9.894  1.0587  0.0919 -1.1755
  818MPD2     N12097   3.006   1.138   9.733  0.3825 -0.4489 -0.2863
  818MPD2    H512098   3.089   1.130   9.674 -1.1963 -0.8297 -2.4543
  818MPD2    N112099   2.847   1.375  10.130  0.2235  0.3936 -0.2795
  818MPD2    H712100   2.769   1.312  10.117  1.4127 -1.4665  1.5566
  819MPD2     C12101   1.034   2.763  15.585 -0.1500 -0.2048  0.8454
  819MPD2    C112102   1.084   2.633  15.541  0.1170 -0.1796 -0.1849
  819MPD2    C212103   1.210   2.602  15.590  0.1887  0.3725  0.5412
  819MPD2    C312104   1.291   2.682  15.670 -0.6275 -0.2446  0.6644
  819MPD2    C412105   1.244   2.806  15.706 -0.0780  0.1368  0.1704
  819MPD2    C512106   1.121   2.843  15.660 -0.7070  0.1575 -0.0851
  819MPD2     H12107   1.245   2.503  15.561  2.6694  1.7048 -1.0689
  819MPD2    H112108   1.297   2.869  15.776  1.2927 -0.4453 -0.3395
  819MPD2    H212109   0.932   2.788  15.556  1.3925  2.7188 -2.1028
  819MPD2    H312110   1.085   2.938  15.697 -1.4533  0.1791 -0.8685
  819MPD2     N12111   1.424   2.636  15.692  0.0404  0.2457  0.3131
  819MPD2    H512112   1.453   2.557  15.635 -0.3290  0.7604 -0.5971
  819MPD2    N112113   0.986   2.542  15.482  0.0285  0.2879 -0.7359
  819MPD2    H712114   0.893   2.577  15.457  0.2598  0.9543 -0.6665
  820MPD2     C12115   0.051   2.465  15.291 -0.0882  0.3211  0.8367
  820MPD2    C112116   0.148   2.560  15.261 -0.1272  0.3002  0.3427
  820MPD2    C212117   0.282   2.523  15.259 -0.7141  0.6530 -0.2082
  820MPD2    C312118   0.313   2.401  15.317 -0.4465 -0.1209 -0.2512
  820MPD2    C412119   0.216   2.305  15.346 -0.7443  0.3307 -0.3903
  820MPD2    C512120   0.090   2.349  15.348  0.1006  0.0245 -0.5955
  820MPD2     H12121   0.356   2.591  15.219 -0.5177 -0.1703 -1.2669
  820MPD2    H112122   0.237   2.202  15.373  1.1237  1.0760  0.9583
  820MPD2    H212123   4.683   2.503  15.290  0.1196  0.8536 -0.1316
  820MPD2    H312124   0.007   2.292  15.387 -0.4967  1.6611  0.5702
  820MPD2     N12125   0.447   2.346  15.309  0.0794 -0.2898 -0.6736
  820MPD2    H512126   0.451   2.245  15.323 -0.9451 -0.1001  1.0689
  820MPD2    N112127   0.097   2.684  15.218  0.0170 -0.3690  0.0487
  820MPD2    H712128   4.729   2.688  15.218  0.0195  0.0683 -1.7343
  821MPD2     C12129   0.757   4.582  13.248  0.0840  0.2411  0.1323
  821MPD2    C112130   0.848   4.485  13.295 -0.4667 -0.2700  0.0767
  821MPD2    C212131   0.957   4.450  13.220  0.0884  0.0828 -0.6592
  821MPD2    C312132   0.984   4.499  13.098 -0.1193 -0.2104 -0.2876
  821MPD2    C412133   0.899   4.604  13.058  0.3568 -0.5278 -0.3040
  821MPD2    C512134   0.787   4.645  13.130  0.2296  0.0891 -0.1418
  821MPD2     H12135   1.009   4.360  13.252 -1.0103 -0.4785 -0.4596
  821MPD2    H112136   0.916   4.655  12.964 -1.2525 -2.4003 -1.6156
  821MPD2    H212137   0.659   4.604  13.289  0.6452  1.5754  0.7637
  821MPD2    H312138   0.729   4.730  13.096 -0.3850  0.2726  1.3392
  821MPD2     N12139   1.090   4.470  13.015  0.0625 -0.0088 -0.2134
  821MPD2    H512140   1.078   4.495  12.917  1.8001  1.6950  0.0117
  821MPD2    N112141   0.812   4.400  13.407 -0.3535  0.1364 -0.2842
  821MPD2    H712142   0.879   4.329  13.432  0.0683  0.9127  0.7656
  822MPD2     C12143   1.902   4.214  15.809 -0.2604  0.3187  0.2357
  822MPD2    C112144   1.857   4.156  15.926  1.0738 -0.0310  0.1848
  822MPD2    C212145   1.777   4.233  16.003 -0.4797  0.0762 -0.0432
  822MPD2    C312146   1.742   4.362  15.971 -0.1362 -1.0222 -0.0265
  822MPD2    C412147   1.787   4.420  15.853 -0.1017 -0.1084  0.5881
  822MPD2    C512148   1.868   4.343  15.767 -0.2361 -0.1934 -0.1494
  822MPD2     H12149   1.752   4.187  16.098 -1.7824 -0.0270 -0.4281
  822MPD2    H112150   1.739   4.505  15.806 -2.6820 -1.4429  0.7855
  822MPD2    H212151   1.958   4.151  15.741 -1.2199 -0.2546 -0.0242
  822MPD2    H312152   1.885   4.378  15.666 -0.0235 -3.9722 -1.4060
  822MPD2     N12153   1.663   4.440  16.065 -0.0986 -1.0864 -0.0009
  822MPD2    H512154   1.655   4.400  16.158 -3.2430 -2.4155 -0.8657
  822MPD2    N112155   1.900   4.040  15.987 -0.5620 -0.7045 -0.6241
  822MPD2    H712156   1.860   4.024  16.079  2.4201  1.1448  0.9619
  823MPD2     C12157   1.337   4.556  16.850 -0.2208  0.4774 -0.5639
  823MPD2    C112158   1.392   4.490  16.745 -0.1908  0.2228  0.5699
  823MPD2    C212159   1.451   4.365  16.768 -0.5565  0.8655  0.1461
  823MPD2    C312160   1.439   4.299  16.888 -1.0565 -0.4728 -0.2838
  823MPD2    C412161   1.364   4.354  16.984 -0.2301 -0.4915 -0.7270
  823MPD2    C512162   1.313   4.486  16.968  0.0397 -0.0194 -0.1666
  823MPD2     H12163   1.491   4.324  16.675  0.8060 -0.0623  1.1308
  823MPD2    H112164   1.330   4.294  17.067  1.8160  1.7186  1.7496
  823MPD2    H212165   1.305   4.659  16.841 -0.8478  0.5084  2.1633
  823MPD2    H312166   1.255   4.521  17.053  1.6013  0.3662  0.7372
  823MPD2     N12167   1.467   4.167  16.903  0.0692  0.5964  0.3302
  823MPD2    H512168   1.447   4.134  16.997 -5.0912 -1.5721 -1.5357
  823MPD2    N112169   1.392   4.550  16.616 -0.4491 -0.5870  0.1590
  823MPD2    H712170   1.355   4.645  16.614 -2.9947 -1.5222  2.7762
  824MPD2     C12171   2.475   3.407  16.359  0.1095  0.0880  0.1743
  824MPD2    C112172   2.475   3.492  16.256 -0.0591 -0.3106  0.2468
  824MPD2    C212173   2.589   3.496  16.172 -0.0478 -0.1467 -0.2214
  824MPD2    C312174   2.692   3.408  16.182  0.7031 -0.3632  0.2292
  824MPD2    C412175   2.684   3.311  16.282  0.6626  0.5902  0.3392
  824MPD2    C512176   2.583   3.315  16.375  0.4732  0.2706  0.4301
  824MPD2     H12177   2.594   3.569  16.092 -0.9079  1.3769  1.1151
  824MPD2    H112178   2.756   3.236  16.312 -2.0386 -0.7155  3.5658
  824MPD2    H212179   2.389   3.393  16.422 -0.9459  3.3312 -0.5391
  824MPD2    H312180   2.577   3.227  16.437  0.9695  0.0543  0.1773
  824MPD2     N12181   2.799   3.416  16.081 -0.4455 -0.7040  0.0175
  824MPD2    H512182   2.793   3.484  16.006  0.5289  0.2883  0.8406
  824MPD2    N112183   2.357   3.568  16.238  0.4432 -0.1578 -0.0353
  824MPD2    H712184   2.284   3.556  16.308 -0.9759 -0.3554 -1.5550
  825MPD2     C12185   3.271   3.673  15.452  0.3740  0.5044  0.3431
  825MPD2    C112186   3.199   3.703  15.561  0.1105 -0.3751 -0.6806
  825MPD2    C212187   3.131   3.821  15.575 -1.0181  0.0645 -0.5703
  825MPD2    C312188   3.136   3.911  15.467  0.5191  0.1877 -0.6566
  825MPD2    C412189   3.203   3.871  15.351 -0.3452 -0.3363 -0.4612
  825MPD2    C512190   3.273   3.756  15.342 -0.5532  0.5337  0.4103
  825MPD2     H12191   3.071   3.840  15.664 -2.2733  0.0973 -1.4366
  825MPD2    H112192   3.195   3.933  15.263  0.7080  0.5379  0.0551
  825MPD2    H212193   3.328   3.580  15.454 -0.9582 -0.3122  0.4017
  825MPD2    H312194   3.315   3.718  15.250  0.0830  0.1277  0.8709
  825MPD2     N12195   3.066   4.038  15.480 -0.1260 -0.4251  0.9537
  825MPD2    H512196   3.019   4.063  15.566 -1.6539 -3.2933  0.9640
  825MPD2    N112197   3.182   3.594  15.648  0.0842  0.0733  0.7737
  825MPD2    H712198   3.244   3.515  15.633 -0.2024 -0.1639  0.8523
  826MPD2     C12199   2.568   3.091  13.916 -0.5217  0.0693 -0.1051
  826MPD2    C112200   2.584   3.125  13.783  0.2248 -0.5001 -0.0289
  826MPD2    C212201   2.514   3.237  13.739  0.2112 -0.1264 -0.1693
  826MPD2    C312202   2.437   3.310  13.820 -0.9255  0.8800 -0.6272
  826MPD2    C412203   2.416   3.270  13.953  0.2405  0.3083 -0.5213
  826MPD2    C512204   2.481   3.158  13.992  0.8332  0.2663  0.3148
  826MPD2     H12205   2.528   3.265  13.635 -1.2065  0.1350 -0.2881
  826MPD2    H112206   2.343   3.320  14.016  1.6418 -0.7341  1.9062
  826MPD2    H212207   2.608   3.000  13.958  1.4765  0.4234 -1.2800
  826MPD2    H312208   2.478   3.128  14.096  3.0279 -2.1740 -0.3439
  826MPD2     N12209   2.371   3.427  13.770 -0.2220  0.1711 -0.0718
  826MPD2    H512210   2.310   3.479  13.833 -1.0162 -1.5554  0.5781
  826MPD2    N112211   2.664   3.044  13.705  0.0331  0.3650  0.2450
  826MPD2    H712212   2.676   2.946  13.729  0.7705  0.4238  0.1372
  827MPD2     C12213   3.754   4.613  10.255  0.4076 -0.5755  0.7275
  827MPD2    C112214   3.691   4.592  10.376 -1.1864 -0.1428 -0.3540
  827MPD2    C212215   3.567   4.528  10.381 -0.1998  0.2549 -0.4313
  827MPD2    C312216   3.502   4.501  10.268 -0.3481 -0.9991  0.3880
  827MPD2    C412217   3.573   4.524  10.142  0.5566  0.4154  0.7075
  827MPD2    C512218   3.698   4.571  10.142  0.3626  0.7396 -0.5709
  827MPD2     H12219   3.528   4.490  10.474  1.7297 -0.7614 -0.0459
  827MPD2    H112220   3.530   4.501  10.045  0.3143 -0.7011  1.0827
  827MPD2    H212221   3.853   4.656  10.247  1.8408 -3.2554  4.2163
  827MPD2    H312222   3.749   4.593  10.049 -1.5522 -0.7745 -1.9881
  827MPD2     N12223   3.372   4.442  10.277 -0.7495  0.9353  0.2329
  827MPD2    H512224   3.339   4.430  10.372 -1.5476  0.1389 -0.1473
  827MPD2    N112225   3.754   4.635  10.494  0.4270  0.0413  0.0336
  827MPD2    H712226   3.852   4.663  10.484  0.5138  0.5203  2.2778
  828MPD2     C12227   1.810   0.143  12.175  0.3181 -0.5589 -0.7107
  828MPD2    C112228   1.744   0.053  12.095  0.0621  0.2981 -0.7512
  828MPD2    C212229   1.816   4.720  11.995  0.2636  0.4879  0.0050
  828MPD2    C312230   1.947   0.007  11.978  0.0872  0.3824 -1.1899
  828MPD2    C412231   2.008   0.095  12.053  0.4881 -0.3200 -0.0428
  828MPD2    C512232   1.942   0.169  12.147  0.0516  0.6150 -0.3375
  828MPD2     H12233   1.769   4.647  11.930  1.7436 -0.6392  0.1886
  828MPD2    H112234   2.114   0.112  12.037  0.2481  1.3972  0.1360
  828MPD2    H212235   1.772   0.174  12.271  2.2031 -4.0090  1.1648
  828MPD2    H312236   2.007   0.234  12.205 -0.4945  1.0025 -0.1530
  828MPD2     N12237   2.026   4.692  11.869 -0.3808 -0.1395  0.5142
  828MPD2    H512238   2.127   4.685  11.873 -0.2150  2.0991  0.6888
  828MPD2    N112239   1.617   0.016  12.120 -0.0542 -0.9818  0.4169
  828MPD2    H712240   1.592   4.670  12.062 -0.5281 -0.2089 -0.4260
  829MPD2     C12241   1.051   4.566  11.493  0.9822 -0.5124 -0.5963
  829MPD2    C112242   0.998   4.496  11.602 -0.3663 -0.0427  0.8736
  829MPD2    C212243   1.048   4.513  11.730  0.3856 -0.5629  0.2556
  829MPD2    C312244   1.172   4.571  11.752 -0.0024  0.4425  0.4285
  829MPD2    C412245   1.229   4.618  11.632 -0.0804 -0.2678 -0.3511
  829MPD2    C512246   1.167   4.625  11.515 -0.3769  0.7762 -0.5165
  829MPD2     H12247   0.994   4.464  11.810 -0.2623 -0.6657 -0.2447
  829MPD2    H112248   1.330   4.657  11.646  0.1783 -1.3932  0.9855
  829MPD2    H212249   1.006   4.575  11.395 -0.8016 -0.1539  0.2680
  829MPD2    H312250   1.214   4.675  11.431  1.0617 -0.1461 -0.2457
  829MPD2     N12251   1.239   4.582  11.879 -0.2947  0.0751  0.6657
  829MPD2    H512252   1.329   4.629  11.877 -0.1612 -0.1877  0.4476
  829MPD2    N112253   0.874   4.428  11.582  0.2015  0.2536 -0.2901
  829MPD2    H712254   0.842   4.428  11.485 -2.0388  0.2857  0.4455
  830MPD2     C12255   2.210   2.463  15.721  0.4205  0.0366 -0.1483
  830MPD2    C112256   2.079   2.499  15.690 -0.4936  0.0950 -0.7846
  830MPD2    C212257   2.047   2.634  15.695  0.1262  0.7664 -0.2256
  830MPD2    C312258   2.132   2.732  15.744  0.1946  0.0880  0.1712
  830MPD2    C412259   2.262   2.693  15.761 -0.7978 -0.6802  0.2402
  830MPD2    C512260   2.302   2.562  15.743 -0.1833 -0.8267 -0.1221
  830MPD2     H12261   1.949   2.663  15.660 -1.1870 -2.7345  0.5630
  830MPD2    H112262   2.340   2.768  15.766 -1.8920  0.5680 -1.4354
  830MPD2    H212263   2.235   2.359  15.743  4.4055  0.8269 -0.8676
  830MPD2    H312264   2.398   2.526  15.776  0.2546 -1.6202 -2.2553
  830MPD2     N12265   2.092   2.865  15.755 -0.3442  0.7383 -0.7081
  830MPD2    H512266   2.161   2.938  15.762 -0.6490  0.9656 -0.0222
  830MPD2    N112267   1.996   2.384  15.656  0.2159  0.4408 -0.0838
  830MPD2    H712268   2.043   2.301  15.620  2.3046  0.5558  2.3762
  831MPD2     C12269   1.939   4.521  16.331 -0.5396 -0.7411 -0.1316
  831MPD2    C112270   1.969   4.400  16.266  0.0756 -0.0823  0.5114
  831MPD2    C212271   1.892   4.292  16.302 -0.6904  0.1071  0.6882
  831MPD2    C312272   1.779   4.304  16.387  0.4145 -0.1058  0.5580
  831MPD2    C412273   1.769   4.421  16.460 -0.1603 -0.1087 -0.4785
  831MPD2    C512274   1.848   4.528  16.435  0.0807  0.5728 -0.2681
  831MPD2     H12275   1.901   4.195  16.254 -1.6911  0.4145 -0.1337
  831MPD2    H112276   1.701   4.430  16.545 -0.4803  3.0717 -1.0815
  831MPD2    H212277   2.005   4.606  16.315 -2.0790  0.8114  1.7339
  831MPD2    H312278   1.833   4.624  16.484 -3.1564 -0.7156  1.2761
  831MPD2     N12279   1.675   4.207  16.395  0.5378 -0.3821 -0.1774
  831MPD2    H512280   1.596   4.238  16.450  0.1368 -0.9071 -0.4578
  831MPD2    N112281   2.066   4.401  16.166  0.3447 -0.0431  0.3151
  831MPD2    H712282   2.092   4.490  16.125 -1.2372  0.6782  0.8848
  832MPD2     C12283   0.307   0.518  16.820  0.2625 -0.7526  0.3804
  832MPD2    C112284   0.207   0.571  16.892  0.6297 -0.2244  0.0253
  832MPD2    C212285   0.077   0.559  16.851  0.0523  0.0020 -0.0317
  832MPD2    C312286   0.052   0.504  16.721 -0.2880 -0.2271  0.1669
  832MPD2    C412287   0.161   0.456  16.649 -1.3292 -0.8265  0.4505
  832MPD2    C512288   0.288   0.452  16.709  0.4552  0.1341 -0.0070
  832MPD2     H12289   0.001   0.620  16.899  1.7447  2.1668 -0.1066
  832MPD2    H112290   0.157   0.400  16.556  0.2646  2.3904 -1.5474
  832MPD2    H212291   0.407   0.525  16.863 -0.0329  0.1064  0.9300
  832MPD2    H312292   0.369   0.403  16.657 -0.3037  0.9809 -1.9914
  832MPD2     N12293   4.661   0.502  16.650 -0.2133 -0.3831  0.5435
  832MPD2    H512294   4.648   0.458  16.559  1.6716  1.5430 -0.6508
  832MPD2    N112295   0.237   0.646  17.009 -0.3105 -0.0178 -1.1786
  832MPD2    H712296   0.332   0.670  17.035 -0.8684  1.6300 -0.6689
  833MPD2     C12297   2.275   1.877  12.646  0.0399 -0.2983  0.2888
  833MPD2    C112298   2.296   1.991  12.573  0.1474 -0.0481 -0.0353
  833MPD2    C212299   2.409   1.996  12.494  0.5874  0.3690 -0.4388
  833MPD2    C312300   2.506   1.902  12.496 -0.7299  0.3312 -0.2345
  833MPD2    C412301   2.487   1.788  12.576  0.4101  0.3907 -0.0086
  833MPD2    C512302   2.377   1.779  12.654  0.4984 -0.7694 -0.1033
  833MPD2     H12303   2.434   2.089  12.444  1.8346  0.8017  0.9486
  833MPD2    H112304   2.560   1.710  12.592 -2.8816 -2.5782  0.5908
  833MPD2    H212305   2.186   1.858  12.705 -1.1318  2.5046 -0.5835
  833MPD2    H312306   2.358   1.693  12.716  2.9732 -0.7363  0.7131
  833MPD2     N12307   2.628   1.907  12.429  0.0774  0.5026  0.1521
  833MPD2    H512308   2.704   1.852  12.468  1.1867  1.0803 -1.1952
  833MPD2    N112309   2.199   2.089  12.571  0.4934 -0.2965  0.1554
  833MPD2    H712310   2.117   2.064  12.625 -0.2765  1.9417  0.0474
  834MPD2     C12311   2.065   1.373  11.970  0.8159  0.8801 -0.5027
  834MPD2    C112312   2.159   1.425  11.881  0.7065 -0.1261  0.4258
  834MPD2    C212313   2.238   1.534  11.911 -0.5889 -0.9242  0.4779
  834MPD2    C312314   2.215   1.604  12.028 -0.6212 -0.9243 -0.3139
  834MPD2    C412315   2.119   1.557  12.115 -0.1630 -0.1828 -0.3896
  834MPD2    C512316   2.043   1.444  12.084  0.6852  0.1391 -0.3490
  834MPD2     H12317   2.313   1.572  11.843 -1.3579  0.4624  0.3995
  834MPD2    H112318   2.097   1.603  12.210  2.0420 -1.1283  0.5810
  834MPD2    H212319   2.012   1.282  11.945 -1.6016  2.2431 -0.3997
  834MPD2    H312320   1.962   1.422  12.151  1.7054  1.2928  1.2596
  834MPD2     N12321   2.292   1.721  12.051 -0.1870 -0.1680 -0.2502
  834MPD2    H512322   2.376   1.729  11.995  1.2898 -0.6116  1.8969
  834MPD2    N112323   2.164   1.351  11.757 -0.4403  0.4124  0.0007
  834MPD2    H712324   2.102   1.274  11.735 -0.7827  1.3747 -2.4105
  835MPD2     C12325   2.384   4.148  11.304 -1.1563 -0.0826  0.5228
  835MPD2    C112326   2.404   4.284  11.290  0.0502  0.2016  0.4132
  835MPD2    C212327   2.468   4.355  11.391  0.0898  0.4129 -0.4459
  835MPD2    C312328   2.520   4.296  11.501 -0.5041 -0.5064 -0.1465
  835MPD2    C412329   2.509   4.161  11.513 -0.3837 -0.5948  0.0211
  835MPD2    C512330   2.452   4.091  11.409  0.0855  0.3978  0.3061
  835MPD2     H12331   2.467   4.462  11.374  0.3532  0.3650 -0.7714
  835MPD2    H112332   2.548   4.119  11.605  0.1259  0.3059  0.2142
  835MPD2    H212333   2.333   4.080  11.237  1.6265  0.7629 -2.4319
  835MPD2    H312334   2.443   3.984  11.422  0.1973  0.7590  3.3065
  835MPD2     N12335   2.578   4.370  11.605  0.6924 -0.0970  0.1084
  835MPD2    H512336   2.623   4.308  11.672 -1.8864 -0.8326  1.1374
  835MPD2    N112337   2.366   4.358  11.173 -0.4866 -0.3371 -0.1176
  835MPD2    H712338   2.385   4.457  11.181  1.8718 -0.8810  0.9528
  836MPD2     C12339   2.804   0.158  12.342 -0.8469 -0.3353 -0.3282
  836MPD2    C112340   2.703   0.118  12.253 -1.0408 -0.1687 -0.0973
  836MPD2    C212341   2.574   0.133  12.298 -0.1844 -0.1213  0.1328
  836MPD2    C312342   2.544   0.176  12.426 -0.0569  0.5126  0.3541
  836MPD2    C412343   2.646   0.216  12.510  0.2873  0.7972 -0.3714
  836MPD2    C512344   2.773   0.213  12.467 -0.2381 -0.0477  0.2382
  836MPD2     H12345   2.500   0.107  12.223 -0.9141  0.9661  0.4825
  836MPD2    H112346   2.635   0.251  12.612 -0.1896  1.0922 -0.5248
  836MPD2    H212347   2.908   0.139  12.318 -0.5859  0.4250  0.2047
  836MPD2    H312348   2.859   0.239  12.527 -0.4525 -0.2015  0.6127
  836MPD2     N12349   2.425   0.172  12.483  0.3341  0.1441  0.0863
  836MPD2    H512350   2.419   0.207  12.578 -0.9944 -1.1528  0.4706
  836MPD2    N112351   2.734   0.071  12.124 -0.4158  0.0802  1.1589
  836MPD2    H712352   2.832   0.077  12.101 -0.2045 -1.9749  1.4612
  837MPD2     C12353   0.993   3.930  10.390  0.5745  0.0037 -0.1913
  837MPD2    C112354   0.873   3.989  10.355 -0.4884 -0.9937 -0.7678
  837MPD2    C212355   0.853   4.124  10.383  0.1672  0.5701 -0.2206
  837MPD2    C312356   0.961   4.203  10.424 -0.4754 -0.2245  0.5650
  837MPD2    C412357   1.085   4.148  10.451  0.0491  0.1511  0.4372
  837MPD2    C512358   1.093   4.009  10.439 -0.6818  0.0145  0.5658
  837MPD2     H12359   0.758   4.167  10.354 -1.0780 -2.0893 -0.0698
  837MPD2    H112360   1.172   4.195  10.495  1.4856 -1.2221 -0.9192
  837MPD2    H212361   1.011   3.824  10.376 -1.7699 -0.2711 -1.3276
  837MPD2    H312362   1.184   3.958  10.468  1.8200  3.0469 -1.8998
  837MPD2     N12363   0.924   4.338  10.440 -1.0487  0.1517 -0.8148
  837MPD2    H512364   0.824   4.357  10.439 -0.7865  1.5085 -0.4309
  837MPD2    N112365   0.767   3.912  10.305 -1.1051  0.2086 -0.6416
  837MPD2    H712366   0.674   3.950  10.320 -2.2402 -2.5007 -0.8271
  838MPD2     C12367   3.461   2.933  12.019 -0.5415 -0.3085 -0.4306
  838MPD2    C112368   3.466   2.797  11.989 -0.4982 -0.2437  0.6671
  838MPD2    C212369   3.390   2.709  12.068 -0.5339 -0.0393 -0.4083
  838MPD2    C312370   3.310   2.755  12.172  0.0016  0.7319  0.0657
  838MPD2    C412371   3.310   2.892  12.197  0.6396  0.0130 -1.0178
  838MPD2    C512372   3.387   2.984  12.124 -0.6732  0.4022 -0.2293
  838MPD2     H12373   3.387   2.602  12.047 -1.1480  0.0032 -0.5367
  838MPD2    H112374   3.242   2.924  12.274  0.6794  1.0897 -1.4158
  838MPD2    H212375   3.510   3.005  11.954  0.0541  0.1126  0.4891
  838MPD2    H312376   3.379   3.089  12.148  0.1931 -0.0420  1.9394
  838MPD2     N12377   3.229   2.671  12.249 -0.1164 -0.3831 -0.0205
  838MPD2    H512378   3.166   2.721  12.312 -1.5079 -2.9183  0.5995
  838MPD2    N112379   3.544   2.743  11.887 -0.4452 -0.3248  0.5650
  838MPD2    H712380   3.547   2.642  11.889  1.0522 -0.2565  1.7604
  839MPD2     C12381   3.280   2.026  11.733 -0.4681  0.9237 -0.8311
  839MPD2    C112382   3.345   2.037  11.611  1.1819 -0.0122 -0.6555
  839MPD2    C212383   3.437   2.144  11.592  0.2016 -0.1765 -0.0251
  839MPD2    C312384   3.475   2.226  11.691  0.2594  0.3122  0.2694
  839MPD2    C412385   3.423   2.206  11.815 -0.0997 -0.0131 -0.2388
  839MPD2    C512386   3.319   2.114  11.833  0.5474  0.1472  0.2276
  839MPD2     H12387   3.477   2.162  11.492 -0.1705  0.2127 -0.1030
  839MPD2    H112388   3.456   2.265  11.900 -0.1119  0.5649 -0.6335
  839MPD2    H212389   3.205   1.953  11.761 -1.2603  1.8997 -0.3884
  839MPD2    H312390   3.269   2.109  11.929  0.4505  0.8953  0.2100
  839MPD2     N12391   3.558   2.339  11.683  0.0909 -0.2057  0.0256
  839MPD2    H512392   3.562   2.384  11.774 -0.8485 -2.1103  1.0068
  839MPD2    N112393   3.302   1.959  11.497 -0.0902 -0.0767  0.1040
  839MPD2    H712394   3.366   1.968  11.420  1.1227 -1.2827  0.9639
  840MPD2     C12395   4.336   0.011  10.456  0.0766  0.1054 -0.2042
  840MPD2    C112396   4.319   0.018  10.593  0.3878  0.3867 -0.1930
  840MPD2    C212397   4.424   0.010  10.683 -0.2794  0.4356  0.4968
  840MPD2    C312398   4.555   0.014  10.627  0.1602  0.6215  0.3503
  840MPD2    C412399   4.572   0.011  10.491 -0.4130  0.3642  0.1183
  840MPD2    C512400   4.463   0.010  10.404 -0.1187 -0.0901 -0.5054
  840MPD2     H12401   4.413   0.006  10.790  2.4998 -0.1485  0.7570
  840MPD2    H112402   4.673   0.010  10.453  0.5703  1.3238  2.6564
  840MPD2    H212403   4.250   0.020  10.391  1.5972 -1.9599 -2.4608
  840MPD2    H312404   4.483   4.733  10.298  1.1179  0.8814 -0.3706
  840MPD2     N12405   4.666   0.017  10.706 -0.4365  0.2553  0.7251
  840MPD2    H512406   0.015   0.007  10.649 -0.5588  0.0046  0.5932
  840MPD2    N112407   4.186   0.045  10.639  0.4360  0.1749  0.8213
  840MPD2    H712408   4.113   0.054  10.568  1.0531 -1.2892  0.0071
  841MPD2     C12409   3.472   0.117  14.819  0.0245  0.9889  0.5757
  841MPD2    C112410   3.527   0.004  14.761  0.0223  0.1303 -0.1013
  841MPD2    C212411   3.633   0.009  14.677 -0.3409  0.3934  0.9362
  841MPD2    C312412   3.692   0.132  14.649 -0.7957 -0.4948 -0.3634
  841MPD2    C412413   3.637   0.250  14.707  0.0495 -0.0279 -0.1631
  841MPD2    C512414   3.528   0.237  14.789 -0.0617 -0.4701  0.7449
  841MPD2     H12415   3.675   4.653  14.634 -1.9672  0.4683 -0.8025
  841MPD2    H112416   3.656   0.353  14.680  0.2521  0.0618  0.3074
  841MPD2    H212417   3.381   0.110  14.878 -0.4039 -1.4996 -0.3684
  841MPD2    H312418   3.492   0.329  14.834  1.1499  0.0827  0.5950
  841MPD2     N12419   3.815   0.133  14.574  0.0043 -0.1353 -0.3135
  841MPD2    H512420   3.858   0.042  14.563 -0.3146 -0.2294 -0.7614
  841MPD2    N112421   3.477   4.607  14.789  0.3741  0.4655  0.3505
  841MPD2    H712422   3.519   4.539  14.727 -1.7559 -1.2190  0.7685
  842MPD2     C12423   3.935   0.623  16.687 -0.3422 -0.0441 -0.4358
  842MPD2    C112424   3.802   0.650  16.727 -0.2548  0.0698 -0.1878
  842MPD2    C212425   3.747   0.579  16.829  1.2797 -0.3535 -0.1845
  842MPD2    C312426   3.827   0.479  16.893 -0.0551  0.7504 -0.6855
  842MPD2    C412427   3.960   0.462  16.855  0.3907 -0.5426  0.1135
  842MPD2    C512428   4.010   0.535  16.754 -0.5920  0.2203 -0.2426
  842MPD2     H12429   3.642   0.576  16.855  1.4301 -0.7956  0.3760
  842MPD2    H112430   4.034   0.398  16.902 -0.4110 -1.4185  0.1851
  842MPD2    H212431   3.992   0.672  16.609 -0.8486 -0.8850 -1.3385
  842MPD2    H312432   4.112   0.520  16.720 -1.1260  0.1728 -1.8327
  842MPD2     N12433   3.780   0.409  17.009  0.5958  0.2102 -0.7303
  842MPD2    H512434   3.852   0.363  17.062 -0.5026 -0.9073 -0.2058
  842MPD2    N112435   3.735   0.754  16.661 -0.0776  0.1684  0.1169
  842MPD2    H712436   3.784   0.803  16.587 -1.0493 -1.0368 -1.3269
  843MPD2     C12437   1.445   1.522   0.101  0.5498  0.0671 -0.6968
  843MPD2    C112438   1.354   1.624   0.092 -0.2689  1.1632 -1.4046
  843MPD2    C212439   1.384   1.759   0.112 -0.4415 -1.0735 -1.0957
  843MPD2    C312440   1.507   1.796   0.155  0.1837  0.0869 -1.0738
  843MPD2    C412441   1.602   1.700   0.161  0.3276  0.6057  0.1462
  843MPD2    C512442   1.570   1.562   0.137 -0.4268 -1.0000 -0.2341
  843MPD2     H12443   1.314   1.836   0.081  0.5781 -0.2858 -1.4244
  843MPD2    H112444   1.705   1.725   0.188 -0.1736 -0.0667  2.7438
  843MPD2    H212445   1.413   1.422   0.075 -0.3802 -0.0855  1.0033
  843MPD2    H312446   1.647   1.486   0.145  1.9848  1.4499 -0.2794
  843MPD2     N12447   1.545   1.920   0.194  0.0122 -0.2291 -0.5814
  843MPD2    H512448   1.645   1.936   0.191 -0.3597  2.1397 -0.4369
  843MPD2    N112449   1.228   1.588   0.039 -0.2202 -0.2339 -0.1675
  843MPD2    H712450   1.213   1.488   0.031 -2.1494  0.1340 -1.0499
  844MPD2     C12451   4.620   0.859  16.514  0.2641 -0.8434  0.1078
  844MPD2    C112452   4.724   0.780  16.471 -0.7451  0.0992  0.1480
  844MPD2    C212453   0.113   0.770  16.534  0.0915 -0.4601 -0.0199
  844MPD2    C312454   0.140   0.855  16.642 -0.1586  0.1951 -0.4212
  844MPD2    C412455   0.038   0.944  16.677  0.1194  0.1878  0.0552
  844MPD2    C512456   4.654   0.946  16.616 -0.6997  0.0815 -0.2283
  844MPD2     H12457   0.194   0.712  16.493 -0.9117 -2.1280  0.3555
  844MPD2    H112458   0.052   1.024  16.749  0.5578 -1.0652  1.3572
  844MPD2    H212459   4.523   0.869  16.467 -0.5130 -0.8199  1.7323
  844MPD2    H312460   4.580   1.018  16.648  0.5583  0.4200  1.9056
  844MPD2     N12461   0.273   0.868  16.690  0.3500 -0.0751  0.3110
  844MPD2    H512462   0.348   0.813  16.650 -1.2741 -0.9479 -1.5840
  844MPD2    N112463   4.704   0.719  16.345  0.0345 -0.3352  0.4329
  844MPD2    H712464   4.624   0.756  16.295 -1.3749 -3.5163  0.3535
  845MPD2     C12465   0.498   1.698  16.842 -0.0802 -0.3313  0.3186
  845MPD2    C112466   0.401   1.627  16.905  0.3437  0.5808  0.6757
  845MPD2    C212467   0.431   1.498  16.938  0.2625 -0.5281  0.5226
  845MPD2    C312468   0.549   1.438  16.898  0.2752  0.1110 -0.6812
  845MPD2    C412469   0.649   1.508  16.842  0.2743  0.1298  0.7680
  845MPD2    C512470   0.624   1.638  16.821 -0.2608  0.4091 -0.3303
  845MPD2     H12471   0.353   1.440  16.987 -0.5025  1.2692  1.3987
  845MPD2    H112472   0.748   1.472  16.816 -1.0508 -2.2246 -0.9691
  845MPD2    H212473   0.474   1.799  16.812 -0.4709 -0.8386 -1.1173
  845MPD2    H312474   0.705   1.693  16.777 -1.4320  1.6976 -0.8692
  845MPD2     N12475   0.559   1.299  16.928  0.8403 -0.1188 -0.0290
  845MPD2    H512476   0.479   1.244  16.958  0.0339  1.0606 -0.0335
  845MPD2    N112477   0.277   1.676  16.943 -0.8276  0.0631  0.4001
  845MPD2    H712478   0.224   1.626  17.014 -0.4694  0.1922  0.7564
  846MPD2     C12479   1.589   1.839  13.679  0.0049 -0.0458 -0.1103
  846MPD2    C112480   1.475   1.914  13.699 -0.4757 -0.7828 -0.3915
  846MPD2    C212481   1.435   1.931  13.829  0.6457  0.3755  0.2252
  846MPD2    C312482   1.497   1.868  13.933  0.4921 -0.0952  0.8632
  846MPD2    C412483   1.605   1.790  13.909  0.0138  0.0168 -1.2243
  846MPD2    C512484   1.653   1.771  13.784 -0.3066 -0.2654  0.4790
  846MPD2     H12485   1.349   1.992  13.855  0.4975  1.0073 -1.7741
  846MPD2    H112486   1.670   1.749  13.985 -0.9221  1.4944  0.3573
  846MPD2    H212487   1.638   1.826  13.583 -0.6274 -2.0711 -0.1552
  846MPD2    H312488   1.749   1.726  13.762 -0.1937 -0.2093  0.8582
  846MPD2     N12489   1.456   1.908  14.066 -0.4436 -0.1606 -0.0740
  846MPD2    H512490   1.376   1.971  14.070 -2.1275 -2.2407 -1.0243
  846MPD2    N112491   1.415   1.988  13.598  0.3521 -0.7119 -0.5850
  846MPD2    H712492   1.367   2.072  13.630  0.9682 -0.4487 -0.3507
  847MPD2     C12493   1.904   3.262  14.658  0.3665  0.6342 -0.4136
  847MPD2    C112494   1.962   3.359  14.736 -0.0533 -0.0718 -0.5258
  847MPD2    C212495   2.049   3.319  14.830  0.3422 -0.6094 -0.2019
  847MPD2    C312496   2.074   3.182  14.861  0.0922 -0.2456  0.3295
  847MPD2    C412497   2.008   3.086  14.787  0.5469  0.4039  0.1262
  847MPD2    C512498   1.927   3.131  14.683 -0.5909 -0.1888 -0.4845
  847MPD2     H12499   2.077   3.389  14.908 -1.8338 -0.5088  0.4776
  847MPD2    H112500   2.007   2.982  14.817 -0.1278  0.1827 -0.6712
  847MPD2    H212501   1.825   3.286  14.588  0.5211  1.2417 -0.3735
  847MPD2    H312502   1.869   3.068  14.616 -2.8626  1.2373  0.1215
  847MPD2     N12503   2.134   3.141  14.985  0.1844  0.6597  0.5144
  847MPD2    H512504   2.103   3.057  15.032  2.3171 -1.2810 -1.5920
  847MPD2    N112505   1.929   3.499  14.719 -0.0426  0.4773 -0.5235
  847MPD2    H712506   1.958   3.567  14.789  2.2734 -0.1716 -0.8337
  848MPD2     C12507   4.265   0.576  16.011  0.2464  0.3773 -0.1006
  848MPD2    C112508   4.278   0.646  16.124 -0.3677 -0.4059 -0.6941
  848MPD2    C212509   4.272   0.782  16.122 -0.4642 -0.3891  0.2746
  848MPD2    C312510   4.236   0.850  16.006  0.1484  0.2665  0.0758
  848MPD2    C412511   4.208   0.772  15.892  0.5873  0.2553  0.0981
  848MPD2    C512512   4.224   0.641  15.891  0.5341  0.2166 -0.9247
  848MPD2     H12513   4.299   0.839  16.210 -1.6771 -0.5978  0.7858
  848MPD2    H112514   4.182   0.818  15.798 -1.3748  0.5389  0.7730
  848MPD2    H212515   4.280   0.469  16.016  0.3472  0.4626  1.4140
  848MPD2    H312516   4.204   0.587  15.799 -2.5786  0.3194 -0.2911
  848MPD2     N12517   4.243   0.986  15.985  0.0690 -0.2872  0.0317
  848MPD2    H512518   4.238   1.007  15.886  1.2210 -0.3769 -0.0444
  848MPD2    N112519   4.304   0.593  16.259 -0.3725 -0.1787  0.0378
  848MPD2    H712520   4.312   0.659  16.335  0.5167  0.6583 -0.7831
  849MPD2     C12521   3.937   0.900  13.380 -0.2311  0.0568  0.3429
  849MPD2    C112522   4.058   0.858  13.425  0.0000 -1.1010  0.2020
  849MPD2    C212523   4.074   0.810  13.558  0.8065 -0.0188  0.8618
  849MPD2    C312524   3.963   0.804  13.640 -0.5056 -0.2971 -0.0135
  849MPD2    C412525   3.840   0.844  13.592  0.0167  0.0884  0.5810
  849MPD2    C512526   3.826   0.890  13.463  0.2381  0.9817 -0.4762
  849MPD2     H12527   4.170   0.773  13.590  0.2818  0.7767  3.3581
  849MPD2    H112528   3.749   0.846  13.650  0.7884  0.1199  1.7925
  849MPD2    H212529   3.921   0.928  13.277  2.2171 -1.5407 -0.4807
  849MPD2    H312530   3.725   0.906  13.427  0.3604  0.5918 -1.0089
  849MPD2     N12531   3.978   0.747  13.767  0.0782 -0.4719 -0.0665
  849MPD2    H512532   4.066   0.704  13.794 -1.5639 -2.3882  2.1913
  849MPD2    N112533   4.173   0.856  13.342  0.2354  0.2870  0.6685
  849MPD2    H712534   4.261   0.845  13.392 -0.5775 -3.0725  1.4213
  850MPD2     C12535   1.853   4.082  14.925  0.0760 -0.1828  0.4881
  850MPD2    C112536   1.913   4.008  15.026 -0.2352 -0.3400 -0.3106
  850MPD2    C212537   1.999   3.909  14.985  0.1160 -0.0143  0.6397
  850MPD2    C312538   2.033   3.885  14.856  0.5048 -0.4230 -0.1155
  850MPD2    C412539   1.987   3.972  14.757  0.3600  0.3747 -0.8323
  850MPD2    C512540   1.897   4.073  14.790  0.2348 -0.5195 -0.3794
  850MPD2     H12541   2.041   3.851  15.067 -0.4660 -0.5552  0.5610
  850MPD2    H112542   2.024   3.960  14.655  0.8380  1.1957 -0.7574
  850MPD2    H212543   1.783   4.160  14.953  1.0751  0.0759  2.2966
  850MPD2    H312544   1.849   4.130  14.710  0.2195  0.9023  0.6333
  850MPD2     N12545   2.133   3.794  14.826  0.1903  0.0800 -0.4244
  850MPD2    H512546   2.201   3.814  14.753  0.3424 -0.2623 -0.3808
  850MPD2    N112547   1.881   4.016  15.160  0.1961 -0.7608  0.7217
  850MPD2    H712548   1.946   3.967  15.219  0.8159 -0.0847  0.6076
  851MPD2     C12549   2.161   3.764  15.588 -0.4257 -0.5559  0.6396
  851MPD2    C112550   2.035   3.761  15.626  0.0698 -1.0283 -0.1624
  851MPD2    C212551   1.993   3.649  15.706 -0.2416 -0.1419  0.3786
  851MPD2    C312552   2.090   3.561  15.753 -0.5924  0.3656 -0.2358
  851MPD2    C412553   2.225   3.587  15.723 -0.1897 -0.1649  0.6818
  851MPD2    C512554   2.260   3.679  15.630 -0.2642  0.1736  0.0394
  851MPD2     H12555   1.887   3.635  15.726 -0.5438  1.1890 -0.2792
  851MPD2    H112556   2.300   3.511  15.743  0.6064  0.7566  1.1852
  851MPD2    H212557   2.186   3.843  15.519 -1.5171  0.2115  1.1217
  851MPD2    H312558   2.359   3.681  15.585  0.0418 -1.0743  0.6600
  851MPD2     N12559   2.041   3.453  15.825 -0.0402 -0.0668 -0.1877
  851MPD2    H512560   1.942   3.455  15.848 -0.1851  1.1603 -0.9262
  851MPD2    N112561   1.945   3.855  15.578  0.7047  0.2997  0.1704
  851MPD2    H712562   1.972   3.916  15.501 -1.0761  0.2305 -0.5333
  852MPD2     C12563   1.240   1.344   9.873 -0.7719 -0.4917 -0.0674
  852MPD2    C112564   1.254   1.393  10.000  0.3666  0.4955  0.4328
  852MPD2    C212565   1.346   1.500  10.021 -0.5027  0.2645  0.3525
  852MPD2    C312566   1.415   1.552   9.914 -0.1116  0.0192 -0.2200
  852MPD2    C412567   1.401   1.496   9.789  0.5178 -0.3923  0.5705
  852MPD2    C512568   1.309   1.399   9.760  0.2134  0.4342  0.3251
  852MPD2     H12569   1.365   1.528  10.124  2.5536 -0.1749 -0.0960
  852MPD2    H112570   1.469   1.513   9.707 -1.6829  0.7135 -1.0186
  852MPD2    H212571   1.165   1.266   9.861 -2.6998  1.5763 -1.5078
  852MPD2    H312572   1.305   1.349   9.664 -2.8998 -0.2781  0.8331
  852MPD2     N12573   1.511   1.654   9.944 -0.3429 -0.2054  0.6791
  852MPD2    H512574   1.523   1.667  10.044 -1.2005  0.6555  0.6721
  852MPD2    N112575   1.185   1.344  10.112  0.3024 -0.1099  0.7040
  852MPD2    H712576   1.194   1.391  10.202  2.5835 -1.0002  0.9260
  853MPD2     C12577   2.862   1.236  12.156  0.6351 -0.1454  0.1200
  853MPD2    C112578   2.991   1.243  12.191  0.2685  0.4589 -0.1223
  853MPD2    C212579   3.087   1.236  12.092 -0.4818  0.6640  0.1185
  853MPD2    C312580   3.051   1.216  11.958 -0.9956  0.0645  0.1472
  853MPD2    C412581   2.917   1.199  11.927 -0.9455  0.4241 -0.6473
  853MPD2    C512582   2.821   1.207  12.027 -0.5154  0.2861  0.7166
  853MPD2     H12583   3.193   1.241  12.114 -0.6983 -1.4429  1.6486
  853MPD2    H112584   2.881   1.157  11.834  0.2684  0.6645 -1.2201
  853MPD2    H212585   2.784   1.236  12.231 -0.7472 -0.5780 -1.3243
  853MPD2    H312586   2.716   1.194  12.005 -0.2054 -0.6538 -0.1999
  853MPD2     N12587   3.147   1.191  11.856  0.5679  0.3048 -0.0759
  853MPD2    H512588   3.117   1.154  11.767  1.5375  1.5123 -0.9039
  853MPD2    N112589   3.029   1.264  12.328  0.2016 -0.3357  0.0165
  853MPD2    H712590   2.955   1.286  12.394  0.0056  0.8591 -0.6001
  854MPD2     C12591   0.260   1.449  12.630 -0.6828 -0.0140 -0.0174
  854MPD2    C112592   0.316   1.537  12.718  0.2351  0.3583 -0.2325
  854MPD2    C212593   0.398   1.487  12.817  0.1003 -0.0345 -0.3852
  854MPD2    C312594   0.409   1.346  12.834 -0.6127 -0.0207 -0.0878
  854MPD2    C412595   0.347   1.265  12.748 -0.0493  0.4676 -0.4420
  854MPD2    C512596   0.267   1.315  12.639  0.2125  0.1568 -0.2980
  854MPD2     H12597   0.441   1.556  12.889 -0.0470 -0.2407 -0.0976
  854MPD2    H112598   0.363   1.158  12.747  0.7606  0.5832  0.8346
  854MPD2    H212599   0.207   1.496  12.548 -2.2892 -0.9617  0.4837
  854MPD2    H312600   0.217   1.257  12.563  0.5323 -2.1863  1.2817
  854MPD2     N12601   0.501   1.277  12.923 -0.2604 -0.4276 -0.1363
  854MPD2    H512602   0.516   1.176  12.927 -0.4351 -0.3408  2.7212
  854MPD2    N112603   0.281   1.671  12.702  0.7424 -0.3691 -0.6455
  854MPD2    H712604   0.221   1.687  12.622  0.5765 -2.8955 -1.0214
  855MPD2     C12605   0.856   1.377  13.878 -0.1140 -1.3160  0.2380
  855MPD2    C112606   0.826   1.249  13.843  0.1377  0.7970  0.6020
  855MPD2    C212607   0.802   1.221  13.711 -0.3985 -0.5465  0.1085
  855MPD2    C312608   0.823   1.312  13.608 -0.2423 -0.2138 -0.0751
  855MPD2    C412609   0.848   1.444  13.651 -0.2974  0.1976 -0.0923
  855MPD2    C512610   0.859   1.471  13.783 -0.5686  0.2782  0.2036
  855MPD2     H12611   0.760   1.122  13.696 -1.3818 -0.1205  0.0061
  855MPD2    H112612   0.843   1.536  13.593 -0.6851  0.3164  0.1341
  855MPD2    H212613   0.853   1.405  13.983 -4.8449 -3.2677  0.6157
  855MPD2    H312614   0.856   1.572  13.824 -2.6069 -0.1162  1.0011
  855MPD2     N12615   0.795   1.283  13.476  0.1609 -0.0300  0.2963
  855MPD2    H512616   0.791   1.367  13.418  0.1700  0.2805  0.7472
  855MPD2    N112617   0.804   1.143  13.934  0.0065  0.6443  0.3494
  855MPD2    H712618   0.775   1.052  13.899 -1.5856  1.4134 -0.3356
  856MPD2     C12619   2.768   1.650  14.145 -0.0295  0.4277  0.3947
  856MPD2    C112620   2.763   1.670  14.008  0.0128  0.5283 -0.1233
  856MPD2    C212621   2.665   1.750  13.958  0.2369 -0.0324  0.0205
  856MPD2    C312622   2.562   1.803  14.033  0.2788  0.0415  0.0974
  856MPD2    C412623   2.566   1.771  14.164  0.0277  0.0637 -0.4948
  856MPD2    C512624   2.663   1.693  14.223  0.1425  0.5647  0.1502
  856MPD2     H12625   2.672   1.777  13.853 -0.8385  0.7780  0.1569
  856MPD2    H112626   2.488   1.815  14.226  2.4109  0.8080  1.9970
  856MPD2    H212627   2.856   1.608  14.191 -0.0295 -0.0164 -0.0146
  856MPD2    H312628   2.651   1.660  14.325  4.3146 -0.6055  0.2667
  856MPD2     N12629   2.466   1.902  13.988  0.1838  0.0770 -0.0442
  856MPD2    H512630   2.415   1.950  14.061  2.4464 -0.5020  1.9339
  856MPD2    N112631   2.866   1.636  13.919 -0.2584  0.0057  0.0157
  856MPD2    H712632   2.841   1.638  13.821 -2.3112 -1.1315  0.5254
  857MPD2     C12633   4.247   4.391  12.860  0.4364 -0.3500  0.2354
  857MPD2    C112634   4.378   4.362  12.869 -0.1384 -0.2241 -0.3974
  857MPD2    C212635   4.461   4.454  12.937 -0.3560 -0.0979  0.2163
  857MPD2    C312636   4.411   4.561  13.002 -1.0119  0.0206 -0.2276
  857MPD2    C412637   4.272   4.590  12.992 -0.5672 -0.1171 -0.1068
  857MPD2    C512638   4.199   4.506  12.920 -0.0629 -0.2372 -0.1520
  857MPD2     H12639   4.568   4.443  12.950 -0.1449 -0.5191 -1.8840
  857MPD2    H112640   4.223   4.665  13.052  0.2836 -1.2077  1.9574
  857MPD2    H212641   4.180   4.328  12.802  2.6144  0.3571 -3.0580
  857MPD2    H312642   4.091   4.517  12.919 -0.0353  0.0526  0.0615
  857MPD2     N12643   4.499   4.649  13.074 -0.4939  0.0006  0.2089
  857MPD2    H512644   4.599   4.640  13.058 -0.9505 -2.2838 -1.4121
  857MPD2    N112645   4.411   4.243  12.809 -0.7490 -0.2814 -0.2496
  857MPD2    H712646   4.335   4.191  12.767 -1.9891  0.7459  0.7562
  858MPD2     C12647   0.511   3.486  16.652  0.2277  0.2467 -0.6625
  858MPD2    C112648   0.507   3.348  16.674 -0.0212 -0.0457 -0.3335
  858MPD2    C212649   0.486   3.304  16.807 -0.1146  0.2290 -0.5526
  858MPD2    C312650   0.458   3.399  16.910 -0.1301 -0.4262  0.1475
  858MPD2    C412651   0.458   3.530  16.878 -0.2268  0.0765 -0.0151
  858MPD2    C512652   0.495   3.577  16.753 -0.6277  1.0413  0.4087
  858MPD2     H12653   0.470   3.199  16.829  3.9565  0.2122  2.3695
  858MPD2    H112654   0.418   3.598  16.952  1.5352 -0.4728  1.4302
  858MPD2    H212655   0.543   3.524  16.556  1.8135  2.2570  0.6449
  858MPD2    H312656   0.486   3.684  16.734 -3.0836  0.7500 -0.1365
  858MPD2     N12657   0.411   3.367  17.038  0.0166  0.2922 -0.2987
  858MPD2    H512658   0.365   3.440  17.093 -0.7168 -0.4273  0.0344
  858MPD2    N112659   0.495   3.263  16.562 -0.6465 -0.5590  0.3126
  858MPD2    H712660   0.514   3.314  16.476 -1.0192 -3.4765 -1.4932
  859MPD2     C12661   3.443   0.803  15.132  0.2568 -0.0980 -0.5898
  859MPD2    C112662   3.557   0.744  15.076 -0.7589 -0.3490  0.1402
  859MPD2    C212663   3.588   0.615  15.106  0.0454 -0.0671 -0.1696
  859MPD2    C312664   3.502   0.537  15.184 -0.7272  0.4517 -0.1567
  859MPD2    C412665   3.387   0.592  15.231  0.2829 -0.6676 -0.1129
  859MPD2    C512666   3.358   0.723  15.207  1.0345  0.4995 -0.0620
  859MPD2     H12667   3.677   0.571  15.063 -0.5128 -1.0737 -0.2793
  859MPD2    H112668   3.321   0.537  15.297 -0.2727 -1.3174 -1.1966
  859MPD2    H212669   3.410   0.904  15.114  0.6725  0.5840  2.5888
  859MPD2    H312670   3.278   0.769  15.264  2.4766  0.2373  2.1613
  859MPD2     N12671   3.512   0.400  15.205  1.0265 -0.2580 -0.3170
  859MPD2    H512672   3.428   0.361  15.246  3.2309 -2.0399  2.5521
  859MPD2    N112673   3.631   0.838  15.000  0.2343  0.1782 -0.7918
  859MPD2    H712674   3.582   0.925  14.982  1.5544  1.1426  0.1989
  860MPD2     C12675   1.606   1.026  11.959 -0.7796  0.2467 -0.2684
  860MPD2    C112676   1.569   0.981  12.083 -0.5281 -0.5834 -0.3461
  860MPD2    C212677   1.463   0.900  12.102 -0.2113  0.6679 -0.0626
  860MPD2    C312678   1.384   0.864  11.998 -0.3010 -0.0191 -0.0544
  860MPD2    C412679   1.430   0.890  11.873  0.2511  0.7311 -0.1204
  860MPD2    C512680   1.541   0.970  11.852  0.2902 -0.3087  0.5370
  860MPD2     H12681   1.437   0.861  12.200  0.2674  2.3478  0.7346
  860MPD2    H112682   1.382   0.846  11.786 -0.6283  0.3383  0.5677
  860MPD2    H212683   1.696   1.083  11.941 -0.9226  0.3287 -0.7245
  860MPD2    H312684   1.577   0.990  11.752  0.8441 -0.7797  0.6420
  860MPD2     N12685   1.279   0.780  12.033 -0.1178  0.3001  0.2672
  860MPD2    H512686   1.267   0.757  12.131  1.3375  0.9847  0.5995
  860MPD2    N112687   1.641   1.013  12.199 -0.0485  0.2183  0.4039
  860MPD2    H712688   1.608   0.960  12.279  0.4344 -0.6238  0.0477
  861MPD2     C12689   0.099   3.645  11.134 -0.6833  1.0117 -0.5838
  861MPD2    C112690   4.730   3.600  11.215 -0.2261 -0.3786 -1.0637
  861MPD2    C212691   4.598   3.625  11.184 -0.5302  0.4531 -0.1943
  861MPD2    C312692   4.562   3.714  11.082  0.6301  0.5547  0.2276
  861MPD2    C412693   4.661   3.765  11.005 -0.5432  0.5490 -0.0436
  861MPD2    C512694   0.057   3.727  11.030  0.2485 -0.3006 -0.3596
  861MPD2     H12695   4.520   3.587  11.248  0.0779 -2.8658 -1.4184
  861MPD2    H112696   4.634   3.839  10.931 -1.0438 -0.1485 -0.5555
  861MPD2    H212697   0.204   3.630  11.153 -1.2843 -0.1860  1.8273
  861MPD2    H312698   0.126   3.783  10.968 -0.1164  2.6750  1.9015
  861MPD2     N12699   4.426   3.750  11.057 -0.2629 -0.5514  0.0377
  861MPD2    H512700   4.415   3.822  10.985  1.9955 -1.3852 -1.1319
  861MPD2    N112701   0.019   3.531  11.334  0.1106 -0.7256 -0.0163
  861MPD2    H712702   4.669   3.509  11.385 -0.2445  0.9117  0.1112
  862MPD2     C12703   4.024   4.024  10.534  0.1118 -0.1913  0.9210
  862MPD2    C112704   4.069   3.913  10.607  0.9679 -0.4382  0.6460
  862MPD2    C212705   4.081   3.793  10.543 -0.2288  0.7555 -0.8282
  862MPD2    C312706   4.051   3.773  10.409  0.0444 -0.3596 -0.1099
  862MPD2    C412707   4.003   3.880  10.338  0.3655 -0.7125 -0.7342
  862MPD2    C512708   3.998   4.000  10.399 -0.1310 -0.1194  0.0129
  862MPD2     H12709   4.125   3.709  10.596 -3.2469 -0.8327 -0.8381
  862MPD2    H112710   3.997   3.880  10.230  0.3795  0.0952 -0.7359
  862MPD2    H212711   4.004   4.122  10.576  1.0258  0.3101  0.1829
  862MPD2    H312712   3.965   4.088  10.345 -2.5424 -0.3560  1.0916
  862MPD2     N12713   4.072   3.640  10.352  0.2658  0.6993 -0.2095
  862MPD2    H512714   4.115   3.572  10.414 -0.0775 -0.6046 -1.3981
  862MPD2    N112715   4.105   3.908  10.744  0.1315 -0.5518  0.0835
  862MPD2    H712716   4.144   3.822  10.780  1.6396 -0.1281 -0.5479
  863MPD2     C12717   3.011   2.046  17.178 -0.1323 -0.4663 -0.4758
  863MPD2    C112718   3.110   2.084  17.087 -0.2947  0.4783 -0.1691
  863MPD2    C212719   3.237   2.040  17.111 -0.0283 -0.4129 -0.2759
  863MPD2    C312720   3.268   1.952  17.206 -0.1460  0.9877 -0.2025
  863MPD2    C412721   3.169   1.909  17.287  0.3491  0.4140 -0.4353
  863MPD2    C512722   3.041   1.952  17.272  0.2221  0.2573  0.4237
  863MPD2     H12723   3.315   2.084  17.049 -0.0406 -1.9660 -1.3840
  863MPD2    H112724   3.194   1.842  17.369  1.5731 -0.1733 -1.2979
  863MPD2    H212725   2.918   2.102  17.183 -1.4843 -2.7897  0.2503
  863MPD2    H312726   2.973   1.928  17.354  0.9682 -0.1833  0.9180
  863MPD2     N12727   3.403   1.910  17.228  0.3505 -0.6344  0.0408
  863MPD2    H512728   3.418   1.859  17.315 -0.9551 -1.4746 -0.2380
  863MPD2    N112729   3.081   2.190  16.994  0.1811  0.3134  0.4934
  863MPD2    H712730   2.987   2.227  16.996  0.5554  1.3939 -3.0158
  864MPD2     C12731   3.792   2.955  17.280 -0.0070 -0.0566  0.6419
  864MPD2    C112732   3.923   2.911  17.237  0.4263  0.2744 -0.1958
  864MPD2    C212733   4.028   3.001  17.223 -0.2122 -0.3444 -0.4754
  864MPD2    C312734   4.006   3.138  17.240  0.1831 -0.6460  0.1539
  864MPD2    C412735   3.884   3.174  17.292  0.2779 -0.5855  0.0518
  864MPD2    C512736   3.778   3.085  17.307  0.4520 -0.2369  0.2308
  864MPD2     H12737   4.126   2.966  17.192  0.4376 -0.4240  1.6791
  864MPD2    H112738   3.870   3.280  17.313  2.6021 -0.4233  0.7525
  864MPD2    H212739   3.711   2.885  17.292 -0.3033  0.4442  1.5645
  864MPD2    H312740   3.682   3.120  17.343  0.9182 -0.0459  1.2610
  864MPD2     N12741   4.104   3.233  17.219  0.3882 -0.6439 -0.0941
  864MPD2    H512742   4.090   3.329  17.249  1.4136 -0.5279  0.0168
  864MPD2    N112743   3.929   2.780  17.191  0.6047 -0.2293  0.2928
  864MPD2    H712744   3.847   2.723  17.205  0.1527  0.5627  0.9259
  865MPD2     C12745   4.523   3.592  16.491  0.5265  0.0372  0.2005
  865MPD2    C112746   4.466   3.485  16.550 -0.6333  0.2390 -0.0591
  865MPD2    C212747   4.419   3.506  16.677 -0.6752 -0.2843  0.1567
  865MPD2    C312748   4.433   3.626  16.740 -0.5267  0.2557 -0.1555
  865MPD2    C412749   4.503   3.736  16.687 -0.4213 -0.2627  0.5145
  865MPD2    C512750   4.547   3.710  16.562  0.3270 -0.9272  0.3809
  865MPD2     H12751   4.366   3.425  16.727  1.8077 -0.1102  3.0993
  865MPD2    H112752   4.517   3.824  16.748 -1.4824  1.5521 -1.8439
  865MPD2    H212753   4.570   3.597  16.393  1.0379  0.6634  0.4821
  865MPD2    H312754   4.602   3.784  16.505 -0.5480 -1.6528 -1.3778
  865MPD2     N12755   4.378   3.646  16.869  0.1917  0.0677  0.1274
  865MPD2    H512756   4.416   3.727  16.918 -0.7032  1.2414 -1.1320
  865MPD2    N112757   4.459   3.362  16.483  0.3965  0.3959 -0.0677
  865MPD2    H712758   4.492   3.364  16.387 -0.6870 -2.3250 -0.5192
  866MPD2     C12759   0.635   3.850  11.660  0.5471 -0.0845 -0.0875
  866MPD2    C112760   0.595   3.797  11.537 -0.2842  0.8171  0.6949
  866MPD2    C212761   0.461   3.796  11.501  0.0719 -0.1264 -0.0963
  866MPD2    C312762   0.366   3.840  11.589  0.5833 -0.0430  0.6853
  866MPD2    C412763   0.406   3.892  11.713 -0.2397  0.3741  0.5414
  866MPD2    C512764   0.539   3.896  11.750  0.9106 -0.2330 -0.6101
  866MPD2     H12765   0.429   3.740  11.414  2.2430  0.5593 -1.3536
  866MPD2    H112766   0.331   3.919  11.788 -0.0386  0.1201  0.8316
  866MPD2    H212767   0.738   3.860  11.692  0.6739  3.7056 -1.7293
  866MPD2    H312768   0.561   3.922  11.853  0.9222 -4.3837  0.4194
  866MPD2     N12769   0.225   3.848  11.556 -0.1860  0.3189 -0.0437
  866MPD2    H512770   0.162   3.862  11.635 -1.1034  2.7036 -1.1990
  866MPD2    N112771   0.694   3.741  11.454  0.4745 -0.1209  0.0634
  866MPD2    H712772   0.786   3.772  11.484  0.9924 -0.9042 -0.7122
  867MPD2     C12773   2.594   2.975  16.764  0.0847 -0.2817 -0.4685
  867MPD2    C112774   2.654   3.011  16.877  0.3389  0.0845  0.2040
  867MPD2    C212775   2.635   3.137  16.920  0.0453  0.7131  0.3602
  867MPD2    C312776   2.563   3.227  16.851  0.2111  0.3677  0.4213
  867MPD2    C412777   2.511   3.196  16.726 -0.5321 -0.3267  0.4702
  867MPD2    C512778   2.525   3.061  16.689  0.5204 -0.0776 -0.7374
  867MPD2     H12779   2.675   3.155  17.019  1.7232  1.2399 -0.4275
  867MPD2    H112780   2.447   3.259  16.666  0.3425 -1.5051 -1.6737
  867MPD2    H212781   2.597   2.874  16.726  0.2257 -0.7851  0.8487
  867MPD2    H312782   2.478   3.035  16.595 -0.2781  0.4869 -0.4982
  867MPD2     N12783   2.563   3.366  16.889  0.2585 -0.2642  0.5228
  867MPD2    H512784   2.523   3.434  16.824 -0.1932  0.3905  1.4952
  867MPD2    N112785   2.726   2.906  16.944 -0.7600 -0.0817  0.4819
  867MPD2    H712786   2.749   2.822  16.891 -0.6094 -0.6532  1.4572
  868MPD2     C12787   4.264   3.048  12.917  0.0242  0.3898  0.0900
  868MPD2    C112788   4.300   2.976  13.031  0.0329  0.1987  0.3960
  868MPD2    C212789   4.223   2.985  13.148 -0.7715 -0.1532  0.1598
  868MPD2    C312790   4.116   3.068  13.155  0.1117 -1.1293 -1.0069
  868MPD2    C412791   4.073   3.128  13.035 -0.2405 -0.4507  0.2605
  868MPD2    C512792   4.150   3.121  12.921  0.2652  0.1532  0.0507
  868MPD2     H12793   4.250   2.935  13.240 -1.1521  0.7617  0.7673
  868MPD2    H112794   3.993   3.201  13.035  0.1121 -0.0593  0.2465
  868MPD2    H212795   4.329   3.054  12.830  1.3451  0.2982  1.0676
  868MPD2    H312796   4.106   3.152  12.826  2.3379  2.0929 -0.2742
  868MPD2     N12797   4.047   3.082  13.281  0.1674  0.2216 -0.4171
  868MPD2    H512798   4.085   3.026  13.357  0.8064 -0.3918 -1.1825
  868MPD2    N112799   4.419   2.902  13.016 -0.3197  0.3719  0.2737
  868MPD2    H712800   4.469   2.915  12.928  1.4393 -0.8790  1.0867
  869MPD2     C12801   0.658   4.615   0.013 -0.2790 -0.0472  0.0585
  869MPD2    C112802   0.541   4.637   0.085  0.0817 -0.6081 -0.4355
  869MPD2    C212803   0.526   0.028   0.143 -0.0877 -0.7227  0.6569
  869MPD2    C312804   0.613   0.130   0.112  0.8321  0.7580 -0.4279
  869MPD2    C412805   0.723   0.103   0.039  0.9543 -0.0976  0.7214
  869MPD2    C512806   0.744   4.717  17.718 -1.1297  0.1969  0.0559
  869MPD2     H12807   0.425   0.063   0.159 -0.7236 -1.0400 -2.6571
  869MPD2    H112808   0.792   0.180   0.006 -0.2445  0.8897  0.5456
  869MPD2    H212809   0.663   4.519  17.697 -1.1135  0.9448 -1.8931
  869MPD2    H312810   0.824   4.687  17.651 -0.8170 -0.3365  0.6595
  869MPD2     N12811   0.585   0.270   0.137  0.3185  0.5363 -0.0736
  869MPD2    H512812   0.640   0.337   0.084  2.2615 -0.4727  0.6748
  869MPD2    N112813   0.440   4.536   0.077 -0.3401  0.4592  0.9066
  869MPD2    H712814   0.460   4.467   0.006 -2.6860 -0.6404  1.3047
  870MPD2     C12815   1.086   4.102   1.885  0.5135  0.1757 -0.6384
  870MPD2    C112816   1.030   4.010   1.796  0.3010  0.5419  0.0091
  870MPD2    C212817   0.923   4.059   1.718 -0.1472 -1.5187 -0.5620
  870MPD2    C312818   0.904   4.195   1.699 -0.2613  0.1864 -0.2300
  870MPD2    C412819   0.985   4.283   1.776 -0.1383 -0.4420 -0.4076
  870MPD2    C512820   1.068   4.237   1.868  0.6642  0.4738  0.3880
  870MPD2     H12821   0.863   3.987   1.663 -1.5103 -1.1839  0.4967
  870MPD2    H112822   0.981   4.391   1.772 -0.4792 -0.4102  0.8857
  870MPD2    H212823   1.156   4.064   1.959 -0.5441 -2.1703 -0.8640
  870MPD2    H312824   1.122   4.310   1.928  0.1838  1.9749 -1.0056
  870MPD2     N12825   0.802   4.248   1.615  0.1441  0.3575 -0.4030
  870MPD2    H512826   0.759   4.190   1.544 -2.1365  0.5493  0.8183
  870MPD2    N112827   1.071   3.874   1.803  0.1642 -0.2218  0.2803
  870MPD2    H712828   1.153   3.858   1.860  1.3770 -0.5244 -1.5777
  871MPD2     C12829   1.556   3.648  16.353  0.1548 -0.0477 -0.3102
  871MPD2    C112830   1.618   3.595  16.465 -0.6260  0.0013  0.6997
  871MPD2    C212831   1.676   3.469  16.450  0.1246 -0.3355 -0.2808
  871MPD2    C312832   1.678   3.412  16.322  0.4458 -0.5009 -0.7762
  871MPD2    C412833   1.631   3.476  16.207  0.3738  1.2442  0.2408
  871MPD2    C512834   1.563   3.591  16.229  0.2782 -1.0618  0.2143
  871MPD2     H12835   1.726   3.430  16.539 -0.3236 -2.0492 -0.7785
  871MPD2    H112836   1.633   3.433  16.107  0.5419 -0.0991  0.8264
  871MPD2    H212837   1.493   3.736  16.364  0.3155  0.1596 -1.0365
  871MPD2    H312838   1.503   3.641  16.154 -2.7019 -2.8026  1.4310
  871MPD2     N12839   1.738   3.286  16.319 -0.0404 -0.5459  0.2983
  871MPD2    H512840   1.761   3.245  16.409 -0.6225  0.3865  0.8583
  871MPD2    N112841   1.607   3.669  16.586  0.2276 -0.2099  0.2705
  871MPD2    H712842   1.562   3.760  16.586 -1.8416 -1.2280 -0.0413
  872MPD2     C12843   2.811   1.326  14.494  0.1458  0.5094 -0.0961
  872MPD2    C112844   2.753   1.330  14.372  0.2857  0.8520  0.1223
  872MPD2    C212845   2.626   1.386  14.360  0.3123  0.2956 -0.5881
  872MPD2    C312846   2.571   1.452  14.465  0.2714  0.1411  0.4770
  872MPD2    C412847   2.629   1.440  14.589  0.3319 -0.4688 -0.2265
  872MPD2    C512848   2.740   1.372  14.599 -0.9469 -0.3602 -0.8273
  872MPD2     H12849   2.585   1.394  14.260 -1.2877  0.4381  0.0750
  872MPD2    H112850   2.588   1.484  14.679 -2.8651 -4.3897  0.2082
  872MPD2    H212851   2.898   1.268  14.522 -0.1909  0.5363  1.0028
  872MPD2    H312852   2.775   1.348  14.699 -0.9808 -0.7832 -0.9176
  872MPD2     N12853   2.464   1.543  14.459  0.9890  0.3841 -0.0866
  872MPD2    H512854   2.436   1.577  14.551  0.3704  2.4897 -1.0654
  872MPD2    N112855   2.816   1.272  14.259 -0.3889  0.4018 -0.1295
  872MPD2    H712856   2.759   1.265  14.176 -1.5921  0.7475  0.6764
  873MPD2     C12857   3.645   1.007   0.707  0.4925 -0.3521 -0.0710
  873MPD2    C112858   3.760   0.997   0.781  0.9684  0.1138  0.2194
  873MPD2    C212859   3.844   0.883   0.772  0.5992  0.3306  0.6014
  873MPD2    C312860   3.808   0.791   0.674  0.5511  0.7388 -0.1391
  873MPD2    C412861   3.697   0.813   0.592 -0.2363 -0.9913  0.3003
  873MPD2    C512862   3.617   0.918   0.610 -0.2061  0.5649 -0.7628
  873MPD2     H12863   3.938   0.872   0.826  0.7905 -1.8138 -0.1667
  873MPD2    H112864   3.659   0.732   0.531  0.8271  1.5844 -3.7264
  873MPD2    H212865   3.570   1.083   0.727  0.0223 -0.5360 -1.0996
  873MPD2    H312866   3.530   0.922   0.545 -0.9676  0.6652  0.2604
  873MPD2     N12867   3.876   0.668   0.648 -0.3451  0.6292  0.5436
  873MPD2    H512868   3.831   0.602   0.587  0.3766 -0.7144  1.4753
  873MPD2    N112869   3.783   1.105   0.872  0.3202 -0.1771 -0.0783
  873MPD2    H712870   3.719   1.184   0.877  0.1973 -0.2301 -0.7245
  874MPD2     C12871   3.548   1.381  16.080 -0.2049  0.1167 -0.3677
  874MPD2    C112872   3.634   1.299  16.145 -0.6138 -1.1858  1.1459
  874MPD2    C212873   3.768   1.291  16.108  0.0875 -0.6708  0.0507
  874MPD2    C312874   3.818   1.371  16.001 -0.4428 -0.8260 -0.0713
  874MPD2    C412875   3.728   1.458  15.940 -0.8149 -0.7139  0.0921
  874MPD2    C512876   3.601   1.457  15.979  0.2625  0.4198  0.2886
  874MPD2     H12877   3.827   1.218  16.163 -0.5918 -2.1086 -1.1437
  874MPD2    H112878   3.751   1.516  15.851  1.3175  1.6362  2.1986
  874MPD2    H212879   3.442   1.395  16.095 -0.1875  0.7195 -0.8009
  874MPD2    H312880   3.535   1.527  15.929  0.4558 -0.3691 -1.0426
  874MPD2     N12881   3.947   1.346  15.958  0.5024  0.2570  0.0607
  874MPD2    H512882   3.992   1.274  16.014 -1.5837 -0.6293  0.6111
  874MPD2    N112883   3.577   1.218  16.254 -0.0754  0.2047  1.0288
  874MPD2    H712884   3.484   1.243  16.287  0.0401  1.5248  0.3567
  875MPD2     C12885   0.410   4.419  14.746 -1.1932 -0.5161  0.0818
  875MPD2    C112886   0.280   4.433  14.796 -0.2861  0.1825  0.0006
  875MPD2    C212887   0.260   4.477  14.929 -0.4407  0.1921 -0.0404
  875MPD2    C312888   0.369   4.503  15.009  0.0118  0.3545  0.1314
  875MPD2    C412889   0.494   4.491  14.957 -0.4143  0.0604  0.4469
  875MPD2    C512890   0.515   4.454  14.825  0.0694  0.5015 -0.8157
  875MPD2     H12891   0.158   4.473  14.963 -0.8249  0.5680 -1.1599
  875MPD2    H112892   0.580   4.521  15.016 -2.3534 -1.3589  3.9678
  875MPD2    H212893   0.423   4.385  14.643 -1.3757  0.0011 -0.1108
  875MPD2    H312894   0.611   4.469  14.778  1.2396 -1.7309  0.8360
  875MPD2     N12895   0.357   4.542  15.148 -0.0898  0.0001 -0.8791
  875MPD2    H512896   0.441   4.544  15.205 -1.2144 -0.3603  0.7928
  875MPD2    N112897   0.162   4.414  14.726  0.5571  0.4826 -0.1364
  875MPD2    H712898   0.076   4.422  14.779  1.3707  1.6701  1.0279
  876MPD2     C12899   3.663   1.076  15.775  0.6539  0.1087 -0.5068
  876MPD2    C112900   3.796   1.045  15.754  0.0596 -0.6001 -0.7885
  876MPD2    C212901   3.857   0.964  15.843  0.5738  0.4321  0.5743
  876MPD2    C312902   3.795   0.915  15.951  0.5519 -0.8131  0.1814
  876MPD2    C412903   3.668   0.954  15.983 -0.4082  0.0685 -0.1936
  876MPD2    C512904   3.605   1.026  15.884 -0.0568 -0.1367  0.7329
  876MPD2     H12905   3.958   0.928  15.825  1.2560  2.5778  0.1131
  876MPD2    H112906   3.614   0.925  16.072  0.0174 -0.5773 -0.1396
  876MPD2    H212907   3.605   1.146  15.716 -2.2365 -0.6056  1.4626
  876MPD2    H312908   3.508   1.072  15.901  0.1032  0.7270 -0.6346
  876MPD2     N12909   3.880   0.836  16.033  0.1514 -1.0728  0.4299
  876MPD2    H512910   3.969   0.807  15.994  0.5301  0.2424  0.3205
  876MPD2    N112911   3.858   1.108  15.645 -0.8105  0.5146  0.6851
  876MPD2    H712912   3.791   1.153  15.583  0.1550  0.9616 -0.0447
  877MPD2     C12913   3.844   1.563  15.007 -0.2924  0.5830  0.7164
  877MPD2    C112914   3.972   1.516  15.032 -0.6110 -0.6850  0.2203
  877MPD2    C212915   4.058   1.522  14.924 -0.3920  0.1935 -0.1592
  877MPD2    C312916   4.026   1.587  14.802 -0.0236 -0.1136  0.3036
  877MPD2    C412917   3.902   1.638  14.789  0.1528 -0.3745  0.3016
  877MPD2    C512918   3.815   1.630  14.892  0.2458  0.0841  0.7685
  877MPD2     H12919   4.162   1.508  14.950 -0.6360 -1.7982 -0.2820
  877MPD2    H112920   3.857   1.677  14.698 -1.1294  0.3672  1.2537
  877MPD2    H212921   3.765   1.560  15.081 -0.3164 -0.8313  0.6343
  877MPD2    H312922   3.724   1.687  14.884 -1.3033 -2.3031  1.4942
  877MPD2     N12923   4.113   1.603  14.691 -0.1813  0.0629 -0.3890
  877MPD2    H512924   4.083   1.653  14.608 -0.0686 -0.8906 -1.0015
  877MPD2    N112925   4.022   1.481  15.162 -0.3091  0.3118  0.4936
  877MPD2    H712926   4.120   1.459  15.174 -0.8365 -1.9082  0.7981
  878MPD2     C12927   4.098   0.189  12.712 -0.4123 -0.0567  0.4657
  878MPD2    C112928   4.092   0.319  12.669 -0.7924 -0.6460  0.6443
  878MPD2    C212929   4.171   0.419  12.725 -0.1111 -0.2338  1.0159
  878MPD2    C312930   4.245   0.381  12.836  0.3117 -0.5171  0.1701
  878MPD2    C412931   4.255   0.248  12.880 -0.0794 -0.0849 -0.3823
  878MPD2    C512932   4.184   0.152  12.815  0.2408 -0.3977 -0.5400
  878MPD2     H12933   4.169   0.519  12.685  2.7015 -0.5373  0.0883
  878MPD2    H112934   4.301   0.216  12.973  1.8204  2.7356 -0.3612
  878MPD2    H212935   4.042   0.108  12.664  0.2275  0.0047 -0.3911
  878MPD2    H312936   4.187   0.048  12.847  2.6445  0.0127  0.5926
  878MPD2     N12937   4.298   0.485  12.911  0.4047  0.2961 -0.9235
  878MPD2    H512938   4.299   0.580  12.875 -0.5539  0.2242 -1.1407
  878MPD2    N112939   4.010   0.350  12.556 -0.0015  0.4818 -0.0084
  878MPD2    H712940   3.934   0.283  12.544 -0.8265  1.6881 -1.5231
  879MPD2     C12941   4.035   1.446  17.278 -0.0427 -0.0681  0.2310
  879MPD2    C112942   4.090   1.491  17.165  0.3965 -1.0553 -0.7555
  879MPD2    C212943   4.088   1.413  17.049 -0.4795  0.8434 -0.4143
  879MPD2    C312944   4.019   1.295  17.046 -0.0440  0.2151 -0.0821
  879MPD2    C412945   3.970   1.244  17.165 -0.6512  0.1223 -0.0766
  879MPD2    C512946   3.990   1.309  17.281  0.1691 -0.6786  0.3134
  879MPD2     H12947   4.140   1.448  16.961  3.0887 -0.7861  1.0327
  879MPD2    H112948   3.910   1.153  17.171  0.4626 -0.6039  0.0579
  879MPD2    H212949   4.035   1.494  17.375  1.7253  1.4261 -0.5072
  879MPD2    H312950   3.952   1.271  17.375 -1.3940 -0.1765 -0.1194
  879MPD2     N12951   3.985   1.230  16.927 -0.1344  0.2536  0.2579
  879MPD2    H512952   3.920   1.152  16.940 -1.6488  1.3250 -0.7798
  879MPD2    N112953   4.154   1.611  17.179 -0.1945  0.7363  0.7662
  879MPD2    H712954   4.152   1.650  17.273  2.9072 -0.2430  1.2354
  880MPD2     C12955   0.554   3.481   0.187  0.1994 -0.4242  0.3225
  880MPD2    C112956   0.578   3.518   0.313  0.2635 -0.3929  0.9342
  880MPD2    C212957   0.634   3.421   0.397 -0.2317 -0.5044  0.4638
  880MPD2    C312958   0.655   3.286   0.352 -0.5003  0.1476 -0.1916
  880MPD2    C412959   0.636   3.258   0.219  0.6306  0.1429  0.2705
  880MPD2    C512960   0.589   3.358   0.140 -0.2330  0.1604 -0.1727
  880MPD2     H12961   0.655   3.440   0.501 -1.8907  1.0874  0.5056
  880MPD2    H112962   0.653   3.163   0.169  2.4424 -0.4183  1.9692
  880MPD2    H212963   0.507   3.551   0.118  0.7293 -1.5975 -1.2405
  880MPD2    H312964   0.570   3.347   0.033 -0.6877 -2.5428  0.1786
  880MPD2     N12965   0.713   3.202   0.453 -0.1905 -0.5550  0.4020
  880MPD2    H512966   0.715   3.237   0.548 -0.2128 -0.1608  0.2554
  880MPD2    N112967   0.550   3.645   0.350 -0.4879 -0.1163  0.8055
  880MPD2    H712968   0.494   3.699   0.285  0.2505  0.7013  0.8538
  881MPD2     C12969   0.303   4.036  17.503  0.5238 -0.8601 -0.7103
  881MPD2    C112970   0.387   4.134  17.549  0.5599  0.2041  0.2164
  881MPD2    C212971   0.413   4.140  17.685 -0.3816  0.0721 -0.8271
  881MPD2    C312972   0.339   4.059   0.038 -0.5758  0.5593  0.3982
  881MPD2    C412973   0.237   3.974  17.728 -0.5324 -0.4386 -0.0094
  881MPD2    C512974   0.224   3.957  17.588 -0.1547 -0.5082  0.5525
  881MPD2     H12975   0.499   4.200  17.712 -1.5161  1.3012  0.1056
  881MPD2    H112976   0.190   3.909   0.065  1.5274 -0.5079  1.3013
  881MPD2    H212977   0.284   4.026  17.396 -1.7780 -1.0255 -0.2986
  881MPD2    H312978   0.154   3.884  17.551  0.8496 -1.0592 -0.2468
  881MPD2     N12979   0.377   4.049   0.175  0.3219  0.4010  0.1828
  881MPD2    H512980   0.316   3.987   0.228 -0.7033  0.2429 -1.1725
  881MPD2    N112981   0.466   4.192  17.452 -0.8748 -1.1336 -0.4170
  881MPD2    H712982   0.477   4.148  17.361 -3.5036  2.0092 -2.2488
  882MPD2     C12983   3.991   1.207  14.121 -0.1647 -0.1806  0.4667
  882MPD2    C112984   3.976   1.326  14.189  0.6585  0.3263  0.5516
  882MPD2    C212985   3.854   1.350  14.240 -0.0990  0.9127  0.5173
  882MPD2    C312986   3.754   1.264  14.232 -0.1972 -0.6076  0.1629
  882MPD2    C412987   3.773   1.148  14.167 -0.7180  0.2652 -0.7087
  882MPD2    C512988   3.893   1.115  14.115 -0.0449 -0.0708 -0.2686
  882MPD2     H12989   3.835   1.436  14.304 -1.0893  1.6987 -0.8448
  882MPD2    H112990   3.694   1.077  14.145  0.0931 -0.2765 -1.9162
  882MPD2    H212991   4.082   1.174  14.073  0.7378  2.4822  0.3478
  882MPD2    H312992   3.911   1.017  14.071 -2.0641  0.5764 -2.5296
  882MPD2     N12993   3.622   1.294  14.271 -0.2922 -0.0423 -0.4063
  882MPD2    H512994   3.554   1.218  14.275 -1.0017  0.6263  0.3156
  882MPD2    N112995   4.088   1.410  14.210 -0.0822  0.7623  0.7810
  882MPD2    H712996   4.178   1.369  14.189 -2.8525 -3.9342 -1.9596
  883MPD2     C12997   1.246   1.507  16.724 -0.2147 -0.7910  0.1119
  883MPD2    C112998   1.332   1.560  16.632 -0.3146  0.0297  0.1291
  883MPD2    C212999   1.443   1.633  16.666  0.5000 -1.1811 -0.2084
  883MPD2    C313000   1.484   1.643  16.799  0.2859 -0.2468 -0.8173
  883MPD2    C413001   1.406   1.584  16.888  0.1009 -0.4968  0.1682
  883MPD2    C513002   1.288   1.518  16.855 -0.2153 -0.0320 -0.8591
  883MPD2     H13003   1.499   1.684  16.589  1.3948 -1.1153  0.4884
  883MPD2    H113004   1.429   1.589  16.994  0.7544 -2.6497  0.1197
  883MPD2    H213005   1.153   1.452  16.714  0.1308 -1.3902  0.1661
  883MPD2    H313006   1.234   1.475  16.938  0.8613 -0.9858 -0.6443
  883MPD2     N13007   1.600   1.721  16.831  0.4065 -0.1542 -0.0129
  883MPD2    H513008   1.656   1.756  16.754  0.4619  2.2413  1.1288
  883MPD2    N113009   1.289   1.554  16.496 -0.0711 -0.2691  0.0798
  883MPD2    H713010   1.336   1.619  16.433  0.9028 -0.8872  0.1693
  884MPD2     C13011   3.305   2.773  15.010 -0.9848  0.7166 -0.5736
  884MPD2    C113012   3.298   2.637  15.047 -0.5613  0.5451  1.3127
  884MPD2    C213013   3.193   2.594  15.129  0.3611 -0.6610  0.6526
  884MPD2    C313014   3.105   2.686  15.191  0.4614  0.2596 -0.4298
  884MPD2    C413015   3.117   2.818  15.152  0.0075 -0.7645  0.1835
  884MPD2    C513016   3.209   2.863  15.058 -0.6314  0.0059 -0.5133
  884MPD2     H13017   3.175   2.488  15.146 -0.7851 -0.6342 -0.4027
  884MPD2    H113018   3.039   2.889  15.179  1.4853  1.0223 -0.1923
  884MPD2    H213019   3.372   2.808  14.932  2.2613 -0.5177  1.6247
  884MPD2    H313020   3.198   2.963  15.016 -2.6463  0.5987  1.3845
  884MPD2     N13021   3.002   2.634  15.267 -0.1878 -0.1059 -0.1073
  884MPD2    H513022   2.985   2.534  15.265  2.6259 -0.6380  1.5079
  884MPD2    N113023   3.397   2.553  14.990 -0.4107  0.5337  0.1478
  884MPD2    H713024   3.479   2.593  14.945 -0.9647 -0.2103 -1.5376
  885MPD2     C13025   1.207   2.858   0.213  0.1467  0.3806 -0.0161
  885MPD2    C113026   1.220   2.721   0.198  0.2682  0.1058 -0.5923
  885MPD2    C213027   1.211   2.660   0.074 -0.4060  0.1270  0.3916
  885MPD2    C313028   1.172   2.727  17.693 -0.5876  0.0502 -0.9175
  885MPD2    C413029   1.144   2.859  17.713  0.5638  0.1486 -0.2436
  885MPD2    C513030   1.160   2.922   0.100 -0.9979  0.7664  0.3773
  885MPD2     H13031   1.240   2.556   0.065  1.5209  0.6924  0.1071
  885MPD2    H113032   1.107   2.923  17.633  0.3125 -1.1914 -1.1894
  885MPD2    H213033   1.229   2.916   0.302  0.0908 -0.0607  0.2820
  885MPD2    H313034   1.159   3.030   0.101 -2.4818  0.7558  0.3561
  885MPD2     N13035   1.176   2.670  17.561  0.2718 -0.1994  0.5607
  885MPD2    H513036   1.229   2.584  17.547  1.4186  0.7782 -1.1653
  885MPD2    N113037   1.258   2.651   0.318 -0.3842 -0.5205 -0.6242
  885MPD2    H713038   1.270   2.697   0.407  2.4642 -2.5518  0.0026
  886MPD2     C13039   2.475   0.957  15.330 -0.6772 -0.9250  0.9477
  886MPD2    C113040   2.606   0.925  15.315  0.0608 -0.3625 -0.3822
  886MPD2    C213041   2.675   1.011  15.237 -0.9255  0.3985 -0.3560
  886MPD2    C313042   2.612   1.115  15.170  0.2717  0.0695 -0.0775
  886MPD2    C413043   2.480   1.129  15.171 -0.8401  1.0439 -0.0353
  886MPD2    C513044   2.410   1.045  15.247 -0.7675 -0.4120  0.2511
  886MPD2     H13045   2.781   0.998  15.219 -0.8153 -1.0797  1.4470
  886MPD2    H113046   2.428   1.199  15.107 -1.2047 -1.7335 -2.7639
  886MPD2    H213047   2.398   0.900  15.381 -1.3198 -1.3161 -0.4648
  886MPD2    H313048   2.302   1.054  15.244 -0.8943 -1.0825  3.2904
  886MPD2     N13049   2.679   1.195  15.081 -0.0315 -0.5419  0.6557
  886MPD2    H513050   2.618   1.243  15.016 -0.5807 -2.0039  0.1033
  886MPD2    N113051   2.681   0.823  15.382  0.0868  0.4455 -0.0713
  886MPD2    H713052   2.774   0.809  15.346 -0.6346  1.3346 -2.2412
  887MPD2     C13053   3.394   0.755  15.538  0.3751 -0.9958 -0.1914
  887MPD2    C113054   3.278   0.825  15.533  0.1674  0.0691  0.4116
  887MPD2    C213055   3.280   0.960  15.503  0.3043 -0.6671  0.7438
  887MPD2    C313056   3.399   1.026  15.491 -0.4506  0.1998  0.7106
  887MPD2    C413057   3.517   0.964  15.511  0.0613 -0.2099 -0.4961
  887MPD2    C513058   3.519   0.825  15.530  0.0808 -0.7910 -0.2219
  887MPD2     H13059   3.187   1.010  15.479 -0.3877 -2.0343  0.5965
  887MPD2    H113060   3.616   1.009  15.504  0.0115  0.2348  1.6613
  887MPD2    H213061   3.397   0.647  15.545  1.7007 -0.7944  2.3322
  887MPD2    H313062   3.618   0.781  15.530  0.8585  0.9661 -0.9329
  887MPD2     N13063   3.389   1.166  15.471  0.0162  0.4156 -0.0208
  887MPD2    H513064   3.294   1.202  15.477  0.3781  0.9846  2.4302
  887MPD2    N113065   3.147   0.769  15.541  0.1356 -1.0613  0.2039
  887MPD2    H713066   3.077   0.843  15.538  0.7059 -0.4310  2.3896
  888MPD2     C13067   0.334   0.953  14.956  0.5273 -0.5978 -0.1700
  888MPD2    C113068   0.340   0.990  15.085  0.2183 -0.2009  0.1675
  888MPD2    C213069   0.405   1.108  15.114  0.0625  0.6230 -0.0213
  888MPD2    C313070   0.472   1.179  15.013 -0.5804 -0.0821  0.5391
  888MPD2    C413071   0.461   1.138  14.883  0.4398 -0.0370 -0.6396
  888MPD2    C513072   0.394   1.024  14.854  0.1206  0.7089  0.1505
  888MPD2     H13073   0.407   1.150  15.214 -4.4045 -0.8115  0.6830
  888MPD2    H113074   0.514   1.181  14.799 -0.3234 -0.0062 -1.1121
  888MPD2    H213075   0.289   0.857  14.935 -1.4086  0.2918 -0.0654
  888MPD2    H313076   0.383   0.986  14.753  2.8631  1.3886 -0.4113
  888MPD2     N13077   0.539   1.301  15.046 -0.3460 -0.3826 -0.5796
  888MPD2    H513078   0.533   1.322  15.145  0.4016 -2.5936 -0.0618
  888MPD2    N113079   0.271   0.909  15.177  0.3485  0.0994  0.0352
  888MPD2    H713080   0.220   0.834  15.132 -1.8519  1.6753 -0.1087
  889MPD2     C13081   4.618   0.540  12.791  0.5707 -0.6214  0.4355
  889MPD2    C113082   4.681   0.546  12.911 -0.1325  0.5826 -0.1959
  889MPD2    C213083   4.696   0.669  12.974 -0.5863  0.0773  0.5242
  889MPD2    C313084   4.692   0.783  12.900  0.4078  0.4738 -0.0857
  889MPD2    C413085   4.645   0.779  12.767  0.0423  0.4512  0.0099
  889MPD2    C513086   4.629   0.647  12.712 -0.7489 -1.0010 -0.1592
  889MPD2     H13087   0.004   0.676  13.074  0.3984 -3.1427  0.3241
  889MPD2    H113088   4.631   0.859  12.695  0.6296 -0.3463 -0.9907
  889MPD2    H213089   4.580   0.449  12.745  1.5130 -1.2983  0.9663
  889MPD2    H313090   4.599   0.638  12.608  3.2784 -2.7831 -1.1759
  889MPD2     N13091   4.719   0.910  12.970 -0.1301 -0.5144  0.7899
  889MPD2    H513092   0.030   0.912  13.060  0.3979 -0.7743  0.5359
  889MPD2    N113093   4.679   0.421  12.978  0.1710  0.0510  0.2474
  889MPD2    H713094   4.651   0.341  12.922  0.7552  1.1201 -1.5551
  890MPD2     C13095   3.819   2.377  14.437 -0.3290 -0.4848 -0.3621
  890MPD2    C113096   3.924   2.441  14.494 -0.9661 -0.1172 -0.4913
  890MPD2    C213097   3.995   2.373  14.587  0.8036  0.4117 -0.8048
  890MPD2    C313098   3.963   2.247  14.633 -0.1313 -0.1525 -0.4025
  890MPD2    C413099   3.858   2.181  14.571  0.0830  0.4670  0.9107
  890MPD2    C513100   3.790   2.250  14.470 -0.3493 -1.0306 -1.1446
  890MPD2     H13101   4.076   2.422  14.640  0.9815 -1.9571  1.0983
  890MPD2    H113102   3.808   2.089  14.598 -0.5608  0.6313  0.2758
  890MPD2    H213103   3.755   2.433  14.369 -1.1862 -0.0872  0.7685
  890MPD2    H313104   3.711   2.199  14.416 -0.2642 -1.8410 -0.5187
  890MPD2     N13105   4.039   2.182  14.737  0.0120  0.0924 -0.0246
  890MPD2    H513106   4.120   2.231  14.774 -0.7833  0.6051  1.0459
  890MPD2    N113107   3.946   2.572  14.445 -0.2309 -0.5314  0.0481
  890MPD2    H713108   3.882   2.610  14.377  1.5281 -0.1993 -1.4212
  891MPD2     C13109   1.935   0.442  16.835 -0.9446 -0.1272 -0.3085
  891MPD2    C113110   1.890   0.570  16.839 -0.0475  0.0775 -0.9391
  891MPD2    C213111   1.966   0.661  16.898  0.1517  0.6122  0.4920
  891MPD2    C313112   2.083   0.620  16.959  0.1208 -0.4963 -0.3420
  891MPD2    C413113   2.129   0.493  16.945 -0.4560 -0.3263  0.1056
  891MPD2    C513114   2.055   0.403  16.884  0.9921 -0.5912  0.0734
  891MPD2     H13115   1.949   0.768  16.903  0.0182  0.7484 -2.8167
  891MPD2    H113116   2.219   0.466  16.998 -1.4082  1.0590  2.4415
  891MPD2    H213117   1.875   0.368  16.783  0.2287 -1.3831  0.1236
  891MPD2    H313118   2.108   0.310  16.872 -1.3040 -2.2638  2.8670
  891MPD2     N13119   2.152   0.707  17.049  0.3050  0.7331 -0.3929
  891MPD2    H513120   2.096   0.789  17.070 -3.7580 -1.5842 -2.0409
  891MPD2    N113121   1.779   0.610  16.761 -0.3518  0.1299 -0.6135
  891MPD2    H713122   1.747   0.549  16.686 -0.7194  0.2225 -0.5316
  892MPD2     C13123   3.084   2.130  14.382 -0.5027  0.0541 -0.3739
  892MPD2    C113124   3.061   2.051  14.490  0.9857 -0.3502  0.0946
  892MPD2    C213125   3.114   1.925  14.500  0.1666 -0.9198  0.8910
  892MPD2    C313126   3.195   1.871  14.397  0.0081 -0.4816 -0.8225
  892MPD2    C413127   3.227   1.960  14.294  0.0161  0.1147 -0.0746
  892MPD2    C513128   3.171   2.084  14.284 -0.6601  0.6026 -0.5390
  892MPD2     H13129   3.086   1.873  14.590  2.1345  0.4325  2.2757
  892MPD2    H113130   3.308   1.930  14.228 -0.6647  0.4455 -1.0534
  892MPD2    H213131   3.029   2.222  14.366 -0.1111  0.1290 -1.3405
  892MPD2    H313132   3.186   2.153  14.201  0.7068  0.1453 -0.6760
  892MPD2     N13133   3.231   1.736  14.387 -0.6133 -0.1238 -0.6962
  892MPD2    H513134   3.288   1.704  14.310  0.1747 -0.3180 -0.0303
  892MPD2    N113135   2.973   2.097  14.593 -0.5668 -0.3854  0.0547
  892MPD2    H713136   2.930   2.027  14.653  0.9570 -1.8462 -0.5483
  893MPD2     C13137   4.066   4.015   1.337  0.2667 -0.0487  0.6488
  893MPD2    C113138   4.049   4.130   1.277  0.0458  0.0521  0.2478
  893MPD2    C213139   3.918   4.172   1.262 -0.0277 -0.7393 -0.2448
  893MPD2    C313140   3.810   4.097   1.295 -0.3621  0.1933 -0.1913
  893MPD2    C413141   3.836   3.974   1.352 -0.1745  0.2155  0.6703
  893MPD2    C513142   3.963   3.936   1.379  0.5557 -0.1489 -0.3206
  893MPD2     H13143   3.892   4.269   1.222 -0.4079 -0.6907  0.1130
  893MPD2    H113144   3.754   3.913   1.388 -0.0188 -0.1247  0.4376
  893MPD2    H213145   4.162   3.965   1.346  0.4135  0.1957  0.4711
  893MPD2    H313146   3.986   3.847   1.437  1.7633  1.5850  1.8390
  893MPD2     N13147   3.676   4.145   1.299 -0.7435 -0.4919 -0.0502
  893MPD2    H513148   3.604   4.082   1.331  0.7742 -1.2897  1.7920
  893MPD2    N113149   4.163   4.202   1.228  0.4785  0.2145 -0.1510
  893MPD2    H713150   4.254   4.167   1.253 -0.0475 -0.4975  0.7708
  894MPD2     C13151   2.856   2.204   1.061  0.2011  0.2697  0.7627
  894MPD2    C113152   2.771   2.258   1.159 -0.4836  0.3203 -0.2771
  894MPD2    C213153   2.785   2.395   1.187 -1.6371  0.3176 -0.2229
  894MPD2    C313154   2.867   2.465   1.105 -0.0231  0.2604  0.2382
  894MPD2    C413155   2.923   2.417   0.993  0.7947  0.0305 -0.3244
  894MPD2    C513156   2.921   2.282   0.978 -0.2476 -0.2833  0.0610
  894MPD2     H13157   2.730   2.447   1.264  2.3816 -0.5943  3.2468
  894MPD2    H113158   2.985   2.477   0.927 -0.9481 -0.4753 -2.3997
  894MPD2    H213159   2.869   2.099   1.034 -2.0110 -0.1691  1.4594
  894MPD2    H313160   2.994   2.233   0.915  0.1665 -0.1550  0.4395
  894MPD2     N13161   2.892   2.600   1.134  0.1447 -0.4973 -0.2718
  894MPD2    H513162   2.832   2.646   1.202  1.0045 -1.6630  1.2895
  894MPD2    N113163   2.682   2.185   1.248 -0.4335  0.1480  0.0982
  894MPD2    H713164   2.613   2.232   1.305  1.1014  0.4541  1.6868
  895MPD2     C13165   2.168   0.423  13.783 -0.5025  0.6952 -0.0267
  895MPD2    C113166   2.076   0.317  13.780  0.9985 -0.4357 -0.4180
  895MPD2    C213167   2.116   0.194  13.745 -0.1179  0.2823 -0.4082
  895MPD2    C313168   2.248   0.167  13.735  0.1305 -0.6150  0.4571
  895MPD2    C413169   2.342   0.270  13.737 -0.5734 -0.6024 -0.3348
  895MPD2    C513170   2.301   0.398  13.768 -0.0611  0.8227 -0.0840
  895MPD2     H13171   2.036   0.122  13.739 -0.4621  0.6428 -0.1751
  895MPD2    H113172   2.448   0.255  13.721 -0.1663  1.4126  0.4415
  895MPD2    H213173   2.145   0.525  13.811 -0.9981  1.0222 -1.6347
  895MPD2    H313174   2.375   0.474  13.746  1.4220 -0.2005  1.4416
  895MPD2     N13175   2.283   0.032  13.699  0.2862 -0.2328  0.0167
  895MPD2    H513176   2.213   4.694  13.717  1.1174 -1.2466 -0.8261
  895MPD2    N113177   1.936   0.336  13.792  0.3626  0.3587  0.1832
  895MPD2    H713178   1.889   0.249  13.767  2.0543 -0.0950 -1.4417
  896MPD2     C13179   4.599   3.279   1.792  0.4626  0.2984 -0.0794
  896MPD2    C113180   4.581   3.231   1.668  0.4354  0.8440  0.1461
  896MPD2    C213181   4.465   3.168   1.647  0.0711  0.9615 -0.4281
  896MPD2    C313182   4.361   3.161   1.739 -1.1122 -0.4243 -0.4569
  896MPD2    C413183   4.379   3.225   1.858 -0.4192  0.2209  0.1885
  896MPD2    C513184   4.502   3.276   1.887 -0.5554  0.0861  0.3519
  896MPD2     H13185   4.447   3.135   1.545  2.0647  0.4750 -0.6213
  896MPD2    H113186   4.301   3.226   1.933 -0.5578  1.0006  0.0253
  896MPD2    H213187   4.695   3.323   1.815  0.6886 -0.0374 -0.3906
  896MPD2    H313188   4.519   3.319   1.985  2.3605 -1.1002  0.3581
  896MPD2     N13189   4.235   3.102   1.701 -0.4650  0.0524 -0.0704
  896MPD2    H513190   4.233   3.058   1.609  0.0667  0.1197 -0.1124
  896MPD2    N113191   4.682   3.254   1.576 -0.4260 -0.9506  0.0632
  896MPD2    H713192   0.027   3.304   1.616  0.1246 -0.3888 -1.7135
  897MPD2     C13193   1.544   4.466  10.675  0.3965  0.2377  0.2948
  897MPD2    C113194   1.418   4.524  10.686 -0.1284  0.4559  0.2930
  897MPD2    C213195   1.314   4.449  10.743 -0.3262 -0.4567 -0.2783
  897MPD2    C313196   1.332   4.317  10.768  0.0189  0.0717  0.6266
  897MPD2    C413197   1.462   4.262  10.767  0.0813 -0.0335 -0.0173
  897MPD2    C513198   1.568   4.339  10.721  0.3050 -0.0778 -0.3123
  897MPD2     H13199   1.214   4.484  10.722 -0.0668  0.3603 -0.1236
  897MPD2    H113200   1.492   4.162  10.795 -1.6611 -0.9682 -1.5397
  897MPD2    H213201   1.631   4.520  10.640 -1.0212  1.4892 -1.2840
  897MPD2    H313202   1.668   4.299  10.717  0.0814 -0.9569  2.7298
  897MPD2     N13203   1.216   4.246  10.789 -0.5841  0.4288 -0.3127
  897MPD2    H513204   1.125   4.291  10.779 -1.7359 -1.4283  1.6218
  897MPD2    N113205   1.398   4.657  10.639  0.5687  0.4575  0.1017
  897MPD2    H713206   1.475   4.699  10.588 -0.4954  2.1503 -0.0917
  898MPD2     C13207   2.577   1.090  17.682  0.2883  0.0326 -0.0526
  898MPD2    C113208   2.636   1.089   0.072  0.0616 -0.1577  0.3406
  898MPD2    C213209   2.668   1.211   0.127 -0.0515 -0.0105 -0.3481
  898MPD2    C313210   2.676   1.329   0.056  0.6164  0.3388  0.0774
  898MPD2    C413211   2.620   1.333  17.665 -0.2573  0.1528 -0.0542
  898MPD2    C513212   2.574   1.212  17.618  0.3021  0.3130  0.7055
  898MPD2     H13213   2.699   1.219   0.231 -1.9912 -1.0139  0.3159
  898MPD2    H113214   2.605   1.425  17.610  0.2317  0.2889  0.0400
  898MPD2    H213215   2.538   1.000  17.635 -0.6835 -0.2904  1.3941
  898MPD2    H313216   2.537   1.217  17.516  0.4235  1.2521  0.7035
  898MPD2     N13217   2.731   1.447   0.110  0.5581 -0.1096 -0.3876
  898MPD2    H513218   2.753   1.438   0.208  0.8232  0.7060 -0.3768
  898MPD2    N113219   2.657   0.975   0.148  0.8634 -1.0684  0.3238
  898MPD2    H713220   2.706   0.977   0.236  0.3029  2.3798  0.5691
  899MPD2     C13221   3.578   1.269  17.355  0.0064 -0.0326  0.3654
  899MPD2    C113222   3.614   1.378  17.433  0.0457  0.2824 -0.0463
  899MPD2    C213223   3.591   1.371  17.569 -0.3528 -0.6030 -0.4522
  899MPD2    C313224   3.537   1.257  17.630 -0.4983 -0.1436 -0.1745
  899MPD2    C413225   3.500   1.151  17.547  0.0412 -0.3672 -0.5962
  899MPD2    C513226   3.525   1.155  17.410 -0.5100 -0.0418  0.3323
  899MPD2     H13227   3.604   1.464  17.623  1.1351 -0.5424 -0.9201
  899MPD2    H113228   3.450   1.063  17.586 -1.7358  0.9491  0.0848
  899MPD2    H213229   3.567   1.277  17.248 -1.8505 -1.2787  0.4617
  899MPD2    H313230   3.483   1.073  17.353  1.5529  0.4618 -1.8928
  899MPD2     N13231   3.491   1.248   0.032 -0.0318  0.5395  0.0387
  899MPD2    H513232   3.440   1.163   0.052  3.0512 -1.3067 -0.0397
  899MPD2    N113233   3.674   1.494  17.369  0.8922 -0.6366  0.2496
  899MPD2    H713234   3.699   1.490  17.271  4.1171 -1.0776  1.0671
  900MPD2     C13235   3.433   3.094  12.566  0.2690  0.7452  0.2665
  900MPD2    C113236   3.323   3.049  12.630 -0.2094 -0.6462  0.2764
  900MPD2    C213237   3.210   3.131  12.635 -0.4269 -0.1134  0.0607
  900MPD2    C313238   3.204   3.251  12.566  0.3898 -0.3376 -0.0257
  900MPD2    C413239   3.319   3.289  12.498 -0.6837  0.2531  0.0175
  900MPD2    C513240   3.431   3.215  12.499  0.3356  0.8170  0.0660
  900MPD2     H13241   3.113   3.094  12.667  0.6611 -1.4314  1.8277
  900MPD2    H113242   3.333   3.378  12.438  0.5558  0.6538  0.9029
  900MPD2    H213243   3.522   3.032  12.567  0.9236  1.6828  0.1723
  900MPD2    H313244   3.515   3.242  12.436  1.4324 -0.6819  0.8768
  900MPD2     N13245   3.084   3.327  12.576  0.1900  0.0992 -0.2151
  900MPD2    H513246   3.013   3.284  12.634  1.8460 -2.4334 -0.0666
  900MPD2    N113247   3.330   2.920  12.679 -0.3484 -0.0037 -0.0701
  900MPD2    H713248   3.412   2.864  12.657  0.9217  1.6619  0.4701
  901MPD2     C13249   3.133   1.910  12.489  0.1782 -0.4536 -0.1612
  901MPD2    C113250   3.261   1.929  12.543 -0.1137  0.2410 -0.6828
  901MPD2    C213251   3.290   2.042  12.614  0.1285 -0.2621  0.5392
  901MPD2    C313252   3.193   2.139  12.632 -0.3920 -0.3841  0.4139
  901MPD2    C413253   3.071   2.114  12.579 -0.6361 -0.4920  0.1245
  901MPD2    C513254   3.042   2.004  12.512 -0.1293 -0.5249 -0.0765
  901MPD2     H13255   3.393   2.063  12.639  0.3103 -0.0541 -0.3719
  901MPD2    H113256   2.985   2.177  12.600  1.8160  2.5501  0.9881
  901MPD2    H213257   3.102   1.816  12.445 -0.2286  0.5743 -2.0753
  901MPD2    H313258   2.935   1.995  12.496  0.2960 -1.8669 -2.1505
  901MPD2     N13259   3.224   2.261  12.694 -0.2103 -0.2465  0.5192
  901MPD2    H513260   3.322   2.259  12.722 -0.6518  2.0972  2.2543
  901MPD2    N113261   3.355   1.827  12.527 -0.1915 -0.4090 -0.3791
  901MPD2    H713262   3.326   1.743  12.478 -0.2448 -0.0516 -0.9642
  902MPD2     C13263   2.019   1.172  13.327 -0.0760 -0.1053 -0.1857
  902MPD2    C113264   2.037   1.143  13.193  0.4703 -0.0853 -0.1535
  902MPD2    C213265   2.082   1.014  13.155  0.3638 -0.2966 -0.3907
  902MPD2    C313266   2.105   0.917  13.250  0.2399  0.2495  0.2025
  902MPD2    C413267   2.086   0.944  13.384  0.3514  0.5469 -0.2027
  902MPD2    C513268   2.031   1.071  13.414 -0.0555  0.1299 -0.4156
  902MPD2     H13269   2.111   0.992  13.053  0.1598  0.5422 -0.6358
  902MPD2    H113270   2.106   0.872  13.463 -1.8477  0.3166  0.1673
  902MPD2    H213271   1.996   1.272  13.363  2.2296 -0.3418  1.9322
  902MPD2    H313272   2.005   1.088  13.517 -2.0137 -2.5145 -0.4851
  902MPD2     N13273   2.186   0.806  13.212  0.2416 -0.0191 -0.1423
  902MPD2    H513274   2.245   0.769  13.286  0.0848  0.5297  0.2566
  902MPD2    N113275   2.017   1.244  13.094  0.3010  0.5059  0.2839
  902MPD2    H713276   1.999   1.338  13.128  1.5887  1.5303 -1.7995
  903MPD2     C13277   2.569   0.993  12.726  0.3163  1.3163  0.5747
  903MPD2    C113278   2.465   0.958  12.806 -0.1587  0.5726  0.0452
  903MPD2    C213279   2.338   0.995  12.771 -0.4715 -0.3922 -0.1018
  903MPD2    C313280   2.314   1.080  12.659 -0.5580  0.9991 -0.2882
  903MPD2    C413281   2.421   1.107  12.575 -0.3781 -0.1091 -0.5650
  903MPD2    C513282   2.546   1.055  12.606  0.5958  0.7214  0.4157
  903MPD2     H13283   2.261   0.967  12.843 -0.3354  0.0770  0.2304
  903MPD2    H113284   2.404   1.166  12.486 -0.5792  0.7017  0.0137
  903MPD2    H213285   2.671   0.962  12.743 -0.2481 -0.7499  0.2642
  903MPD2    H313286   2.630   1.061  12.537 -0.4010 -0.0642 -0.8637
  903MPD2     N13287   2.178   1.100  12.628  0.4244 -0.1991 -0.5052
  903MPD2    H513288   2.117   1.067  12.702  0.7391 -1.3805 -0.7708
  903MPD2    N113289   2.467   0.879  12.924  0.0907 -0.4184  0.3908
  903MPD2    H713290   2.377   0.852  12.962  0.0717 -1.7478 -0.5927
  904MPD2     C13291   2.496   0.023  14.569  0.3766  0.7077  0.4999
  904MPD2    C113292   2.467   0.015  14.437 -0.0657  0.6854  0.9173
  904MPD2    C213293   2.558   4.709  14.345 -0.1219  0.0617  0.2541
  904MPD2    C313294   2.679   4.671  14.381 -0.3417 -0.6316 -0.8808
  904MPD2    C413295   2.712   4.677  14.511 -0.7600 -0.4540 -0.0613
  904MPD2    C513296   2.621   4.717  14.604  1.1460 -0.4247  0.5700
  904MPD2     H13297   2.526   4.700  14.241  1.1366  1.7942 -0.2762
  904MPD2    H113298   2.812   4.652  14.543 -0.0895  0.5617 -1.3332
  904MPD2    H213299   2.429   0.062  14.645  0.2511  2.2838 -0.4298
  904MPD2    H313300   2.655   0.004  14.704  0.0648  0.9659  0.6508
  904MPD2     N13301   2.769   4.620  14.289  0.0211  0.5216 -0.4500
  904MPD2    H513302   2.734   4.615  14.193 -0.4975 -0.2688 -0.2135
  904MPD2    N113303   2.340   0.060  14.389 -1.2688  0.5898 -0.0222
  904MPD2    H713304   2.326   0.054  14.289 -0.8177  1.5686 -0.1457
  905MPD2     C13305   1.761   0.016  13.819 -0.0560  0.4679  0.3394
  905MPD2    C113306   1.867   4.702  13.891 -0.3156 -0.0078 -0.0670
  905MPD2    C213307   1.954   4.604  13.848 -0.5916 -0.0918  0.5088
  905MPD2    C313308   1.945   4.558  13.722  0.7799  0.2534  1.0095
  905MPD2    C413309   1.850   4.619  13.639 -0.0133  0.6359  0.3500
  905MPD2    C513310   1.755   4.710  13.685  0.0854 -0.6183  0.2714
  905MPD2     H13311   2.033   4.568  13.913 -0.9671  0.3638  1.2114
  905MPD2    H113312   1.842   4.587  13.536  1.7149  0.7374  0.1892
  905MPD2    H213313   1.680   0.079  13.853 -2.0674 -0.1740 -3.2966
  905MPD2    H313314   1.676   0.006  13.617 -1.4228  0.5898  2.5377
  905MPD2     N13315   2.031   4.461  13.666  0.0415 -0.6109  0.4297
  905MPD2    H513316   2.045   4.464  13.566 -1.0796 -4.8451  0.1558
  905MPD2    N113317   1.896   0.030  14.016 -0.4212 -0.1091 -0.5561
  905MPD2    H713318   1.833   0.100  14.051  2.0051  1.6787  0.2482
  906MPD2     C13319   0.313   0.209  11.428 -0.7108  0.3386 -0.2416
  906MPD2    C113320   0.198   0.173  11.358  0.3916  0.8563  0.8750
  906MPD2    C213321   0.080   0.164  11.420 -0.4624  0.3011 -0.0349
  906MPD2    C313322   0.068   0.175  11.556 -0.6491 -0.5215 -0.4949
  906MPD2    C413323   0.185   0.202  11.631 -0.0817 -0.2501  0.2130
  906MPD2    C513324   0.299   0.221  11.565  0.1610  0.3635 -0.0234
  906MPD2     H13325   4.731   0.143  11.354  0.2891 -0.8089 -0.6233
  906MPD2    H113326   0.167   0.227  11.735 -0.7549  2.6303 -0.6109
  906MPD2    H213327   0.414   0.226  11.393 -1.2430  1.4756 -1.1961
  906MPD2    H313328   0.380   0.259  11.627  1.2085  0.7068 -1.6103
  906MPD2     N13329   4.670   0.161  11.611  0.6551 -0.3245 -0.7069
  906MPD2    H513330   4.588   0.166  11.552  1.1414  0.1411 -1.3357
  906MPD2    N113331   0.194   0.145  11.223  0.1976  0.1248 -0.5513
  906MPD2    H713332   0.109   0.110  11.178 -0.4576  1.7050 -0.5347
  907MPD2     C13333   2.872   4.571  15.916 -0.4010  0.3249  0.3464
  907MPD2    C113334   2.944   4.457  15.898  0.1197  0.0350  0.2263
  907MPD2    C213335   3.051   4.418  15.971  0.1410  0.1000  0.3574
  907MPD2    C313336   3.076   4.478  16.095 -0.0191 -0.2771 -0.6173
  907MPD2    C413337   2.988   4.578  16.133  0.0289  0.4043 -0.3503
  907MPD2    C513338   2.895   4.632  16.040  0.5173  0.3518  0.1123
  907MPD2     H13339   3.114   4.338  15.933 -2.4597 -1.9206  0.3476
  907MPD2    H113340   2.988   4.623  16.231 -0.9411  1.1844 -0.7026
  907MPD2    H213341   2.795   4.608  15.850  0.2374 -1.6159 -1.4856
  907MPD2    H313342   2.831   4.711  16.077  0.6810  0.7857 -0.5180
  907MPD2     N13343   3.174   4.428  16.188  0.1401  0.4804 -0.0825
  907MPD2    H513344   3.225   4.347  16.154  1.6535  0.9632  1.0296
  907MPD2    N113345   2.917   4.378  15.783  0.0316 -0.3035  0.4093
  907MPD2    H713346   2.988   4.312  15.755  0.2845 -1.0011  2.7100
  908MPD2     C13347   1.659   4.650   9.881 -0.1279  0.2205 -0.0748
  908MPD2    C113348   1.556   4.573   9.932  0.3737  0.2991 -0.3164
  908MPD2    C213349   1.464   4.623  10.018 -0.8026 -0.0903  0.7473
  908MPD2    C313350   1.484   0.017  10.073 -0.2893 -0.2257  0.1829
  908MPD2    C413351   1.594   0.086  10.035 -0.2270 -0.2032  0.0066
  908MPD2    C513352   1.672   0.039   9.933 -0.1197  0.0685 -0.4548
  908MPD2     H13353   1.374   4.572  10.051  0.9731 -1.3376  3.6364
  908MPD2    H113354   1.618   0.186  10.071  0.3160 -0.5925  0.7214
  908MPD2    H213355   1.729   4.619   9.804  0.3306 -0.7314  0.7255
  908MPD2    H313356   1.747   0.107   9.895  0.7226 -0.8796 -0.4807
  908MPD2     N13357   1.392   0.066  10.165 -0.4666  0.4616  0.7174
  908MPD2    H513358   1.331   4.729  10.204 -1.8925  1.3428  0.0623
  908MPD2    N113359   1.556   4.438   9.879 -0.3562 -0.4712 -0.5428
  908MPD2    H713360   1.637   4.416   9.821  0.1896  0.5267 -0.1508
  909MPD2     C13361   1.500   3.631  12.296  0.2216  0.8789 -0.4833
  909MPD2    C113362   1.452   3.704  12.185 -0.2256 -0.6030  0.3445
  909MPD2    C213363   1.324   3.753  12.193 -0.2531  0.3499  0.2385
  909MPD2    C313364   1.253   3.742  12.308 -0.5140  0.0290 -0.3806
  909MPD2    C413365   1.303   3.665  12.417 -0.4455  0.5171 -0.3830
  909MPD2    C513366   1.427   3.613  12.408 -0.4303  0.2281 -0.0853
  909MPD2     H13367   1.281   3.802  12.106 -1.5133  0.4037  0.9029
  909MPD2    H113368   1.255   3.635  12.509  0.2108 -1.1999 -0.5964
  909MPD2    H213369   1.594   3.577  12.291 -0.4466 -0.2739 -0.6509
  909MPD2    H313370   1.457   3.550  12.492 -0.8687  1.1725  0.7772
  909MPD2     N13371   1.119   3.793  12.304 -0.0448  0.0275  0.1501
  909MPD2    H513372   1.088   3.830  12.215  0.3657 -0.4664 -0.2033
  909MPD2    N113373   1.522   3.704  12.063 -0.5597  0.1711 -0.3757
  909MPD2    H713374   1.601   3.642  12.046 -1.3694 -0.7095 -0.8645
  910MPD2     C13375   2.629   4.467  16.250  0.4418  0.6173 -0.1069
  910MPD2    C113376   2.623   4.420  16.121  0.5879 -0.5217 -0.4797
  910MPD2    C213377   2.548   4.497  16.041  0.5008  0.0431 -0.3145
  910MPD2    C313378   2.467   4.608  16.084 -0.5234  0.6510  0.2973
  910MPD2    C413379   2.462   4.636  16.220 -0.1923 -0.0427 -0.6691
  910MPD2    C513380   2.552   4.566  16.296  0.1791  1.4637 -0.0363
  910MPD2     H13381   2.552   4.470  15.937  1.0992  0.6456 -0.4494
  910MPD2    H113382   2.398   4.712  16.263 -2.0406 -2.0316  0.1077
  910MPD2    H213383   2.690   4.417  16.325 -0.6481  1.2210  1.1776
  910MPD2    H313384   2.553   4.597  16.400  0.1011  1.3905 -0.0137
  910MPD2     N13385   2.393   4.697  16.002 -0.3759 -0.3599  0.2886
  910MPD2    H513386   2.338   0.034  16.050 -3.0612 -0.7264 -2.2294
  910MPD2    N113387   2.690   4.302  16.078 -0.2032 -0.1679 -0.6170
  910MPD2    H713388   2.703   4.290  15.978  2.5313  2.4536 -0.5666
  911MPD2     C13389   0.309   0.751  16.106 -0.2330 -0.0669 -0.3901
  911MPD2    C113390   0.354   0.776  16.237 -0.2194 -0.5177  0.3329
  911MPD2    C213391   0.342   0.898  16.301  0.3566  0.0844 -0.2345
  911MPD2    C313392   0.274   0.993  16.222  0.1757  0.3777  0.3638
  911MPD2    C413393   0.224   0.968  16.097 -0.2656  0.7318 -0.3136
  911MPD2    C513394   0.243   0.845  16.032 -0.6626 -0.1429  0.8174
  911MPD2     H13395   0.383   0.925  16.398 -0.6103  1.1169 -0.1212
  911MPD2    H113396   0.180   1.048  16.038  2.6998  2.4555 -0.2230
  911MPD2    H213397   0.308   0.647  16.073 -1.5323  0.0762 -0.7927
  911MPD2    H313398   0.205   0.832  15.931 -0.1974 -1.9825  0.8809
  911MPD2     N13399   0.259   1.126  16.258 -0.0778  0.4896  0.4682
  911MPD2    H513400   0.229   1.188  16.183 -0.7896 -1.2115 -0.6414
  911MPD2    N113401   0.417   0.664  16.302 -0.0751 -0.0914  0.1776
  911MPD2    H713402   0.432   0.579  16.248  3.9558  0.7455 -0.0179
  912MPD2     C13403   4.584   1.246  15.800 -0.6051 -0.3563  0.2389
  912MPD2    C113404   4.628   1.212  15.931  0.0040  0.5280  0.0204
  912MPD2    C213405   4.644   1.079  15.961  0.4971  0.7719  0.3468
  912MPD2    C313406   4.610   0.977  15.874  0.3691 -0.5436 -0.0772
  912MPD2    C413407   4.561   1.013  15.751  0.7014 -0.0262  0.4784
  912MPD2    C513408   4.554   1.147  15.714  0.0166  0.2369 -0.0586
  912MPD2     H13409   4.693   1.051  16.053  0.9031 -2.0562 -0.7177
  912MPD2    H113410   4.534   0.943  15.672  0.3855 -1.6101  1.9809
  912MPD2    H213411   4.582   1.350  15.769  0.8493 -0.3466  0.1879
  912MPD2    H313412   4.512   1.165  15.615 -0.1485 -0.4966 -0.1232
  912MPD2     N13413   4.615   0.850  15.937 -0.6976 -0.4569  0.0205
  912MPD2    H513414   4.634   0.846  16.036 -0.5219  1.4430  0.0618
  912MPD2    N113415   4.663   1.303  16.032 -0.4640 -0.3056  0.4137
  912MPD2    H713416   4.672   1.397  15.995  1.0001 -0.6742 -0.1623
  913MPD2     C13417   0.462   1.729  10.421 -0.3088  0.1568 -0.4852
  913MPD2    C113418   0.522   1.842  10.471  0.2902  0.0354 -0.3666
  913MPD2    C213419   0.508   1.962  10.403 -0.4012 -0.7271 -0.3815
  913MPD2    C313420   0.455   1.967  10.278 -0.0377 -0.5243  0.1614
  913MPD2    C413421   0.422   1.851  10.218  0.4800 -0.0025 -0.7502
  913MPD2    C513422   0.398   1.742  10.294  0.3738  0.1693 -0.4065
  913MPD2     H13423   0.540   2.049  10.459  1.4497 -2.4233  1.1751
  913MPD2    H113424   0.395   1.844  10.113 -0.0287 -1.1355 -0.5453
  913MPD2    H213425   0.461   1.636  10.475 -1.7277  1.5539  1.8879
  913MPD2    H313426   0.360   1.647  10.258 -0.4035  0.4171 -0.2354
  913MPD2     N13427   0.453   2.077  10.192  0.4726  0.2284  0.2768
  913MPD2    H513428   0.432   2.068  10.093  0.6680  4.1117 -0.1464
  913MPD2    N113429   0.592   1.824  10.592 -0.6905  0.6218  0.2252
  913MPD2    H713430   0.599   1.732  10.634 -1.7797  0.5836  0.3208
  914MPD2     C13431   2.958   1.787  12.181  0.5116  0.3747  0.3512
  914MPD2    C113432   3.061   1.877  12.180 -0.1984 -0.6677 -0.8128
  914MPD2    C213433   3.193   1.837  12.172  0.6831 -0.0303  0.3322
  914MPD2    C313434   3.217   1.702  12.170 -0.3710 -0.5518  0.4324
  914MPD2    C413435   3.115   1.608  12.177  0.6088  0.3685 -0.0388
  914MPD2    C513436   2.988   1.655  12.184  0.3695 -0.5761 -0.5513
  914MPD2     H13437   3.276   1.906  12.178  1.4721 -0.8625 -1.0334
  914MPD2    H113438   3.129   1.502  12.161  1.3706  0.7757 -2.1411
  914MPD2    H213439   2.855   1.821  12.187  1.0320  1.7754  1.2879
  914MPD2    H313440   2.902   1.588  12.184 -0.9864  1.1701 -2.5926
  914MPD2     N13441   3.351   1.666  12.187 -0.1778  0.1204 -0.0077
  914MPD2    H513442   3.418   1.739  12.164  0.3778 -0.4557 -0.1861
  914MPD2    N113443   3.029   2.014  12.188 -0.0088 -0.1901  0.1439
  914MPD2    H713444   2.929   2.021  12.207 -0.2709 -1.9322 -0.6018
  915MPD2     C13445   1.620   2.059  15.734 -0.2573  0.4135 -0.0584
  915MPD2    C113446   1.542   2.165  15.708 -0.7131  0.7679  0.0272
  915MPD2    C213447   1.502   2.251  15.807 -0.1951 -0.0644 -0.0957
  915MPD2    C313448   1.543   2.231  15.935  0.2965 -0.8311  0.2972
  915MPD2    C413449   1.613   2.116  15.963 -0.1942  0.3001 -0.0380
  915MPD2    C513450   1.653   2.029  15.861 -0.1441 -0.1186  0.3702
  915MPD2     H13451   1.442   2.337  15.780 -0.3948  0.4180  1.9034
  915MPD2    H113452   1.641   2.091  16.065 -1.1343 -0.6644 -0.0143
  915MPD2    H213453   1.664   2.000  15.654 -2.9319 -0.7520 -0.6403
  915MPD2    H313454   1.721   1.948  15.885 -0.6693 -0.9393 -0.9042
  915MPD2     N13455   1.487   2.311  16.040  0.3022 -0.0620  0.2069
  915MPD2    H513456   1.425   2.382  16.003  1.4577  1.6724  1.6139
  915MPD2    N113457   1.513   2.179  15.569 -0.2324 -0.2385  0.2180
  915MPD2    H713458   1.532   2.094  15.517  0.3737  0.0781 -0.0786
  916MPD2     C13459   3.828   0.405  15.621 -0.7770  0.1008  0.4070
  916MPD2    C113460   3.896   0.340  15.718 -1.0694 -0.4444 -0.0785
  916MPD2    C213461   3.970   0.221  15.676  0.8043  0.9415 -0.0512
  916MPD2    C313462   3.948   0.163  15.554 -0.1057  0.5414  0.1297
  916MPD2    C413463   3.871   0.232  15.464 -0.4254  0.1623  0.2224
  916MPD2    C513464   3.821   0.355  15.496 -0.3647 -0.3064  0.3554
  916MPD2     H13465   4.039   0.174  15.745 -0.1166 -2.5757 -1.5602
  916MPD2    H113466   3.856   0.187  15.367 -0.3857 -0.1251  0.3505
  916MPD2    H213467   3.778   0.501  15.635  0.6425  0.8283  0.4917
  916MPD2    H313468   3.760   0.408  15.424  1.4898 -0.0595 -1.0479
  916MPD2     N13469   4.011   0.037  15.520  0.4518  0.6350 -0.2076
  916MPD2    H513470   4.065   4.728  15.594  1.7760  2.6770  0.0087
  916MPD2    N113471   3.906   0.404  15.841  0.1670  0.3475  0.3922
  916MPD2    H713472   3.861   0.494  15.848  1.8050  0.9869  2.7588
  917MPD2     C13473   4.612   2.609  11.147 -0.2946  0.0908  0.3510
  917MPD2    C113474   4.605   2.699  11.251 -0.4019 -0.6906 -0.2312
  917MPD2    C213475   4.687   2.814  11.244 -0.0236  0.5744  0.3555
  917MPD2    C313476   0.038   2.837  11.140  0.0349  0.0324 -0.4199
  917MPD2    C413477   0.045   2.740  11.042  0.1160 -0.8290 -0.1248
  917MPD2    C513478   4.703   2.623  11.044  0.8217 -0.7856 -0.3660
  917MPD2     H13479   4.665   2.891  11.317 -0.1059  0.3158  0.5987
  917MPD2    H113480   0.102   2.754  10.951  0.9545 -2.4701  0.1406
  917MPD2    H213481   4.546   2.525  11.128 -0.6014  0.0959  1.4265
  917MPD2    H313482   4.710   2.556  10.959  0.5570  0.1459 -1.1242
  917MPD2     N13483   0.087   2.966  11.117 -0.4168  0.8172 -0.2080
  917MPD2    H513484   0.129   2.982  11.026  0.3436 -2.1914 -0.3852
  917MPD2    N113485   4.527   2.665  11.366 -0.1753  0.0832  0.8860
  917MPD2    H713486   4.472   2.581  11.352 -0.0340  0.2008 -0.3390
  918MPD2     C13487   4.465   3.084  12.282 -0.3290 -0.0638  0.4909
  918MPD2    C113488   4.557   3.076  12.183  0.1058  0.7022 -0.6174
  918MPD2    C213489   4.525   3.013  12.062  0.3345 -0.1013  0.5744
  918MPD2    C313490   4.410   2.939  12.052 -0.0159 -0.6661  0.3328
  918MPD2    C413491   4.319   2.940  12.163 -0.2296  0.3734  0.0323
  918MPD2    C513492   4.349   3.009  12.278  0.1777 -0.5838 -0.3507
  918MPD2     H13493   4.593   2.996  11.979 -1.1438  1.4663 -0.9638
  918MPD2    H113494   4.224   2.889  12.149 -0.3746  0.8695 -0.7677
  918MPD2    H213495   4.478   3.136  12.377  1.8691 -2.7366  1.6577
  918MPD2    H313496   4.283   2.997  12.363  0.5395 -2.3745 -0.3182
  918MPD2     N13497   4.400   2.866  11.933 -0.2696  0.5328  1.0250
  918MPD2    H513498   4.475   2.860  11.864 -1.4230  0.3281 -0.2029
  918MPD2    N113499   4.681   3.138  12.181  0.4548 -0.5815 -0.8379
  918MPD2    H713500   4.730   3.139  12.092  0.1869 -0.6156 -0.9878
  919MPD2     C13501   0.587   1.486  12.074 -0.7423 -0.6177 -0.6462
  919MPD2    C113502   0.516   1.394  12.002 -0.3879  0.1556  0.2589
  919MPD2    C213503   0.541   1.378  11.866  0.0116  0.1716 -0.3335
  919MPD2    C313504   0.638   1.449  11.806  0.0762 -0.1780  0.4761
  919MPD2    C413505   0.717   1.538  11.877  0.8834 -0.5610  0.3057
  919MPD2    C513506   0.686   1.554  12.008  0.2608  0.8704 -0.2359
  919MPD2     H13507   0.478   1.311  11.807  0.3215  0.0404 -0.5170
  919MPD2    H113508   0.802   1.586  11.829  1.9202 -1.7873  0.9182
  919MPD2    H213509   0.559   1.510  12.176  0.7196  0.1263 -0.4162
  919MPD2    H313510   0.755   1.615  12.064 -1.2095  0.9155  1.5191
  919MPD2     N13511   0.666   1.434  11.671 -0.2230  0.4729 -0.6238
  919MPD2    H513512   0.742   1.490  11.633 -1.1133  2.0651 -0.0525
  919MPD2    N113513   0.441   1.291  12.069 -0.2316 -0.5040  0.0964
  919MPD2    H713514   0.413   1.209  12.016 -0.5967 -0.5409  0.3439
  920MPD2     C13515   0.387   2.021  10.942  0.4077  0.2032  0.2370
  920MPD2    C113516   0.344   1.899  10.882 -1.2044  0.0983 -0.0782
  920MPD2    C213517   0.370   1.785  10.953 -0.5969 -0.4084  0.1123
  920MPD2    C313518   0.435   1.788  11.077  0.9125 -0.8109 -0.3971
  920MPD2    C413519   0.474   1.914  11.130 -0.2483 -0.6166 -0.8434
  920MPD2    C513520   0.453   2.025  11.059 -0.1075  0.4231  0.3684
  920MPD2     H13521   0.320   1.697  10.912 -1.6735  0.5374 -0.6012
  920MPD2    H113522   0.530   1.923  11.223  3.4310 -1.0181 -3.0331
  920MPD2    H213523   0.365   2.121  10.906 -0.0154  0.9676  2.6570
  920MPD2    H313524   0.486   2.122  11.095  2.0985 -0.2249  0.0834
  920MPD2     N13525   0.463   1.663  11.129 -0.2146  0.1724 -0.2546
  920MPD2    H513526   0.429   1.577  11.088 -1.7053 -0.3211  1.9754
  920MPD2    N113527   0.267   1.892  10.765 -0.5497 -0.2212  0.1905
  920MPD2    H713528   0.238   1.800  10.732  0.0634 -0.6946  0.9827
  921MPD2     C13529   1.144   0.549  17.001  0.1700  0.5082  0.2259
  921MPD2    C113530   1.141   0.613  16.883  1.0598 -0.7868  0.4103
  921MPD2    C213531   1.039   0.595  16.799 -0.7670 -0.2070  0.6584
  921MPD2    C313532   0.932   0.518  16.833  0.2819  0.2871  0.0030
  921MPD2    C413533   0.924   0.467  16.958  0.6561 -0.2344  0.1210
  921MPD2    C513534   1.032   0.484  17.044 -0.0991 -0.3554  0.6740
  921MPD2     H13535   1.040   0.639  16.700 -0.5027 -1.2388  0.2016
  921MPD2    H113536   0.830   0.421  16.985  1.2035 -2.0241 -1.0331
  921MPD2    H213537   1.221   0.554  17.077  0.3813 -0.8891  0.1086
  921MPD2    H313538   1.029   0.432  17.140 -0.8559  1.6432  1.7370
  921MPD2     N13539   0.830   0.505  16.733  0.2202  0.1731  0.1373
  921MPD2    H513540   0.844   0.541  16.639 -0.5388 -1.9927 -0.7792
  921MPD2    N113541   1.261   0.680  16.847 -0.2185 -0.5308 -0.5066
  921MPD2    H713542   1.344   0.662  16.902 -0.3823  1.5506  0.4089
  922MPD2     C13543   1.721   3.478  17.207  0.2218 -0.3486  0.4657
  922MPD2    C113544   1.625   3.443  17.299 -0.3905  0.3474 -0.0739
  922MPD2    C213545   1.556   3.325  17.291  0.0792  0.4838 -0.1550
  922MPD2    C313546   1.602   3.222  17.208  0.7963 -0.0034 -0.0558
  922MPD2    C413547   1.712   3.246  17.127 -0.0200  0.4314  0.1131
  922MPD2    C513548   1.760   3.377  17.121 -0.9780 -0.5513 -0.5728
  922MPD2     H13549   1.469   3.305  17.352 -0.3897 -0.6543 -1.1875
  922MPD2    H113550   1.749   3.167  17.063 -0.0938  2.3981 -2.3758
  922MPD2    H213551   1.770   3.573  17.190  0.4845 -0.2175  1.9392
  922MPD2    H313552   1.829   3.393  17.039 -0.5034 -2.0172 -0.4648
  922MPD2     N13553   1.530   3.105  17.216 -0.3913 -0.0396  0.3701
  922MPD2    H513554   1.446   3.101  17.271  1.0057 -0.2366  2.4949
  922MPD2    N113555   1.598   3.531  17.407 -0.5166 -0.0995  0.1507
  922MPD2    H713556   1.513   3.506  17.457 -0.7125  0.4417  0.0920
  923MPD2     C13557   3.015   0.375   9.411  0.3957  0.4071  0.1402
  923MPD2    C113558   3.011   0.514   9.406 -0.2603  0.0702  0.5233
  923MPD2    C213559   3.110   0.591   9.469 -0.2455  0.3217  0.3839
  923MPD2    C313560   3.207   0.531   9.541  0.5013  0.3972 -0.3777
  923MPD2    C413561   3.202   0.396   9.554 -0.1594  0.3070  0.4383
  923MPD2    C513562   3.111   0.322   9.489 -0.1652  0.0017 -0.6031
  923MPD2     H13563   3.108   0.699   9.463 -0.0030  0.3562  0.9863
  923MPD2    H113564   3.269   0.349   9.625 -2.7036 -2.2240  1.1408
  923MPD2    H213565   2.959   0.314   9.340  0.8048  0.4811 -0.2448
  923MPD2    H313566   3.126   0.215   9.498 -2.8590  0.1324  5.2138
  923MPD2     N13567   3.309   0.600   9.612  0.1533 -0.0285 -0.2161
  923MPD2    H513568   3.368   0.538   9.666  0.4553  0.3370 -0.1297
  923MPD2    N113569   2.907   0.567   9.331 -0.1785  0.0668 -0.1076
  923MPD2    H713570   2.850   0.499   9.282  0.2869 -0.1028 -0.4159
  924MPD2     C13571   4.037   4.038  16.543  0.4316 -0.1477  0.3742
  924MPD2    C113572   3.983   4.094  16.424  0.8833  0.9059  0.5046
  924MPD2    C213573   3.872   4.175  16.442  1.1493  0.0715  0.2479
  924MPD2    C313574   3.819   4.195  16.563  0.1848 -0.1344 -0.3483
  924MPD2    C413575   3.870   4.128  16.671 -0.0519  0.2018  0.1243
  924MPD2    C513576   3.983   4.050  16.667 -0.0240  0.2630 -0.0399
  924MPD2     H13577   3.817   4.209  16.355  0.5405 -2.1396 -0.2544
  924MPD2    H113578   3.823   4.123  16.769  1.3763 -2.2278  0.6989
  924MPD2    H213579   4.126   3.977  16.531  0.6741 -0.5597  4.1010
  924MPD2    H313580   4.016   3.984  16.746 -2.0030  0.2555  0.7762
  924MPD2     N13581   3.698   4.264  16.582 -0.3549  0.3581 -0.1132
  924MPD2    H513582   3.659   4.262  16.675  0.1195  0.3885  0.0890
  924MPD2    N113583   4.026   4.046  16.301  0.7778 -0.4517  0.0485
  924MPD2    H713584   4.099   3.976  16.302  0.0620 -1.2374 -1.8930
  925MPD2     C13585   2.241   1.878  15.028  0.0966 -0.2485 -0.0881
  925MPD2    C113586   2.187   1.757  14.986 -0.2115  1.2219  0.2847
  925MPD2    C213587   2.147   1.665  15.077  0.7864 -0.0525  0.9367
  925MPD2    C313588   2.154   1.687  15.209  0.0645  0.1761 -0.2282
  925MPD2    C413589   2.195   1.817  15.253 -0.3933  0.9808 -0.1963
  925MPD2    C513590   2.247   1.907  15.163 -0.3702 -0.8229  0.4623
  925MPD2     H13591   2.094   1.576  15.042  0.1387  0.6031  0.2582
  925MPD2    H113592   2.199   1.846  15.357  3.4721 -2.7722  0.7203
  925MPD2    H213593   2.279   1.953  14.959  1.0478 -0.9754 -0.3592
  925MPD2    H313594   2.290   2.001  15.193 -3.1237  1.0862 -1.4949
  925MPD2     N13595   2.101   1.602  15.312  0.0173  0.8657  0.3133
  925MPD2    H513596   2.093   1.629  15.409  0.2815 -0.0718  0.5962
  925MPD2    N113597   2.168   1.718  14.849  0.3264 -0.1695 -0.2705
  925MPD2    H713598   2.115   1.633  14.836  3.8558 -2.2431 -1.0216
  926MPD2     C13599   0.849   4.575  14.177  0.4358 -0.2683  0.0447
  926MPD2    C113600   0.747   4.600  14.083 -0.4529 -0.0941 -0.0691
  926MPD2    C213601   0.784   4.615  13.950  0.1808 -0.6797  0.4358
  926MPD2    C313602   0.916   4.591  13.910  0.1738 -0.0144 -0.0680
  926MPD2    C413603   1.015   4.559  14.007  0.0422 -0.2212 -0.5185
  926MPD2    C513604   0.977   4.560  14.144  0.6411 -0.1394  0.4949
  926MPD2     H13605   0.704   4.636  13.879 -0.8551 -2.5965  1.0228
  926MPD2    H113606   1.115   4.562  13.966 -0.2850 -3.2499 -1.5635
  926MPD2    H213607   0.828   4.567  14.283 -0.6849 -0.9931 -0.2326
  926MPD2    H313608   1.051   4.557  14.223  0.7130  1.3355  0.4799
  926MPD2     N13609   0.951   4.621  13.768  0.2423  0.1586 -0.1302
  926MPD2    H513610   1.048   4.606  13.743 -0.2481 -2.3470 -0.4394
  926MPD2    N113611   0.612   4.631  14.120  0.2139 -1.3500  0.4101
  926MPD2    H713612   0.545   4.655  14.047  1.9727 -0.2200 -0.8281
  927MPD2     C13613   0.135   2.046  17.372  0.4979 -0.1184  0.2927
  927MPD2    C113614   0.216   1.995  17.475 -0.3065 -0.7030  0.4815
  927MPD2    C213615   0.333   1.922  17.432  0.2945 -0.5735  0.2312
  927MPD2    C313616   0.364   1.904  17.303 -0.9213 -0.4917  0.3745
  927MPD2    C413617   0.285   1.963  17.206 -0.6966 -0.2259 -0.4515
  927MPD2    C513618   0.165   2.020  17.241 -0.1812  0.4742 -0.0406
  927MPD2     H13619   0.405   1.875  17.499  1.5213  0.6950 -0.2103
  927MPD2    H113620   0.295   1.954  17.099 -2.4388  4.0480 -0.9617
  927MPD2    H213621   0.048   2.106  17.395  0.7718  0.6207 -0.6164
  927MPD2    H313622   0.109   2.070  17.163  1.0254 -0.4274 -1.4607
  927MPD2     N13623   0.486   1.840  17.268 -0.5986  0.3445 -0.1666
  927MPD2    H513624   0.526   1.783  17.342  3.4636 -1.4561 -3.7419
  927MPD2    N113625   0.186   2.021  17.611 -0.1692 -0.0487  1.4813
  927MPD2    H713626   0.114   2.089  17.633 -1.5736 -1.3084  0.7496
  928MPD2     C13627   2.871   4.679   1.079 -0.4409 -0.1830 -0.3445
  928MPD2    C113628   2.909   0.075   1.101 -0.0964 -0.1328  0.1246
  928MPD2    C213629   2.914   0.165   0.996 -0.5883 -0.1766  0.0972
  928MPD2    C313630   2.864   0.129   0.870 -0.4110  0.7680  0.6821
  928MPD2    C413631   2.790   0.010   0.859 -0.1422 -0.6700  0.4398
  928MPD2    C513632   2.804   4.653   0.961  0.5653 -0.9283 -0.6308
  928MPD2     H13633   2.957   0.262   1.016 -1.2986 -0.0444  0.9665
  928MPD2    H113634   2.741   4.713   0.768 -0.2561  0.9652 -0.0471
  928MPD2    H213635   2.873   4.608   1.161 -2.2787 -0.2598 -0.3622
  928MPD2    H313636   2.760   4.557   0.940  1.0535 -1.5290  1.1076
  928MPD2     N13637   2.876   0.217   0.759 -0.1010 -0.4150 -0.3779
  928MPD2    H513638   2.814   0.191   0.683  1.2804 -0.8851 -1.3507
  928MPD2    N113639   2.975   0.101   1.228 -0.4594 -0.1395 -0.3398
  928MPD2    H713640   2.991   0.027   1.295  0.4219 -0.0679 -0.4759
  929MPD2     C13641   3.288   0.637  10.338  0.2990  0.0624 -0.2257
  929MPD2    C113642   3.230   0.534  10.266 -0.5480  0.0676  0.1797
  929MPD2    C213643   3.180   0.559  10.137  0.1594 -0.2218  0.2027
  929MPD2    C313644   3.188   0.696  10.095 -0.1741 -0.1490  0.1017
  929MPD2    C413645   3.256   0.797  10.164 -0.0197  0.5130  0.4207
  929MPD2    C513646   3.312   0.759  10.286 -0.5107 -0.1915 -0.3741
  929MPD2     H13647   3.143   0.480  10.073 -1.0394  0.2770  0.2756
  929MPD2    H113648   3.255   0.895  10.118  1.0495  0.1252 -0.4394
  929MPD2    H213649   3.335   0.619  10.434  0.8004  0.1339 -0.4627
  929MPD2    H313650   3.360   0.837  10.345 -0.8471 -0.6779  0.5374
  929MPD2     N13651   3.130   0.737   9.974 -0.3048  0.5372  0.2984
  929MPD2    H513652   3.138   0.832   9.941 -1.2824  0.7642  0.7099
  929MPD2    N113653   3.211   0.411  10.332 -0.1596 -0.5027  0.3907
  929MPD2    H713654   3.274   0.393  10.409  0.4541 -0.7098 -0.1608
  930MPD2     C13655   0.336   2.924  14.040 -0.8166 -1.2083  0.4718
  930MPD2    C113656   0.421   2.918  13.926  0.5833  0.0093 -0.5779
  930MPD2    C213657   0.415   2.803  13.845  0.2308  0.2616 -0.2612
  930MPD2    C313658   0.318   2.710  13.853  0.4379  0.0536 -0.6891
  930MPD2    C413659   0.224   2.730  13.948  0.8517 -0.2746 -0.3760
  930MPD2    C513660   0.243   2.827  14.045  0.3648  0.3594 -0.2065
  930MPD2     H13661   0.488   2.803  13.765  0.7420  0.8274  0.1964
  930MPD2    H113662   0.144   2.659  13.963  2.7244 -2.4286 -0.5950
  930MPD2    H213663   0.328   3.012  14.103 -0.1018 -1.2754  0.6576
  930MPD2    H313664   0.160   2.830  14.114  1.4498  0.8921  1.0664
  930MPD2     N13665   0.300   2.615  13.745 -0.7363  0.0326  0.6120
  930MPD2    H513666   0.212   2.565  13.744 -0.5746 -0.2337 -0.5657
  930MPD2    N113667   0.510   3.030  13.907  0.6614  0.6638  0.2063
  930MPD2    H713668   0.518   3.095  13.985  1.6877  0.2934  0.4101
  931MPD2     C13669   0.600   1.810   0.493  0.1071  0.2435 -0.2507
  931MPD2    C113670   0.464   1.815   0.521  0.8750 -0.1175  0.6041
  931MPD2    C213671   0.425   1.741   0.628 -0.0647 -0.3562 -0.6310
  931MPD2    C313672   0.510   1.674   0.710  0.3208  0.2664  0.0430
  931MPD2    C413673   0.648   1.689   0.691 -0.2530  0.0439  0.2416
  931MPD2    C513674   0.690   1.756   0.577  0.1071  0.2174 -1.0776
  931MPD2     H13675   0.322   1.709   0.641  0.6582 -2.2914  0.3947
  931MPD2    H113676   0.725   1.657   0.760  1.2977  2.6508 -0.3151
  931MPD2    H213677   0.646   1.861   0.410 -2.2389  1.9501 -0.5131
  931MPD2    H313678   0.797   1.761   0.559  0.2866  0.2953 -0.0467
  931MPD2     N13679   0.474   1.581   0.809 -0.0755 -0.0787 -0.1148
  931MPD2    H513680   0.539   1.508   0.837 -0.1145  0.0965  0.4360
  931MPD2    N113681   0.375   1.886   0.435 -0.3373 -0.1476  0.4332
  931MPD2    H713682   0.423   1.933   0.360 -1.3885 -1.2353 -0.9116
  932MPD2     C13683   1.855   0.750  11.455 -0.0061  0.5859  0.3434
  932MPD2    C113684   1.884   0.836  11.548  0.0818 -0.0825 -0.3342
  932MPD2    C213685   1.843   0.802  11.675 -0.8341 -0.1156 -0.5142
  932MPD2    C313686   1.767   0.682  11.701  0.0498 -0.1365  0.4703
  932MPD2    C413687   1.722   0.608  11.601 -0.7459  0.0403  0.0397
  932MPD2    C513688   1.767   0.646  11.474  0.1738  0.0922  0.4917
  932MPD2     H13689   1.881   0.864  11.755 -0.1448 -1.8095  0.4827
  932MPD2    H113690   1.668   0.515  11.613 -0.8445 -0.5067 -4.8010
  932MPD2    H213691   1.891   0.761  11.354 -1.5873  0.0733 -0.2843
  932MPD2    H313692   1.733   0.584  11.392 -0.0732  3.1395 -1.7195
  932MPD2     N13693   1.722   0.649  11.829 -0.0813  0.3087 -0.6258
  932MPD2    H513694   1.653   0.577  11.841  0.0420  0.3105  0.0827
  932MPD2    N113695   1.972   0.951  11.529  0.0244 -0.5990 -0.1189
  932MPD2    H713696   1.985   1.006  11.613  1.2411 -0.1557 -0.5959
  933MPD2     C13697   3.318   0.513   1.967  0.1896  0.8863  0.5089
  933MPD2    C113698   3.225   0.542   1.872 -0.0029 -0.8576  0.2514
  933MPD2    C213699   3.158   0.665   1.892 -0.1915  0.2900 -0.1025
  933MPD2    C313700   3.198   0.757   1.988 -0.0037  0.8777 -0.0103
  933MPD2    C413701   3.311   0.735   2.058 -1.0530  1.1535  0.7474
  933MPD2    C513702   3.355   0.605   2.053 -0.0883 -0.2154 -0.0211
  933MPD2     H13703   3.073   0.691   1.830 -0.9694 -0.7568  0.5245
  933MPD2    H113704   3.371   0.802   2.118  4.1406 -2.1554 -0.7086
  933MPD2    H213705   3.376   0.421   1.963 -1.1511  0.0489  0.0555
  933MPD2    H313706   3.440   0.578   2.115  0.3408  1.7537  0.2566
  933MPD2     N13707   3.138   0.887   1.994 -0.6367  0.2612 -1.2018
  933MPD2    H513708   3.060   0.898   1.929 -0.7205  2.3995 -0.7473
  933MPD2    N113709   3.205   0.438   1.781 -0.2378 -0.1013 -0.0123
  933MPD2    H713710   3.272   0.362   1.782 -0.1130 -0.0063 -0.7872
  934MPD2     C13711   4.280   2.928   2.094 -0.2605  0.2871  0.4651
  934MPD2    C113712   4.354   2.874   1.990 -0.3841  0.4074 -0.9586
  934MPD2    C213713   4.294   2.800   1.889 -0.0924 -0.4837  0.6310
  934MPD2    C313714   4.157   2.774   1.892 -0.0645 -0.4518 -0.0040
  934MPD2    C413715   4.086   2.847   1.992 -0.4004  0.5530  0.1221
  934MPD2    C513716   4.147   2.917   2.093  0.3172 -0.0372 -0.3569
  934MPD2     H13717   4.358   2.756   1.813  0.5777  1.0309  0.3167
  934MPD2    H113718   3.978   2.847   1.979 -0.1943 -0.1949 -1.6629
  934MPD2    H213719   4.316   2.997   2.169  1.7132  1.9412 -2.0049
  934MPD2    H313720   4.098   2.987   2.159  1.4858 -0.1410  0.6240
  934MPD2     N13721   4.078   2.703   1.797  0.3508 -0.3536 -0.0760
  934MPD2    H513722   3.977   2.710   1.804  0.6048  0.3070  2.8936
  934MPD2    N113723   4.494   2.886   1.986 -0.3894 -0.3551 -0.6597
  934MPD2    H713724   4.539   2.827   1.916  1.3109 -0.9958  0.9608
  935MPD2     C13725   4.291   1.818   1.500  0.1787 -0.0726  0.4868
  935MPD2    C113726   4.216   1.854   1.397 -0.7929 -0.7588  0.5658
  935MPD2    C213727   4.137   1.968   1.415 -0.4035 -0.7213 -0.0253
  935MPD2    C313728   4.126   2.036   1.532 -0.0605  0.1317 -0.2231
  935MPD2    C413729   4.209   1.993   1.637 -0.4490  0.1198  0.2189
  935MPD2    C513730   4.290   1.884   1.619  0.3092  0.7176 -0.2049
  935MPD2     H13731   4.081   2.002   1.329 -0.5554 -0.3867  0.2070
  935MPD2    H113732   4.214   2.043   1.733  0.5615  0.6795 -0.1233
  935MPD2    H213733   4.360   1.734   1.490  0.7366  0.4358  0.0490
  935MPD2    H313734   4.356   1.847   1.696 -1.3011  2.4904  2.0513
  935MPD2     N13735   4.076   2.170   1.548 -0.1333 -0.4825  0.4353
  935MPD2    H513736   4.086   2.215   1.639  1.1416 -1.0963  0.5986
  935MPD2    N113737   4.220   1.791   1.273  0.2236  0.6226  0.1011
  935MPD2    H713738   4.150   1.811   1.202 -0.1882 -0.2621  0.2529
  936MPD2     C13739   2.760   3.762  12.908 -0.5658  0.4837  0.0655
  936MPD2    C113740   2.752   3.893  12.876 -0.3464 -0.3136  0.4042
  936MPD2    C213741   2.863   3.957  12.828 -0.7144 -0.4637 -0.0439
  936MPD2    C313742   2.981   3.895  12.799 -0.0357 -0.3639 -0.3486
  936MPD2    C413743   2.986   3.763  12.833 -0.0409  0.3218 -0.1177
  936MPD2    C513744   2.879   3.697  12.885  0.6746  0.4867 -0.5047
  936MPD2     H13745   2.842   4.056  12.791 -1.1500 -0.7234 -0.4949
  936MPD2    H113746   3.069   3.700  12.803  1.4335  1.0818  2.3595
  936MPD2    H213747   2.679   3.704  12.949 -0.2100 -0.6380 -0.7921
  936MPD2    H313748   2.888   3.593  12.911 -2.8097  0.7350  1.5926
  936MPD2     N13749   3.075   3.966  12.731  0.7733 -0.0813  0.0187
  936MPD2    H513750   3.053   4.061  12.701 -0.3309  0.0689  1.2777
  936MPD2    N113751   2.632   3.963  12.877 -0.3923  0.1820  0.0449
  936MPD2    H713752   2.638   4.061  12.852 -0.1665  0.2332  0.2908
  937MPD2     C13753   0.340   0.584  11.936  0.5894  0.0075  0.3098
  937MPD2    C113754   0.377   0.717  11.921  0.0283  0.8911 -1.2214
  937MPD2    C213755   0.411   0.758  11.795 -0.5974 -0.3415  0.4227
  937MPD2    C313756   0.422   0.669  11.680 -0.1622 -0.1407  0.2440
  937MPD2    C413757   0.376   0.541  11.702 -0.1615  0.1209 -0.4790
  937MPD2    C513758   0.346   0.501  11.827  0.4156 -0.5560  0.7083
  937MPD2     H13759   0.425   0.864  11.777  2.7480 -0.8978 -0.2282
  937MPD2    H113760   0.373   0.464  11.625  0.0133 -0.9020  0.5341
  937MPD2    H213761   0.322   0.537  12.032 -1.6240  0.9841  0.3928
  937MPD2    H313762   0.331   0.396  11.850 -1.5109 -0.4079  0.0888
  937MPD2     N13763   0.457   0.728  11.557 -0.5122  0.3777  0.0185
  937MPD2    H513764   0.479   0.827  11.563  0.6516  0.0921  0.5429
  937MPD2    N113765   0.365   0.823  12.019  0.5032  0.2066  0.4285
  937MPD2    H713766   0.387   0.916  11.984 -0.0957 -0.0742 -0.6810
  938MPD2     C13767   3.181   2.015   0.808  0.6252  0.2496 -0.0571
  938MPD2    C113768   3.230   2.111   0.899  0.0322  0.4963  0.1806
  938MPD2    C213769   3.223   2.093   1.035 -0.1685 -0.4225 -0.2619
  938MPD2    C313770   3.174   1.972   1.090  0.4424 -0.4239  0.1671
  938MPD2    C413771   3.142   1.871   1.000  0.1920  0.1894 -0.7028
  938MPD2    C513772   3.144   1.897   0.861 -0.0308 -0.1243  0.2183
  938MPD2     H13773   3.255   2.178   1.095  0.5650  0.8666 -2.4842
  938MPD2    H113774   3.115   1.774   1.038  0.8479 -0.4393 -1.8237
  938MPD2    H213775   3.176   2.034   0.701  0.3935  1.9855  0.2757
  938MPD2    H313776   3.116   1.820   0.790 -1.3180 -0.4156  1.0443
  938MPD2     N13777   3.168   1.954   1.229  0.5513  0.3073 -0.0872
  938MPD2    H513778   3.146   1.861   1.265 -1.2988  1.0782  0.7713
  938MPD2    N113779   3.261   2.240   0.851 -0.0045 -0.1995  0.1598
  938MPD2    H713780   3.309   2.301   0.917  1.1826 -1.2594  0.2764
  939MPD2     C13781   4.478   3.146   0.886  0.7823 -0.7070 -0.4486
  939MPD2    C113782   4.340   3.137   0.861  0.3765  0.0395  0.0178
  939MPD2    C213783   4.299   3.085   0.745 -0.1595  0.4210 -0.0951
  939MPD2    C313784   4.389   3.053   0.642  0.2543  0.0200  0.5529
  939MPD2    C413785   4.526   3.057   0.675  0.4468  0.0824  0.1972
  939MPD2    C513786   4.570   3.106   0.799 -0.3304 -0.6700  0.4266
  939MPD2     H13787   4.194   3.079   0.719  0.3273  0.3499 -2.0263
  939MPD2    H113788   4.599   3.024   0.601 -0.5828 -2.0989  0.1687
  939MPD2    H213789   4.508   3.167   0.988 -0.2837  0.0886 -0.2990
  939MPD2    H313790   4.672   3.110   0.834 -0.4073 -0.8546  0.6785
  939MPD2     N13791   4.325   3.001   0.524 -0.2255  0.4852  0.4699
  939MPD2    H513792   4.226   2.980   0.536 -0.1117 -2.0678 -2.9323
  939MPD2    N113793   4.243   3.164   0.965  0.1113 -0.1845  0.0164
  939MPD2    H713794   4.285   3.187   1.055  0.8372 -1.7280  0.0663
  940MPD2     C13795   3.209   3.741  13.297  0.4420  0.1798  0.1055
  940MPD2    C113796   3.336   3.783  13.322  0.9237 -0.2568 -0.8249
  940MPD2    C213797   3.418   3.797  13.214 -0.0531  0.2393 -0.0356
  940MPD2    C313798   3.363   3.787  13.083  0.2439  0.2019  0.2230
  940MPD2    C413799   3.234   3.748  13.063 -0.0258 -0.2227  0.3509
  940MPD2    C513800   3.157   3.727  13.171  0.1381  0.0228 -0.2868
  940MPD2     H13801   3.521   3.827  13.231  0.1423 -0.5427  0.1489
  940MPD2    H113802   3.196   3.736  12.962  0.5120  0.6242  0.0480
  940MPD2    H213803   3.136   3.725  13.376  0.8179 -0.8476  0.2445
  940MPD2    H313804   3.055   3.696  13.154  0.1169 -0.4396  0.6783
  940MPD2     N13805   3.442   3.801  12.965  0.4749  0.4536  0.2245
  940MPD2    H513806   3.399   3.795  12.873  2.6559  1.3889 -0.8629
  940MPD2    N113807   3.392   3.816  13.443  0.1796  0.2068  0.6850
  940MPD2    H713808   3.491   3.838  13.449 -0.2078  2.4142 -1.1944
  941MPD2     C13809   2.022   3.204  10.695 -0.0656 -0.1453  0.3185
  941MPD2    C113810   2.143   3.200  10.770  0.8507  0.4014  0.1574
  941MPD2    C213811   2.165   3.103  10.870  0.0395 -0.1120 -0.8474
  941MPD2    C313812   2.071   3.003  10.889  0.1526  0.9960 -0.1371
  941MPD2    C413813   1.954   3.001  10.815  0.5457  0.1134 -0.6673
  941MPD2    C513814   1.933   3.102  10.726 -0.1940 -0.7603  0.0025
  941MPD2     H13815   2.263   3.097  10.916  0.2881 -0.6498 -1.4411
  941MPD2    H113816   1.888   2.916  10.828  0.1616  0.6882  1.1738
  941MPD2    H213817   1.991   3.266  10.612 -0.5256 -2.2508 -1.0760
  941MPD2    H313818   1.838   3.099  10.673 -0.9510 -0.4057  1.3549
  941MPD2     N13819   2.086   2.903  10.982 -0.3077 -0.2798 -0.0825
  941MPD2    H513820   2.036   2.815  10.969 -0.3996 -0.2468  0.0464
  941MPD2    N113821   2.247   3.287  10.734 -0.3419 -0.3053  0.1010
  941MPD2    H713822   2.333   3.279  10.787 -0.7540 -0.6809  0.7133
  942MPD2     C13823   2.475   0.390  10.055 -0.5328  0.0039 -0.4707
  942MPD2    C113824   2.365   0.350   9.987 -0.5686 -0.0260 -0.1459
  942MPD2    C213825   2.370   0.329   9.845 -0.4207 -0.3916 -0.3745
  942MPD2    C313826   2.490   0.345   9.779 -0.3562 -0.1256 -0.1127
  942MPD2    C413827   2.599   0.365   9.857  0.2555 -0.3319  0.7454
  942MPD2    C513828   2.592   0.380   9.988  0.5575 -0.5354  0.5592
  942MPD2     H13829   2.280   0.302   9.791 -0.9576 -2.4847  1.5509
  942MPD2    H113830   2.701   0.343   9.827 -0.1648 -0.7536 -0.3802
  942MPD2    H213831   2.481   0.398  10.163 -0.1951  0.1544 -0.5031
  942MPD2    H313832   2.676   0.390  10.055  0.9769  0.2817 -0.0859
  942MPD2     N13833   2.503   0.323   9.637  0.7914 -0.3158  0.2564
  942MPD2    H513834   2.594   0.344   9.598 -0.2066  1.5112 -1.1255
  942MPD2    N113835   2.237   0.340  10.041 -0.2998  0.1708  0.0459
  942MPD2    H713836   2.158   0.297   9.994 -0.3584 -1.0467  1.2626
  943MPD2     C13837   1.382   3.305   9.164 -0.1029  0.2640  0.0905
  943MPD2    C113838   1.394   3.181   9.226  0.3551  0.5043 -0.1384
  943MPD2    C213839   1.516   3.126   9.257  0.1040  0.6205 -0.0357
  943MPD2    C313840   1.633   3.193   9.216  0.2880 -0.0682 -0.6985
  943MPD2    C413841   1.617   3.318   9.156 -0.8219 -0.0208 -0.4927
  943MPD2    C513842   1.495   3.377   9.135 -0.5620 -0.5938 -0.4902
  943MPD2     H13843   1.523   3.028   9.301 -1.8082  0.0886 -0.9279
  943MPD2    H113844   1.711   3.367   9.133 -0.6914 -0.3502 -0.6634
  943MPD2    H213845   1.286   3.341   9.130  0.8657  0.4597 -2.4344
  943MPD2    H313846   1.492   3.468   9.077 -0.8836 -0.8747 -0.9205
  943MPD2     N13847   1.764   3.142   9.241  0.5191  0.7793  0.4817
  943MPD2    H513848   1.833   3.204   9.201  2.2866 -0.5568  1.4772
  943MPD2    N113849   1.281   3.113   9.252 -0.0485  0.6055 -0.1900
  943MPD2    H713850   1.193   3.160   9.231 -0.4933 -0.1754 -0.0500
  944MPD2     C13851   1.224   2.955  10.974  0.6732 -0.5889  0.0335
  944MPD2    C113852   1.166   2.893  11.079 -0.5376  0.0280 -0.2118
  944MPD2    C213853   1.132   2.948  11.199 -0.2055 -0.0744  0.0169
  944MPD2    C313854   1.162   3.081  11.216 -0.3267 -0.6192  0.1963
  944MPD2    C413855   1.208   3.153  11.107  0.5165  0.0041 -0.1466
  944MPD2    C513856   1.246   3.087  10.995 -0.1891  0.3612  0.0840
  944MPD2     H13857   1.085   2.895  11.281 -1.9008  1.9243  0.3221
  944MPD2    H113858   1.241   3.256  11.102  0.9729 -0.0269  2.0542
  944MPD2    H213859   1.254   2.911  10.880  0.3676 -0.0242 -0.3295
  944MPD2    H313860   1.296   3.147  10.920 -1.4818 -0.5825 -1.5342
  944MPD2     N13861   1.123   3.140  11.342 -0.0312 -0.4064  0.6412
  944MPD2    H513862   1.083   3.077  11.410  0.9784 -0.6512  1.0094
  944MPD2    N113863   1.122   2.763  11.044 -0.1446 -0.7311  0.4146
  944MPD2    H713864   1.141   2.736  10.948  0.5870 -2.0764  0.9294
    1TMC1    C113865   4.719   3.158  14.659 -0.0904  0.5364 -0.4441
    1TMC1    C213866   4.604   3.109  14.610 -0.5492  0.1079 -0.2441
    1TMC1    C313867   4.589   2.976  14.597 -0.0393 -0.0231  0.1875
    1TMC1    C413868   0.086   3.078  14.704 -0.1082 -0.7318 -1.4583
    1TMC1    C513869   0.067   2.941  14.681  0.0919  0.4904  0.1307
    1TMC1    C613870   4.685   2.889  14.633  0.1833  0.4647 -0.3935
    1TMC1     C13871   4.727   3.287  14.728 -0.0539  0.2627 -0.0116
    1TMC1     O13872   0.060   3.296  14.830 -0.1537 -0.2411  0.6397
    1TMC1     H13873   4.518   3.173  14.591 -1.4775 -1.1833 -0.4001
    1TMC1    H113874   0.179   3.114  14.746 -1.4710 -0.8401  1.6830
    1TMC1    H213875   4.668   2.784  14.613  0.1587  0.4275 -0.1757
    1TMC1    C713876   0.148   2.859  14.772  0.3277 -0.3054 -0.4222
    1TMC1    C813877   4.464   2.930  14.554  0.0919 -1.1335 -0.3393
    1TMC1    O113878   0.257   2.888  14.815  0.3590  0.0974 -0.0298
    1TMC1    O213879   4.407   2.832  14.598 -0.5918 -0.3543  0.0614
    1TMC1    O313880   0.064   2.803  14.857 -0.5533 -0.5959 -0.7095
    1TMC1    H313881   4.704   2.786  14.835 -0.7539  0.1992 -0.4883
    1TMC1    O513882   4.465   2.966  14.423 -0.0569  0.0849  0.0083
    1TMC1    H513883   4.542   3.014  14.388 -1.7487  0.2790 -3.3836
    2MPD2     C13884   4.529   3.755  14.797 -0.4456 -0.3638  0.3862
    2MPD2    C113885   4.499   3.713  14.666 -0.0262  0.0869  0.7282
    2MPD2    C213886   4.539   3.591  14.625  0.0628 -0.4514  0.2543
    2MPD2    C313887   4.610   3.507  14.710  0.1165 -0.0099  0.7905
    2MPD2    C413888   4.641   3.554  14.841  0.0707 -0.6796  0.1797
    2MPD2    C513889   4.607   3.681  14.878 -0.4070  0.0403 -0.1625
    2MPD2     H13890   4.518   3.548  14.527  2.2074  1.1557 -0.9185
    2MPD2    H113891   4.687   3.496  14.919 -0.3761 -1.8136 -0.4007
    2MPD2    H213892   4.493   3.854  14.821  0.3585 -0.4701  1.9890
    2MPD2    H313893   4.627   3.699  14.983 -2.9846 -0.7088  0.4711
    2MPD2     N13894   4.647   3.375  14.665 -0.5399 -0.1206  0.2518
    2MPD2    H513895   4.606   3.338  14.580  0.6839 -1.6647  0.3439
    2MPD2    N113896   4.448   3.811  14.585 -0.1291 -0.1126 -0.3441
    2MPD2    H713897   4.441   3.904  14.626 -1.6767 -0.1749 -0.4751
    3TMC2    C113898   4.362   3.909  14.387  0.6547 -0.2426  0.1575
    3TMC2    C213899   4.294   4.004  14.458  0.1391 -0.2572 -0.7947
    3TMC2    C313900   4.220   4.099  14.397 -0.4465 -0.0503 -0.3217
    3TMC2    C413901   4.362   3.905  14.250 -0.2574 -0.2131  0.1353
    3TMC2    C513902   4.280   3.999  14.186  0.5738 -0.3083 -0.4994
    3TMC2    C613903   4.212   4.102  14.258  0.3118 -0.3142 -0.0067
    3TMC2     C13904   4.419   3.791  14.449  0.2051 -0.1327 -0.3198
    3TMC2     O13905   4.424   3.696  14.371 -0.2633  0.1707 -0.2914
    3TMC2     H13906   4.294   4.003  14.567 -0.7441 -0.5513 -0.7986
    3TMC2    H113907   4.409   3.830  14.186 -1.6445  0.2272 -1.4043
    3TMC2    H213908   4.164   4.190  14.217  0.6341 -0.9554 -1.7770
    3TMC2    C713909   4.243   3.978  14.048  0.5549  0.2185  0.3343
    3TMC2    C813910   4.132   4.191  14.481  0.0832  0.1516 -0.1264
    3TMC2    O113911   4.274   3.873  13.990 -0.1748  0.2752  0.2444
    3TMC2    O213912   4.148   4.202  14.601 -0.2602  0.1400  0.3764
    3TMC2    O513913   4.009   4.203  14.422 -0.5942 -0.6558  0.4286
    3TMC2    H513914   4.020   4.184  14.327 -0.1685  0.6776  0.2151
    4TMC2    C113915   3.683   4.585  13.457 -0.7741 -0.8861  0.7457
    4TMC2    C213916   3.707   4.714  13.492  0.3376 -0.2610 -0.6628
    4TMC2    C313917   3.830   0.014  13.536  0.1779 -0.6439 -0.5063
    4TMC2    C413918   3.768   4.485  13.495 -0.3434  0.7788 -0.1860
    4TMC2    C513919   3.882   4.516  13.558 -0.1752 -0.5286 -0.1013
    4TMC2    C613920   3.921   4.648  13.572 -0.3587 -0.1348 -1.0482
    4TMC2     C13921   3.538   4.558  13.467 -0.9201 -0.1350  0.4551
    4TMC2     O13922   3.490   4.614  13.561  0.4274  0.0385  0.2515
    4TMC2     H13923   3.624   0.050  13.486  0.1769 -0.2911  1.4122
    4TMC2    H113924   3.740   4.380  13.499 -0.2062  0.7857  0.8699
    4TMC2    H213925   4.013   4.673  13.625  0.3253  1.9978 -3.2436
    4TMC2    C713926   3.958   4.431  13.649 -0.5366  0.6282  0.1209
    4TMC2    C813927   3.831   0.126  13.624 -0.0301 -0.0420 -0.1794
    4TMC2    O113928   3.996   4.486  13.752  0.0654  0.1692  0.5306
    4TMC2    O213929   3.735   0.172  13.683  0.0881  0.2235  0.0315
    4TMC2    O513930   3.960   0.159  13.647 -0.1629  0.1203 -0.3818
    4TMC2    H513931   4.017   0.124  13.575 -0.0027  0.7577 -0.5693
    5MPD2     C13932   3.071   4.467  13.279 -0.5579 -0.3634 -0.9110
    5MPD2    C113933   3.149   4.488  13.170 -0.5113 -0.6825 -0.3608
    5MPD2    C213934   3.285   4.502  13.193 -0.6092  0.1124 -0.3993
    5MPD2    C313935   3.339   4.512  13.323  0.1593 -0.7622  0.1007
    5MPD2    C413936   3.256   4.477  13.427  0.3937 -0.0733  0.1582
    5MPD2    C513937   3.119   4.458  13.401 -0.0791 -0.4522  0.4220
    5MPD2     H13938   3.353   4.505  13.109 -0.8443  0.2450 -0.5839
    5MPD2    H113939   3.278   4.475  13.533  2.2962 -0.9314 -0.2568
    5MPD2    H213940   2.970   4.433  13.259 -0.4441 -0.9167 -0.5459
    5MPD2    H313941   3.056   4.425  13.483  2.2275 -1.0856  1.9627
    5MPD2     N13942   3.482   4.525  13.346  0.0826  0.3317  0.2423
    5MPD2    H513943   3.542   4.508  13.266 -2.7649 -2.1528 -1.3923
    5MPD2    N113944   3.101   4.480  13.034  0.0890  0.0619 -0.1040
    5MPD2    H713945   3.158   4.500  12.953  0.4800 -5.0227 -1.0655
    6MPD1     C13946   1.705   0.739  13.604  0.6642 -0.2671  0.1278
    6MPD1    C113947   1.643   0.629  13.553 -0.0297  0.1682  0.1888
    6MPD1    C213948   1.721   0.537  13.488 -0.3051  0.3255  0.1661
    6MPD1    C313949   1.859   0.550  13.488  1.0867 -0.1568 -0.1290
    6MPD1    C413950   1.921   0.661  13.541  0.5643 -0.3065 -0.6549
    6MPD1    C513951   1.835   0.759  13.590  0.2913 -0.5409 -0.2020
    6MPD1     H13952   1.681   0.448  13.440  1.5739  0.1658 -1.0723
    6MPD1    H113953   2.027   0.683  13.534  0.5616 -0.9023 -2.6666
    6MPD1    H213954   1.650   0.818  13.653 -1.9716 -1.7339 -0.4877
    6MPD1    H313955   1.883   0.842  13.641  1.8566 -1.6585  0.1653
    6MPD1     N13956   1.943   0.450  13.428 -0.0360 -0.9232 -0.2098
    6MPD1    H513957   2.039   0.478  13.414  0.1185 -1.9705 -1.2018
    6MPD1    N113958   1.502   0.630  13.530 -0.3204 -0.9621  0.0560
    6MPD1    H613959   1.458   0.690  13.599 -0.3438  2.6667 -3.1646
    6MPD1    H713960   1.451   0.543  13.520 -1.0011 -0.4489 -0.8931
    7MPD2     C13961   2.168   4.415  13.034 -0.2642 -0.0575 -0.7470
    7MPD2    C113962   2.228   4.538  13.010 -0.8615 -0.3106 -0.3909
    7MPD2    C213963   2.336   4.546  12.935 -0.7307  0.1272 -0.3864
    7MPD2    C313964   2.400   4.432  12.887 -0.7183 -0.6654 -0.3182
    7MPD2    C413965   2.346   4.309  12.907 -0.0501  0.6556  0.0404
    7MPD2    C513966   2.226   4.306  12.984  0.4216 -0.0050  0.8038
    7MPD2     H13967   2.383   4.643  12.933 -2.3976  0.9807  3.2493
    7MPD2    H113968   2.397   4.220  12.870 -1.9256 -0.0212 -0.9244
    7MPD2    H213969   2.079   4.401  13.094  0.5788 -0.8429  0.2979
    7MPD2    H313970   2.186   4.211  13.018  2.7046 -1.1654  0.2387
    7MPD2     N13971   2.525   4.459  12.825  0.0116  0.6396 -0.5230
    7MPD2    H513972   2.559   4.555  12.830 -2.4106  1.3749  1.3624
    7MPD2    N113973   2.189   4.663  13.068  0.5550  0.0160  0.0017
    7MPD2    H713974   2.237   0.014  13.039  0.3585 -0.4292 -1.6595
    8TMC3    C113975   2.743   4.444  12.756  0.2187  0.0359 -0.0341
    8TMC3    C213976   2.854   4.406  12.824  0.1875 -0.6429 -0.8089
    8TMC3    C313977   2.941   4.506  12.864  0.0472  0.4399 -0.0956
    8TMC3    C413978   2.723   4.578  12.718  0.4276  0.2769  0.1980
    8TMC3    C513979   2.804   4.679  12.770 -0.3208  0.2384 -0.2365
    8TMC3    C613980   2.921   4.638  12.828 -0.3598  0.1548 -0.3915
    8TMC3     C13981   2.620   4.369  12.781 -0.0493 -0.6834  0.3536
    8TMC3     O13982   2.628   4.252  12.807  0.1905 -0.4446 -0.1923
    8TMC3     H13983   2.857   4.304  12.861 -0.9055  0.1064  1.3090
    8TMC3    H113984   2.627   4.599  12.672  0.2832 -1.9248 -0.4887
    8TMC3    H213985   2.989   4.705  12.880 -0.9803  1.8805 -1.7912
    8TMC3    C713986   2.719   0.031  12.845 -0.0039  0.5023  0.3431
    8TMC3    C813987   2.966   4.487  13.002  0.1898  0.0385 -0.2298
    8TMC3    O113988   2.604   0.005  12.841 -0.2571  0.3740  0.6495
    8TMC3    O213989   2.866   4.505  13.072 -0.4275  0.1842 -0.5642
    9TMC3    C113990   2.031   0.243  13.370 -0.2652 -0.6081  0.4470
    9TMC3    C213991   2.158   0.292  13.384  0.0748 -0.1739  0.0551
    9TMC3    C313992   2.256   0.241  13.309 -0.0141  0.2406  0.2085
    9TMC3    C413993   2.001   0.132  13.292  0.0154  0.0378  0.4978
    9TMC3    C513994   2.107   0.081  13.216 -0.0428 -0.7500  0.0118
    9TMC3    C613995   2.235   0.140  13.221 -0.7527  0.6941  0.0103
    9TMC3     C13996   1.913   0.319  13.413 -0.6849 -0.0260  0.2899
    9TMC3     O13997   1.824   0.259  13.469 -0.4133  0.0589 -0.2245
    9TMC3     H13998   2.187   0.376  13.447 -1.0678  0.2451  0.0263
    9TMC3    H113999   1.898   0.101  13.277  0.3226 -1.6642  2.0116
    9TMC3    H214000   2.311   0.113  13.148 -0.2554  1.3220  0.2932
    9TMC3    C714001   2.089   4.684  13.156 -0.0349 -0.5455  0.2780
    9TMC3    C814002   2.386   0.301  13.325  0.1682  0.0347  0.4162
    9TMC3    O114003   1.995   4.611  13.174 -0.7761  0.0792 -0.3424
    9TMC3    O214004   2.407   0.411  13.373 -0.1047  0.6114 -0.5848
   10MPD2     C14005   2.797   0.340  13.033  0.1518  0.3604 -0.6654
   10MPD2    C114006   2.739   0.218  13.008  0.0450  0.9884  0.0117
   10MPD2    C214007   2.631   0.181  13.088 -0.3537  0.0338 -0.0177
   10MPD2    C314008   2.585   0.274  13.183  0.0876  0.1271  0.2998
   10MPD2    C414009   2.638   0.400  13.198 -0.1382  0.1726 -0.9722
   10MPD2    C514010   2.751   0.430  13.124  0.8198  0.3074 -0.4705
   10MPD2     H14011   2.574   0.091  13.065 -0.8562  0.2181  0.5049
   10MPD2    H114012   2.603   0.473  13.269 -0.6064  1.0182 -2.0733
   10MPD2    H214013   2.869   0.383  12.964  0.6376  0.7387  0.0699
   10MPD2    H314014   2.792   0.530  13.135 -1.8278  1.2770  0.4263
   10MPD2     N14015   2.472   0.226  13.251  0.6579 -0.1399  0.1886
   10MPD2    H514016   2.447   0.129  13.239  0.2850 -0.1007  0.6892
   10MPD2    N114017   2.789   0.139  12.906  0.3413 -0.1992 -0.5250
   10MPD2    H714018   2.885   0.155  12.875  0.0955  2.3888  0.0603
   11MPD2     C14019   4.084   3.957  13.799 -0.1323 -0.0018  0.1854
   11MPD2    C114020   4.107   4.072  13.863 -0.4286  0.2431 -0.2838
   11MPD2    C214021   4.062   4.192  13.810 -0.6001 -0.2387 -0.6190
   11MPD2    C314022   3.992   4.186  13.687 -0.0187 -0.2447 -0.0339
   11MPD2    C414023   3.984   4.067  13.615 -0.3671 -0.0833  0.1379
   11MPD2    C514024   4.013   3.952  13.681  0.2221  0.8503 -0.0938
   11MPD2     H14025   4.087   4.282  13.865  1.4182  0.7461 -3.1676
   11MPD2    H114026   3.945   4.063  13.514 -0.6237  0.5719  0.2156
   11MPD2    H214027   4.120   3.862  13.838  2.9075  0.7530 -0.7286
   11MPD2    H314028   4.008   3.860  13.623 -0.3046  1.0667 -0.3855
   11MPD2     N14029   3.945   4.300  13.612 -0.1509  0.5851 -0.2520
   11MPD2    H514030   3.908   4.285  13.518  1.7799  0.6305 -1.0203
   11MPD2    N114031   4.171   4.082  13.989  0.0990  0.7217 -0.3794
   11MPD2    H714032   4.164   4.169  14.041  0.3869 -0.7783  2.1572
    1MPD1     C14033   1.196   1.217  17.163 -0.0477 -0.4255 -0.0482
    1MPD1    C114034   1.336   1.241  17.156 -0.6938 -0.4471  0.3995
    1MPD1    C214035   1.404   1.228  17.037 -0.1754  0.2526  0.0079
    1MPD1    C314036   1.328   1.203  16.927  1.0240  0.3918  0.4004
    1MPD1    C414037   1.189   1.186  16.931 -0.1938 -0.0858 -0.0265
    1MPD1    C514038   1.124   1.187  17.051  0.3062  0.5677 -0.2358
    1MPD1     H14039   1.511   1.242  17.036 -0.5161  3.0960  1.1205
    1MPD1    H114040   1.136   1.157  16.841  0.8964 -0.5846 -0.5073
    1MPD1    H214041   1.150   1.192  17.258 -0.0525 -0.3771 -0.0373
    1MPD1    H314042   1.020   1.160  17.059  0.1467  1.1549 -0.3931
    1MPD1     N14043   1.383   1.177  16.801  0.4258 -0.0338  0.3082
    1MPD1    H514044   1.318   1.169  16.723  0.9412  0.2662 -0.1541
    1MPD1    N114045   1.408   1.270  17.274  0.1063 -0.1783 -0.4256
    1MPD1    H614046   1.487   1.328  17.249 -0.9711  0.9598 -1.1999
    1MPD1    H714047   1.351   1.329  17.333  0.7970 -0.8081  0.8671
    2MPD1     C14048   2.301   1.246  16.306  0.8351 -0.6087  0.1299
    2MPD1    C114049   2.261   1.149  16.398 -0.0435 -0.5328 -0.0009
    2MPD1    C214050   2.134   1.127  16.442  0.1663  0.2219  0.5324
    2MPD1    C314051   2.041   1.220  16.395  0.2317  1.0360 -0.1214
    2MPD1    C414052   2.081   1.325  16.307 -0.5497  0.4021 -0.6931
    2MPD1    C514053   2.212   1.333  16.271 -0.0810 -0.2633  0.2197
    2MPD1     H14054   2.116   1.053  16.519 -1.0025  0.5784  0.6015
    2MPD1    H114055   2.015   1.408  16.284 -1.7038 -0.1160  0.7468
    2MPD1    H214056   2.405   1.242  16.276  0.9119  2.0839 -0.0412
    2MPD1    H314057   2.245   1.417  16.209 -0.4356  0.0174  0.4159
    2MPD1     N14058   1.904   1.200  16.415  0.3139  0.1856  0.0500
    2MPD1    H514059   1.846   1.276  16.382 -0.0719  0.2325  0.8481
    2MPD1    N114060   2.364   1.074  16.451 -0.3702 -0.1701  0.4161
    2MPD1    H614061   2.345   0.975  16.464 -0.2447 -0.1954  0.4058
    2MPD1    H714062   2.444   1.085  16.389 -1.8737 -1.2227 -1.7294
    3TMC3    C114063   1.716   1.098  16.483  0.1992  1.1555 -0.3280
    3TMC3    C214064   1.660   1.178  16.389  0.1859  0.7786  0.0361
    3TMC3    C314065   1.532   1.215  16.409  0.4675  0.7236  0.6463
    3TMC3    C414066   1.667   1.087  16.610 -0.0137 -0.0734 -0.5782
    3TMC3    C514067   1.545   1.144  16.632  0.6929 -0.5254 -1.1210
    3TMC3    C614068   1.474   1.212  16.534 -0.3918  0.4787  0.5170
    3TMC3     C14069   1.851   1.091  16.476  0.3949  0.1842  0.0431
    3TMC3     O14070   1.899   0.992  16.527  0.0544 -0.3104  0.4888
    3TMC3     H14071   1.702   1.154  16.292 -0.2569  1.1671 -0.2545
    3TMC3    H114072   1.726   1.055  16.695  0.4814 -1.8220 -1.5945
    3TMC3    H214073   1.371   1.243  16.542  0.7266  4.4949 -0.7937
    3TMC3    C714074   1.518   1.154  16.776  0.1960 -0.1606  0.5777
    3TMC3    C814075   1.438   1.203  16.299  0.1739  0.1476 -0.5265
    3TMC3    O114076   1.611   1.127  16.855 -0.3662  0.1334  1.0822
    3TMC3    O214077   1.320   1.184  16.324 -0.8563  0.4034 -0.3389
    4MPD1     C14078   1.356   1.202  15.796  0.6843 -0.6809 -0.5015
    4MPD1    C114079   1.492   1.232  15.815  0.3757  0.4110  0.1816
    4MPD1    C214080   1.539   1.233  15.947  0.0874 -0.0739 -0.0132
    4MPD1    C314081   1.454   1.206  16.051  0.5028  0.4835 -0.0425
    4MPD1    C414082   1.319   1.189  16.027 -0.6125  0.1380  0.0481
    4MPD1    C514083   1.273   1.188  15.900  0.4958 -0.3017 -0.2294
    4MPD1     H14084   1.638   1.263  15.979  0.2035  0.2986 -0.7303
    4MPD1    H114085   1.241   1.166  16.099  0.2149 -2.1562  0.2185
    4MPD1    H214086   1.313   1.188  15.698  2.0626 -1.0164 -1.0604
    4MPD1    H314087   1.167   1.183  15.881  0.3240  0.3331  0.5438
    4MPD1     N14088   1.504   1.221  16.183 -0.3117 -0.1376 -0.3183
    4MPD1    H514089   1.600   1.253  16.188 -0.9697  1.1843  3.5245
    4MPD1    N114090   1.574   1.245  15.708 -0.5031  0.1834 -0.4964
    4MPD1    H614091   1.646   1.311  15.736 -0.3856 -0.5141  0.8125
    4MPD1    H714092   1.522   1.291  15.633 -1.0252  0.7558  0.2162
    1TCq1    O114093   3.366   4.586  12.868  0.1361 -0.0903 -0.4047
    1TCq1    C114094   3.358   4.586  12.731  0.2775 -0.8615 -0.0377
    1TCq1    O214095   3.259   4.561  12.667  0.5950  0.1357  0.4699
    1TCq1    C214096   3.478   4.651  12.664  0.7194  0.4760  0.1329
    1TCq1    C314097   3.575   4.713  12.739 -0.2208 -0.6180  0.0166
    1TCq1    C414098   3.676   0.032  12.663 -0.2015 -0.2722  0.5237
    1TCq1    C514099   3.676   0.016  12.526 -0.2357  0.2545 -0.0560
    1TCq1    C614100   3.580   4.682  12.460  0.4282  0.7166 -0.3369
    1TCq1    C714101   3.476   4.628  12.527 -0.5420 -0.9836  0.1278
    1TCq1    C814102   3.609   4.643  12.321 -0.7044 -0.9651 -0.3619
    1TCq1    O414103   3.728   4.662  12.292 -0.6905  0.2649 -0.2144
    1TCq1    C914104   3.744   0.156  12.706  0.6316  1.1965  0.3148
    1TCq1    O514105   3.788   0.226  12.609  0.1963 -0.7436  0.6260
    1TCq1    O614106   3.743   0.192  12.829 -0.4091  0.0320 -0.0572
    1TCq1    H114107   3.448   4.624  12.906 -0.8904 -0.2007  1.9657
    1TCq1    H214108   3.557   0.030  12.833 -1.6914 -1.5221  0.2189
    1TCq1    H314109   3.747   0.070  12.465  0.6064  0.2703  0.9523
    1TCq1    H414110   3.399   4.565  12.484 -0.3583 -1.8562  1.0683
    2MPD1     C14111   3.550   4.476  11.850  0.5861 -0.1865  0.3548
    2MPD1    C114112   3.422   4.488  11.903  0.0002 -0.4837  0.1589
    2MPD1    C214113   3.404   4.536  12.030  0.3672 -0.7695  0.2489
    2MPD1    C314114   3.516   4.550  12.111  1.1284  0.2723  0.4052
    2MPD1    C414115   3.642   4.525  12.064  0.4390 -0.3726  0.2837
    2MPD1    C514116   3.659   4.502  11.934 -0.2577 -0.0108  0.0509
    2MPD1     H14117   3.304   4.554  12.067 -0.2944 -1.9720 -0.9449
    2MPD1    H114118   3.734   4.531  12.121  0.7281 -0.9598 -0.1237
    2MPD1    H214119   3.571   4.451  11.746 -1.6800 -0.4093 -0.0507
    2MPD1    H314120   3.759   4.511  11.893 -1.1387  1.8854 -1.6681
    2MPD1     N14121   3.503   4.597  12.243 -1.1656 -0.6710  0.2997
    2MPD1    H514122   3.410   4.617  12.278 -0.6392 -1.1756  1.9741
    2MPD1    N114123   3.305   4.489  11.811  0.3733  0.7212 -0.2845
    2MPD1    H614124   3.309   4.417  11.739  1.5556 -0.1584  0.6618
    2MPD1    H714125   3.216   4.487  11.859  0.6781 -2.3475  0.1493
    1TMC1    C114126   1.801   0.221  17.185  0.0222 -0.5601  0.4460
    1TMC1    C214127   1.693   0.257  17.105 -0.2957  0.3335 -0.7290
    1TMC1    C314128   1.676   0.385  17.064 -0.1442  0.0552 -0.0654
    1TMC1    C414129   1.886   0.320  17.227 -0.5306 -1.0337  0.2667
    1TMC1    C514130   1.859   0.448  17.195  0.2737  0.1108  0.4200
    1TMC1    C614131   1.757   0.484  17.113 -0.4505  0.1218  0.5036
    1TMC1     C14132   1.808   0.076  17.215 -0.5008  0.7955  0.1588
    1TMC1     O14133   1.716   0.002  17.177  0.5257 -0.5082 -0.1883
    1TMC1     H14134   1.621   0.183  17.073 -0.6827  1.0659 -1.5462
    1TMC1    H114135   1.970   0.288  17.288 -0.3490 -2.2041 -0.6120
    1TMC1    H214136   1.742   0.589  17.096 -2.9497  0.1231  2.6579
    1TMC1    C714137   1.939   0.556  17.254  0.0592 -0.1968  0.3854
    1TMC1    C814138   1.550   0.423  17.000 -0.6315 -0.1203  0.6912
    1TMC1    O114139   1.901   0.675  17.262  0.2416  0.3558  0.3775
    1TMC1    O214140   1.497   0.534  16.994  0.2503 -0.6680  0.0351
    1TMC1    O314141   2.061   0.501  17.274  0.1120  0.3869  0.0036
    1TMC1    H314142   2.071   0.411  17.235 -1.0393  0.0294  0.5237
    1TMC1    O514143   1.564   0.335  16.894  0.3145  0.1338  0.0703
    1TMC1    H514144   1.649   0.287  16.888 -0.5939 -1.4026 -0.6742
    2MPD1     C14145   2.040   4.427  17.483 -0.5653 -0.5935 -0.2600
    2MPD1    C114146   2.131   4.525  17.471  0.1929  0.1401  0.4712
    2MPD1    C214147   2.094   4.643  17.401  0.1062 -0.8151  0.1212
    2MPD1    C314148   1.965   4.665  17.353 -0.4518  0.3115  0.6847
    2MPD1    C414149   1.871   4.573  17.386 -0.2448  0.2543  0.3267
    2MPD1    C514150   1.913   4.452  17.431  0.3715  0.2005  0.1502
    2MPD1     H14151   2.164   4.726  17.393  0.6149 -1.3325 -0.8725
    2MPD1    H114152   1.766   4.585  17.359  0.5862  0.0880 -2.9901
    2MPD1    H214153   2.064   4.337  17.538 -0.6993 -0.7056 -0.3853
    2MPD1    H314154   1.845   4.368  17.438 -1.5839  1.7211 -0.3204
    2MPD1     N14155   1.932   0.048  17.283 -0.2926 -0.5236 -0.4453
    2MPD1    H514156   2.010   0.111  17.272 -1.7095  1.4072  0.6191
    2MPD1    N114157   2.252   4.512  17.535  0.4070  0.0354 -0.2802
    2MPD1    H614158   2.275   4.418  17.564  1.4342 -0.2677 -2.0767
    2MPD1    H714159   2.330   4.553  17.484  0.4085 -0.2089 -0.4729
    1MPD1     C14160   4.036   1.714  11.469  0.5652  0.2064  0.4812
    1MPD1    C114161   4.102   1.790  11.563 -0.0945 -0.6828 -0.3231
    1MPD1    C214162   4.136   1.725  11.675  0.9121  0.0103  0.2785
    1MPD1    C314163   4.108   1.593  11.710 -0.6055  0.2192  0.4328
    1MPD1    C414164   4.040   1.527  11.614  0.1577  0.5184  0.4371
    1MPD1    C514165   4.011   1.582  11.490 -0.3422  0.1640  0.1109
    1MPD1     H14166   4.199   1.785  11.739  0.3166 -1.1968  1.9977
    1MPD1    H114167   4.038   1.419  11.616 -0.4173  0.4947 -1.8910
    1MPD1    H214168   4.010   1.760  11.374 -3.2745  1.0079  1.9402
    1MPD1    H314169   3.966   1.522  11.413 -0.0759  1.5739 -1.1378
    1MPD1     N14170   4.148   1.528  11.836 -0.4267  0.3516 -0.2042
    1MPD1    H514171   4.212   1.577  11.897 -0.9908  0.0008  0.6738
    1MPD1    N114172   4.141   1.924  11.530  0.0394  0.8211 -0.4703
    1MPD1    H614173   4.094   1.961  11.448 -0.2599  1.9690  0.2235
    1MPD1    H714174   4.127   1.991  11.606  2.0861  1.6120 -0.7984
    2MPD1     C14175   4.065   1.448  10.695  0.1895  0.6544  0.1108
    2MPD1    C114176   4.150   1.455  10.806  0.4587 -0.1033  0.5267
    2MPD1    C214177   4.198   1.340  10.862  0.3987 -0.7614  1.1044
    2MPD1    C314178   4.151   1.216  10.823  0.1750  0.0012  0.6323
    2MPD1    C414179   4.065   1.214  10.719 -0.4757  1.0000  0.3807
    2MPD1    C514180   4.020   1.326  10.654  0.1356  0.3685  0.2680
    2MPD1     H14181   4.285   1.353  10.925  0.9496  0.7384  0.0121
    2MPD1    H114182   4.041   1.118  10.673 -1.2982  1.2920  0.1952
    2MPD1    H214183   4.018   1.529  10.642 -1.6541 -1.3124 -1.2466
    2MPD1    H314184   3.949   1.318  10.572 -0.7146 -1.5851  1.2002
    2MPD1     N14185   4.202   1.093  10.873  1.0097 -0.0268  0.0843
    2MPD1    H514186   4.166   1.009  10.829  2.4811 -0.9558  0.6606
    2MPD1    N114187   4.217   1.573  10.841 -0.5396 -0.4176  0.7880
    2MPD1    H614188   4.242   1.571  10.940 -1.0787 -4.0363  0.8690
    2MPD1    H714189   4.162   1.657  10.825  1.7991  0.9707 -0.0324
    3MPD1     C14190   4.059   0.462  10.420  0.4279 -0.6564  0.7460
    3MPD1    C114191   4.031   0.597  10.443 -0.4941  0.1569 -0.2097
    3MPD1    C214192   4.079   0.652  10.554 -0.5293 -0.0914  0.9976
    3MPD1    C314193   4.145   0.567  10.649 -0.3344  0.2637  0.1762
    3MPD1    C414194   4.181   0.444  10.620 -0.6993 -0.6874 -0.3062
    3MPD1    C514195   4.132   0.385  10.509 -0.1672 -0.2572 -0.2930
    3MPD1     H14196   4.047   0.753  10.580  1.0822  0.8548 -0.7192
    3MPD1    H114197   4.263   0.395  10.671 -1.3871 -0.0783  1.3720
    3MPD1    H214198   4.013   0.419  10.332 -2.4906  0.6199  1.6639
    3MPD1    H314199   4.189   0.298  10.480  0.8133  0.8109 -1.6029
    3MPD1     N14200   4.191   0.638  10.765  0.5845  0.3389 -0.5356
    3MPD1    H514201   4.163   0.735  10.763  0.5582  0.3236 -0.8251
    3MPD1    N114202   3.977   0.682  10.337  0.4053 -0.6844  0.0571
    3MPD1    H614203   3.928   0.758  10.383 -0.3264 -1.1763  0.0953
    3MPD1    H714204   3.909   0.629  10.281 -0.6037 -0.8993  1.4914
    4MPD2     C14205   4.669   1.098  12.043  0.1530  0.2021  0.0439
    4MPD2    C114206   4.550   1.059  12.088  0.1473 -0.1662  0.6058
    4MPD2    C214207   4.526   0.927  12.115  1.4787 -0.5897 -0.6424
    4MPD2    C314208   4.619   0.836  12.065  0.0178  0.1773 -0.0141
    4MPD2    C414209   4.729   0.874  11.986  0.0287  0.4369  0.0635
    4MPD2    C514210   0.024   1.007  11.986  0.1692  0.1974 -0.0610
    4MPD2     H14211   4.438   0.897  12.171  2.0213 -0.7013  0.1499
    4MPD2    H114212   0.080   0.811  11.963  2.1239  3.5387 -0.7686
    4MPD2    H214213   4.708   1.199  12.049  0.7420  0.0041 -0.4169
    4MPD2    H314214   0.112   1.044  11.935  0.9912  0.8655  1.8556
    4MPD2     N14215   4.580   0.704  12.098 -0.0460 -0.0336 -0.1443
    4MPD2    H514216   4.486   0.691  12.134 -0.3660  0.2114 -0.8993
    4MPD2    N114217   4.445   1.148  12.130  1.6406 -0.6327 -0.2188
    4MPD2    H714218   4.356   1.110  12.160  0.3736  2.4645 -0.0398
    5TMC3    C114219   4.322   1.340  12.146 -0.0850  0.2211  0.1803
    5TMC3    C214220   4.266   1.422  12.043 -0.4444  0.0840 -0.2148
    5TMC3    C314221   4.133   1.397  12.023 -0.0867  0.4586 -0.4960
    5TMC3    C414222   4.252   1.248  12.219  0.3076  0.3100 -1.0115
    5TMC3    C514223   4.125   1.224  12.178  0.3046  0.3739 -0.4228
    5TMC3    C614224   4.069   1.295  12.083  0.8133 -0.2391  0.0372
    5TMC3     C14225   4.450   1.283  12.111  0.1451 -0.0292 -0.1475
    5TMC3     O14226   4.537   1.347  12.054  0.0804  0.3884  0.5890
    5TMC3     H14227   4.337   1.489  11.995 -0.1248  0.2112  0.4432
    5TMC3    H114228   4.301   1.205  12.306  0.8019 -0.1346 -1.5049
    5TMC3    H214229   3.969   1.261  12.057 -0.1765  2.6509  0.0392
    5TMC3    C714230   4.109   1.080  12.170  0.2604  0.1716 -0.1800
    5TMC3    C814231   4.083   1.418  11.885  0.8825 -0.5978  0.4427
    5TMC3    O114232   4.208   1.018  12.189 -0.2074  0.2612  0.6310
    5TMC3    O214233   3.982   1.364  11.843  0.3840  0.1428  0.3396
    6TMC3    C114234   4.335   0.941  10.998 -0.3879 -0.6207 -0.6312
    6TMC3    C214235   4.298   0.845  10.914 -0.5807  0.5050  0.4666
    6TMC3    C314236   4.323   0.709  10.945 -0.5971 -0.0398  0.1815
    6TMC3    C414237   4.396   0.913  11.118  0.9578  0.0415  0.5829
    6TMC3    C514238   4.417   0.779  11.142 -0.1245 -0.2600 -0.4442
    6TMC3    C614239   4.385   0.675  11.064 -0.3719  0.1720  0.4512
    6TMC3     C14240   4.301   1.079  10.971 -0.2364 -0.5555 -0.0355
    6TMC3     O14241   4.341   1.169  11.047  0.4541 -0.0674 -0.7062
    6TMC3     H14242   4.263   0.865  10.813 -1.2506 -0.6070  0.4719
    6TMC3    H114243   4.444   0.988  11.179  0.3727  0.9469 -0.0790
    6TMC3    H214244   4.400   0.573  11.097 -1.7691 -0.2170 -0.1433
    6TMC3    C714245   4.437   0.739  11.278  0.1058  0.5845  0.0444
    6TMC3    C814246   4.279   0.595  10.860  0.0140  0.3057  0.3129
    6TMC3    O114247   4.455   0.620  11.306  0.2457 -0.3314  0.2216
    6TMC3    O214248   4.331   0.483  10.883  0.0608 -0.2354  0.5499
    7MPD2     C14249   3.936   0.633  11.969  0.0371 -0.1220 -0.1182
    7MPD2    C114250   4.048   0.663  12.045 -0.2784  0.3562  0.0676
    7MPD2    C214251   4.066   0.788  12.089 -0.2301  0.0601 -0.4222
    7MPD2    C314252   3.977   0.891  12.064  0.0032  0.2316 -0.3572
    7MPD2    C414253   3.871   0.856  11.977  0.1337  0.0660 -0.1837
    7MPD2    C514254   3.848   0.734  11.931 -0.1992  0.4638  0.2442
    7MPD2     H14255   4.147   0.814  12.156 -0.5138  0.2708 -0.1648
    7MPD2    H114256   3.806   0.935  11.940  1.2555  1.2554  0.4100
    7MPD2    H214257   3.926   0.531  11.933  1.4275 -0.4830  0.4818
    7MPD2    H314258   3.756   0.721  11.875  0.4617  1.2059 -1.0169
    7MPD2     N14259   3.995   1.021  12.111 -0.1894 -0.5663 -0.4001
    7MPD2    H514260   3.912   1.079  12.099 -1.1503 -1.5981  1.0901
    7MPD2    N114261   4.140   0.559  12.068  0.1833  0.7843 -0.7388
    7MPD2    H714262   4.116   0.467  12.031  1.7818  0.1052 -0.0759
    8TMC3    C114263   4.345   0.453  12.106 -0.4301 -0.2487  0.0599
    8TMC3    C214264   4.320   0.414  11.974  0.1080 -0.0578 -0.1992
    8TMC3    C314265   4.435   0.401  11.893 -0.2595  0.5529  0.3574
    8TMC3    C414266   4.475   0.471  12.158 -0.1791 -0.9243  0.7815
    8TMC3    C514267   4.579   0.463  12.072  0.4039  0.5935  1.1791
    8TMC3    C614268   4.557   0.412  11.947 -0.4014 -0.7448  0.2637
    8TMC3     C14269   4.262   0.564  12.137 -0.3737 -0.1597  0.6752
    8TMC3     O14270   4.316   0.660  12.195  0.1561 -0.6388  0.5865
    8TMC3     H14271   4.226   0.388  11.927 -1.1450  3.2983  0.4549
    8TMC3    H114272   4.485   0.504  12.260  1.3811 -0.0041  0.3325
    8TMC3    H214273   4.639   0.429  11.878 -0.8616 -2.2580 -0.6511
    8TMC3    C714274   4.655   0.589  12.062 -0.5569 -0.0729  0.3657
    8TMC3    C814275   4.424   0.471  11.770  0.1010 -0.5902  0.6167
    8TMC3    O114276   0.038   0.583  12.024 -0.2470 -0.6148  0.4633
    8TMC3    O214277   4.511   0.452  11.679  0.4056 -0.2631 -0.1458
    9MPD2     C14278   4.309   0.819  11.760  0.5131  0.2501 -0.1993
    9MPD2    C114279   4.353   0.699  11.698  0.5170  0.4457  0.4700
    9MPD2    C214280   4.393   0.701  11.567 -0.2733  0.1914  0.4383
    9MPD2    C314281   4.399   0.827  11.508 -0.3376 -1.1678  0.4087
    9MPD2    C414282   4.360   0.943  11.571  0.2758 -0.1719  0.7260
    9MPD2    C514283   4.322   0.941  11.698 -0.1583  0.4081  0.0233
    9MPD2     H14284   4.428   0.606  11.530  0.8455  0.7507  0.0588
    9MPD2    H114285   4.360   1.041  11.525 -0.5880 -0.5920 -0.1817
    9MPD2    H214286   4.280   0.814  11.864 -0.1081 -1.2878 -0.4404
    9MPD2    H314287   4.275   1.020  11.756 -1.4195 -0.4077  0.1156
    9MPD2     N14288   4.422   0.845  11.368 -0.2536  0.3047  0.2253
    9MPD2    H514289   4.426   0.942  11.338 -1.0456  0.5986  1.0456
    9MPD2    N114290   4.345   0.584  11.786 -0.1550 -0.7444  0.2924
    9MPD2    H714291   4.285   0.594  11.867 -1.1401 -1.7734 -0.3083
    1MPD1     C14292   0.542   0.016  16.143 -0.5178 -0.4546 -0.3326
    1MPD1    C114293   0.411   0.047  16.124 -0.4111 -1.2405  0.2379
    1MPD1    C214294   0.336   0.071  16.240 -0.2882 -0.4832  0.2455
    1MPD1    C314295   0.389   0.045  16.365  1.0289 -1.0712 -0.0999
    1MPD1    C414296   0.513   4.724  16.379  0.0183 -0.3705 -0.1918
    1MPD1    C514297   0.589   4.706  16.267 -0.1491 -0.0901 -0.0145
    1MPD1     H14298   0.231   0.087  16.217  0.0589  1.2332 -0.1861
    1MPD1    H114299   0.547   4.687  16.475 -1.6078 -2.2839 -0.3424
    1MPD1    H214300   0.601   0.016  16.052  1.4834  1.1709  0.9436
    1MPD1    H314301   0.682   4.652  16.285 -0.1569 -0.4048 -0.9220
    1MPD1     N14302   0.306   0.052  16.478 -0.1477 -0.1042 -0.4405
    1MPD1    H514303   0.354   0.022  16.563 -2.4167 -0.0610  0.8471
    1MPD1    N114304   0.361   0.089  15.997 -0.2867 -0.0176  0.1498
    1MPD1    H614305   0.410   0.045  15.920 -1.2492 -3.4459  1.4607
    1MPD1    H714306   0.261   0.072  15.995  0.2037 -2.6619 -1.1548
    2TMC2    C114307   4.664   0.069  16.740  0.0916  0.3755  0.0727
    2TMC2    C214308   4.733   0.088  16.857  0.2444  0.5995  0.1377
    2TMC2    C314309   0.135   0.111  16.847 -0.0030 -0.7020  0.5671
    2TMC2    C414310   4.719   0.082  16.615  0.3737 -0.0228  0.0942
    2TMC2    C514311   0.119   0.098  16.612  0.0784 -0.0496  0.3214
    2TMC2    C614312   0.200   0.101  16.726 -0.7434  0.1204 -0.7380
    2TMC2     C14313   4.544   0.005  16.753 -0.1607  0.1518 -0.1464
    2TMC2     O14314   4.494   0.006  16.867  0.2248  0.1984  0.6762
    2TMC2     H14315   4.682   0.097  16.952 -2.5815 -0.8350 -1.2570
    2TMC2    H114316   4.661   0.061  16.526 -0.5031 -1.4113  0.9805
    2TMC2    H214317   0.302   0.136  16.722 -0.0776 -1.3993  3.1413
    2TMC2    C714318   0.176   0.102  16.479 -0.1905  0.3574  0.3999
    2TMC2    C814319   0.211   0.185  16.946 -0.0751  0.9106 -0.0062
    2TMC2    O114320   0.098   0.155  16.395 -0.0536  0.0605 -0.3435
    2TMC2    O214321   0.335   0.192  16.945 -0.2120  0.2909  0.4466
    2TMC2    O514322   0.127   0.233  17.035 -0.0555  0.2958  0.0392
    2TMC2    H514323   0.038   0.250  16.998  0.8746  1.9813 -1.4170
    3MPD1     C14324   4.209   4.355  16.639 -0.2862  0.9153 -0.5412
    3MPD1    C114325   4.281   4.389  16.525  0.4581 -0.6345 -0.7761
    3MPD1    C214326   4.385   4.484  16.536  0.7761  0.7145 -0.0599
    3MPD1    C314327   4.417   4.554  16.650 -0.0889  0.0381 -0.5056
    3MPD1    C414328   4.345   4.515  16.765 -0.3553 -0.0564 -0.0040
    3MPD1    C514329   4.243   4.421  16.752 -0.3200  0.7226 -0.0823
    3MPD1     H14330   4.438   4.517  16.447 -1.4268  0.1448 -1.5773
    3MPD1    H114331   4.343   4.561  16.863  0.8504 -0.8830  0.4045
    3MPD1    H214332   4.124   4.289  16.634  0.8900 -0.8398  2.6732
    3MPD1    H314333   4.193   4.382  16.840  0.4261 -1.4738 -0.6358
    3MPD1     N14334   4.512   4.661  16.647  0.8813 -0.3870  0.4113
    3MPD1    H514335   4.562   4.667  16.559  0.6553  0.9131  0.3803
    3MPD1    N114336   4.265   4.325  16.405 -0.5101 -0.2200  0.0517
    3MPD1    H614337   4.307   4.372  16.325 -2.8939  1.3464 -0.3164
    3MPD1    H714338   4.168   4.304  16.380 -0.5557 -1.0074  0.8823
    1TMC1    C114339   2.412   3.225  13.016  0.0231  0.0586  0.4572
    1TMC1    C214340   2.345   3.148  13.109  0.2944  0.5096 -0.5367
    1TMC1    C314341   2.278   3.038  13.075  0.4432 -0.5517 -0.0770
    1TMC1    C414342   2.402   3.194  12.887 -0.4192 -0.0452  0.1428
    1TMC1    C514343   2.340   3.074  12.861  0.0789  0.9513  0.1716
    1TMC1    C614344   2.272   2.996  12.949 -0.0478  0.5994 -0.2969
    1TMC1     C14345   2.471   3.351  13.055  0.2085 -0.3930 -0.4897
    1TMC1     O14346   2.482   3.433  12.965 -0.1301  0.1631 -0.2890
    1TMC1     H14347   2.320   3.185  13.207  2.3595  0.0717  0.1520
    1TMC1    H114348   2.443   3.267  12.817  0.2428 -2.2255 -1.7632
    1TMC1    H214349   2.220   2.905  12.924  0.5829  0.2996 -0.5175
    1TMC1    C714350   2.339   3.026  12.729 -0.6397 -0.1795 -0.3058
    1TMC1    C814351   2.217   2.959  13.180 -0.4082  0.2847 -0.6585
    1TMC1    O114352   2.261   2.943  12.684  0.3078 -0.6962  0.2740
    1TMC1    O214353   2.159   3.012  13.273  0.4211 -0.8183  0.4571
    1TMC1    O314354   2.469   3.034  12.694 -0.1948 -0.1644 -0.0971
    1TMC1    H314355   2.520   3.077  12.766  0.9219  0.0435 -1.0040
    1TMC1    O514356   2.231   2.827  13.151  0.2719  0.4013  0.2490
    1TMC1    H514357   2.283   2.804  13.072  1.0910  0.8518  0.6577
    2MPD2     C14358   2.604   3.582  13.191 -0.6898  0.0361  0.1370
    2MPD2    C114359   2.598   3.450  13.238  0.6585 -0.1174 -0.0379
    2MPD2    C214360   2.687   3.425  13.339  0.4975 -0.3194 -0.3282
    2MPD2    C314361   2.765   3.515  13.396 -0.6068 -0.0918  0.0835
    2MPD2    C414362   2.761   3.645  13.346  0.2436  0.3209  0.3178
    2MPD2    C514363   2.683   3.674  13.242  0.3121  0.3587 -0.2865
    2MPD2     H14364   2.687   3.326  13.384 -0.9629 -0.3460 -0.3944
    2MPD2    H114365   2.836   3.713  13.384  1.4078 -0.3254 -0.7930
    2MPD2    H214366   2.531   3.617  13.118 -1.6255 -0.5501  0.7793
    2MPD2    H314367   2.687   3.776  13.206 -1.6113  1.6567  3.2542
    2MPD2     N14368   2.861   3.469  13.493  0.3768 -0.8123 -0.6423
    2MPD2    H514369   2.852   3.369  13.512 -0.5422 -0.4725  0.6288
    2MPD2    N114370   2.521   3.347  13.180 -0.4599  0.4024 -0.1197
    2MPD2    H714371   2.511   3.257  13.227  2.4727  1.1226  1.8597
    3TCq1    O114372   2.880   3.485  14.027  0.2732 -0.0635 -0.5667
    3TCq1    C114373   3.006   3.439  14.031 -0.4326  0.5392 -0.1351
    3TCq1    O214374   3.063   3.396  14.129 -0.5159 -0.7223 -0.2252
    3TCq1    C214375   3.048   3.427  13.892 -0.2134 -0.4379  0.3845
    3TCq1    C314376   3.088   3.303  13.857  0.2952  0.3298  0.0019
    3TCq1    C414377   3.097   3.277  13.719 -0.5508 -0.1662  0.5147
    3TCq1    C514378   3.068   3.364  13.627  0.3287 -0.1865 -0.6834
    3TCq1    C614379   3.016   3.481  13.675  0.5982  0.1401  0.9121
    3TCq1    C714380   3.006   3.516  13.802 -0.0532 -1.2596 -0.1028
    3TCq1    C814381   2.932   3.548  13.581  0.5475 -0.1758 -0.4480
    3TCq1    O414382   2.921   3.670  13.590  0.0979 -0.0705 -0.3036
    3TCq1    C914383   3.163   3.154  13.675 -0.3558  0.8307 -0.4700
    3TCq1    O514384   3.168   3.139  13.553  0.1940 -0.3774 -0.1968
    3TCq1    O614385   3.200   3.074  13.762  0.1505 -0.0416  0.0711
    3TCq1    H114386   2.850   3.500  13.935 -0.9156 -1.0444 -0.3473
    3TCq1    H214387   3.115   3.229  13.931  0.1678  0.0110 -0.2702
    3TCq1    H314388   3.072   3.342  13.521 -0.4096  0.1396 -0.7844
    3TCq1    H414389   2.980   3.616  13.835 -0.6982 -1.1136 -1.0446
    1MPD2     C14390   2.074   0.425  15.212 -0.6705 -0.4705  0.6873
    1MPD2    C114391   1.990   0.366  15.125 -0.4943  0.8508  0.3286
    1MPD2    C214392   2.015   0.240  15.078  0.0177 -1.2107  0.1544
    1MPD2    C314393   2.128   0.172  15.122  0.0841  0.1443 -0.6602
    1MPD2    C414394   2.226   0.240  15.193 -0.4626  0.4487 -0.2676
    1MPD2    C514395   2.191   0.365  15.239  0.2000 -1.0367 -0.3899
    1MPD2     H14396   1.948   0.190  15.009  1.6931 -0.9886 -1.6294
    1MPD2    H114397   2.330   0.215  15.209 -0.4946  2.3608  2.8028
    1MPD2    H214398   2.047   0.518  15.261 -0.5659  1.7199 -3.4208
    1MPD2    H314399   2.267   0.416  15.297 -0.5648  0.4116 -0.6614
    1MPD2     N14400   2.143   0.037  15.088  0.0403  0.7536 -0.1772
    1MPD2    H514401   2.061   4.731  15.043  1.1010 -3.9742  2.1103
    1MPD2    N114402   1.854   0.419  15.117  0.2956  0.0966 -0.5362
    1MPD2    H714403   1.840   0.518  15.132 -2.6876 -0.2576 -1.0136
    2TMC3    C114404   1.624   0.417  15.067 -0.0688  0.1007  0.2150
    2TMC3    C214405   1.516   0.346  15.094  0.2463 -0.7952 -1.0045
    2TMC3    C314406   1.413   0.341  15.004  0.3055 -0.8326 -0.5423
    2TMC3    C414407   1.632   0.494  14.957 -0.4786 -1.0064 -0.1361
    2TMC3    C514408   1.521   0.500  14.876  0.8168  0.1651 -0.0144
    2TMC3    C614409   1.415   0.421  14.897  1.0086 -0.0878  0.2440
    2TMC3     C14410   1.744   0.338  15.095 -0.1653  0.1701 -0.9873
    2TMC3     O14411   1.727   0.219  15.103 -0.1234 -0.6248 -0.5919
    2TMC3     H14412   1.513   0.292  15.188 -1.1786  0.4100 -0.3449
    2TMC3    H114413   1.714   0.564  14.948 -1.4371  0.4571  2.6756
    2TMC3    H214414   1.339   0.405  14.821  2.6045 -0.4673 -1.2668
    2TMC3    C714415   1.502   0.606  14.781 -0.0447  0.3080 -0.1032
    2TMC3    C814416   1.373   0.208  14.969 -0.3217 -0.5349  0.5632
    2TMC3    O114417   1.387   0.632  14.752  0.1775  0.1743  0.0342
    2TMC3    O214418   1.263   0.186  14.927 -0.0427  0.0926 -0.3786
    3TCq1    O114419   2.440   1.133  14.250  0.7290  1.1648  0.1632
    3TCq1    C114420   2.329   1.198  14.194 -0.4017 -0.2486 -0.2710
    3TCq1    O214421   2.294   1.174  14.080 -0.8388  0.3427 -0.4275
    3TCq1    C214422   2.236   1.196  14.298  0.1639  0.5709  0.4512
    3TCq1    C314423   2.269   1.230  14.425  0.4909 -0.5353  0.4670
    3TCq1    C414424   2.188   1.195  14.528  0.0511 -0.3635 -0.4324
    3TCq1    C514425   2.063   1.147  14.503  0.1954  0.4581  1.0109
    3TCq1    C614426   2.025   1.118  14.374  0.3942 -0.3058  0.0973
    3TCq1    C714427   2.112   1.143  14.267 -0.0397  0.1898 -0.2856
    3TCq1    C814428   1.919   1.021  14.355 -0.0707  0.2330 -0.0917
    3TCq1    O414429   1.882   1.000  14.242 -0.3359 -0.3284  0.4231
    3TCq1    C914430   2.225   1.230  14.666  0.2014  0.8402  0.2504
    3TCq1    O514431   2.336   1.292  14.686 -0.0003 -0.3359  0.1968
    3TCq1    O614432   2.140   1.208  14.758  0.0303 -0.4143  0.4787
    3TCq1    H114433   2.451   1.123  14.347  0.0709 -3.0866 -0.2071
    3TCq1    H214434   2.357   1.292  14.439 -0.1620 -0.0756  2.4963
    3TCq1    H314435   1.989   1.130  14.580 -0.4833  0.1988  0.2909
    3TCq1    H414436   2.088   1.106  14.168 -1.2616  0.3454 -0.0474
    4MPD2     C14437   1.664   0.893  14.394 -0.6363  0.9527  0.3177
    4MPD2    C114438   1.758   0.897  14.492  0.8549 -0.3095  0.2877
    4MPD2    C214439   1.740   0.822  14.609 -0.0103 -0.6917 -1.0946
    4MPD2    C314440   1.631   0.735  14.622  0.4650  0.7627  0.3522
    4MPD2    C414441   1.530   0.746  14.534  0.0350 -0.1469 -0.4042
    4MPD2    C514442   1.545   0.820  14.418 -0.3560 -0.0451 -0.3541
    4MPD2     H14443   1.823   0.824  14.678  1.5629 -0.2142 -3.0139
    4MPD2    H114444   1.433   0.700  14.551 -0.3088  0.8558  0.3014
    4MPD2    H214445   1.670   0.938  14.295 -1.4471 -0.2423 -0.2669
    4MPD2    H314446   1.475   0.820  14.335 -0.0216 -0.3616 -0.6324
    4MPD2     N14447   1.620   0.656  14.738 -0.0314 -0.0530  0.5174
    4MPD2    H514448   1.706   0.634  14.788 -0.1978 -0.8277  0.4631
    4MPD2    N114449   1.884   0.962  14.474 -0.2156  0.5548 -0.0609
    4MPD2    H714450   1.941   0.995  14.551 -1.3287  1.4404  0.3784
    5TMC2    C114451   1.997   4.464  15.056 -0.4175  0.0329 -0.0025
    5TMC2    C214452   1.980   4.404  15.170 -0.0442  0.2849 -0.8621
    5TMC2    C314453   2.081   4.414  15.256 -0.6138 -0.2723  0.8872
    5TMC2    C414454   2.112   4.535  15.018 -0.1343  0.5089  0.2369
    5TMC2    C514455   2.213   4.550  15.108 -0.0709  0.5259 -0.1757
    5TMC2    C614456   2.202   4.481  15.227 -0.2634  0.0648 -0.3028
    5TMC2     C14457   1.886   4.542  15.013 -0.2581 -0.9174 -0.1556
    5TMC2     O14458   1.917   4.657  14.985 -0.5768  0.8075 -0.6082
    5TMC2     H14459   1.882   4.378  15.209  0.1549  1.6231  0.5189
    5TMC2    H114460   2.116   4.590  14.925 -0.5691  2.0740  1.1388
    5TMC2    H214461   2.279   4.494  15.303  0.0175 -0.6260 -0.4665
    5TMC2    C714462   2.244   4.690  15.133 -0.6536 -0.2472 -0.8170
    5TMC2    C814463   2.050   4.371  15.390  0.8944  0.4472 -0.0360
    5TMC2    O114464   2.330   4.716  15.217 -0.7730  0.8918 -0.0813
    5TMC2    O214465   1.933   4.358  15.437 -0.5159 -0.1589 -0.2435
    5TMC2    O514466   2.156   4.290  15.429 -0.1489 -0.3309  0.3191
    5TMC2    H514467   2.244   4.309  15.388  0.5532 -2.6429  0.6990
    6MPD2     C14468   1.400   4.659  14.894  0.3206  0.7915  0.2937
    6MPD2    C114469   1.503   4.732  14.944 -0.2458  0.0575 -0.9775
    6MPD2    C214470   1.621   4.671  14.971  0.5614 -0.1435  0.2340
    6MPD2    C314471   1.645   4.535  14.969 -1.4235 -0.6282 -0.6044
    6MPD2    C414472   1.534   4.458  14.929  0.5206  0.1218  0.2190
    6MPD2    C514473   1.413   4.518  14.889 -0.2858 -0.1529  0.3279
    6MPD2     H14474   1.703   0.005  14.993  2.5334 -2.3928 -0.1887
    6MPD2    H114475   1.538   4.351  14.944 -1.6396  0.1571  1.1343
    6MPD2    H214476   1.307   4.702  14.859 -0.1775 -1.6801 -1.4475
    6MPD2    H314477   1.335   4.455  14.847 -0.2515 -1.2301  1.8631
    6MPD2     N14478   1.767   4.473  15.010 -0.0178 -0.2090  0.3157
    6MPD2    H514479   1.764   4.374  15.031  0.1291 -0.6717 -1.8599
    6MPD2    N114480   1.487   0.137  14.975 -0.2717  0.4228 -0.1454
    6MPD2    H714481   1.564   0.188  15.017  1.9828 -3.2157  0.2003
  945NH4     N114482   0.603   1.348   0.516  0.0005  0.0705  0.6326
  945NH4     H214483   0.652   1.259   0.494 -1.9989 -1.1555  1.2106
  945NH4     H314484   0.615   1.378   0.615  1.6337 -0.6057  0.6426
  945NH4     H414485   0.500   1.338   0.506  0.2088 -1.2414 -0.1518
  945NH4     H514486   0.623   1.418   0.442  1.8739  1.6262  2.5991
  946SOD     NA14487   1.442   3.516  13.236 -0.0019  0.0469  0.4476
  947SOD     NA14488   3.033   2.502  14.438  0.2917  0.4245 -0.3123
  948SOD     NA14489   3.624   1.975  12.837 -0.0072 -0.2930  0.2965
  949SOD     NA14490   3.487   2.109  16.835 -0.2231  0.1544 -0.0384
  950SOD     NA14491   1.510   3.625   8.692  0.5783 -0.5218  0.4631
  951SOD     NA14492   2.372   1.246  13.890  0.5475 -0.1912 -0.0132
  952SOD     NA14493   3.075   3.135   7.973  0.0535 -0.1618  0.1286
  953SOL     OW14494   4.085   4.706   6.087  0.0727  0.2251 -0.3357
  953SOL    HW114495   4.078   4.730   5.995 -1.3019 -2.5658 -0.9522
  953SOL    HW214496   4.132   0.051   6.115  0.0908 -0.4044  1.4002
  954SOL     OW14497   3.416   1.126   5.110  0.3204  0.1997  0.0860
  954SOL    HW114498   3.410   1.100   5.018 -1.0749  0.7034  0.0292
  954SOL    HW214499   3.344   1.070   5.140  1.8127 -0.5920  2.1294
  955SOL     OW14500   3.756   1.771  12.875  0.2414  0.1055  0.4256
  955SOL    HW114501   3.825   1.794  12.938 -1.2019 -0.1145  2.1042
  955SOL    HW214502   3.768   1.676  12.873  1.2196  0.2115  1.1212
  956SOL     OW14503   1.571   0.811  12.440 -0.1975 -0.1337  0.0952
  956SOL    HW114504   1.515   0.743  12.478 -1.1003  1.0906  0.9333
  956SOL    HW214505   1.658   0.779  12.462  1.3986  2.6324 -2.2296
  957SOL     OW14506   3.646   1.341   8.784 -0.2478  0.5115 -0.4983
  957SOL    HW114507   3.656   1.430   8.750  0.3178  1.2021  1.4564
  957SOL    HW214508   3.734   1.325   8.818 -0.0282  2.5547 -0.1097
  958SOL     OW14509   0.409   2.880  16.904  0.1984 -0.6892 -0.1700
  958SOL    HW114510   0.464   2.944  16.859  1.4682 -0.6381  1.4353
  958SOL    HW214511   0.349   2.868  16.831  1.9200 -1.6631 -1.4356
  959SOL     OW14512   4.205   2.495   7.409  0.6946  0.2020  0.0494
  959SOL    HW114513   4.216   2.425   7.344  0.6487 -1.6688  2.0487
  959SOL    HW214514   4.133   2.457   7.459 -0.3627 -1.8462 -3.0511
  960SOL     OW14515   3.295   3.636  17.411  0.8241 -0.0092 -0.4208
  960SOL    HW114516   3.343   3.590  17.342  2.1821 -0.1935  0.6724
  960SOL    HW214517   3.214   3.660  17.365  0.9048  2.2560  0.6551
  961SOL     OW14518   4.425   2.204   4.095 -0.7600  0.1856  0.0207
  961SOL    HW114519   4.391   2.115   4.105  0.0157 -0.1422 -0.2621
  961SOL    HW214520   4.516   2.199   4.124 -0.5489 -4.2458 -1.4177
  962SOL     OW14521   0.441   2.255  12.679  0.5946  0.1513  0.5609
  962SOL    HW114522   0.372   2.312  12.646  2.4025  1.4961 -0.8636
  962SOL    HW214523   0.439   2.171  12.633 -0.1347 -0.5300  1.8404
  963SOL     OW14524   1.855   2.418  11.171  0.9252  0.0973  0.1538
  963SOL    HW114525   1.935   2.399  11.220 -0.0664 -1.2354  1.2710
  963SOL    HW214526   1.818   2.455  11.251  0.1672 -0.5068  0.0825
  964SOL     OW14527   1.426   3.475  13.725  0.3371  0.4254  0.0523
  964SOL    HW114528   1.370   3.500  13.798  1.4226  0.9053  0.7276
  964SOL    HW214529   1.495   3.428  13.771  2.3357  1.9145 -1.3718
  965SOL     OW14530   2.113   3.881   2.589  0.3726 -0.5167  0.1750
  965SOL    HW114531   2.082   3.792   2.607 -1.3861  0.0490 -0.0730
  965SOL    HW214532   2.104   3.914   2.679  4.0406 -0.4508  0.5042
  966SOL     OW14533   4.428   4.474  12.495 -0.1434 -0.1288 -0.3019
  966SOL    HW114534   4.476   4.413  12.439  1.2751  1.8614 -1.2560
  966SOL    HW214535   4.344   4.429  12.497 -0.6917  0.9554  0.7503
  967SOL     OW14536   4.219   2.291  13.756  0.7033 -0.2729 -0.3907
  967SOL    HW114537   4.291   2.267  13.814  0.2981 -1.5324 -0.4078
  967SOL    HW214538   4.146   2.249  13.803 -0.5638  1.7099 -0.5954
  968SOL     OW14539   1.792   0.085   4.083 -0.0341  0.4288  0.4620
  968SOL    HW114540   1.755   0.085   4.171 -1.6619  0.7288 -0.2191
  968SOL    HW214541   1.716   0.105   4.027  0.6016  0.2338 -0.4679
  969SOL     OW14542   3.208   1.401   5.378  0.2286 -0.1627 -0.2844
  969SOL    HW114543   3.237   1.451   5.453 -2.8489  2.8801 -1.1321
  969SOL    HW214544   3.181   1.324   5.428  0.8051 -0.4231 -0.3816
  970SOL     OW14545   0.923   1.865   8.448  0.2402 -0.0071 -0.6946
  970SOL    HW114546   0.848   1.904   8.403  1.3346  1.1511 -1.5234
  970SOL    HW214547   0.956   1.807   8.379  1.8125 -0.7020  0.6537
  971SOL     OW14548   3.097   0.029  17.244  0.5903 -0.6403 -0.0483
  971SOL    HW114549   3.008   0.004  17.271  0.3043 -0.1039 -0.4816
  971SOL    HW214550   3.113   4.693  17.181  0.5031  0.4857 -1.3238
  972SOL     OW14551   3.665   0.840   2.153  0.3921  0.7556 -0.2645
  972SOL    HW114552   3.710   0.923   2.133  1.7964 -0.0788 -0.5694
  972SOL    HW214553   3.652   0.806   2.065 -0.9760 -0.4333  0.3986
  973SOL     OW14554   0.615   3.781  12.879  0.1823  0.1425 -0.3977
  973SOL    HW114555   0.704   3.808  12.901  0.1560 -1.1071  1.2723
  973SOL    HW214556   0.586   3.859  12.832 -1.1572  0.5097  1.0346
  974SOL     OW14557   2.218   3.156   8.825 -0.0552  0.0364  0.0005
  974SOL    HW114558   2.289   3.127   8.883 -0.9404 -0.2171  0.9662
  974SOL    HW214559   2.208   3.081   8.767  2.8144  0.7209 -1.4036
  975SOL     OW14560   4.476   2.216  11.190 -0.3024  0.0782 -0.5151
  975SOL    HW114561   4.473   2.121  11.196 -1.6123  0.1326 -0.3446
  975SOL    HW214562   4.507   2.234  11.279 -0.1703 -2.1206 -0.1179
  976SOL     OW14563   3.260   2.852   6.799 -0.3762  0.0192  0.4274
  976SOL    HW114564   3.187   2.794   6.820 -0.4135  0.3631  1.2264
  976SOL    HW214565   3.278   2.886   6.886  0.0122 -2.0250  1.1436
  977SOL     OW14566   3.172   1.890   9.044 -0.4588  0.1712 -0.4716
  977SOL    HW114567   3.253   1.839   9.056  0.2872  1.3668 -0.4312
  977SOL    HW214568   3.112   1.823   9.010  2.5379 -3.0808  0.6629
  978SOL     OW14569   3.353   1.243   3.967  0.3534 -0.2978  0.3710
  978SOL    HW114570   3.373   1.194   3.887 -0.0472 -0.6865  0.5067
  978SOL    HW214571   3.415   1.198   4.024 -1.4658 -0.2706  2.3779
  979SOL     OW14572   1.037   3.862   3.799  0.8608 -0.6860  0.6946
  979SOL    HW114573   1.014   3.894   3.886 -0.9885  0.4815 -0.2261
  979SOL    HW214574   0.947   3.837   3.777  0.2690  1.4681  0.7199
  980SOL     OW14575   2.756   3.233  11.135  0.2678  0.0554 -0.7181
  980SOL    HW114576   2.680   3.175  11.136  1.7178 -1.8226  1.0445
  980SOL    HW214577   2.722   3.295  11.199  1.5999 -0.9385  0.9387
  981SOL     OW14578   1.812   1.051   8.078  0.1851  0.3696  0.0138
  981SOL    HW114579   1.879   1.033   8.012  0.5330 -2.8140  1.2679
  981SOL    HW214580   1.868   1.038   8.154 -1.7895 -0.4281  1.3354
  982SOL     OW14581   1.301   2.655   5.678  0.1673 -0.0770  0.4168
  982SOL    HW114582   1.393   2.682   5.677  0.4264 -0.8829  2.4475
  982SOL    HW214583   1.316   2.562   5.692  1.2882  0.4093  2.3523
  983SOL     OW14584   0.694   3.782   8.849  0.3861  0.0447 -0.2501
  983SOL    HW114585   0.718   3.742   8.932  0.9200  1.3481  0.2291
  983SOL    HW214586   0.605   3.748   8.850  0.3837  0.0750  0.6781
  984SOL     OW14587   1.976   0.957   1.308 -0.5444  0.4605  0.2997
  984SOL    HW114588   1.956   1.029   1.368  2.5040  0.2203  1.5994
  984SOL    HW214589   2.044   1.001   1.257  2.1365  0.2915  3.7121
  985SOL     OW14590   4.461   0.594   0.946 -0.1275 -0.3587 -0.6973
  985SOL    HW114591   4.469   0.509   0.903 -2.4801 -1.0988  0.3160
  985SOL    HW214592   4.460   0.554   1.033  1.8351  0.1450 -0.4395
  986SOL     OW14593   0.733   0.307   7.466  0.0454  0.1827 -0.0999
  986SOL    HW114594   0.648   0.348   7.449  0.1924  1.2801  1.8235
  986SOL    HW214595   0.748   0.302   7.560  1.9626  1.0422 -0.3679
  987SOL     OW14596   0.988   0.483   4.345  0.2763  0.3270  0.6524
  987SOL    HW114597   0.904   0.476   4.301  0.7036  0.7289 -0.2297
  987SOL    HW214598   0.970   0.414   4.409 -1.2010 -0.0501 -0.1988
  988SOL     OW14599   4.380   2.528   7.977  0.0748 -0.1187 -0.3157
  988SOL    HW114600   4.328   2.555   7.901 -1.0400  2.9196  1.5725
  988SOL    HW214601   4.418   2.442   7.955 -0.7355 -0.3298 -0.9278
  989SOL     OW14602   0.762   1.474   2.936  0.2715  0.3774 -0.0462
  989SOL    HW114603   0.690   1.469   2.873  0.4486 -3.1616  0.0296
  989SOL    HW214604   0.832   1.520   2.892 -0.2806  0.7077 -0.5692
  990SOL     OW14605   2.671   4.124   5.619  0.0014  0.1928 -0.1783
  990SOL    HW114606   2.646   4.206   5.662 -1.2675  0.3366 -1.1895
  990SOL    HW214607   2.748   4.148   5.567 -0.4019 -1.2993 -1.4578
  991SOL     OW14608   1.542   2.825   7.057 -0.1899 -0.4641  0.3022
  991SOL    HW114609   1.497   2.845   7.139  0.5004  1.9362  0.1028
  991SOL    HW214610   1.512   2.735   7.045  0.0475 -0.4245 -0.6413
  992SOL     OW14611   1.823   2.828  14.898  0.2854  0.1981  0.1511
  992SOL    HW114612   1.745   2.773  14.897  0.6178 -0.2242 -2.0194
  992SOL    HW214613   1.847   2.823  14.806 -0.4309  0.4936 -0.0554
  993SOL     OW14614   1.285   2.241   7.986  0.0658  0.4959 -0.0212
  993SOL    HW114615   1.261   2.258   8.078  0.2365  2.1221 -0.2734
  993SOL    HW214616   1.329   2.157   7.998 -0.2929  0.3949  0.6468
  994SOL     OW14617   0.483   1.886   9.766  0.2647  0.0845 -0.0111
  994SOL    HW114618   0.537   1.806   9.767  1.4180  0.8826  0.9271
  994SOL    HW214619   0.539   1.949   9.721  0.1908 -0.3721 -0.7551
  995SOL     OW14620   1.024   0.392   5.586  0.1969  0.4328 -0.8749
  995SOL    HW114621   1.098   0.450   5.604 -1.1622  1.2910  1.9478
  995SOL    HW214622   1.072   0.314   5.558 -0.4061  0.2649 -1.4312
  996SOL     OW14623   0.965   3.633   7.610 -0.1059  0.0693 -0.4038
  996SOL    HW114624   0.906   3.588   7.549 -0.3705  3.5288 -2.7013
  996SOL    HW214625   0.938   3.599   7.695 -0.7941 -1.2194 -1.1221
  997SOL     OW14626   0.705   1.562   7.100  0.2009  0.3386 -0.5442
  997SOL    HW114627   0.668   1.634   7.048 -1.5853 -1.3522 -1.6252
  997SOL    HW214628   0.793   1.560   7.062  0.7181 -1.1592  0.7590
  998SOL     OW14629   1.079   0.726   5.360 -0.5002  0.1338  0.4641
  998SOL    HW114630   1.035   0.781   5.295  0.9556 -0.1636 -0.7656
  998SOL    HW214631   1.008   0.723   5.425 -2.4671 -0.2311 -1.6935
  999SOL     OW14632   1.099   0.247   2.285 -0.1473  0.3191 -0.1436
  999SOL    HW114633   1.116   0.283   2.372 -0.1395 -0.1833  0.0672
  999SOL    HW214634   1.038   0.313   2.251 -0.8361  1.3955  3.1881
 1000SOL     OW14635   3.703   2.596   6.951  0.2230 -0.0884 -0.2769
 1000SOL    HW114636   3.701   2.687   6.981  1.5313 -0.7081  1.6825
 1000SOL    HW214637   3.728   2.562   7.037  3.1371  0.1037 -1.0592
 1001SOL     OW14638   4.677   1.256   8.320 -0.3339 -0.3815 -0.4051
 1001SOL    HW114639   4.593   1.298   8.300  0.0415 -0.2586 -1.7078
 1001SOL    HW214640   4.642   1.179   8.364 -0.2317  0.5834  1.3622
 1002SOL     OW14641   1.499   1.301   5.209 -0.3630  0.2495 -0.6891
 1002SOL    HW114642   1.425   1.287   5.149 -2.4257 -1.7123  2.3800
 1002SOL    HW214643   1.541   1.215   5.204 -3.3476 -1.2178 -0.4873
 1003SOL     OW14644   0.875   4.256   8.899 -0.1281  0.5615 -0.3357
 1003SOL    HW114645   0.965   4.262   8.868  0.2029 -0.0205  0.5129
 1003SOL    HW214646   0.883   4.235   8.992  2.2936  1.1431 -0.4339
 1004SOL     OW14647   3.365   3.988   6.719 -0.1026  0.0973  0.1501
 1004SOL    HW114648   3.336   3.920   6.658  0.3793 -0.2216  0.2769
 1004SOL    HW214649   3.440   4.028   6.674 -1.4821  3.6463  1.0166
 1005SOL     OW14650   3.938   2.530   2.169  0.4971  0.1579 -0.3598
 1005SOL    HW114651   3.888   2.470   2.114 -0.4814  1.8285 -1.2999
 1005SOL    HW214652   4.025   2.501   2.142  0.0346  0.8536 -2.5707
 1006SOL     OW14653   2.081   2.706   2.717 -0.0081  0.6225 -0.0147
 1006SOL    HW114654   1.994   2.672   2.738 -1.1516  3.2777 -0.4555
 1006SOL    HW214655   2.062   2.729   2.626 -0.9614  0.8049  0.2275
 1007SOL     OW14656   3.001   0.398  12.138  0.0195  0.0958  0.2076
 1007SOL    HW114657   2.957   0.443  12.210 -2.7452 -0.6761 -1.0129
 1007SOL    HW214658   3.087   0.433  12.162  0.7585 -0.1595 -2.0290
 1008SOL     OW14659   0.301   3.627   1.064  0.4039 -0.4545 -0.2897
 1008SOL    HW114660   0.330   3.683   0.992 -2.5001  2.2155  0.6329
 1008SOL    HW214661   0.211   3.657   1.075  0.5497  0.0673 -0.5009
 1009SOL     OW14662   3.833   3.862   1.745  0.5900 -0.3345  0.0543
 1009SOL    HW114663   3.920   3.826   1.728  1.3084  0.0232  3.0558
 1009SOL    HW214664   3.777   3.787   1.765  0.8965 -0.8335 -0.9949
 1010SOL     OW14665   3.741   2.593  14.204  0.4689  0.1701 -0.5046
 1010SOL    HW114666   3.690   2.573  14.125 -0.9209  0.6803  0.2470
 1010SOL    HW214667   3.747   2.688  14.194 -2.8328  0.3177 -1.2995
 1011SOL     OW14668   0.231   1.158   1.819  0.3468 -0.5149 -0.3026
 1011SOL    HW114669   0.211   1.162   1.913  0.6441 -0.2460 -0.2523
 1011SOL    HW214670   0.232   1.251   1.798  0.6567 -0.2566  0.8496
 1012SOL     OW14671   2.498   2.613   1.161  0.5196 -0.5077 -0.4122
 1012SOL    HW114672   2.549   2.663   1.097  2.1372 -0.3126  1.0514
 1012SOL    HW214673   2.499   2.685   1.223  0.1786 -0.9431  0.1012
 1013SOL     OW14674   1.882   3.196   2.031  0.0457  0.7100 -0.1081
 1013SOL    HW114675   1.866   3.103   2.016  0.4828  0.3288  1.8411
 1013SOL    HW214676   1.803   3.230   1.989  0.9916  2.8459 -0.1376
 1014SOL     OW14677   3.526   1.300   8.444 -0.0914  0.0553 -0.1102
 1014SOL    HW114678   3.537   1.313   8.538  0.3891 -2.3567  0.1753
 1014SOL    HW214679   3.556   1.381   8.403 -1.7074  1.7572  2.0015
 1015SOL     OW14680   2.933   2.851  12.215 -0.2472  0.2693 -0.7962
 1015SOL    HW114681   2.941   2.938  12.253 -0.7160  0.8213 -1.9866
 1015SOL    HW214682   2.965   2.796  12.287 -0.7460  0.1447 -0.6726
 1016SOL     OW14683   2.555   2.910   6.305 -0.5324  0.3667 -0.0178
 1016SOL    HW114684   2.537   2.840   6.242 -2.1734 -0.3617  1.2695
 1016SOL    HW214685   2.465   2.930   6.333  0.2378  2.0177  1.2950
 1017SOL     OW14686   1.871   1.487  13.187 -0.3941  0.2917  0.1307
 1017SOL    HW114687   1.806   1.517  13.250  1.3451  2.0932  1.0505
 1017SOL    HW214688   1.840   1.541  13.114 -3.8625 -1.8595  0.0480
 1018SOL     OW14689   4.487   2.383   8.353  0.1750  0.7377  0.5250
 1018SOL    HW114690   4.484   2.478   8.338 -1.4007  0.8711  1.7443
 1018SOL    HW214691   4.401   2.349   8.330  0.6081  0.7818 -1.1621
 1019SOL     OW14692   4.172   0.987   7.872 -0.1593  0.1879 -0.2929
 1019SOL    HW114693   4.169   1.082   7.885  2.0808  0.4796 -1.9650
 1019SOL    HW214694   4.262   0.957   7.889 -0.2774 -0.9063 -1.5985
 1020SOL     OW14695   2.055   1.047   6.048 -0.5927 -0.1112 -0.7513
 1020SOL    HW114696   1.987   1.039   6.115  0.2609 -2.0877 -0.1139
 1020SOL    HW214697   2.010   1.118   6.003 -1.3778  1.0697  1.9025
 1021SOL     OW14698   0.540   3.301   8.305  0.5005  0.1648 -0.3161
 1021SOL    HW114699   0.563   3.374   8.247 -1.2224 -0.3929 -1.6900
 1021SOL    HW214700   0.468   3.261   8.257 -0.5988  1.9429 -0.1773
 1022SOL     OW14701   2.522   0.005   3.663 -0.2627  0.6824 -0.1290
 1022SOL    HW114702   2.598   0.011   3.720  0.1090  2.5624 -0.8063
 1022SOL    HW214703   2.524   4.649   3.631  0.4337  1.4483 -2.2147
 1023SOL     OW14704   2.536   2.527   5.546 -0.2089 -0.5420  0.5955
 1023SOL    HW114705   2.493   2.606   5.514 -0.5316 -0.5203  1.0755
 1023SOL    HW214706   2.494   2.463   5.489 -1.1454 -0.2442  0.9505
 1024SOL     OW14707   2.221   0.111   0.529 -0.0422 -0.2369  0.3047
 1024SOL    HW114708   2.127   0.108   0.545  0.1546 -0.7779  1.3374
 1024SOL    HW214709   2.223   0.137   0.437  0.1398 -2.9382 -0.4648
 1025SOL     OW14710   3.689   1.835   5.937 -0.5018 -0.0159 -0.0989
 1025SOL    HW114711   3.774   1.835   5.894  0.7478 -2.1871  2.3100
 1025SOL    HW214712   3.706   1.892   6.012 -1.5649  1.5154 -1.0347
 1026SOL     OW14713   0.484   2.491   7.035  0.8650  0.1900 -0.4527
 1026SOL    HW114714   0.437   2.555   6.982 -0.3774 -0.5064 -0.2064
 1026SOL    HW214715   0.564   2.542   7.046  0.7922  0.0600  0.7758
 1027SOL     OW14716   3.725   2.963   6.312 -0.3280  0.4050 -0.3457
 1027SOL    HW114717   3.752   2.944   6.402 -1.1049  0.0725 -0.1839
 1027SOL    HW214718   3.674   3.044   6.318 -0.3926  0.2908  0.6987
 1028SOL     OW14719   4.386   0.482   5.689 -0.0616 -0.2644 -0.4169
 1028SOL    HW114720   4.457   0.533   5.650 -1.6530  1.5104 -1.0026
 1028SOL    HW214721   4.315   0.545   5.700  0.4031  0.4870 -1.6444
 1029SOL     OW14722   3.198   3.818   2.019 -0.5329  0.3828 -0.1620
 1029SOL    HW114723   3.222   3.735   1.976 -0.0608 -0.6837  2.1798
 1029SOL    HW214724   3.220   3.890   1.960 -2.4361  1.2034  0.1379
 1030SOL     OW14725   2.087   3.300  16.614  0.1955 -0.5330 -0.6640
 1030SOL    HW114726   2.101   3.215  16.574 -1.1188 -0.7934 -0.5679
 1030SOL    HW214727   2.022   3.288  16.683 -0.8825 -0.7112 -1.7120
 1031SOL     OW14728   1.582   1.329   0.894 -0.4457 -0.2621 -0.5395
 1031SOL    HW114729   1.646   1.264   0.922 -0.7916  0.3165  1.6223
 1031SOL    HW214730   1.576   1.303   0.802 -0.1341  0.5200 -0.7826
 1032SOL     OW14731   3.838   1.925  15.073  0.9528  0.5992 -0.5991
 1032SOL    HW114732   3.744   1.946  15.076  0.1064 -2.8446 -2.3882
 1032SOL    HW214733   3.864   2.016  15.086 -2.4073  1.5546 -0.4338
 1033SOL     OW14734   4.408   2.067  14.537 -0.1384 -0.0912  0.0591
 1033SOL    HW114735   4.332   2.019  14.505  0.3111  0.1304 -1.3457
 1033SOL    HW214736   4.420   2.139  14.475  4.9113 -4.1171 -3.6710
 1034SOL     OW14737   2.924   4.245   4.787 -0.4301 -0.3903  0.4027
 1034SOL    HW114738   2.905   4.241   4.880 -0.3013 -0.1013  0.4426
 1034SOL    HW214739   2.937   4.339   4.772  1.0559 -0.0091  4.0771
 1035SOL     OW14740   4.478   2.528   2.004 -0.0325  0.1925 -0.3956
 1035SOL    HW114741   4.471   2.552   1.912  1.2150  0.2639 -0.4717
 1035SOL    HW214742   4.562   2.483   1.995  1.2257  1.9518  2.4540
 1036SOL     OW14743   3.820   2.520   2.410  0.1587  0.0164 -0.1529
 1036SOL    HW114744   3.881   2.508   2.337 -1.0730 -0.2683 -1.1290
 1036SOL    HW214745   3.798   2.613   2.401  1.8697  0.3388 -0.9853
 1037SOL     OW14746   0.625   0.454  12.027  0.5184  0.5800 -0.4159
 1037SOL    HW114747   0.611   0.362  12.005  1.8641 -0.4095  2.7787
 1037SOL    HW214748   0.674   0.483  11.951  1.6775  0.9502  0.4800
 1038SOL     OW14749   4.284   3.656   8.006 -0.7254 -0.1696 -0.0965
 1038SOL    HW114750   4.257   3.575   7.962 -2.3020 -0.1387  0.7912
 1038SOL    HW214751   4.251   3.642   8.095 -0.2173 -0.7776 -0.0049
 1039SOL     OW14752   0.653   0.581   3.234  0.0687 -0.7082  0.1922
 1039SOL    HW114753   0.619   0.609   3.149  0.4892  0.9845  0.5679
 1039SOL    HW214754   0.721   0.645   3.257 -1.0326 -0.4555  2.7841
 1040SOL     OW14755   2.687   2.040  16.144 -0.2083  0.1134 -0.1299
 1040SOL    HW114756   2.686   2.128  16.181  0.8343 -0.2473  0.7229
 1040SOL    HW214757   2.727   1.993  16.216 -0.7064  1.6529  1.1495
 1041SOL     OW14758   1.206   2.379  11.405  0.2706  0.1540 -1.0181
 1041SOL    HW114759   1.283   2.431  11.430 -1.8247  3.1511 -0.8298
 1041SOL    HW214760   1.215   2.299  11.457 -1.4710  0.2746 -0.5316
 1042SOL     OW14761   2.911   0.620   5.103  0.8197 -0.6018  0.1685
 1042SOL    HW114762   2.905   0.631   5.198  0.1515  0.6848 -0.0209
 1042SOL    HW214763   2.822   0.649   5.084  0.6065 -0.3697  1.4699
 1043SOL     OW14764   1.984   1.926  13.564  0.0856  0.1104  0.3266
 1043SOL    HW114765   2.020   1.931  13.653 -1.1395 -0.5540  0.8630
 1043SOL    HW214766   2.058   1.885  13.520 -0.4720 -0.1530 -0.3544
 1044SOL     OW14767   1.159   2.559   6.084 -0.0450 -0.4472 -0.0997
 1044SOL    HW114768   1.112   2.546   6.002  0.5606  1.5752 -0.7795
 1044SOL    HW214769   1.249   2.527   6.072 -0.6976 -1.6969 -1.5471
 1045SOL     OW14770   1.231   1.269   9.223 -0.2170  0.0338  0.7674
 1045SOL    HW114771   1.162   1.256   9.288 -0.4803  1.4596  0.7740
 1045SOL    HW214772   1.289   1.196   9.248 -1.3970 -1.3648 -0.6288
 1046SOL     OW14773   1.557   3.213   9.612  0.6974 -0.5262  0.5753
 1046SOL    HW114774   1.473   3.250   9.585 -0.8966 -3.6219  1.2412
 1046SOL    HW214775   1.537   3.120   9.607 -0.2415 -0.2572 -0.7123
 1047SOL     OW14776   3.143   4.710  15.614 -0.2464 -0.2075 -0.0756
 1047SOL    HW114777   3.096   0.006  15.691  0.3950 -0.4519  0.4080
 1047SOL    HW214778   3.205   4.644  15.647 -0.9173 -0.9939 -0.3653
 1048SOL     OW14779   0.194   4.478   7.038 -0.1391  0.0514  0.5231
 1048SOL    HW114780   0.104   4.488   7.069 -0.9686 -2.7921 -1.0323
 1048SOL    HW214781   0.247   4.474   7.118 -0.5707  0.4834  0.8296
 1049SOL     OW14782   0.349   2.906   2.847 -0.4035 -0.4700 -0.2289
 1049SOL    HW114783   0.354   2.917   2.752 -1.4076  1.4633 -0.0779
 1049SOL    HW214784   0.394   2.980   2.887 -0.2562 -0.9685  0.5242
 1050SOL     OW14785   2.598   4.487  13.113 -0.1201  0.3180  0.1017
 1050SOL    HW114786   2.692   4.471  13.104 -0.0238  0.2939  1.1550
 1050SOL    HW214787   2.570   4.401  13.146  1.3978  0.0885  0.7879
 1051SOL     OW14788   2.170   1.862   8.750  0.0878 -0.2812 -0.5580
 1051SOL    HW114789   2.156   1.956   8.760  1.3107 -0.1385 -0.1294
 1051SOL    HW214790   2.118   1.834   8.675  0.3480  2.0495 -1.6061
 1052SOL     OW14791   4.370   1.603   7.232  0.5274  0.6269  0.3879
 1052SOL    HW114792   4.366   1.684   7.181 -0.7603 -1.3708 -2.6535
 1052SOL    HW214793   4.359   1.624   7.325  0.8648  0.1658  0.5362
 1053SOL     OW14794   0.449   3.157   9.090  0.4329 -0.1820  0.1749
 1053SOL    HW114795   0.535   3.116   9.092  1.0756  1.2082  1.1731
 1053SOL    HW214796   0.465   3.234   9.144 -1.0350  0.3176 -0.0942
 1054SOL     OW14797   4.662   3.662   3.870 -0.1415 -0.5263  0.4643
 1054SOL    HW114798   4.688   3.580   3.828 -2.5436 -1.8375  1.5298
 1054SOL    HW214799   4.626   3.713   3.797  1.3111 -1.9141 -1.2462
 1055SOL     OW14800   1.494   2.805   7.357  0.7962 -0.5147 -0.7105
 1055SOL    HW114801   1.441   2.885   7.353  0.9578 -0.3673  0.0915
 1055SOL    HW214802   1.477   2.768   7.444  2.9464 -0.0214 -0.0715
 1056SOL     OW14803   1.265   4.260  10.206  0.5581  0.7227 -0.0522
 1056SOL    HW114804   1.315   4.179  10.196  0.6909  0.9595 -1.2035
 1056SOL    HW214805   1.312   4.304  10.277 -0.6539 -1.1843  1.9299
 1057SOL     OW14806   1.918   1.185  13.744  0.1944 -0.2968  0.2014
 1057SOL    HW114807   1.887   1.221  13.827 -1.5256  0.4976 -0.7923
 1057SOL    HW214808   1.834   1.157  13.709 -0.9410  1.8928  1.1837
 1058SOL     OW14809   4.010   4.215   0.440 -0.1753 -0.5106 -0.3197
 1058SOL    HW114810   3.915   4.210   0.429 -0.4264  2.6819  0.5846
 1058SOL    HW214811   4.027   4.241   0.350  1.5210 -1.4801 -0.2874
 1059SOL     OW14812   3.977   3.741   4.387 -0.8140 -0.2469  0.2723
 1059SOL    HW114813   3.899   3.770   4.340 -0.2540  0.7085 -0.0648
 1059SOL    HW214814   3.981   3.806   4.457  1.0251 -0.7572  0.6368
 1060SOL     OW14815   2.565   0.133   6.800  0.3385  0.2187 -0.0403
 1060SOL    HW114816   2.659   0.146   6.791  0.5373 -2.0754 -1.2661
 1060SOL    HW214817   2.553   0.059   6.740 -2.8832  1.7771 -1.3210
 1061SOL     OW14818   3.394   0.914  11.524 -0.5594  0.2308 -0.2031
 1061SOL    HW114819   3.331   0.858  11.568 -1.6003  1.9047  0.4093
 1061SOL    HW214820   3.477   0.876  11.552  0.4711  0.3927 -3.0024
 1062SOL     OW14821   0.134   3.246   0.499 -0.2948  0.1833  0.3292
 1062SOL    HW114822   0.194   3.241   0.573 -0.9536 -0.2899  0.8337
 1062SOL    HW214823   0.174   3.184   0.437  2.3289  1.4456  0.7929
 1063SOL     OW14824   1.401   2.841  13.838  0.0227 -0.0251  0.3854
 1063SOL    HW114825   1.352   2.783  13.780  0.4805  2.1737 -2.2165
 1063SOL    HW214826   1.371   2.922  13.796 -1.3620 -0.5056  0.4748
 1064SOL     OW14827   1.799   2.670   4.869 -0.5857  0.5728  0.1236
 1064SOL    HW114828   1.878   2.623   4.842 -0.7286  0.2642  0.2441
 1064SOL    HW214829   1.736   2.604   4.897  1.4345  0.0418  3.3558
 1065SOL     OW14830   2.567   1.034   4.344 -0.1963  0.1919 -0.1386
 1065SOL    HW114831   2.560   0.939   4.341 -1.6460  0.2797  0.6217
 1065SOL    HW214832   2.515   1.059   4.420 -0.1072 -1.2898  0.4051
 1066SOL     OW14833   0.992   0.946   2.504 -0.6050  0.5829 -0.1182
 1066SOL    HW114834   1.053   0.948   2.430  1.2046  2.1542  1.4279
 1066SOL    HW214835   0.994   1.038   2.530 -0.1979 -0.2531  2.7022
 1067SOL     OW14836   4.697   2.458   2.810 -0.2484  0.3658  0.0155
 1067SOL    HW114837   0.033   2.460   2.875  0.4952 -0.2038 -0.7841
 1067SOL    HW214838   4.692   2.364   2.798 -0.3081  0.3777 -0.0534
 1068SOL     OW14839   1.593   0.492  16.302 -0.1551 -0.8126  0.2383
 1068SOL    HW114840   1.503   0.523  16.290  0.5957  0.7534 -1.2337
 1068SOL    HW214841   1.593   0.416  16.244  1.0790  0.3598 -1.2824
 1069SOL     OW14842   2.772   4.016  10.356 -0.1783  0.3437 -0.4525
 1069SOL    HW114843   2.825   3.939  10.334  1.5985  1.3770  0.1955
 1069SOL    HW214844   2.698   3.978  10.403  0.5588  0.3099  0.6782
 1070SOL     OW14845   0.352   3.803   5.823  0.2436 -0.9013 -0.1471
 1070SOL    HW114846   0.442   3.790   5.794  0.9593  0.4807  1.4623
 1070SOL    HW214847   0.337   3.722   5.870 -0.5329 -0.6988 -0.0415
 1071SOL     OW14848   4.405   3.985   0.105  0.2635  0.1010  0.7780
 1071SOL    HW114849   4.431   3.993   0.197  1.4348  0.9253  0.3907
 1071SOL    HW214850   4.487   3.988   0.055  0.3382 -0.4720  0.8699
 1072SOL     OW14851   1.281   1.321   6.415  0.6467 -0.5416 -0.4784
 1072SOL    HW114852   1.264   1.230   6.438 -0.0111 -0.0046  1.1471
 1072SOL    HW214853   1.363   1.316   6.366  0.8795  1.6009 -0.3000
 1073SOL     OW14854   4.316   3.056   5.639 -0.4696 -0.0361 -0.3146
 1073SOL    HW114855   4.358   3.117   5.699 -0.5526 -1.3692  1.1058
 1073SOL    HW214856   4.296   3.116   5.568 -0.4456 -0.7058 -0.8924
 1074SOL     OW14857   1.128   3.380  16.735  0.3806  0.6167  0.4288
 1074SOL    HW114858   1.134   3.310  16.800 -1.5954  0.1192  0.0710
 1074SOL    HW214859   1.035   3.402  16.728  0.5123  1.0798  0.1203
 1075SOL     OW14860   0.465   3.348   6.217  0.5143  0.7663  0.3068
 1075SOL    HW114861   0.534   3.368   6.154 -0.2265  0.3081 -0.6627
 1075SOL    HW214862   0.522   3.299   6.275 -0.6946 -1.0435 -0.0208
 1076SOL     OW14863   3.158   0.063   5.361 -0.0145  0.5723 -0.1130
 1076SOL    HW114864   3.175   0.102   5.447  0.6449  1.4602 -0.6366
 1076SOL    HW214865   3.064   0.077   5.349 -0.0983 -2.0817 -2.5568
 1077SOL     OW14866   1.325   4.573   0.743 -0.4478  0.1518 -0.1539
 1077SOL    HW114867   1.248   4.619   0.710  2.0127  4.7761  0.4217
 1077SOL    HW214868   1.305   4.532   0.827  1.2049 -1.4113 -0.5240
 1078SOL     OW14869   0.978   0.786  10.602  0.3414 -0.3437  0.1990
 1078SOL    HW114870   0.974   0.783  10.697 -2.4545 -3.9483 -0.0421
 1078SOL    HW214871   1.012   0.874  10.584 -0.8653  0.4852  1.9627
 1079SOL     OW14872   1.805   1.319   2.956 -0.3270  0.1922  0.2200
 1079SOL    HW114873   1.827   1.402   2.913 -0.1658  0.4000  0.7016
 1079SOL    HW214874   1.894   1.293   2.981 -0.4306 -0.4680 -0.1086
 1080SOL     OW14875   3.104   1.951   4.094 -0.1621 -0.5972 -0.3738
 1080SOL    HW114876   3.042   1.884   4.122 -0.5475 -1.0280 -2.2552
 1080SOL    HW214877   3.146   1.946   4.180  0.9193 -2.2217 -0.9968
 1081SOL     OW14878   1.139   1.168  16.610 -0.3097 -0.2050  0.3364
 1081SOL    HW114879   1.119   1.110  16.536  0.5145  0.8660 -0.7497
 1081SOL    HW214880   1.116   1.254  16.574  0.4497 -0.0018  0.3191
 1082SOL     OW14881   0.211   0.193   5.018  0.5920  0.2557  0.1764
 1082SOL    HW114882   0.143   0.257   4.999 -0.0811 -0.5594 -0.1631
 1082SOL    HW214883   0.184   0.153   5.101  1.3956 -3.2800 -1.2687
 1083SOL     OW14884   3.226   1.395  10.894 -0.3004 -0.1428 -0.3259
 1083SOL    HW114885   3.231   1.488  10.869  1.2003  0.4726  2.2944
 1083SOL    HW214886   3.302   1.356  10.852 -0.0113  2.0366 -1.8471
 1084SOL     OW14887   1.638   3.403   5.494  0.0203  0.4931 -0.1820
 1084SOL    HW114888   1.682   3.342   5.435 -0.6937 -0.7586  0.5838
 1084SOL    HW214889   1.545   3.397   5.469  0.2120 -1.7381 -0.3887
 1085SOL     OW14890   2.217   0.087   8.300 -0.1941  0.1149 -0.2060
 1085SOL    HW114891   2.302   0.115   8.333 -0.6103 -1.2300  2.0357
 1085SOL    HW214892   2.202   4.730   8.328 -0.3570  0.2713  0.2140
 1086SOL     OW14893   1.162   0.932   2.300  0.3845  0.2072 -0.4555
 1086SOL    HW114894   1.254   0.905   2.308  0.5531  0.8465 -0.2511
 1086SOL    HW214895   1.153   0.990   2.225  2.1298  1.0625 -0.0110
 1087SOL     OW14896   2.862   3.075  15.354  0.0610  0.2455 -0.1161
 1087SOL    HW114897   2.770   3.071  15.328  0.0172 -0.3059  0.1124
 1087SOL    HW214898   2.879   2.980  15.355 -1.8792 -0.1031 -0.0339
 1088SOL     OW14899   2.687   3.433   8.732 -0.1315 -0.2431  0.1190
 1088SOL    HW114900   2.769   3.423   8.684 -0.0822 -0.0504  0.1657
 1088SOL    HW214901   2.648   3.506   8.684  0.1227 -1.0931 -1.3982
 1089SOL     OW14902   0.810   4.545  11.972  0.3329 -0.2028 -0.3733
 1089SOL    HW114903   0.799   4.466  11.919 -0.2567  0.3648 -1.1004
 1089SOL    HW214904   0.905   4.540  11.977  0.1278 -2.6846  1.4423
 1090SOL     OW14905   1.212   2.670  11.743 -0.0198 -0.0829 -0.1002
 1090SOL    HW114906   1.117   2.672  11.751 -0.1441 -0.7020 -1.3061
 1090SOL    HW214907   1.226   2.672  11.648  0.3717  1.8017 -0.0083
 1091SOL     OW14908   2.369   3.337   8.661 -0.4564  0.4968 -0.0996
 1091SOL    HW114909   2.284   3.323   8.703  1.3089 -2.0511  2.6003
 1091SOL    HW214910   2.422   3.336   8.741 -1.2855 -2.5370  0.4243
 1092SOL     OW14911   2.739   2.778   2.255 -0.5977 -0.2063 -0.1709
 1092SOL    HW114912   2.831   2.782   2.230 -0.5968 -2.6841 -0.5146
 1092SOL    HW214913   2.744   2.771   2.350  1.8562 -0.1588 -0.3175
 1093SOL     OW14914   1.511   2.163   9.010 -0.0605  0.0700 -0.2847
 1093SOL    HW114915   1.508   2.082   8.958 -1.8078  0.5197 -0.8736
 1093SOL    HW214916   1.592   2.150   9.059 -1.0913  3.1668  2.2538
 1094SOL     OW14917   3.048   3.332  11.144 -0.8898  0.7172 -0.0591
 1094SOL    HW114918   3.140   3.329  11.173 -0.3309 -1.7476 -2.0894
 1094SOL    HW214919   3.033   3.243  11.113 -0.1586 -0.3480  2.5829
 1095SOL     OW14920   3.908   2.898  10.224  0.1800  0.4126 -0.3617
 1095SOL    HW114921   3.844   2.845  10.177  0.6092 -1.9062  1.5949
 1095SOL    HW214922   3.909   2.839  10.300 -0.4142 -0.9573 -1.4008
 1096SOL     OW14923   1.801   2.871   6.791  0.0304 -0.1869  0.6153
 1096SOL    HW114924   1.754   2.942   6.834  1.9529  0.5041  1.5743
 1096SOL    HW214925   1.739   2.799   6.786 -0.0752  0.0071 -0.8290
 1097SOL     OW14926   3.738   1.996   8.793 -0.3692 -0.2524  0.0934
 1097SOL    HW114927   3.669   1.958   8.739 -1.9763 -0.2739  2.1500
 1097SOL    HW214928   3.790   1.921   8.822 -1.3723 -0.6161  0.9826
 1098SOL     OW14929   2.832   2.308   2.445  0.0540 -0.2690 -0.4004
 1098SOL    HW114930   2.857   2.398   2.423 -2.6950  0.7210  0.4670
 1098SOL    HW214931   2.882   2.275   2.371 -0.2254  2.0789 -1.6595
 1099SOL     OW14932   1.991   1.879   1.521 -0.1201  0.0296  0.5419
 1099SOL    HW114933   2.055   1.894   1.451 -1.0046 -1.3199 -0.5694
 1099SOL    HW214934   2.047   1.847   1.592 -1.6791 -0.7319  1.4178
 1100SOL     OW14935   0.812   4.246   7.820 -0.4338  0.1835 -0.6242
 1100SOL    HW114936   0.822   4.228   7.913 -2.1042 -0.0853 -0.4902
 1100SOL    HW214937   0.904   4.257   7.796 -0.2454  1.4920  0.7661
 1101SOL     OW14938   4.296   1.608   8.285  0.3248  0.1034  0.3187
 1101SOL    HW114939   4.252   1.605   8.370  0.6430  0.1660  0.4843
 1101SOL    HW214940   4.323   1.699   8.271 -2.0035  0.7170 -0.2305
 1102SOL     OW14941   0.538   1.468   4.390  0.3779 -0.0170  0.5224
 1102SOL    HW114942   0.634   1.463   4.396  0.3916  1.1853  1.5121
 1102SOL    HW214943   0.528   1.478   4.296  2.4579  0.8304  0.3784
 1103SOL     OW14944   4.622   0.442   6.834  0.1435  0.1323  0.4296
 1103SOL    HW114945   4.644   0.527   6.873  0.3795  0.3336 -0.1457
 1103SOL    HW214946   4.596   0.394   6.913  0.0288 -0.7314 -0.1343
 1104SOL     OW14947   4.451   0.544   2.971 -0.1772  0.3601 -0.5841
 1104SOL    HW114948   4.406   0.612   3.022 -2.6134 -0.0014 -2.2650
 1104SOL    HW214949   4.374   0.490   2.954 -0.7255  0.5619  1.1999
 1105SOL     OW14950   3.971   4.242   3.599 -0.1082  0.3057 -0.4508
 1105SOL    HW114951   4.056   4.261   3.560 -0.5321  1.3933 -0.8437
 1105SOL    HW214952   3.923   4.321   3.573  1.1871  0.8168 -1.2945
 1106SOL     OW14953   1.686   2.280  10.397  0.4868  0.1682 -0.3348
 1106SOL    HW114954   1.704   2.374  10.399  1.2200  0.0260 -0.2698
 1106SOL    HW214955   1.704   2.258  10.488 -0.5246  1.9201  0.2604
 1107SOL     OW14956   3.160   1.419   2.172  0.0519  0.4258 -0.1125
 1107SOL    HW114957   3.169   1.339   2.121 -0.4126 -0.4625  1.2248
 1107SOL    HW214958   3.254   1.431   2.190 -0.2074  0.0878  1.4722
 1108SOL     OW14959   2.100   3.130   8.410  0.0322  0.3329 -0.5937
 1108SOL    HW114960   2.005   3.125   8.418  0.0804 -1.7649 -1.3751
 1108SOL    HW214961   2.113   3.126   8.504  2.3282 -0.2769 -0.9291
 1109SOL     OW14962   4.241   0.765   6.262  0.0984 -0.3909 -0.4456
 1109SOL    HW114963   4.249   0.828   6.334 -3.8751  1.6539 -1.8292
 1109SOL    HW214964   4.165   0.717   6.296  0.6198 -1.5648 -0.9282
 1110SOL     OW14965   1.934   0.368   0.269  0.0083 -0.1320  0.5047
 1110SOL    HW114966   1.877   0.292   0.274 -0.8749  0.4189 -1.0888
 1110SOL    HW214967   1.874   0.434   0.304 -0.3665  1.0759 -2.4073
 1111SOL     OW14968   3.826   0.089   7.330 -0.1463 -0.0586  0.8768
 1111SOL    HW114969   3.890   0.153   7.300 -0.6735 -0.0127 -0.1390
 1111SOL    HW214970   3.795   0.045   7.251 -0.5444  2.2613 -0.2567
 1112SOL     OW14971   3.433   3.590  16.064 -0.7891  0.4307  0.4240
 1112SOL    HW114972   3.514   3.640  16.073 -0.6551 -0.0101  1.6418
 1112SOL    HW214973   3.434   3.589  15.968 -1.1483  1.6593  0.4087
 1113SOL     OW14974   3.251   3.516   4.669 -0.5822 -0.0781 -0.1954
 1113SOL    HW114975   3.268   3.571   4.746  3.4667 -0.3899 -0.9000
 1113SOL    HW214976   3.323   3.457   4.691 -0.2976 -0.1095 -1.2358
 1114SOL     OW14977   0.801   3.733   4.627 -0.2669 -0.8379  0.0506
 1114SOL    HW114978   0.776   3.810   4.677 -1.5318 -2.1708  1.4559
 1114SOL    HW214979   0.865   3.780   4.573  1.2726  0.2030  2.7497
 1115SOL     OW14980   4.472   0.873   0.985  0.1416  0.7476  0.2674
 1115SOL    HW114981   4.396   0.897   0.932 -1.5188 -1.7947  1.5350
 1115SOL    HW214982   4.462   0.778   0.991  0.5432  0.6637 -0.4474
 1116SOL     OW14983   2.655   0.157   0.578 -0.1771 -0.0686  0.5327
 1116SOL    HW114984   2.575   0.197   0.544  0.2916 -0.7754 -1.3463
 1116SOL    HW214985   2.612   0.099   0.641  0.1032  1.3326  2.0415
 1117SOL     OW14986   1.367   4.123   3.263  0.2235  0.4024 -0.2590
 1117SOL    HW114987   1.406   4.052   3.314  0.0025  1.0879  0.8718
 1117SOL    HW214988   1.280   4.091   3.240 -0.0323 -0.1624  1.4592
 1118SOL     OW14989   3.915   3.063  16.856  0.3512  0.1802 -0.0359
 1118SOL    HW114990   3.985   3.035  16.916  0.9379  0.1195 -0.7496
 1118SOL    HW214991   3.958   3.132  16.805  1.3142  0.4907  1.1917
 1119SOL     OW14992   3.468   3.447   6.562 -0.7460  0.2731 -0.0225
 1119SOL    HW114993   3.539   3.383   6.567 -2.2710 -1.2074  2.4681
 1119SOL    HW214994   3.400   3.387   6.530 -2.0461  0.7246  1.8798
 1120SOL     OW14995   1.068   0.403   8.385  0.4405 -0.3744 -0.1416
 1120SOL    HW114996   0.984   0.426   8.425  0.2250  0.1735 -0.9062
 1120SOL    HW214997   1.093   0.325   8.434 -1.4249 -1.8225 -1.4985
 1121SOL     OW14998   2.993   2.970   6.634  0.0584  0.0809  0.6509
 1121SOL    HW114999   3.014   3.052   6.680  1.7065  0.0354 -0.0304
 1121SOL    HW215000   2.924   2.934   6.691 -1.0797  1.2050 -0.0124
 1122SOL     OW15001   3.295   2.428   1.082  0.4681  0.4210 -0.0185
 1122SOL    HW115002   3.349   2.481   1.141  0.2488  0.8228 -0.1750
 1122SOL    HW215003   3.219   2.486   1.075 -0.5545 -0.9037  0.0065
 1123SOL     OW15004   1.665   4.237   6.241  0.2062  0.2602 -0.3302
 1123SOL    HW115005   1.573   4.214   6.250  0.6223 -1.1994  0.2131
 1123SOL    HW215006   1.677   4.280   6.156 -0.1758  2.4709  0.7328
 1124SOL     OW15007   0.725   0.337   2.012  0.4501  0.0093  0.0209
 1124SOL    HW115008   0.794   0.353   2.076  1.1308 -3.7589  0.2487
 1124SOL    HW215009   0.737   0.401   1.943 -1.9426  0.9573  0.5005
 1125SOL     OW15010   2.089   2.872   5.243 -0.3286 -0.0451 -0.0505
 1125SOL    HW115011   2.149   2.866   5.168  0.1711 -3.5767  0.6406
 1125SOL    HW215012   2.143   2.876   5.322 -0.5742 -0.5142  0.1383
 1126SOL     OW15013   1.786   1.908   9.384  0.1258 -0.1529 -0.2487
 1126SOL    HW115014   1.776   1.847   9.310  0.3170 -0.3489 -0.1144
 1126SOL    HW215015   1.753   1.846   9.449 -2.7294  1.5216 -0.1405
 1127SOL     OW15016   3.362   2.105  16.332  0.4453  0.2106 -0.0334
 1127SOL    HW115017   3.311   2.178  16.365  1.6019  0.3301  1.4768
 1127SOL    HW215018   3.338   2.091  16.240  0.7951 -0.1013 -0.0777
 1128SOL     OW15019   4.655   1.064   8.535 -0.9693 -0.3588 -0.3519
 1128SOL    HW115020   4.573   1.017   8.549  0.5442 -2.8451  0.0962
 1128SOL    HW215021   4.692   1.073   8.623  2.0445  0.1089 -1.6336
 1129SOL     OW15022   3.213   3.820   3.925 -0.0273 -0.5042 -0.1445
 1129SOL    HW115023   3.176   3.732   3.930 -1.1562  0.0332  0.9520
 1129SOL    HW215024   3.255   3.827   4.010 -0.0796  0.3724 -0.1922
 1130SOL     OW15025   1.940   3.716   8.143  0.1331  0.2253  0.2457
 1130SOL    HW115026   1.926   3.621   8.143  0.2195  0.2118  0.0657
 1130SOL    HW215027   1.854   3.749   8.168  0.5337  3.4012 -2.6614
 1131SOL     OW15028   4.477   3.763   1.885  1.0293  0.7024 -0.3966
 1131SOL    HW115029   4.455   3.848   1.924 -2.5557 -1.0494  1.3901
 1131SOL    HW215030   4.547   3.737   1.944 -0.3756 -2.1886 -0.0212
 1132SOL     OW15031   0.112   0.260   0.966 -0.1195 -0.4039  0.1893
 1132SOL    HW115032   0.085   0.304   0.885  0.3901  1.6839  1.1583
 1132SOL    HW215033   0.136   0.171   0.939  0.9642  0.2467 -1.0228
 1133SOL     OW15034   3.436   2.629   4.352  0.9363 -0.0527 -0.0159
 1133SOL    HW115035   3.466   2.718   4.334  3.3224 -1.1059 -1.2076
 1133SOL    HW215036   3.387   2.634   4.434 -0.2122  2.1466 -0.8403
 1134SOL     OW15037   1.704   2.027   5.284 -0.4720  0.0814 -0.0105
 1134SOL    HW115038   1.770   2.027   5.214  0.3265  4.3927  0.7430
 1134SOL    HW215039   1.672   1.937   5.280 -1.4790  0.5209 -1.7426
 1135SOL     OW15040   1.740   4.000   4.186 -0.3147 -0.7186 -0.1923
 1135SOL    HW115041   1.828   3.966   4.198  0.8513  2.1139 -0.6139
 1135SOL    HW215042   1.690   3.923   4.158 -2.7397 -0.4062  3.3048
 1136SOL     OW15043   4.365   3.661  10.209 -0.2530 -0.4404  0.3715
 1136SOL    HW115044   4.378   3.638  10.117 -0.1509  2.1555 -0.2574
 1136SOL    HW215045   4.288   3.718  10.208  0.6246  0.7947  3.0844
 1137SOL     OW15046   1.740   1.470   0.429 -0.2074 -0.1673  0.1948
 1137SOL    HW115047   1.721   1.396   0.372  0.7844  1.1649 -1.8500
 1137SOL    HW215048   1.672   1.455   0.496 -1.1486  0.6781 -0.5604
 1138SOL     OW15049   0.537   2.072   3.890  0.1120 -0.3292  0.4631
 1138SOL    HW115050   0.452   2.028   3.885 -0.1136  0.0030  1.2606
 1138SOL    HW215051   0.583   1.995   3.922  1.5011 -0.0858 -0.9632
 1139SOL     OW15052   1.107   4.723   4.814  0.0243  0.2872  0.2536
 1139SOL    HW115053   1.149   0.058   4.865  1.9190 -1.0163  0.4576
 1139SOL    HW215054   1.030   4.712   4.869 -1.2696 -1.0948 -1.8358
 1140SOL     OW15055   2.276   0.349  11.037  0.4054 -0.1275  0.6127
 1140SOL    HW115056   2.260   0.415  11.104 -0.4676 -0.7946  1.0669
 1140SOL    HW215057   2.254   0.398  10.958 -0.0855 -1.1657  0.0993
 1141SOL     OW15058   0.578   2.064   6.957  0.0191  0.5039  0.1498
 1141SOL    HW115059   0.515   2.044   6.887 -2.9375  0.2645  2.8574
 1141SOL    HW215060   0.642   2.106   6.900 -1.0356 -1.5416 -2.5504
 1142SOL     OW15061   1.227   1.099   0.377  0.3286 -0.2030  0.0092
 1142SOL    HW115062   1.201   1.013   0.345  0.3369  0.0844 -0.7733
 1142SOL    HW215063   1.321   1.083   0.385  0.2030 -0.4677  0.9796
 1143SOL     OW15064   1.274   2.464   1.289  0.3834 -0.3579 -0.1824
 1143SOL    HW115065   1.282   2.442   1.197  2.1312 -0.8198  0.0910
 1143SOL    HW215066   1.277   2.375   1.324  3.8955 -0.6212 -1.1700
 1144SOL     OW15067   3.825   4.288  10.543 -0.1857 -0.7646  0.4467
 1144SOL    HW115068   3.890   4.289  10.613  0.0100 -0.6240  0.2630
 1144SOL    HW215069   3.748   4.325  10.585 -0.6118 -0.0542 -0.9266
 1145SOL     OW15070   0.087   2.382   1.612 -0.8296  0.3944 -0.5880
 1145SOL    HW115071   0.025   2.318   1.646  1.4027 -2.2251 -1.4915
 1145SOL    HW215072   0.066   2.384   1.519  0.6125 -0.5386 -0.9272
 1146SOL     OW15073   0.007   1.052   5.380 -0.3128  0.2118  0.3440
 1146SOL    HW115074   0.007   0.972   5.433  2.2821  0.5078  0.8101
 1146SOL    HW215075   4.647   1.066   5.390 -0.0098  0.8064  2.3264
 1147SOL     OW15076   1.607   1.667   6.857 -0.8948  0.4758 -0.3566
 1147SOL    HW115077   1.673   1.645   6.791 -1.2197 -0.0098 -0.5180
 1147SOL    HW215078   1.644   1.752   6.881 -0.6837 -0.5822  3.1540
 1148SOL     OW15079   1.639   0.766   8.832 -0.4514  0.1133  0.1911
 1148SOL    HW115080   1.729   0.786   8.806 -1.1115  2.1131 -0.5479
 1148SOL    HW215081   1.638   0.786   8.925  1.7075  0.4887  0.1271
 1149SOL     OW15082   0.441   2.564   4.767 -0.4616  0.2608 -0.0292
 1149SOL    HW115083   0.483   2.643   4.800  3.0167 -1.7547  0.3550
 1149SOL    HW215084   0.494   2.494   4.804 -2.1199  0.6255  3.0362
 1150SOL     OW15085   0.218   1.036   4.248 -0.4126  0.7646 -0.2004
 1150SOL    HW115086   0.278   1.094   4.202  0.6640  0.4589  0.8267
 1150SOL    HW215087   0.256   0.948   4.236 -0.7115  0.7402 -0.9950
 1151SOL     OW15088   2.156   3.609   1.871  0.2836  0.2326  0.1059
 1151SOL    HW115089   2.148   3.520   1.905 -1.3163  0.4466  0.3323
 1151SOL    HW215090   2.148   3.657   1.953 -0.3084  0.3085  0.0049
 1152SOL     OW15091   1.572   4.573   8.751 -0.2409 -0.7699  0.7302
 1152SOL    HW115092   1.516   4.550   8.825 -1.5587 -0.8939 -0.3076
 1152SOL    HW215093   1.657   4.546   8.786 -0.5225  0.9078  2.7038
 1153SOL     OW15094   2.750   4.684   5.140  0.6189  0.4403 -0.0016
 1153SOL    HW115095   2.745   4.646   5.052  0.2220  0.1383  0.1512
 1153SOL    HW215096   2.803   0.028   5.123 -0.0611  0.6857 -1.0169
 1154SOL     OW15097   2.382   2.553   5.168 -0.0396 -0.4430  0.2092
 1154SOL    HW115098   2.287   2.560   5.173 -0.0469 -0.4690  0.1102
 1154SOL    HW215099   2.401   2.493   5.240 -1.9471 -0.8863  0.3352
 1155SOL     OW15100   1.065   3.753   6.593 -0.6847  0.1155 -0.5778
 1155SOL    HW115101   0.978   3.751   6.554 -1.0182  1.5820  0.0712
 1155SOL    HW215102   1.086   3.845   6.574 -0.4581 -0.0066 -0.9199
 1156SOL     OW15103   2.803   0.577  14.890 -0.2512 -0.0623 -0.2934
 1156SOL    HW115104   2.753   0.569  14.809 -0.6784  1.0790 -0.1390
 1156SOL    HW215105   2.869   0.508  14.876 -1.2954 -1.0896 -0.1250
 1157SOL     OW15106   1.437   3.036   6.251  0.4857 -0.3920  0.4197
 1157SOL    HW115107   1.400   3.123   6.266  2.8088  0.5021  1.0572
 1157SOL    HW215108   1.527   3.063   6.270 -0.1911  1.8153  0.5529
 1158SOL     OW15109   0.133   0.691   1.341  0.2235 -0.1723 -0.1996
 1158SOL    HW115110   0.222   0.660   1.322  0.2351 -0.7864  0.8962
 1158SOL    HW215111   0.145   0.786   1.333 -2.2877  0.0878 -0.8230
 1159SOL     OW15112   2.879   0.621   5.622  0.0650  0.0180  0.6330
 1159SOL    HW115113   2.845   0.618   5.532  0.3281  1.2960  0.4954
 1159SOL    HW215114   2.844   0.545   5.669  1.0931 -0.4236  0.6860
 1160SOL     OW15115   4.618   0.265  17.392  0.7299  0.0502 -0.3435
 1160SOL    HW115116   4.568   0.274  17.311 -1.1892  0.9677  0.9218
 1160SOL    HW215117   4.567   0.199  17.438  1.7927 -1.0831 -0.8063
 1161SOL     OW15118   4.484   1.616  15.627 -0.5238  0.0863 -0.1480
 1161SOL    HW115119   4.507   1.633  15.536  0.1041 -2.5748 -0.4833
 1161SOL    HW215120   4.478   1.520  15.621 -0.8064  0.2399 -2.2538
 1162SOL     OW15121   4.655   4.554   7.013 -0.0191 -0.5128  0.3285
 1162SOL    HW115122   4.644   4.550   6.918  0.9378  2.7706  0.0914
 1162SOL    HW215123   4.681   4.645   7.031 -0.9274 -0.2672  0.3969
 1163SOL     OW15124   0.936   1.519   8.207  0.3377  0.2141  0.2430
 1163SOL    HW115125   0.887   1.515   8.125  0.7067 -0.1098  0.0403
 1163SOL    HW215126   0.988   1.599   8.198  1.2301 -0.0758  2.6579
 1164SOL     OW15127   0.854   2.387  13.954 -0.1898  0.1584 -0.3444
 1164SOL    HW115128   0.831   2.472  13.916 -2.9362  0.6066  2.3585
 1164SOL    HW215129   0.812   2.400  14.039  0.5353 -0.3202  0.0780
 1165SOL     OW15130   3.622   4.105  17.671 -0.1655  0.6273  0.4000
 1165SOL    HW115131   3.546   4.092  17.614 -0.1736  2.5074  0.0020
 1165SOL    HW215132   3.693   4.072  17.616 -0.4001  2.1836 -0.8281
 1166SOL     OW15133   0.018   2.186   8.318 -0.0568 -0.3366 -0.1715
 1166SOL    HW115134   4.673   2.132   8.322  1.1183 -2.2475 -2.7334
 1166SOL    HW215135   4.705   2.253   8.368 -1.1806  0.2326 -1.9909
 1167SOL     OW15136   3.250   0.881   0.342  0.4008  0.7315 -0.1147
 1167SOL    HW115137   3.252   0.932   0.423 -2.4109  0.3236  0.1854
 1167SOL    HW215138   3.195   0.812   0.379 -0.2314  0.3817 -1.7143
 1168SOL     OW15139   0.514   4.297   3.805  0.1906  0.3534 -0.9679
 1168SOL    HW115140   0.596   4.249   3.795  0.8749  0.8147  2.4235
 1168SOL    HW215141   0.481   4.255   3.884 -0.4088  2.2570 -0.2128
 1169SOL     OW15142   1.150   2.557   5.289 -0.4169 -0.3284  0.2232
 1169SOL    HW115143   1.213   2.563   5.217  0.3341 -1.6749  0.7759
 1169SOL    HW215144   1.180   2.483   5.341  0.4399 -1.3996 -1.7861
 1170SOL     OW15145   0.069   3.588  13.202  0.4756  0.0531 -0.4631
 1170SOL    HW115146   0.095   3.518  13.142 -0.6790 -0.3375 -0.4975
 1170SOL    HW215147   0.077   3.556  13.292 -0.3795 -0.7738 -0.6817
 1171SOL     OW15148   2.484   0.259   3.236  0.0125 -0.0825 -0.3843
 1171SOL    HW115149   2.560   0.232   3.286  0.3067  0.3935 -0.5777
 1171SOL    HW215150   2.517   0.237   3.149 -0.2574 -0.9671 -0.2543
 1172SOL     OW15151   1.798   4.090   3.642  0.1506 -0.6154 -0.0756
 1172SOL    HW115152   1.822   4.099   3.734 -0.3126 -0.5898  0.0400
 1172SOL    HW215153   1.704   4.106   3.641  0.2636 -0.0122 -1.6326
 1173SOL     OW15154   3.912   2.643   5.960 -0.1979 -0.7568 -0.1853
 1173SOL    HW115155   3.905   2.631   5.865 -2.3379  1.5784 -0.3119
 1173SOL    HW215156   3.840   2.702   5.979 -0.2922 -0.3579 -1.7485
 1174SOL     OW15157   4.541   2.998   6.616  0.4641 -0.1276  0.7943
 1174SOL    HW115158   4.558   3.050   6.538 -1.3824 -0.2954  0.2776
 1174SOL    HW215159   4.628   2.985   6.652 -1.3162 -1.3711  4.6121
 1175SOL     OW15160   0.146   4.634   4.783 -0.1856  0.0971 -0.2656
 1175SOL    HW115161   0.159   4.541   4.763  4.0283  0.3535  1.3448
 1175SOL    HW215162   0.125   4.634   4.877 -0.4882  1.5793 -0.3313
 1176SOL     OW15163   3.054   0.028   0.348  0.0422  0.3433  0.9794
 1176SOL    HW115164   2.973   0.079   0.354 -0.0769  0.2857 -0.1648
 1176SOL    HW215165   3.054   4.717   0.432 -2.2673 -1.7458 -0.1192
 1177SOL     OW15166   2.435   4.623   2.667 -0.1902 -0.6715 -0.5897
 1177SOL    HW115167   2.363   4.569   2.699  2.0675 -1.5721  2.8726
 1177SOL    HW215168   2.501   4.554   2.660  1.0156  0.3661  0.5228
 1178SOL     OW15169   1.983   3.559   6.758 -0.2183 -0.3957 -0.2291
 1178SOL    HW115170   1.943   3.474   6.738 -1.8557  0.2754  0.1655
 1178SOL    HW215171   1.937   3.621   6.701 -2.4219  0.0297  1.9712
 1179SOL     OW15172   2.373   2.746   3.338  0.2534 -0.4751  0.1946
 1179SOL    HW115173   2.450   2.777   3.290  0.4493 -0.3941  0.5632
 1179SOL    HW215174   2.313   2.822   3.336  1.1724  0.3267  2.9607
 1180SOL     OW15175   0.984   3.866   7.001 -0.2905 -0.2830 -0.2435
 1180SOL    HW115176   0.935   3.834   7.077  0.2237 -0.2990  0.0811
 1180SOL    HW215177   1.001   3.785   6.954  1.2478  0.3097 -0.7159
 1181SOL     OW15178   1.663   4.649   1.238 -0.1744 -0.4062  0.2970
 1181SOL    HW115179   1.716   4.626   1.162 -0.5705  1.0316 -0.4052
 1181SOL    HW215180   1.639   4.560   1.262 -2.3787  0.2615  0.5208
 1182SOL     OW15181   4.518   3.267  10.067 -0.0600 -0.1576  0.4774
 1182SOL    HW115182   4.458   3.216  10.122  0.8342 -2.2137 -0.4772
 1182SOL    HW215183   4.538   3.333  10.134 -0.6781  1.1292 -0.6010
 1183SOL     OW15184   4.278   4.178   5.635  0.4538  0.3232 -0.3554
 1183SOL    HW115185   4.302   4.250   5.692 -1.9892  1.4514 -0.7578
 1183SOL    HW215186   4.235   4.226   5.565 -0.3365  1.5185  0.9570
 1184SOL     OW15187   4.001   0.338   8.328  0.0429 -0.6060 -0.6460
 1184SOL    HW115188   3.984   0.360   8.236  0.8249  0.1641 -0.6045
 1184SOL    HW215189   4.053   0.415   8.349 -0.0282 -0.9708  0.8339
 1185SOL     OW15190   2.109   0.968  13.758  0.3455 -0.6858  0.3650
 1185SOL    HW115191   2.053   0.903  13.802 -0.5571 -1.8090 -2.4359
 1185SOL    HW215192   2.050   1.043  13.763  1.1215 -0.1684  1.7684
 1186SOL     OW15193   1.521   1.152  15.064 -0.4632  0.2892  0.7815
 1186SOL    HW115194   1.492   1.222  15.007 -1.1184  0.3252  1.1587
 1186SOL    HW215195   1.601   1.120  15.021  0.1624 -1.3543  3.1413
 1187SOL     OW15196   3.792   2.786   3.993 -0.3426  0.6782  0.3086
 1187SOL    HW115197   3.773   2.693   4.009 -1.0885  0.8967  0.6983
 1187SOL    HW215198   3.819   2.809   4.082 -0.7337  0.4324  0.4951
 1188SOL     OW15199   1.837   4.017   7.218 -0.0347  0.3663 -0.0400
 1188SOL    HW115200   1.758   4.036   7.269 -1.7364  0.3297 -2.6535
 1188SOL    HW215201   1.824   3.925   7.194 -0.0282  0.2382  0.4526
 1189SOL     OW15202   0.045   1.634   4.574  0.1333  0.2578 -0.0868
 1189SOL    HW115203   0.115   1.668   4.630 -1.7037  1.6875  1.3833
 1189SOL    HW215204   0.074   1.599   4.490  0.3046 -3.1675  1.3810
 1190SOL     OW15205   2.535   0.130  11.331 -0.7642 -0.1041 -0.4198
 1190SOL    HW115206   2.498   0.099  11.414 -1.0930 -0.9307 -0.8781
 1190SOL    HW215207   2.572   0.215  11.355 -2.5903  0.3391  0.8064
 1191SOL     OW15208   1.633   0.147   4.967 -0.4830  0.2397  0.1333
 1191SOL    HW115209   1.618   0.105   4.883  3.7917  0.3743 -0.7341
 1191SOL    HW215210   1.728   0.135   4.967 -0.6497 -1.1398 -0.8817
 1192SOL     OW15211   1.754   2.569  11.397  0.0354 -0.6313 -0.2594
 1192SOL    HW115212   1.819   2.522  11.449 -0.3250 -0.5132  0.3055
 1192SOL    HW215213   1.770   2.659  11.424  0.1632 -0.3708 -1.2234
 1193SOL     OW15214   1.294   0.094  16.683 -0.3556  0.3730 -0.0091
 1193SOL    HW115215   1.309   0.182  16.719  1.1982 -0.1403  0.5860
 1193SOL    HW215216   1.281   0.130  16.595  0.5353  0.1798 -0.2174
 1194SOL     OW15217   3.943   1.711  13.543 -0.3917  0.0279 -0.1288
 1194SOL    HW115218   3.944   1.621  13.576 -1.6362  1.0678  2.7315
 1194SOL    HW215219   4.023   1.737  13.587 -1.2277  0.8549  0.9160
 1195SOL     OW15220   0.287   2.391   2.690 -0.0823 -0.6044  0.5969
 1195SOL    HW115221   0.277   2.449   2.766  0.2687 -0.3585  0.4585
 1195SOL    HW215222   0.272   2.306   2.730  1.0910 -1.2178 -0.2481
 1196SOL     OW15223   4.713   4.634   3.456 -0.0121  0.5889  0.2438
 1196SOL    HW115224   4.668   4.610   3.375 -0.8287  0.8349  0.6180
 1196SOL    HW215225   0.048   4.568   3.454 -1.1865 -0.6781  1.5084
 1197SOL     OW15226   4.169   1.048   4.467 -0.0516  0.9072  0.0566
 1197SOL    HW115227   4.092   0.996   4.446  0.1751 -0.1889  1.9789
 1197SOL    HW215228   4.225   0.988   4.516 -0.4691  0.2872 -0.2299
 1198SOL     OW15229   0.827   3.185   2.781  0.0061  0.4727  0.2267
 1198SOL    HW115230   0.918   3.203   2.803 -0.3344  1.6466  0.6876
 1198SOL    HW215231   0.829   3.107   2.725 -0.3069  1.8132 -1.6323
 1199SOL     OW15232   0.176   3.242   8.931  0.0699 -0.2457 -0.6267
 1199SOL    HW115233   0.126   3.197   8.999 -2.0625  2.1363 -0.6278
 1199SOL    HW215234   0.105   3.251   8.867 -0.0263 -0.8288 -0.6015
 1200SOL     OW15235   2.782   0.196   2.351  0.1846 -0.2760 -0.3616
 1200SOL    HW115236   2.770   0.291   2.348  0.2005 -0.2109  1.6548
 1200SOL    HW215237   2.776   0.178   2.445  4.6548 -2.5484 -0.5248
 1201SOL     OW15238   0.809   4.266   8.099  0.3115 -0.3683 -0.5895
 1201SOL    HW115239   0.810   4.307   8.186  0.4154  0.4337 -0.9758
 1201SOL    HW215240   0.726   4.298   8.064 -0.5812 -1.9740  0.0388
 1202SOL     OW15241   0.117   3.041   9.485  0.4586  0.4238 -0.3579
 1202SOL    HW115242   0.027   3.074   9.486  0.6955  1.0971 -1.7682
 1202SOL    HW215243   0.138   3.062   9.394 -1.1279 -0.9905 -1.0552
 1203SOL     OW15244   1.853   0.945   2.555  0.2718 -0.1805  0.2343
 1203SOL    HW115245   1.782   1.009   2.559 -0.5589 -1.0365 -1.0686
 1203SOL    HW215246   1.826   0.891   2.629 -2.4813 -0.6643 -1.1298
 1204SOL     OW15247   3.837   2.485   8.551  1.2593 -0.4378 -0.2656
 1204SOL    HW115248   3.893   2.520   8.619  0.3823  0.0957  0.1777
 1204SOL    HW215249   3.796   2.421   8.609  1.4704  0.4129  0.8194
 1205SOL     OW15250   3.873   1.601   6.048 -0.0831 -0.3829 -0.0443
 1205SOL    HW115251   3.859   1.611   6.142 -2.6236  0.3053 -0.5146
 1205SOL    HW215252   3.865   1.690   6.015 -0.8377 -0.0517  1.0534
 1206SOL     OW15253   3.773   1.200   0.503 -0.7001  0.1512 -0.0632
 1206SOL    HW115254   3.751   1.110   0.526  0.0564  0.2518  1.0048
 1206SOL    HW215255   3.845   1.182   0.442 -1.6798 -0.0041 -1.1881
 1207SOL     OW15256   4.651   3.057  12.741 -0.1128  0.5077  0.5026
 1207SOL    HW115257   4.581   3.003  12.703  0.8298 -0.5615  0.2969
 1207SOL    HW215258   4.722   3.003  12.707 -0.6687  0.1731 -0.1464
 1208SOL     OW15259   3.505   1.028   2.754 -0.1108 -0.3752 -0.0002
 1208SOL    HW115260   3.528   1.063   2.840 -0.7187 -0.3921  0.1704
 1208SOL    HW215261   3.461   0.944   2.773 -1.1301 -0.2147 -1.6449
 1209SOL     OW15262   2.134   1.302   4.218 -0.3156 -0.0327 -0.3385
 1209SOL    HW115263   2.120   1.263   4.304  1.8237  0.0545  0.0597
 1209SOL    HW215264   2.192   1.377   4.235  0.1665 -0.5335  0.1978
 1210SOL     OW15265   4.564   4.406   3.853 -0.0109  0.4966  0.1206
 1210SOL    HW115266   4.493   4.342   3.863 -1.0178  1.5509 -0.3376
 1210SOL    HW215267   4.645   4.356   3.836  0.2467  0.9242  0.0920
 1211SOL     OW15268   0.661   1.248   8.103 -0.4569 -1.0170  0.3632
 1211SOL    HW115269   0.618   1.221   8.022 -1.7146  1.0391  0.3318
 1211SOL    HW215270   0.660   1.343   8.091 -2.4458 -1.0810 -0.0265
 1212SOL     OW15271   2.419   0.052   0.717 -0.0184 -0.0677  0.1128
 1212SOL    HW115272   2.339   0.042   0.665  0.2537  3.4809 -0.9906
 1212SOL    HW215273   2.380   0.111   0.782  3.1004  0.5526  1.4251
 1213SOL     OW15274   3.573   0.649   4.201  0.2519 -0.0622 -0.7246
 1213SOL    HW115275   3.567   0.739   4.233 -0.7546 -0.0127 -1.0519
 1213SOL    HW215276   3.555   0.601   4.282 -1.9041  1.3550 -0.3792
 1214SOL     OW15277   3.650   2.722   6.024 -0.0614 -0.0241  0.2376
 1214SOL    HW115278   3.675   2.814   6.037  0.9933 -0.3889  0.7427
 1214SOL    HW215279   3.572   2.727   5.969 -0.0123  2.7545  0.3921
 1215SOL     OW15280   4.442   0.601   6.245 -0.4209 -0.5771  0.1709
 1215SOL    HW115281   4.363   0.656   6.239  0.2508  0.3942  0.2141
 1215SOL    HW215282   4.485   0.621   6.328 -1.5071  0.9214  0.3794
 1216SOL     OW15283   2.149   2.689   4.490 -0.4866  0.0203  0.2911
 1216SOL    HW115284   2.214   2.658   4.553  0.3574  1.6839  0.2395
 1216SOL    HW215285   2.075   2.704   4.549 -1.4620  1.6147 -1.3195
 1217SOL     OW15286   2.115   1.696   0.975  0.1357 -0.1409 -0.6239
 1217SOL    HW115287   2.099   1.785   1.007 -0.4828 -1.4259  2.6419
 1217SOL    HW215288   2.049   1.709   0.907 -1.0968 -2.1025  0.2313
 1218SOL     OW15289   0.596   1.732  13.652  0.1637  0.1269 -0.2353
 1218SOL    HW115290   0.582   1.641  13.628  1.4334 -0.1788  0.1424
 1218SOL    HW215291   0.538   1.778  13.591 -1.4024 -0.2966  0.9485
 1219SOL     OW15292   3.227   1.820   8.235 -0.0048 -0.0614 -0.3468
 1219SOL    HW115293   3.217   1.855   8.323 -0.2660 -2.6414  0.6671
 1219SOL    HW215294   3.319   1.824   8.212  0.3651 -3.4901  0.4707
 1220SOL     OW15295   2.163   2.871   3.053 -0.4399  0.2357  0.7767
 1220SOL    HW115296   2.204   2.854   2.968  1.4061  0.7533  1.5618
 1220SOL    HW215297   2.068   2.863   3.045 -0.2515 -0.4921 -0.7632
 1221SOL     OW15298   0.964   2.456   7.734 -0.3180 -0.2518 -0.4750
 1221SOL    HW115299   0.969   2.522   7.665  2.9846 -0.9953 -0.9359
 1221SOL    HW215300   0.956   2.509   7.813 -0.3322 -1.8495  0.6139
 1222SOL     OW15301   4.690   3.303   7.290 -0.2608 -0.5074  0.1547
 1222SOL    HW115302   4.712   3.211   7.301  1.7433  0.0505  0.8303
 1222SOL    HW215303   4.601   3.310   7.325  0.5047  0.1843  1.9873
 1223SOL     OW15304   4.152   3.676   6.498  0.5441 -0.0299  0.0108
 1223SOL    HW115305   4.169   3.748   6.559  2.5071 -1.9990  1.7669
 1223SOL    HW215306   4.062   3.694   6.470  0.4705  2.5294  1.8848
 1224SOL     OW15307   1.996   0.556   3.337  0.1683 -0.4268 -0.4273
 1224SOL    HW115308   2.055   0.611   3.286 -0.3475 -0.8926 -1.5193
 1224SOL    HW215309   2.061   0.507   3.388 -1.5415 -1.2907  0.9412
 1225SOL     OW15310   2.000   2.227  10.987  0.2880 -0.1559  0.0521
 1225SOL    HW115311   1.978   2.301  11.044  0.7061  0.6413 -0.8207
 1225SOL    HW215312   1.940   2.161  11.021  0.1456  0.2396  0.5658
 1226SOL     OW15313   3.627   3.426   0.264  0.0101 -0.1592  0.5048
 1226SOL    HW115314   3.646   3.433   0.358  1.6479  1.7426  0.0401
 1226SOL    HW215315   3.533   3.407   0.261  0.3836 -1.9148  0.0494
 1227SOL     OW15316   2.572   0.667  10.306 -0.5399 -0.1591 -0.2574
 1227SOL    HW115317   2.660   0.698  10.331 -0.7786 -1.0796  1.7658
 1227SOL    HW215318   2.581   0.572  10.306 -1.3546 -0.2347 -1.3732
 1228SOL     OW15319   4.674   1.361  11.811  0.3464 -0.0692  0.7215
 1228SOL    HW115320   4.659   1.299  11.739  0.5788  0.1316  0.4962
 1228SOL    HW215321   4.602   1.343  11.870 -0.4389  1.8579  0.3369
 1229SOL     OW15322   4.473   1.826   2.472 -0.2960 -0.2121 -0.5649
 1229SOL    HW115323   4.464   1.918   2.494  0.1507 -1.0158  2.9124
 1229SOL    HW215324   4.488   1.793   2.560  1.7316 -0.4087 -0.9774
 1230SOL     OW15325   3.491   1.403   5.171 -0.2696  0.3210  0.0520
 1230SOL    HW115326   3.438   1.446   5.238  2.2499  0.0934  2.1891
 1230SOL    HW215327   3.459   1.313   5.180  3.9758 -1.3553 -1.5886
 1231SOL     OW15328   0.557   0.327   9.006  0.0582  0.2680 -0.2111
 1231SOL    HW115329   0.470   0.328   8.967  0.7667 -1.3503 -1.8773
 1231SOL    HW215330   0.609   0.280   8.941 -1.7743 -1.2310 -0.5972
 1232SOL     OW15331   1.283   0.279   5.798 -0.3682  0.2852  0.5043
 1232SOL    HW115332   1.261   0.370   5.816  0.0839  0.5057 -0.0301
 1232SOL    HW215333   1.260   0.231   5.877  1.5385 -0.9852  0.2857
 1233SOL     OW15334   3.414   1.952   7.361 -0.1388 -0.1983  0.1308
 1233SOL    HW115335   3.330   1.996   7.372 -2.4718 -4.5914  0.1375
 1233SOL    HW215336   3.466   2.003   7.423 -1.7153  0.2986  1.0373
 1234SOL     OW15337   2.977   1.020   6.655 -0.1882 -0.1639 -0.4744
 1234SOL    HW115338   2.903   1.060   6.609 -0.8891 -2.2041 -1.1105
 1234SOL    HW215339   2.972   0.935   6.612 -1.8403 -0.2897 -0.0442
 1235SOL     OW15340   3.518   0.754   7.035  0.1596  0.5734 -0.1071
 1235SOL    HW115341   3.453   0.813   6.998 -0.6214 -0.0779  0.2192
 1235SOL    HW215342   3.477   0.745   7.121  0.1666 -2.9674 -0.4740
 1236SOL     OW15343   3.610   3.188   8.785 -0.0442 -0.0230 -0.3200
 1236SOL    HW115344   3.592   3.094   8.780  1.3388 -0.2924 -0.3600
 1236SOL    HW215345   3.683   3.184   8.723  1.8652 -0.9377  1.9336
 1237SOL     OW15346   3.703   0.463  13.751  0.1550  0.3394  0.0018
 1237SOL    HW115347   3.685   0.377  13.712 -1.9444  1.9056 -2.4793
 1237SOL    HW215348   3.636   0.470  13.819 -1.3856 -1.1570 -1.3701
 1238SOL     OW15349   0.426   2.794   9.915  0.2819  0.8183 -0.2700
 1238SOL    HW115350   0.430   2.868   9.854 -0.1417  1.0748  0.0113
 1238SOL    HW215351   0.337   2.766   9.895  0.7888  0.4631 -2.0092
 1239SOL     OW15352   2.045   4.230   6.562  0.6918 -0.4345 -0.5830
 1239SOL    HW115353   1.975   4.262   6.505 -1.4960 -1.3260  1.6069
 1239SOL    HW215354   2.041   4.302   6.625 -0.3380  0.2357 -1.4106
 1240SOL     OW15355   3.436   2.591   7.252 -0.6960 -0.8106 -0.5015
 1240SOL    HW115356   3.530   2.600   7.239 -0.4093 -1.7812  0.9166
 1240SOL    HW215357   3.429   2.666   7.311  1.4853 -1.0894  0.1110
 1241SOL     OW15358   2.620   2.479   8.270 -0.0777 -0.0605 -0.2844
 1241SOL    HW115359   2.532   2.517   8.264  0.0297 -0.1798 -2.7615
 1241SOL    HW215360   2.611   2.426   8.349 -0.6760  1.5559  0.7330
 1242SOL     OW15361   2.097   1.513   2.858 -0.0703 -0.0521  0.3168
 1242SOL    HW115362   2.186   1.545   2.878  0.0563 -0.4912  0.4494
 1242SOL    HW215363   2.091   1.524   2.763 -2.7658 -1.5379  0.3394
 1243SOL     OW15364   4.159   1.382  13.702 -0.6075 -0.3035  0.6655
 1243SOL    HW115365   4.207   1.460  13.675 -1.4477 -0.0718 -0.1602
 1243SOL    HW215366   4.096   1.418  13.764 -0.8633  0.7668 -0.2271
 1244SOL     OW15367   2.410   3.612  12.756 -0.0956 -0.0201 -0.3186
 1244SOL    HW115368   2.423   3.559  12.835 -0.2562 -0.5655 -0.6535
 1244SOL    HW215369   2.425   3.701  12.788 -1.6313  0.6872 -1.5455
 1245SOL     OW15370   3.775   3.271   2.929  0.1217  0.2917 -0.5236
 1245SOL    HW115371   3.830   3.322   2.989  0.7325 -0.7740 -0.1797
 1245SOL    HW215372   3.715   3.246   2.999 -1.0691  3.3327 -0.4477
 1246SOL     OW15373   4.185   1.410   7.978  0.2734  0.7768 -0.1214
 1246SOL    HW115374   4.225   1.390   7.893  2.4043 -0.3049  1.1463
 1246SOL    HW215375   4.232   1.344   8.029 -2.6320  0.1888  1.7494
 1247SOL     OW15376   3.919   3.335   4.556  0.0666  0.5332  0.3802
 1247SOL    HW115377   3.872   3.253   4.540 -0.3156  1.1281 -1.6243
 1247SOL    HW215378   3.844   3.392   4.540 -1.7887 -2.0889 -0.4035
 1248SOL     OW15379   1.094   3.846   6.146 -0.3957  0.2152  0.1299
 1248SOL    HW115380   1.052   3.774   6.192  0.4490 -1.2156 -1.3302
 1248SOL    HW215381   1.107   3.802   6.062 -1.0815  0.0622  0.1018
 1249SOL     OW15382   2.701   3.072   3.207  0.1889  0.0561  1.1323
 1249SOL    HW115383   2.614   3.042   3.182  0.8324 -1.5165  0.7723
 1249SOL    HW215384   2.705   3.164   3.181  0.6576 -0.8278 -1.9325
 1250SOL     OW15385   3.282   3.522   7.259 -0.1650 -0.2647 -0.1593
 1250SOL    HW115386   3.362   3.497   7.304  0.4744  0.3571 -0.9536
 1250SOL    HW215387   3.299   3.616   7.269 -0.4225 -0.3439  1.0051
 1251SOL     OW15388   3.796   1.245   5.205  0.4078  0.1489  0.3624
 1251SOL    HW115389   3.815   1.263   5.112 -0.0061 -2.2439 -0.1816
 1251SOL    HW215390   3.730   1.313   5.222  0.9955  0.2149  2.2858
 1252SOL     OW15391   4.033   1.523   6.495 -0.3841  0.1353 -0.2111
 1252SOL    HW115392   4.002   1.434   6.475  0.2865 -0.5601  1.8493
 1252SOL    HW215393   3.978   1.574   6.436  0.4812  0.6824 -0.5294
 1253SOL     OW15394   0.304   1.395   7.432 -0.2159 -0.4875 -0.1936
 1253SOL    HW115395   0.284   1.470   7.376 -1.6991 -0.5445  0.2688
 1253SOL    HW215396   0.375   1.426   7.489  0.2699 -0.7096 -0.6781
 1254SOL     OW15397   1.671   0.017  12.854 -0.2907 -0.0640 -0.4552
 1254SOL    HW115398   1.734   4.692  12.897 -0.7091  0.1281  0.4252
 1254SOL    HW215399   1.686   4.731  12.762  0.7959 -0.7961 -0.1141
 1255SOL     OW15400   0.445   1.303   3.749 -0.1122  0.1968 -0.4135
 1255SOL    HW115401   0.407   1.323   3.664  0.0408  1.9931 -0.0557
 1255SOL    HW215402   0.530   1.266   3.723  0.7211  0.7213  1.5141
 1256SOL     OW15403   2.843   2.961   4.797  0.2637  0.2960  0.1456
 1256SOL    HW115404   2.934   2.963   4.770  0.6557  3.2566  1.6360
 1256SOL    HW215405   2.815   3.049   4.770 -1.3885  0.1533  1.3447
 1257SOL     OW15406   0.840   1.100   9.645 -0.3587  0.3255 -0.2619
 1257SOL    HW115407   0.906   1.050   9.597  0.0133  1.5318 -1.0225
 1257SOL    HW215408   0.751   1.077   9.619 -0.6763 -0.6157  1.6447
 1258SOL     OW15409   0.058   1.085   4.653  0.2579 -0.1291  0.4419
 1258SOL    HW115410   0.151   1.065   4.663  0.4989  0.3013 -0.9727
 1258SOL    HW215411   0.025   1.011   4.704  2.0677 -1.1975  0.0601
 1259SOL     OW15412   4.323   0.635   4.775  0.0360  0.0698  0.3775
 1259SOL    HW115413   4.330   0.643   4.679  0.1359  2.9459  0.6396
 1259SOL    HW215414   4.393   0.691   4.808  0.3742  1.0836 -2.0410
 1260SOL     OW15415   1.038   1.072   6.559 -0.2302  0.2563 -0.1674
 1260SOL    HW115416   1.051   1.127   6.636  0.1606 -3.3267  2.2877
 1260SOL    HW215417   1.034   1.141   6.493  0.7135 -0.0228 -0.5147
 1261SOL     OW15418   0.483   1.477   9.023 -0.3372 -0.0685 -0.0097
 1261SOL    HW115419   0.484   1.382   9.025 -1.1871 -0.1084 -1.2745
 1261SOL    HW215420   0.394   1.503   8.999 -0.5906  1.5409  2.5920
 1262SOL     OW15421   3.337   3.651   9.944 -0.2365 -0.3316 -0.1043
 1262SOL    HW115422   3.275   3.694  10.003 -0.5571 -1.2023  0.1962
 1262SOL    HW215423   3.410   3.633  10.003  0.8896 -1.1147 -1.7231
 1263SOL     OW15424   3.543   3.934   2.789  0.2527  0.1233  0.3997
 1263SOL    HW115425   3.496   3.930   2.705  1.0737 -1.2520 -0.0051
 1263SOL    HW215426   3.513   4.019   2.820 -0.1003  0.0251  0.3350
 1264SOL     OW15427   2.816   0.863   4.222  0.3176 -0.1490  0.2636
 1264SOL    HW115428   2.828   0.809   4.144 -3.0864  2.3946 -2.0681
 1264SOL    HW215429   2.820   0.952   4.188 -0.9079 -0.1718  0.0315
 1265SOL     OW15430   3.251   0.859  16.370  1.1026  0.3136  0.2396
 1265SOL    HW115431   3.263   0.793  16.438  1.4653 -0.3025 -0.4205
 1265SOL    HW215432   3.331   0.850  16.318  0.7094 -1.1180 -0.1010
 1266SOL     OW15433   2.161   0.791  12.541 -0.1078  0.3836 -0.2257
 1266SOL    HW115434   2.142   0.817  12.451  0.3050  0.5672 -0.2614
 1266SOL    HW215435   2.256   0.796  12.536 -0.2164  0.4297 -2.0048
 1267SOL     OW15436   0.909   2.937   5.989  0.8998  0.0148 -0.1145
 1267SOL    HW115437   0.965   2.900   5.920  1.7093  1.3199 -0.1488
 1267SOL    HW215438   0.900   3.028   5.962 -0.8574  0.1131  0.7929
 1268SOL     OW15439   2.801   2.446   2.095 -0.6739 -0.0662  0.6624
 1268SOL    HW115440   2.804   2.454   2.000 -0.1682 -1.7298  0.5288
 1268SOL    HW215441   2.831   2.357   2.114  1.9389  0.6575 -0.0347
 1269SOL     OW15442   4.446   0.160   7.903 -0.0019 -0.1791 -0.3920
 1269SOL    HW115443   4.456   0.220   7.977 -2.3817  0.8686 -0.9510
 1269SOL    HW215444   4.355   0.175   7.878  0.4771  1.0393 -1.4110
 1270SOL     OW15445   4.604   2.711  13.851 -0.2353 -0.0277  0.6822
 1270SOL    HW115446   4.665   2.743  13.784 -2.4948  1.9984 -0.4157
 1270SOL    HW215447   4.539   2.680  13.788  0.6819 -1.0069  0.2284
 1271SOL     OW15448   2.801   0.909   2.753 -0.4594 -0.2699 -0.3694
 1271SOL    HW115449   2.864   0.942   2.816 -0.0463 -0.3252 -0.7465
 1271SOL    HW215450   2.856   0.916   2.674  0.6331  0.2965  0.4359
 1272SOL     OW15451   1.721   2.481   8.426  0.1948  0.1889  0.0917
 1272SOL    HW115452   1.680   2.515   8.346  0.5277 -0.2897 -0.2836
 1272SOL    HW215453   1.645   2.470   8.483 -0.4461  0.5822 -0.6866
 1273SOL     OW15454   2.414   2.151   2.986 -0.1980  0.0760 -0.6177
 1273SOL    HW115455   2.424   2.110   2.900  2.6265  1.1384 -0.8017
 1273SOL    HW215456   2.433   2.243   2.967 -0.7447  0.3661  0.2590
 1274SOL     OW15457   1.150   2.118  11.131 -0.7163 -0.0893 -0.1240
 1274SOL    HW115458   1.055   2.132  11.129 -0.8225 -0.6514  1.8599
 1274SOL    HW215459   1.188   2.200  11.099 -0.1724 -0.8234 -1.3603
 1275SOL     OW15460   3.552   3.634   4.916 -0.5302  0.8658 -0.3011
 1275SOL    HW115461   3.632   3.608   4.871 -0.3947 -1.2516  1.1296
 1275SOL    HW215462   3.507   3.551   4.897  0.9752 -0.0915  0.3496
 1276SOL     OW15463   3.339   2.587   4.618  0.2822 -0.7002 -0.3826
 1276SOL    HW115464   3.290   2.537   4.684  1.7536 -1.7893 -0.1102
 1276SOL    HW215465   3.424   2.544   4.626  0.3235 -0.1607  2.0111
 1277SOL     OW15466   4.168   3.784  13.119 -0.5606  0.2835 -0.3195
 1277SOL    HW115467   4.237   3.840  13.082 -1.6199  0.9699 -1.2560
 1277SOL    HW215468   4.224   3.723  13.167  0.8834  0.5804 -1.6186
 1278SOL     OW15469   2.947   0.978  15.450  0.3852 -0.0292 -0.1660
 1278SOL    HW115470   3.004   0.974  15.374 -1.0458 -1.5167 -1.1519
 1278SOL    HW215471   2.909   1.066  15.439  0.4522 -0.0944 -0.8993
 1279SOL     OW15472   2.247   0.876   1.842 -0.4020 -0.1589  0.4101
 1279SOL    HW115473   2.279   0.805   1.787  0.1268  2.2406 -2.3570
 1279SOL    HW215474   2.261   0.827   1.923  1.5485 -0.8547 -0.3490
 1280SOL     OW15475   2.723   3.178   8.794 -0.3460  0.5115  0.1268
 1280SOL    HW115476   2.687   3.266   8.808  2.2903  1.7671 -1.0142
 1280SOL    HW215477   2.766   3.157   8.877  3.7704 -0.5585 -2.2920
 1281SOL     OW15478   3.888   2.586   6.385 -0.2627  0.4919 -0.0396
 1281SOL    HW115479   3.874   2.618   6.474 -1.6227  0.7059 -0.3246
 1281SOL    HW215480   3.984   2.587   6.388 -0.1730 -1.4872 -2.2483
 1282SOL     OW15481   2.267   2.210   4.091  0.2482  0.0137  0.1176
 1282SOL    HW115482   2.218   2.183   4.168 -0.2144 -1.6657 -0.7807
 1282SOL    HW215483   2.271   2.303   4.115  0.9475  0.4719 -1.7628
 1283SOL     OW15484   0.452   3.626  13.379  0.1190  0.4015  0.1950
 1283SOL    HW115485   0.454   3.720  13.360 -1.2897  0.4925  0.4759
 1283SOL    HW215486   0.462   3.598  13.288  0.2536  0.3541  0.2244
 1284SOL     OW15487   0.774   2.463   7.256 -0.3413  0.2412  0.1667
 1284SOL    HW115488   0.771   2.512   7.173 -0.8683 -1.3798 -0.7852
 1284SOL    HW215489   0.813   2.383   7.221 -3.0614 -1.1505  0.2924
 1285SOL     OW15490   1.237   4.128  14.651  0.0692  0.2126 -0.1434
 1285SOL    HW115491   1.317   4.088  14.617  0.2348 -0.9222  1.5748
 1285SOL    HW215492   1.249   4.123  14.746 -1.5858  1.3355  0.1275
 1286SOL     OW15493   2.697   4.148  11.875 -0.3762 -0.2367 -0.2428
 1286SOL    HW115494   2.632   4.120  11.939  0.2530 -1.0099  0.0611
 1286SOL    HW215495   2.705   4.071  11.818  0.9875  0.5013 -1.0456
 1287SOL     OW15496   1.927   4.141  11.925 -0.2911  0.2224  0.7871
 1287SOL    HW115497   1.882   4.058  11.908  1.1108 -0.7185  1.7071
 1287SOL    HW215498   2.019   4.115  11.916 -0.0306  1.3390  0.2331
 1288SOL     OW15499   2.041   1.200   8.929 -0.1397  0.7990  0.5303
 1288SOL    HW115500   2.018   1.186   8.837  1.1660  0.9776  0.1895
 1288SOL    HW215501   1.977   1.146   8.975  2.4100 -2.3898  0.3677
 1289SOL     OW15502   2.530   0.418   6.815 -0.2965  0.6231 -0.6238
 1289SOL    HW115503   2.615   0.405   6.857 -0.7814 -0.9996 -0.1175
 1289SOL    HW215504   2.507   0.325   6.807  1.3861  0.1274  0.1600
 1290SOL     OW15505   1.551   2.877   1.523  0.1460 -0.4032 -0.0830
 1290SOL    HW115506   1.606   2.798   1.521  3.7537  2.0739  1.6189
 1290SOL    HW215507   1.578   2.917   1.606  3.1739  0.2781 -1.3921
 1291SOL     OW15508   4.562   1.410   2.758  0.3191 -0.6476  0.3760
 1291SOL    HW115509   4.553   1.339   2.822 -1.2693 -1.1132 -0.3739
 1291SOL    HW215510   4.479   1.401   2.711  0.6653  0.4331 -0.4382
 1292SOL     OW15511   3.583   1.720   3.450  0.4293 -0.3156 -0.3870
 1292SOL    HW115512   3.607   1.674   3.530  2.4273 -1.6792 -1.7743
 1292SOL    HW215513   3.529   1.651   3.412  2.4496 -2.0661 -0.0900
 1293SOL     OW15514   2.805   2.068   3.737  0.0715  0.3919 -0.0770
 1293SOL    HW115515   2.817   2.081   3.831 -1.3005 -0.9970  0.2787
 1293SOL    HW215516   2.846   2.150   3.709  2.2384  0.2030  2.5691
 1294SOL     OW15517   2.957   0.389  11.529 -0.6245 -0.0234  0.1489
 1294SOL    HW115518   2.992   0.340  11.603  1.4034 -0.0910 -0.8500
 1294SOL    HW215519   2.972   0.478  11.559 -1.4970  0.1269  0.1258
 1295SOL     OW15520   2.641   3.630   4.021  0.3851 -0.2419 -0.4132
 1295SOL    HW115521   2.571   3.644   4.084 -1.0893 -0.0957 -2.0717
 1295SOL    HW215522   2.583   3.638   3.945 -0.4685  0.8024  0.3513
 1296SOL     OW15523   4.433   2.848   7.885 -0.5734  0.1888  0.3758
 1296SOL    HW115524   4.390   2.932   7.873 -2.1432 -0.8163 -1.0761
 1296SOL    HW215525   4.483   2.842   7.804 -0.9627 -1.8726  0.2747
 1297SOL     OW15526   4.552   4.343  16.161 -0.0829  0.5020 -0.3890
 1297SOL    HW115527   4.467   4.384  16.144 -1.1904 -1.6751 -0.1791
 1297SOL    HW215528   4.605   4.423  16.161  0.0496  0.4152  0.8433
 1298SOL     OW15529   3.579   3.555  17.578 -0.0303  0.4011 -0.2676
 1298SOL    HW115530   3.577   3.630  17.519  2.3111  1.1816  0.6473
 1298SOL    HW215531   3.598   3.593  17.664  1.7158 -4.3259  1.4546
 1299SOL     OW15532   0.847   3.380   6.829 -0.4539 -0.0331  0.3390
 1299SOL    HW115533   0.902   3.458   6.835 -0.3811 -0.0312 -0.3234
 1299SOL    HW215534   0.757   3.412   6.831  0.2225  2.0974 -3.6607
 1300SOL     OW15535   2.398   1.171  10.696  0.5413 -0.1603 -0.0492
 1300SOL    HW115536   2.331   1.158  10.629  0.2627 -1.6289  0.5039
 1300SOL    HW215537   2.369   1.109  10.763 -2.4635 -0.6917 -1.8357
 1301SOL     OW15538   0.256   4.675   9.142 -0.0161 -0.1847  0.4070
 1301SOL    HW115539   0.175   4.651   9.188 -0.9240 -0.7616 -1.4840
 1301SOL    HW215540   0.253   0.037   9.149 -0.0324 -0.0634 -1.1632
 1302SOL     OW15541   2.522   4.274  13.492  0.5564 -0.7959  0.5303
 1302SOL    HW115542   2.485   4.187  13.479 -2.5667  0.9672 -2.5010
 1302SOL    HW215543   2.580   4.265  13.568  3.4795 -1.1135 -1.7588
 1303SOL     OW15544   4.655   2.639  14.397 -0.0132 -0.0309 -0.0995
 1303SOL    HW115545   4.672   2.545  14.395 -1.0649 -0.2091 -0.7676
 1303SOL    HW215546   4.670   2.671  14.308 -2.3701  1.8126  0.1466
 1304SOL     OW15547   4.284   1.561   6.395  0.0310 -0.2283 -0.3854
 1304SOL    HW115548   4.192   1.550   6.423  0.3618 -0.6925  0.5301
 1304SOL    HW215549   4.286   1.509   6.315  0.4751 -0.4994 -0.1939
 1305SOL     OW15550   0.091   0.116   1.988 -0.3130 -0.0703 -0.1369
 1305SOL    HW115551   0.136   0.196   1.962 -0.3312 -0.3188 -0.9315
 1305SOL    HW215552   0.116   0.119   2.081 -1.8494 -0.3061  0.2977
 1306SOL     OW15553   3.185   0.128   0.807 -0.1086 -0.0641  0.1505
 1306SOL    HW115554   3.148   0.214   0.826 -1.2916 -0.2295 -1.4134
 1306SOL    HW215555   3.222   0.093   0.888 -0.6543  1.0279  0.8760
 1307SOL     OW15556   4.029   3.448   0.814  0.7054  0.1175  0.0067
 1307SOL    HW115557   3.945   3.493   0.825  0.6957 -0.0992  0.8050
 1307SOL    HW215558   4.093   3.515   0.838  2.9106 -2.6538  1.7905
 1308SOL     OW15559   1.566   3.502   6.117  0.2565 -0.1855 -0.2101
 1308SOL    HW115560   1.479   3.500   6.077 -0.4092 -0.9447  1.3084
 1308SOL    HW215561   1.572   3.594   6.143 -3.1942  0.2410 -0.9511
 1309SOL     OW15562   2.812   4.418  14.827 -0.7602 -0.6545  0.1806
 1309SOL    HW115563   2.746   4.461  14.880 -0.1411  0.7229 -0.1598
 1309SOL    HW215564   2.766   4.340  14.795  0.6816 -1.5430  0.2718
 1310SOL     OW15565   1.753   3.345   3.706  0.3805  0.3212 -0.0346
 1310SOL    HW115566   1.844   3.371   3.721  1.0409 -0.9631 -1.7952
 1310SOL    HW215567   1.775   3.255   3.679  0.1156 -0.1014  1.1529
 1311SOL     OW15568   1.535   3.538   7.824  0.5097  0.1110 -0.2140
 1311SOL    HW115569   1.515   3.557   7.916 -0.0018  1.9453 -0.7099
 1311SOL    HW215570   1.459   3.586   7.790 -0.1188 -0.7272 -0.0007
 1312SOL     OW15571   0.751   0.423   5.483  0.1848  0.6940 -0.0168
 1312SOL    HW115572   0.838   0.406   5.520  0.4768 -0.5653 -1.2641
 1312SOL    HW215573   0.742   0.518   5.493 -0.3024  0.5292  1.1799
 1313SOL     OW15574   1.905   2.430   3.480  0.0360  0.1674  0.6200
 1313SOL    HW115575   1.919   2.431   3.386  0.1725 -0.6871  0.6337
 1313SOL    HW215576   1.890   2.523   3.494  2.7339  0.7658 -0.4492
 1314SOL     OW15577   2.250   3.838   3.248  0.2556  0.4380 -0.5930
 1314SOL    HW115578   2.268   3.749   3.217  1.3113  0.6361 -0.5765
 1314SOL    HW215579   2.320   3.845   3.313  2.5346 -2.1851 -2.7628
 1315SOL     OW15580   3.929   2.323  10.726 -0.5072 -0.2309  0.7206
 1315SOL    HW115581   3.884   2.395  10.769  2.2091  2.2117 -0.5272
 1315SOL    HW215582   3.849   2.272  10.733 -1.2278  0.8636  0.3973
 1316SOL     OW15583   0.234   2.901   6.780  0.4116 -0.6393 -0.0737
 1316SOL    HW115584   0.201   2.979   6.735  0.2070  0.0321  1.2330
 1316SOL    HW215585   0.320   2.939   6.799 -0.0016  0.2137  0.1131
 1317SOL     OW15586   2.004   0.969  17.057  0.2871  0.0760 -0.0881
 1317SOL    HW115587   2.031   0.971  16.966 -2.6464  0.2669 -0.9366
 1317SOL    HW215588   1.908   0.975  17.058  0.4127  1.9889 -1.3323
 1318SOL     OW15589   1.090   2.792  12.051  0.1297 -0.5733  0.5059
 1318SOL    HW115590   1.073   2.699  12.064  0.8967 -1.2389 -3.4131
 1318SOL    HW215591   1.057   2.824  12.135 -1.5707 -0.3649 -0.2462
 1319SOL     OW15592   2.213   2.146   7.007  0.1858 -0.6326  0.2596
 1319SOL    HW115593   2.198   2.144   7.101 -0.5203  1.3026  0.1691
 1319SOL    HW215594   2.160   2.220   6.978 -0.4652 -0.8795  0.8510
 1320SOL     OW15595   1.704   0.239   8.388 -0.0134  0.3200 -0.4918
 1320SOL    HW115596   1.638   0.286   8.441 -0.4759  0.3535 -1.1025
 1320SOL    HW215597   1.662   0.159   8.357 -3.3330 -0.3616  5.7101
 1321SOL     OW15598   2.543   0.676   2.343 -0.0144  0.1288  0.2230
 1321SOL    HW115599   2.465   0.689   2.397 -0.5641  0.8870 -0.7627
 1321SOL    HW215600   2.584   0.761   2.327 -1.1949  0.9227  1.4457
 1322SOL     OW15601   1.651   4.224   8.487 -0.0454 -0.2536 -0.1393
 1322SOL    HW115602   1.571   4.260   8.525 -0.4785  0.2393 -1.5098
 1322SOL    HW215603   1.676   4.294   8.427 -0.1793 -1.0970 -1.1962
 1323SOL     OW15604   0.973   2.373  14.258 -0.0860 -0.1101 -0.5662
 1323SOL    HW115605   1.037   2.311  14.292 -0.2655 -0.0880 -0.1818
 1323SOL    HW215606   0.956   2.425  14.336 -1.5670  0.0570 -1.0083
 1324SOL     OW15607   1.582   2.124  11.429  0.4642  0.3656 -0.2597
 1324SOL    HW115608   1.615   2.034  11.422 -1.6108 -0.5505  1.8505
 1324SOL    HW215609   1.494   2.108  11.396  1.3183 -1.7287 -1.6174
 1325SOL     OW15610   0.174   2.324   3.257  0.4681 -0.7478  0.0393
 1325SOL    HW115611   0.123   2.325   3.338 -0.4162 -0.5883 -0.5226
 1325SOL    HW215612   0.265   2.306   3.283  0.6084  0.4990  0.4160
 1326SOL     OW15613   3.579   0.425   5.700 -0.3449 -0.7599  0.0329
 1326SOL    HW115614   3.530   0.471   5.768  0.9046  2.5461 -1.2796
 1326SOL    HW215615   3.557   0.482   5.626  0.4941 -1.6268 -0.8946
 1327SOL     OW15616   3.402   1.765  15.340  0.3946  0.3177 -0.4772
 1327SOL    HW115617   3.344   1.695  15.310  0.9869 -0.2126 -0.3820
 1327SOL    HW215618   3.354   1.847  15.351 -0.5323 -0.2888  0.0117
 1328SOL     OW15619   1.775   1.639   6.113  0.4212 -0.8225 -0.4642
 1328SOL    HW115620   1.813   1.719   6.148 -0.2430 -1.0579  0.8306
 1328SOL    HW215621   1.830   1.577   6.162 -0.0685  0.4284  1.6554
 1329SOL     OW15622   2.236   3.200   2.353  0.0685  0.5083  0.0515
 1329SOL    HW115623   2.277   3.222   2.436  0.7164  2.6869 -0.8492
 1329SOL    HW215624   2.164   3.263   2.346  0.6194  0.9071 -2.0395
 1330SOL     OW15625   4.123   3.492  14.369 -0.3944  0.3740 -0.3727
 1330SOL    HW115626   4.122   3.548  14.447  1.4382  1.5466 -1.1983
 1330SOL    HW215627   4.079   3.413  14.400  0.1663  0.1678 -0.1067
 1331SOL     OW15628   3.809   0.251   4.860  0.1451  0.0932  0.4932
 1331SOL    HW115629   3.775   0.176   4.909 -0.6916  1.2731  1.7129
 1331SOL    HW215630   3.769   0.242   4.774  1.8127 -1.4020 -0.1410
 1332SOL     OW15631   3.384   3.500   5.480 -0.4354  0.8579  0.3872
 1332SOL    HW115632   3.432   3.440   5.423  1.1609  1.2546  1.3174
 1332SOL    HW215633   3.450   3.542   5.535  0.8697  2.3069 -2.3019
 1333SOL     OW15634   4.649   0.051   9.876  0.1742  0.1863  0.0068
 1333SOL    HW115635   4.598   0.129   9.896  0.9263 -0.0622  2.9356
 1333SOL    HW215636   4.672   0.075   9.786  0.8537  0.1684  0.1754
 1334SOL     OW15637   3.030   4.563  14.797 -0.7711  0.4706 -0.7390
 1334SOL    HW115638   3.040   4.603  14.883 -0.4578 -2.2669  0.4927
 1334SOL    HW215639   2.948   4.515  14.810  0.4476 -1.4760 -0.2905
 1335SOL     OW15640   4.156   3.638   7.699  0.5439 -0.0476 -0.3121
 1335SOL    HW115641   4.091   3.708   7.703  1.0573  0.4430 -0.6508
 1335SOL    HW215642   4.137   3.580   7.773  0.2780  1.1680  0.5672
 1336SOL     OW15643   4.356   0.789   1.779 -0.0346  0.2885 -0.0301
 1336SOL    HW115644   4.429   0.810   1.720 -1.4859 -1.2024 -2.3640
 1336SOL    HW215645   4.405   0.756   1.854  0.6781 -1.1380 -1.1165
 1337SOL     OW15646   4.199   3.137   7.149 -0.3339  0.5340  0.2138
 1337SOL    HW115647   4.248   3.111   7.070 -0.5044 -0.0586  0.3090
 1337SOL    HW215648   4.125   3.076   7.149  0.2185 -0.1314 -0.1054
 1338SOL     OW15649   1.630   0.777   6.740  0.3820  0.1119 -0.7393
 1338SOL    HW115650   1.680   0.840   6.687  1.4011 -0.6379 -0.6512
 1338SOL    HW215651   1.627   0.709   6.673 -0.3717  1.0029 -1.6216
 1339SOL     OW15652   0.149   4.700   8.792  0.4171 -0.6947 -0.4967
 1339SOL    HW115653   0.169   4.624   8.847 -1.6848 -2.9022 -2.7570
 1339SOL    HW215654   0.095   4.650   8.730  0.8329  0.0930 -1.4854
 1340SOL     OW15655   0.816   3.418  12.042  0.8718  0.2019 -0.7033
 1340SOL    HW115656   0.776   3.473  11.975  1.2251 -0.1856 -1.2286
 1340SOL    HW215657   0.816   3.336  11.993  0.8899 -1.1666  1.5726
 1341SOL     OW15658   1.217   3.759   4.416 -0.1698 -0.1110  0.4434
 1341SOL    HW115659   1.132   3.804   4.414 -0.0043 -0.0818 -5.1283
 1341SOL    HW215660   1.275   3.832   4.440 -0.3348  0.7763 -1.9081
 1342SOL     OW15661   4.390   2.257  16.841 -0.1814  0.0784  0.0115
 1342SOL    HW115662   4.428   2.171  16.858 -1.4811 -0.1236  1.9443
 1342SOL    HW215663   4.352   2.269  16.928  1.5359 -0.7934  0.8808
 1343SOL     OW15664   2.591   0.051   0.332 -0.2143  0.0282 -0.3584
 1343SOL    HW115665   2.662   0.079   0.391 -0.8219  1.1901 -0.1826
 1343SOL    HW215666   2.557   0.126   0.284 -0.1686 -0.3795 -1.0282
 1344SOL     OW15667   3.874   1.049   3.230 -0.0650 -0.4358  0.4483
 1344SOL    HW115668   3.832   1.130   3.201 -0.5063 -1.6506 -2.3226
 1344SOL    HW215669   3.819   0.984   3.188 -1.5409  0.8831  0.3373
 1345SOL     OW15670   0.206   1.604   9.855  0.8330  0.3022 -0.6500
 1345SOL    HW115671   0.172   1.586   9.943  0.3583 -0.2900 -0.9544
 1345SOL    HW215672   0.123   1.616   9.810 -0.9906 -0.3778  2.4925
 1346SOL     OW15673   0.255   1.408  17.707  0.0691  0.1988  0.5853
 1346SOL    HW115674   0.309   1.487  17.702  0.1050  0.1913  0.8761
 1346SOL    HW215675   0.315   1.350   0.019 -3.1726 -0.6790  3.6455
 1347SOL     OW15676   3.220   4.316   4.615 -0.3003 -0.6842  0.3117
 1347SOL    HW115677   3.162   4.245   4.641  1.4003 -2.5360 -0.9099
 1347SOL    HW215678   3.282   4.314   4.688  0.7541 -1.6810 -0.6149
 1348SOL     OW15679   1.379   4.303   3.816  0.1872  0.2140  0.3475
 1348SOL    HW115680   1.347   4.375   3.761  0.6262 -0.7556 -1.1564
 1348SOL    HW215681   1.423   4.246   3.753  1.4946  1.3292  0.2504
 1349SOL     OW15682   2.360   1.353   0.184  0.7685  0.1030 -0.0523
 1349SOL    HW115683   2.434   1.293   0.184 -0.5277 -1.5210  2.2186
 1349SOL    HW215684   2.307   1.307   0.118 -0.5413 -0.0104  1.0684
 1350SOL     OW15685   3.034   4.062  16.612 -0.1383 -0.0316 -0.0784
 1350SOL    HW115686   2.990   4.120  16.674  0.6955  1.6039 -1.0323
 1350SOL    HW215687   3.024   4.113  16.531 -2.9490 -3.1769 -1.7239
 1351SOL     OW15688   3.232   0.558  16.202  0.2685  0.5833 -0.7969
 1351SOL    HW115689   3.173   0.632  16.215 -1.1376 -0.4871 -1.1311
 1351SOL    HW215690   3.197   0.533  16.116 -1.2945  0.4317 -0.1177
 1352SOL     OW15691   4.207   3.648   4.282 -0.4211 -0.3976  0.6227
 1352SOL    HW115692   4.123   3.684   4.309  0.1429  0.4117  1.2969
 1352SOL    HW215693   4.184   3.561   4.314 -1.6615 -1.2260 -2.5041
 1353SOL     OW15694   3.900   0.884   5.884 -0.2013 -0.0903 -0.4643
 1353SOL    HW115695   3.855   0.801   5.865  1.8118 -0.7856 -2.2126
 1353SOL    HW215696   3.970   0.842   5.933  0.1043  0.3694 -0.5126
 1354SOL     OW15697   1.056   1.177  11.571 -0.6133  0.3903 -0.4520
 1354SOL    HW115698   1.148   1.173  11.546 -0.1612 -1.6590  1.5709
 1354SOL    HW215699   1.048   1.125  11.651  3.2837 -0.9636 -0.9876
 1355SOL     OW15700   1.684   2.354   2.118 -0.0285  0.8914 -0.4870
 1355SOL    HW115701   1.649   2.417   2.054  0.1937  1.7750  0.2647
 1355SOL    HW215702   1.777   2.358   2.096  0.0283 -4.5107 -1.1245
 1356SOL     OW15703   1.075   2.224  16.844  1.0053  0.0280  0.1351
 1356SOL    HW115704   0.986   2.259  16.844  0.7714 -0.5575 -1.3543
 1356SOL    HW215705   1.102   2.242  16.934  0.5226  2.8719 -0.2799
 1357SOL     OW15706   3.875   2.265   5.245  0.1467  0.0108 -0.1931
 1357SOL    HW115707   3.788   2.232   5.221  0.7001 -1.3738 -0.2549
 1357SOL    HW215708   3.860   2.337   5.308  0.1535  0.0290 -0.2125
 1358SOL     OW15709   3.122   2.032   3.800  0.0529  0.4693  0.2418
 1358SOL    HW115710   3.162   2.008   3.883 -0.3719 -1.5974 -0.1509
 1358SOL    HW215711   3.081   1.948   3.777 -0.5674  0.5060  1.2512
 1359SOL     OW15712   3.806   1.642   6.301  0.3479  0.1303 -0.1342
 1359SOL    HW115713   3.713   1.622   6.310  0.3547 -0.9940 -2.3784
 1359SOL    HW215714   3.810   1.722   6.354 -0.6415 -0.0434  0.1977
 1360SOL     OW15715   3.434   2.059  13.971 -0.1491 -0.4474  0.4913
 1360SOL    HW115716   3.476   2.019  14.047  1.8092  0.2820 -0.2065
 1360SOL    HW215717   3.500   2.053  13.902  0.8835 -0.0178  1.4361
 1361SOL     OW15718   1.264   0.928  14.232  0.3067  0.4248 -0.0514
 1361SOL    HW115719   1.226   0.857  14.181 -0.0519 -1.1517  2.3903
 1361SOL    HW215720   1.239   1.009  14.188 -2.0086 -1.2759 -1.8223
 1362SOL     OW15721   2.841   0.774  10.325 -0.1856 -0.2615  0.1578
 1362SOL    HW115722   2.837   0.846  10.388 -0.4163  0.2714 -0.4668
 1362SOL    HW215723   2.896   0.707  10.367 -0.4632  0.6760  2.0240
 1363SOL     OW15724   2.134   3.287   1.896 -0.2826  0.2482 -1.0102
 1363SOL    HW115725   2.052   3.273   1.943  0.5811 -1.7653 -0.0866
 1363SOL    HW215726   2.194   3.228   1.941  0.0705  1.8976  0.6480
 1364SOL     OW15727   3.433   2.572   2.262  0.2816  0.0503  0.2557
 1364SOL    HW115728   3.489   2.498   2.237  1.1425  0.1840  1.7534
 1364SOL    HW215729   3.370   2.564   2.190 -0.5467  0.8115  0.9004
 1365SOL     OW15730   3.440   2.997   3.811 -0.1650 -0.2497  0.0090
 1365SOL    HW115731   3.495   2.920   3.822 -0.0029 -0.4764 -2.3003
 1365SOL    HW215732   3.361   2.954   3.845 -0.8256  0.8482 -0.1463
 1366SOL     OW15733   3.444   4.156   7.563  0.1560 -0.0985  0.2659
 1366SOL    HW115734   3.394   4.094   7.511  0.6248  0.3263 -0.6884
 1366SOL    HW215735   3.472   4.220   7.498 -0.6746 -0.6492 -0.6179
 1367SOL     OW15736   3.384   2.673   3.169 -0.3239 -0.2339 -0.0616
 1367SOL    HW115737   3.444   2.738   3.130 -1.0029  0.3659 -0.1183
 1367SOL    HW215738   3.390   2.600   3.108 -1.0476  1.5548 -2.2995
 1368SOL     OW15739   3.258   1.625   4.571 -0.0640 -0.6513 -0.3171
 1368SOL    HW115740   3.299   1.696   4.621 -1.4725  0.4726 -0.7478
 1368SOL    HW215741   3.184   1.597   4.624  0.8153  1.4717  2.0293
 1369SOL     OW15742   2.935   0.171   3.123 -0.1519  0.6293 -0.5106
 1369SOL    HW115743   2.974   0.093   3.083  2.0708  1.1184  0.7104
 1369SOL    HW215744   3.005   0.197   3.183 -0.7649 -1.3879  1.0768
 1370SOL     OW15745   3.952   3.230   2.090 -0.0271  0.1018  0.0947
 1370SOL    HW115746   3.949   3.324   2.072  2.5830  0.2568  0.4388
 1370SOL    HW215747   3.981   3.200   2.004 -0.9985  0.4841 -0.3672
 1371SOL     OW15748   0.364   3.872   8.661  0.1247 -0.1589 -0.1519
 1371SOL    HW115749   0.364   3.834   8.749 -0.5983 -1.7878 -0.8564
 1371SOL    HW215750   0.280   3.842   8.626  0.0843 -0.9965  0.6476
 1372SOL     OW15751   4.239   0.504   2.321  0.0299 -0.1646 -0.0844
 1372SOL    HW115752   4.224   0.426   2.375  1.9862  0.3169  1.1874
 1372SOL    HW215753   4.157   0.509   2.273  1.1394  0.6035 -1.9115
 1373SOL     OW15754   1.278   0.696  10.738 -0.0899 -0.2994  0.5127
 1373SOL    HW115755   1.351   0.636  10.724 -0.2487 -0.4773  0.4382
 1373SOL    HW215756   1.262   0.721  10.647  1.0639  2.8713  1.1892
 1374SOL     OW15757   3.971   2.501   2.955 -0.4405 -0.1734 -1.0164
 1374SOL    HW115758   4.059   2.466   2.972  0.1134  0.6941 -2.0967
 1374SOL    HW215759   3.995   2.586   2.918  1.6918  0.1442  1.0931
 1375SOL     OW15760   1.936   3.864  17.311  0.2389  0.3764 -0.6451
 1375SOL    HW115761   1.880   3.789  17.326  0.7242  0.4533  1.6391
 1375SOL    HW215762   1.881   3.912  17.249 -0.4547 -1.3848 -1.3587
 1376SOL     OW15763   1.925   3.906   2.342  0.4412  0.1661  0.2883
 1376SOL    HW115764   2.004   3.943   2.382 -0.3848 -0.8018  2.7542
 1376SOL    HW215765   1.899   3.979   2.284  3.4273  0.4699 -0.6693
 1377SOL     OW15766   3.070   0.027   4.671 -0.1473  0.3121 -0.1356
 1377SOL    HW115767   3.165   0.039   4.680 -0.1546  2.7527 -3.3343
 1377SOL    HW215768   3.060   0.021   4.576  2.4513 -0.8468 -0.3356
 1378SOL     OW15769   1.614   4.426   3.053  0.0702  0.4624 -0.0492
 1378SOL    HW115770   1.665   4.378   3.118  0.1106  0.5317 -0.0285
 1378SOL    HW215771   1.551   4.359   3.027  0.5920 -0.1179  0.1883
 1379SOL     OW15772   1.207   4.033  15.979  0.3474 -0.0916  0.5305
 1379SOL    HW115773   1.144   4.017  16.049  0.1396 -2.8193 -0.2729
 1379SOL    HW215774   1.163   4.096  15.923  0.5662 -1.9524 -1.7585
 1380SOL     OW15775   3.587   3.284   8.302  0.0782  0.3527 -0.1335
 1380SOL    HW115776   3.600   3.353   8.236 -1.0543  0.9515  0.2584
 1380SOL    HW215777   3.495   3.299   8.324  0.6267  3.3843  0.1365
 1381SOL     OW15778   2.988   4.532   8.640 -0.3466  0.3166 -0.2112
 1381SOL    HW115779   2.896   4.539   8.618 -0.9686 -0.2036  2.2136
 1381SOL    HW215780   2.984   4.457   8.699  1.9777  0.8908  0.6752
 1382SOL     OW15781   3.509   1.530   6.330 -0.1652  0.2340 -0.4167
 1382SOL    HW115782   3.436   1.536   6.391 -0.5804  1.4378 -1.0325
 1382SOL    HW215783   3.550   1.445   6.347 -0.4810  0.5913  2.1377
 1383SOL     OW15784   3.646   3.643   9.291 -0.1036  0.4584  0.4090
 1383SOL    HW115785   3.679   3.558   9.262 -1.3912  0.2593 -0.4657
 1383SOL    HW215786   3.694   3.695   9.228 -0.3095  1.2321  0.8819
 1384SOL     OW15787   3.288   0.386   8.271 -0.4732  0.5775  0.2880
 1384SOL    HW115788   3.297   0.471   8.226  0.5129 -0.3279 -1.2365
 1384SOL    HW215789   3.371   0.384   8.319  0.4301  0.6398 -1.2578
 1385SOL     OW15790   1.382   2.334   1.062  0.7679 -0.0134  0.3574
 1385SOL    HW115791   1.361   2.251   1.018  2.5298 -0.4394  0.3493
 1385SOL    HW215792   1.370   2.395   0.989  0.7872 -0.3501  0.0691
 1386SOL     OW15793   0.075   2.671   9.389  0.1313  0.5167 -0.3659
 1386SOL    HW115794   0.027   2.708   9.316 -3.1036 -2.1076  0.4424
 1386SOL    HW215795   0.169   2.684   9.377 -0.1283  0.7840 -2.1032
 1387SOL     OW15796   2.073   1.461  14.837 -0.1068  0.3284 -0.3117
 1387SOL    HW115797   2.106   1.390  14.782  0.3028  0.1522  0.1601
 1387SOL    HW215798   2.021   1.410  14.900  1.0434 -0.9713 -0.4027
 1388SOL     OW15799   0.433   1.074  11.876  0.5448 -0.1283 -0.0500
 1388SOL    HW115800   0.526   1.086  11.854  0.4452  0.6113 -0.0654
 1388SOL    HW215801   0.380   1.146  11.842  0.0997 -0.9242 -1.0181
 1389SOL     OW15802   4.606   0.571   7.925  0.1669 -0.4027  0.3737
 1389SOL    HW115803   4.616   0.484   7.887 -2.0882 -0.7439  0.5453
 1389SOL    HW215804   4.511   0.581   7.917  0.1490 -1.1806 -0.3516
 1390SOL     OW15805   3.629   2.700  17.174 -0.2328  0.3023  0.4214
 1390SOL    HW115806   3.555   2.690  17.234  0.6230  1.1815  1.6326
 1390SOL    HW215807   3.588   2.658  17.098  2.1743 -0.5072 -0.4417
 1391SOL     OW15808   2.216   4.117   9.120 -0.2591  0.0935  0.0306
 1391SOL    HW115809   2.158   4.044   9.103  1.0294 -1.0118  0.3936
 1391SOL    HW215810   2.257   4.097   9.204  0.3913  2.1656  0.2294
 1392SOL     OW15811   0.500   0.746   2.045  0.1751  0.3857  0.4655
 1392SOL    HW115812   0.464   0.829   2.014  1.3200  0.4545 -0.6509
 1392SOL    HW215813   0.432   0.686   2.014  2.3940  0.0249 -3.7474
 1393SOL     OW15814   3.119   0.704   3.394 -0.2582  0.2364 -0.1146
 1393SOL    HW115815   3.064   0.672   3.466 -1.2639 -0.1473 -1.0626
 1393SOL    HW215816   3.161   0.770   3.449 -1.8232  0.4916  0.7847
 1394SOL     OW15817   3.946   3.784  15.551  0.7423  0.0539 -0.7296
 1394SOL    HW115818   3.940   3.879  15.562 -1.4061 -0.1717  0.0006
 1394SOL    HW215819   4.038   3.768  15.573 -0.1044 -0.9693  1.9892
 1395SOL     OW15820   2.384   4.120   9.396 -0.2427  0.1014 -0.1786
 1395SOL    HW115821   2.464   4.107   9.447 -1.0985 -0.4829  1.0294
 1395SOL    HW215822   2.358   4.028   9.389 -1.0830  0.1947  1.6482
 1396SOL     OW15823   2.161   4.060  12.306 -0.2949  0.1153  0.6119
 1396SOL    HW115824   2.205   4.108  12.236  0.5917 -1.7640 -0.1223
 1396SOL    HW215825   2.091   4.121  12.330 -1.5827 -0.3980 -1.8654
 1397SOL     OW15826   1.352   1.596  13.220  0.7287  0.2636  0.0006
 1397SOL    HW115827   1.279   1.582  13.159  2.9172  0.7339 -2.6721
 1397SOL    HW215828   1.426   1.619  13.165  1.5890  0.7155  1.3576
 1398SOL     OW15829   4.433   1.690   9.313 -0.7440  0.2452 -0.4320
 1398SOL    HW115830   4.507   1.702   9.372 -1.7401  2.1763  0.4151
 1398SOL    HW215831   4.413   1.782   9.298 -0.4054  0.5752  1.2192
 1399SOL     OW15832   4.041   1.201  17.656 -0.1411  0.5166  0.6002
 1399SOL    HW115833   4.129   1.229  17.630 -0.7093  1.8422  0.0898
 1399SOL    HW215834   3.995   1.285  17.659  0.7351  1.0157  0.1645
 1400SOL     OW15835   0.762   2.690   2.563 -0.0345 -0.0600  0.3004
 1400SOL    HW115836   0.680   2.683   2.613  0.1201 -0.4690  0.4912
 1400SOL    HW215837   0.757   2.619   2.499 -0.7471 -1.1666  1.5839
 1401SOL     OW15838   2.252   1.352   1.669 -0.0816 -0.0619 -0.3118
 1401SOL    HW115839   2.238   1.410   1.743 -2.8304 -1.1578  0.0377
 1401SOL    HW215840   2.200   1.400   1.605  0.7030  2.2434  0.8021
 1402SOL     OW15841   0.360   0.999   7.334  0.4742 -0.2351 -0.6017
 1402SOL    HW115842   0.362   1.053   7.255 -0.8666 -1.3632 -1.4005
 1402SOL    HW215843   0.286   1.037   7.382 -0.6896 -0.5088 -2.1636
 1403SOL     OW15844   2.915   4.733   8.966  0.6524  0.0454 -0.3247
 1403SOL    HW115845   2.999   0.030   9.000 -0.1599  0.9132  0.8632
 1403SOL    HW215846   2.855   0.029   9.034  0.4379 -0.8466 -0.1248
 1404SOL     OW15847   4.402   3.982   8.443  0.1180  1.2898  0.2579
 1404SOL    HW115848   4.485   4.026   8.425  0.1414  0.7757 -0.8809
 1404SOL    HW215849   4.364   4.033   8.514 -1.2219  0.7873 -0.1005
 1405SOL     OW15850   1.738   0.881   5.195 -0.8404 -0.6352  0.5173
 1405SOL    HW115851   1.794   0.825   5.142  0.1449 -0.5298  1.4483
 1405SOL    HW215852   1.691   0.943   5.140 -0.1723  1.6024  2.4650
 1406SOL     OW15853   0.451   0.540  17.587  0.2410  0.4138  0.3309
 1406SOL    HW115854   0.425   0.488  17.512 -0.1580 -1.7480  1.9849
 1406SOL    HW215855   0.369   0.553  17.635 -0.1314 -1.7882  0.2730
 1407SOL     OW15856   2.689   4.603   2.421  0.6216  0.2390 -0.2887
 1407SOL    HW115857   2.754   4.577   2.487 -2.0227 -2.2680  1.2974
 1407SOL    HW215858   2.674   4.528   2.363  1.0570  0.0773 -0.1907
 1408SOL     OW15859   2.489   3.897  11.923 -0.0073  0.4350  0.5003
 1408SOL    HW115860   2.431   3.895  11.847  0.7969  2.7893 -0.1870
 1408SOL    HW215861   2.484   3.804  11.945 -3.8768  0.0212 -2.0257
 1409SOL     OW15862   1.030   1.645   7.016  0.5215 -0.1055 -0.0050
 1409SOL    HW115863   1.120   1.647   6.985 -0.9719 -0.4631 -4.4775
 1409SOL    HW215864   0.979   1.704   6.960  1.3061  0.8075  0.2452
 1410SOL     OW15865   0.388   4.054   6.812  0.0403  0.3423  0.1368
 1410SOL    HW115866   0.405   4.139   6.771  0.3190 -0.0406 -0.5564
 1410SOL    HW215867   0.321   4.083   6.873  0.1435  2.3044 -0.6872
 1411SOL     OW15868   0.175   0.481   9.125 -0.6492  0.4146 -0.2509
 1411SOL    HW115869   0.196   0.515   9.038 -0.0118 -0.3654 -0.4018
 1411SOL    HW215870   0.234   0.406   9.133 -0.0441  0.8354 -0.8034
 1412SOL     OW15871   2.522   3.696   2.302  0.2570 -0.0251 -0.0119
 1412SOL    HW115872   2.520   3.688   2.207  2.0916  5.4689 -0.5505
 1412SOL    HW215873   2.615   3.717   2.307  0.0500  0.4872  1.6480
 1413SOL     OW15874   2.729   3.727   3.107  0.1344  0.9147  0.2673
 1413SOL    HW115875   2.717   3.669   3.032  1.2992  0.1593  0.6708
 1413SOL    HW215876   2.811   3.771   3.084  0.7019 -1.0854 -1.5658
 1414SOL     OW15877   1.624   2.650   3.890  0.3323  0.1557  0.3173
 1414SOL    HW115878   1.583   2.661   3.805 -0.7459 -1.3782  0.6316
 1414SOL    HW215879   1.667   2.734   3.904 -2.4054  1.6179 -0.1788
 1415SOL     OW15880   2.293   0.389  14.937  0.0666  0.3951  0.4237
 1415SOL    HW115881   2.276   0.375  15.030  2.0630  2.1887  1.0674
 1415SOL    HW215882   2.328   0.304  14.911 -1.0725  0.8882 -2.7686
 1416SOL     OW15883   0.205   2.966  14.368  0.2030 -0.0687 -0.1739
 1416SOL    HW115884   0.249   2.882  14.373  0.2104  0.1704  4.6019
 1416SOL    HW215885   0.275   3.019  14.406  0.6798 -1.4177  0.8513
 1417SOL     OW15886   2.448   4.556   5.506 -0.3326 -0.3427 -1.1296
 1417SOL    HW115887   2.364   4.563   5.462  0.1839  1.9453 -1.7993
 1417SOL    HW215888   2.415   4.529   5.591 -1.3653  2.4673 -0.6469
 1418SOL     OW15889   4.067   2.186  14.317 -0.4369  0.3239 -0.5406
 1418SOL    HW115890   4.042   2.235  14.238 -0.6866  0.3757 -0.4310
 1418SOL    HW215891   4.007   2.232  14.376  0.0850  0.3255 -0.0140
 1419SOL     OW15892   1.583   3.814   7.554  0.2161 -0.0490  0.0820
 1419SOL    HW115893   1.552   3.904   7.557 -1.5598 -0.6108 -2.5261
 1419SOL    HW215894   1.679   3.821   7.559  0.1779 -1.2713  2.7154
 1420SOL     OW15895   3.529   2.619  10.341 -0.2472  0.5025 -0.2392
 1420SOL    HW115896   3.555   2.557  10.273 -1.8643  0.7121 -1.0364
 1420SOL    HW215897   3.457   2.675  10.312 -0.0519  0.8957  0.0304
 1421SOL     OW15898   0.847   2.388   4.462  0.0140 -0.9877 -0.0761
 1421SOL    HW115899   0.847   2.368   4.369  2.3869  0.3503 -0.3832
 1421SOL    HW215900   0.783   2.329   4.501 -1.5870  0.9529  0.2289
 1422SOL     OW15901   2.252   4.069   0.246  0.3753  0.4597 -0.0769
 1422SOL    HW115902   2.346   4.058   0.258  0.1957 -1.0148 -0.0182
 1422SOL    HW215903   2.229   3.991   0.194 -1.0390  0.5982  0.3361
 1423SOL     OW15904   1.467   1.671   8.115 -0.3908 -0.0778 -0.4396
 1423SOL    HW115905   1.433   1.692   8.202  1.5183  0.6767  0.1242
 1423SOL    HW215906   1.414   1.593   8.097 -0.5956 -0.3391  1.3301
 1424SOL     OW15907   2.198   0.103   0.231 -0.3685  0.2969 -0.3230
 1424SOL    HW115908   2.105   0.084   0.228 -0.2558 -0.1134 -1.1919
 1424SOL    HW215909   2.237   0.038   0.174  0.7562 -1.0862  2.0035
 1425SOL     OW15910   4.505   2.065   8.231 -0.5746 -0.1490 -0.4284
 1425SOL    HW115911   4.414   2.087   8.252 -0.0006  0.4242  1.4460
 1425SOL    HW215912   4.485   1.986   8.181  1.0274  0.4572 -2.0286
 1426SOL     OW15913   1.112   0.674   6.335  0.6864  0.3293 -0.9405
 1426SOL    HW115914   1.165   0.597   6.316 -0.7386 -1.1288  1.0079
 1426SOL    HW215915   1.147   0.695   6.422 -0.6883 -0.1047 -0.2998
 1427SOL     OW15916   4.569   4.580   6.096  0.2064 -0.1196  0.6779
 1427SOL    HW115917   4.525   4.604   6.015  0.2396 -1.4375  0.2627
 1427SOL    HW215918   4.509   4.537   6.156  1.7055  0.4825  2.6109
 1428SOL     OW15919   0.111   1.475   3.035 -0.0835 -0.1532  0.2043
 1428SOL    HW115920   0.150   1.451   3.119 -0.8278  1.7762  1.0982
 1428SOL    HW215921   0.191   1.512   2.998  0.7831 -0.0224  2.2292
 1429SOL     OW15922   2.416   1.801   8.005 -0.1450  0.0182  0.3264
 1429SOL    HW115923   2.418   1.713   8.043 -1.8694  0.4101  1.2755
 1429SOL    HW215924   2.327   1.800   7.970  1.3223 -1.6566 -3.4344
 1430SOL     OW15925   4.055   4.431   7.685  0.5409  0.2035  0.1859
 1430SOL    HW115926   4.038   4.348   7.642 -0.0256  0.2825  0.2644
 1430SOL    HW215927   4.086   4.486   7.613 -0.5695  0.3423 -0.1859
 1431SOL     OW15928   4.185   2.837   4.849  0.3603 -0.0603  0.6850
 1431SOL    HW115929   4.240   2.911   4.873  2.2746 -0.8330 -1.2621
 1431SOL    HW215930   4.240   2.795   4.783 -1.4957 -1.8841  0.2688
 1432SOL     OW15931   2.121   3.479   8.641  0.1505 -0.2633  0.1502
 1432SOL    HW115932   2.160   3.521   8.718 -0.6001  0.7169 -0.0024
 1432SOL    HW215933   2.163   3.520   8.566  2.0626 -1.6793  0.4627
 1433SOL     OW15934   1.111   2.008   9.427 -0.0388 -0.2765  0.3136
 1433SOL    HW115935   1.085   1.936   9.369  2.9969 -0.2899 -1.0391
 1433SOL    HW215936   1.188   1.963   9.462  0.4192 -0.2178 -0.6323
 1434SOL     OW15937   3.289   2.945   7.068 -0.3241  0.4435 -0.4436
 1434SOL    HW115938   3.263   2.906   7.151  1.8018 -0.7289 -0.3135
 1434SOL    HW215939   3.219   3.009   7.063 -1.2829 -0.6212 -0.5556
 1435SOL     OW15940   2.075   1.581  13.350  0.6853 -0.2989  0.0252
 1435SOL    HW115941   2.055   1.674  13.364 -1.1569 -0.8992  1.2839
 1435SOL    HW215942   2.012   1.557  13.282  0.8853  1.2852 -0.7472
 1436SOL     OW15943   2.496   1.528   5.229  0.3417  0.4852 -0.1018
 1436SOL    HW115944   2.478   1.513   5.321 -0.5418 -0.6026 -0.4524
 1436SOL    HW215945   2.451   1.611   5.214  0.9691  1.0756  1.2833
 1437SOL     OW15946   1.131   4.404   8.016  0.2195 -0.0521 -0.5399
 1437SOL    HW115947   1.116   4.383   7.923  0.6562  0.2987 -0.6915
 1437SOL    HW215948   1.186   4.482   8.005 -0.1094  0.1963 -0.4522
 1438SOL     OW15949   4.051   4.509  10.993 -0.0503 -0.2381  0.2249
 1438SOL    HW115950   4.086   4.588  11.034  1.5863 -1.2948  0.8825
 1438SOL    HW215951   4.113   4.503  10.920  0.3424  1.2736  0.4190
 1439SOL     OW15952   3.411   0.366   0.148  0.1341  0.0086 -0.4108
 1439SOL    HW115953   3.382   0.370   0.239 -0.2861  1.4228 -0.6082
 1439SOL    HW215954   3.397   0.453   0.112 -3.5356  0.7199  2.8071
 1440SOL     OW15955   2.110   1.454   8.191 -0.4247  0.1539  0.3462
 1440SOL    HW115956   2.066   1.405   8.121  0.1447  0.6673 -0.3737
 1440SOL    HW215957   2.152   1.377   8.229  0.4199 -0.8098 -2.5129
 1441SOL     OW15958   3.177   4.411   5.720  0.3416 -0.1678 -0.2749
 1441SOL    HW115959   3.128   4.479   5.674  0.3526  1.8198  2.6201
 1441SOL    HW215960   3.260   4.453   5.743 -0.3701  1.0460  0.0659
 1442SOL     OW15961   1.468   2.815  12.962 -0.1001 -0.8483 -0.0112
 1442SOL    HW115962   1.445   2.900  12.998  1.4908 -0.8095  0.8976
 1442SOL    HW215963   1.440   2.837  12.873 -0.8288  0.3686  0.5257
 1443SOL     OW15964   4.685   1.626   2.862 -0.6871 -0.5776  0.3063
 1443SOL    HW115965   4.646   1.546   2.826  1.4683 -1.3206 -0.3684
 1443SOL    HW215966   4.727   1.582   2.936 -1.3591 -0.0821  0.9827
 1444SOL     OW15967   2.590   1.595  12.106 -0.3664  0.3859  0.3220
 1444SOL    HW115968   2.628   1.606  12.193  3.0231 -0.7850 -1.0247
 1444SOL    HW215969   2.558   1.505  12.112 -2.1620  1.1259  1.6726
 1445SOL     OW15970   1.463   1.288  11.749  0.4146  0.2404  0.1989
 1445SOL    HW115971   1.502   1.251  11.828  3.4529 -0.7299 -1.7647
 1445SOL    HW215972   1.502   1.374  11.732  0.8189 -0.8226 -4.1916
 1446SOL     OW15973   4.166   0.608   1.703 -0.4517  0.1881  0.1148
 1446SOL    HW115974   4.241   0.663   1.722  1.7035 -1.6113 -3.2299
 1446SOL    HW215975   4.162   0.621   1.608  0.7815  0.1083  0.0575
 1447SOL     OW15976   3.912   2.354  11.055  0.2495  0.0990  0.0392
 1447SOL    HW115977   3.838   2.302  11.086 -0.2170  0.8078  0.1086
 1447SOL    HW215978   3.876   2.437  11.022 -0.8289 -0.6038 -0.5688
 1448SOL     OW15979   4.578   1.369   9.313 -0.0007  0.1518  0.3787
 1448SOL    HW115980   4.501   1.424   9.325  1.7850  3.0293 -1.5254
 1448SOL    HW215981   4.650   1.429   9.332  0.4373 -0.0369 -0.6475
 1449SOL     OW15982   0.447   3.972   1.277  0.3325  0.0895 -0.3261
 1449SOL    HW115983   0.511   3.974   1.348 -0.2262 -1.1490  0.2035
 1449SOL    HW215984   0.514   3.987   1.210  1.6947 -0.6745  0.8557
 1450SOL     OW15985   1.997   1.839   6.261  0.1676  0.4149  0.2862
 1450SOL    HW115986   2.039   1.878   6.185  1.5257 -1.3590  0.1112
 1450SOL    HW215987   2.067   1.849   6.326  0.8281  0.7374 -0.4832
 1451SOL     OW15988   2.062   1.907  17.614  0.2803 -0.0399  0.2790
 1451SOL    HW115989   2.138   1.921  17.670  0.2987 -1.0931  0.5208
 1451SOL    HW215990   2.005   1.976  17.647 -1.2275 -1.1652  0.0195
 1452SOL     OW15991   4.527   1.580  11.665 -0.0899  0.0352  0.0194
 1452SOL    HW115992   4.582   1.506  11.688  0.1408  0.2993  0.3205
 1452SOL    HW215993   4.504   1.558  11.575 -4.3231  1.0021  0.8629
 1453SOL     OW15994   0.226   0.048   0.818  0.0954 -0.0685 -0.5482
 1453SOL    HW115995   0.261   0.080   0.735  0.2682  0.9256 -0.0968
 1453SOL    HW215996   0.308   0.021   0.858 -0.1158  1.1976  0.7347
 1454SOL     OW15997   4.189   2.368   1.204  0.0552 -0.4550  0.0756
 1454SOL    HW115998   4.120   2.305   1.229  0.5115 -1.1305 -0.3718
 1454SOL    HW215999   4.260   2.350   1.265  0.3500  0.7277  0.0839
 1455SOL     OW16000   4.727   2.226   6.179  0.1597 -0.2105 -0.2778
 1455SOL    HW116001   4.707   2.188   6.265 -0.2612  0.8024  0.0801
 1455SOL    HW216002   4.727   2.320   6.199  1.9750 -0.3195  0.2461
 1456SOL     OW16003   1.393   2.167  17.637  0.2299  0.4262  0.0131
 1456SOL    HW116004   1.326   2.113  17.596  0.3118 -0.4441  1.0035
 1456SOL    HW216005   1.366   2.143  17.726  1.8153  0.8080  0.6034
 1457SOL     OW16006   3.686   3.686   1.182 -0.2396  0.3242  0.5017
 1457SOL    HW116007   3.760   3.648   1.229  0.1858 -1.1794 -1.3837
 1457SOL    HW216008   3.732   3.735   1.114  0.9625 -1.8080 -0.2258
 1458SOL     OW16009   3.778   3.774  11.098  0.5781 -0.2149 -0.0905
 1458SOL    HW116010   3.787   3.869  11.090  1.1485 -0.3107 -0.5009
 1458SOL    HW216011   3.726   3.756  11.020  2.3566 -0.1653 -1.2694
 1459SOL     OW16012   2.286   4.372  16.958 -0.2614 -0.4773  0.0058
 1459SOL    HW116013   2.236   4.413  17.029 -0.8851 -0.9325 -0.1722
 1459SOL    HW216014   2.339   4.445  16.926  0.2908 -1.4975 -1.3975
 1460SOL     OW16015   2.240   3.604   6.791  0.0136 -0.0993 -0.4560
 1460SOL    HW116016   2.232   3.610   6.886 -1.0887  2.0557 -0.6799
 1460SOL    HW216017   2.150   3.589   6.764 -0.7193  0.6928  1.5200
 1461SOL     OW16018   3.635   0.400  11.488  0.2159  0.1265 -0.3074
 1461SOL    HW116019   3.656   0.408  11.395  1.1808 -1.6350 -0.2356
 1461SOL    HW216020   3.541   0.392  11.477  0.1619 -1.1853  1.2002
 1462SOL     OW16021   1.327   0.511  12.876 -0.5351 -0.4728 -0.7029
 1462SOL    HW116022   1.405   0.553  12.838 -0.4825 -0.9343 -1.1095
 1462SOL    HW216023   1.314   0.435  12.818 -1.6873  0.0509 -1.1138
 1463SOL     OW16024   0.673   3.706   7.771  0.2905  0.0941 -0.2535
 1463SOL    HW116025   0.733   3.633   7.787  2.2569  1.8565  0.4335
 1463SOL    HW216026   0.736   3.777   7.765 -1.2124  1.4374 -0.0295
 1464SOL     OW16027   0.231   3.654   4.409  0.2424  0.4626 -0.0066
 1464SOL    HW116028   0.143   3.690   4.401  0.4278  0.7968 -0.5579
 1464SOL    HW216029   0.215   3.587   4.475  0.0419  0.1686 -0.3496
 1465SOL     OW16030   2.115   2.279  11.242  0.0933 -0.5338  0.6642
 1465SOL    HW116031   2.176   2.239  11.180 -0.3575 -1.5781  0.9012
 1465SOL    HW216032   2.142   2.240  11.325  0.3844 -0.5565  0.5586
 1466SOL     OW16033   3.540   3.094   2.828 -0.5653 -0.4176  0.3433
 1466SOL    HW116034   3.563   3.044   2.906  1.5606  0.4275  0.2546
 1466SOL    HW216035   3.523   3.016   2.775 -1.7036 -0.8127  1.2633
 1467SOL     OW16036   1.978   3.733   4.920  0.0347  0.3532 -0.1347
 1467SOL    HW116037   2.010   3.645   4.898 -1.7173 -0.7476  1.6502
 1467SOL    HW216038   1.886   3.710   4.930 -0.0977  0.6458 -0.6894
 1468SOL     OW16039   4.570   4.363   3.010  0.1045 -0.2948  0.1675
 1468SOL    HW116040   4.560   4.319   2.926  0.9503 -1.2686  0.5694
 1468SOL    HW216041   4.480   4.380   3.037  0.0856  0.1188 -0.1675
 1469SOL     OW16042   2.777   0.898  13.640  0.7561 -0.1466  0.1301
 1469SOL    HW116043   2.870   0.877  13.651  1.0169  1.4263  0.7990
 1469SOL    HW216044   2.736   0.832  13.696  1.2671 -1.2335 -0.7701
 1470SOL     OW16045   3.089   0.400  13.684  0.1988 -0.3591  0.1312
 1470SOL    HW116046   3.105   0.318  13.638  1.7105 -0.2977  0.5429
 1470SOL    HW216047   3.040   0.453  13.622  0.5825 -0.7677 -0.5288
 1471SOL     OW16048   2.263   2.658  13.521 -0.0767 -0.7097  0.2137
 1471SOL    HW116049   2.290   2.614  13.440  0.3877  1.9545 -1.0865
 1471SOL    HW216050   2.203   2.730  13.502 -0.5183 -1.6091 -1.7608
 1472SOL     OW16051   4.488   2.791   8.144  0.1834 -0.9922 -0.0525
 1472SOL    HW116052   4.475   2.876   8.186  0.4849 -0.7416 -0.4605
 1472SOL    HW216053   4.462   2.805   8.053  0.0272  0.2907  0.1968
 1473SOL     OW16054   2.771   2.572   0.610  0.5500  0.0034  0.1366
 1473SOL    HW116055   2.751   2.656   0.569  0.2549 -0.4514 -0.6624
 1473SOL    HW216056   2.781   2.589   0.703  2.5669 -0.8671  0.0882
 1474SOL     OW16057   2.297   0.550   6.877  0.2326 -0.3020 -0.2182
 1474SOL    HW116058   2.371   0.490   6.869 -0.5196 -0.9665 -2.0155
 1474SOL    HW216059   2.241   0.527   6.803 -0.5878 -0.0610  0.3190
 1475SOL     OW16060   4.362   3.127   5.157 -0.2472 -0.1046  0.3789
 1475SOL    HW116061   4.292   3.062   5.167 -0.5119  0.3076  1.2164
 1475SOL    HW216062   4.335   3.155   5.069  1.3891  0.6640  0.1162
 1476SOL     OW16063   0.437   0.349   5.286  0.3738 -0.6042  0.1516
 1476SOL    HW116064   0.385   0.410   5.234  3.0404  1.5015 -0.0970
 1476SOL    HW216065   0.383   0.360   5.364  0.0164 -3.8136  0.3488
 1477SOL     OW16066   3.256   3.652   7.922 -0.5884 -0.2466  0.1570
 1477SOL    HW116067   3.242   3.741   7.954 -0.1319  0.2417 -1.0215
 1477SOL    HW216068   3.205   3.656   7.841 -0.3032 -1.5560 -0.0775
 1478SOL     OW16069   0.391   0.616   8.159  0.2074 -0.2649  0.1043
 1478SOL    HW116070   0.447   0.661   8.096  0.4976  1.3769  1.5251
 1478SOL    HW216071   0.386   0.680   8.230  3.6355  1.7271 -1.4342
 1479SOL     OW16072   1.855   2.783  13.941 -0.6249  0.2250  0.4956
 1479SOL    HW116073   1.879   2.698  13.976 -0.6379  0.0783  0.1477
 1479SOL    HW216074   1.807   2.763  13.860 -2.0254  1.3826  1.0396
 1480SOL     OW16075   2.094   4.190   7.225 -0.0093 -0.2881  0.1890
 1480SOL    HW116076   2.115   4.128   7.155 -0.3941  1.1306 -1.1925
 1480SOL    HW216077   2.024   4.144   7.271  0.6953 -1.5110  0.0410
 1481SOL     OW16078   4.410   1.897   7.655  0.5350 -0.0081 -0.4177
 1481SOL    HW116079   4.485   1.905   7.715  1.8369 -2.2255 -1.7329
 1481SOL    HW216080   4.349   1.844   7.705  1.7220 -0.8768  0.1157
 1482SOL     OW16081   1.976   2.697   1.821 -0.7598 -0.6709  0.1798
 1482SOL    HW116082   1.933   2.689   1.736  3.8099  0.3968 -2.2366
 1482SOL    HW216083   2.070   2.678   1.815 -0.2356  1.8451  0.5623
 1483SOL     OW16084   2.615   0.739   2.007 -0.2287 -0.4382 -0.4016
 1483SOL    HW116085   2.532   0.698   2.032  0.6643 -1.2469  1.1974
 1483SOL    HW216086   2.622   0.812   2.068 -0.3327 -0.4656 -0.3570
 1484SOL     OW16087   0.627   4.420  12.705 -0.2152  0.1139  0.4039
 1484SOL    HW116088   0.607   4.360  12.633 -2.0245 -0.8049  1.6952
 1484SOL    HW216089   0.615   4.504  12.660 -2.3227 -0.9545 -1.0505
 1485SOL     OW16090   0.468   0.511   2.278 -0.2917 -0.4591 -0.2889
 1485SOL    HW116091   0.552   0.555   2.292 -0.5489  0.0046 -0.1818
 1485SOL    HW216092   0.461   0.471   2.365 -0.8898  2.1501  0.8765
 1486SOL     OW16093   3.588   3.490   2.795 -0.6406  0.1738  0.6524
 1486SOL    HW116094   3.533   3.420   2.832  0.6016 -0.9749  0.3103
 1486SOL    HW216095   3.529   3.564   2.780 -1.8909 -0.4957  2.1800
 1487SOL     OW16096   4.706   2.817   9.142  0.5863  0.8977 -0.2442
 1487SOL    HW116097   0.058   2.851   9.168  1.6403 -0.3989 -2.0279
 1487SOL    HW216098   4.642   2.865   9.195  2.7512  2.6677  0.7492
 1488SOL     OW16099   3.738   4.546   8.626 -0.0076 -0.0803 -0.2690
 1488SOL    HW116100   3.685   4.517   8.700  0.9546 -1.4814 -0.1331
 1488SOL    HW216101   3.693   4.482   8.570 -0.0472 -0.5616  0.3133
 1489SOL     OW16102   3.078   2.163   4.893  0.1908  0.1116 -0.4158
 1489SOL    HW116103   3.050   2.117   4.972 -0.9104  1.1537 -0.1847
 1489SOL    HW216104   3.031   2.116   4.825  1.0363 -0.4345 -0.6171
 1490SOL     OW16105   1.911   4.526   4.902 -0.6408  0.1510 -0.2424
 1490SOL    HW116106   1.997   4.500   4.937 -0.2655  1.9828  0.2187
 1490SOL    HW216107   1.854   4.519   4.978  0.3427 -2.9548  0.2101
 1491SOL     OW16108   0.085   3.117  16.302  0.1494  0.5457  0.6829
 1491SOL    HW116109   0.056   3.177  16.371 -0.3066  2.2595 -0.9894
 1491SOL    HW216110   0.157   3.169  16.265  1.7989 -2.2357  0.0052
 1492SOL     OW16111   1.034   4.564   3.656 -0.1431 -0.5294 -0.2664
 1492SOL    HW116112   1.118   4.519   3.659  1.1731  1.8029 -2.3545
 1492SOL    HW216113   1.067   4.647   3.691  0.1790 -0.9206  0.3391
 1493SOL     OW16114   3.795   1.828  13.752  0.1930  0.2449 -0.0986
 1493SOL    HW116115   3.722   1.768  13.772  1.7153 -1.3322  0.7683
 1493SOL    HW216116   3.806   1.812  13.659 -0.3241  0.7884 -0.2475
 1494SOL     OW16117   0.057   4.142   8.532 -0.0489  0.3779  0.0626
 1494SOL    HW116118   0.008   4.201   8.476  0.4375  1.0229  0.3176
 1494SOL    HW216119   0.147   4.174   8.522 -0.4604  1.2186 -0.8960
 1495SOL     OW16120   2.891   2.863  14.229 -0.8577  0.1234 -0.2492
 1495SOL    HW116121   2.950   2.812  14.284  0.8068  0.9125 -1.3241
 1495SOL    HW216122   2.882   2.946  14.276  1.3159  0.9203 -1.2658
 1496SOL     OW16123   4.707   1.411  11.004  0.3295  0.1497 -0.2311
 1496SOL    HW116124   4.620   1.435  11.037  0.4935  2.1687 -1.2841
 1496SOL    HW216125   4.676   1.328  10.968  0.5796  1.0098 -2.4159
 1497SOL     OW16126   3.946   4.397   2.344 -0.4124 -0.4050 -0.2108
 1497SOL    HW116127   3.972   4.476   2.393  1.1059 -1.1946  0.2551
 1497SOL    HW216128   3.880   4.431   2.284 -2.3161 -1.9021  1.0169
 1498SOL     OW16129   3.631   3.325   5.566 -0.2846  0.7837 -0.0358
 1498SOL    HW116130   3.555   3.305   5.621 -1.1511  3.2994 -0.2801
 1498SOL    HW216131   3.669   3.398   5.615  1.1069 -0.9040  1.4264
 1499SOL     OW16132   0.702   1.078  10.122  0.0095  0.3107 -0.5788
 1499SOL    HW116133   0.696   0.995  10.074  2.6640 -0.7883  0.9949
 1499SOL    HW216134   0.771   1.118  10.069 -0.1704  2.0275  0.5043
 1500SOL     OW16135   4.543   1.385  16.542  0.2921  0.0312  0.0343
 1500SOL    HW116136   4.496   1.302  16.540  1.0815 -0.4388  0.9175
 1500SOL    HW216137   4.489   1.441  16.486  1.0641 -0.6514 -1.3948
 1501SOL     OW16138   2.921   0.714  12.812  0.3726  0.1131  0.0421
 1501SOL    HW116139   2.908   0.685  12.722 -2.3055 -2.2829  1.1969
 1501SOL    HW216140   2.839   0.743  12.852 -0.0702  0.6633 -1.2743
 1502SOL     OW16141   4.006   2.120   3.114 -0.3272 -0.1033  0.5633
 1502SOL    HW116142   3.961   2.143   3.195 -2.5896 -0.9916 -0.4157
 1502SOL    HW216143   3.935   2.088   3.058  0.3678 -0.0457 -0.3482
 1503SOL     OW16144   0.701   0.828   6.922 -0.2007  0.6077 -0.5186
 1503SOL    HW116145   0.736   0.908   6.961  3.2824 -0.9001 -0.4784
 1503SOL    HW216146   0.780   0.778   6.941  0.4647  1.8828  0.0536
 1504SOL     OW16147   1.595   0.519   0.264  0.3785  0.5430 -0.3071
 1504SOL    HW116148   1.534   0.473   0.321  0.8909  1.4359  0.9550
 1504SOL    HW216149   1.589   0.604   0.309  2.8215  2.2759 -3.2392
 1505SOL     OW16150   3.332   3.480   2.060 -0.1969  0.0359 -0.4854
 1505SOL    HW116151   3.262   3.471   1.995  1.3591  0.4297 -2.1984
 1505SOL    HW216152   3.413   3.462   2.013 -1.0874 -2.7088 -0.9963
 1506SOL     OW16153   0.191   3.162   2.723  0.4782  0.1981  0.4901
 1506SOL    HW116154   0.123   3.100   2.697 -0.9645  1.0932  2.0959
 1506SOL    HW216155   0.159   3.198   2.806  0.2373 -0.4588  0.6868
 1507SOL     OW16156   1.307   3.601  15.761  0.4748 -0.5235 -0.1236
 1507SOL    HW116157   1.358   3.682  15.765  0.8913 -0.7558 -0.7701
 1507SOL    HW216158   1.338   3.550  15.836  1.4415 -0.0249 -0.1799
 1508SOL     OW16159   3.810   3.352  14.332  0.4906  0.2410  0.0519
 1508SOL    HW116160   3.742   3.313  14.387  0.6444 -0.1306 -0.0278
 1508SOL    HW216161   3.819   3.436  14.377 -0.1885 -0.4835  1.5292
 1509SOL     OW16162   3.959   0.221   9.426  0.2517 -0.5189  0.5641
 1509SOL    HW116163   3.889   0.170   9.466 -1.0050 -0.7297 -1.9219
 1509SOL    HW216164   3.910   0.300   9.404  0.2492 -0.5904  0.3149
 1510SOL     OW16165   0.192   0.924   6.111 -0.4847 -0.5960  0.1359
 1510SOL    HW116166   0.266   0.956   6.058  0.1397 -1.2625  0.6242
 1510SOL    HW216167   0.138   0.897   6.037 -2.9922  3.5488  0.4443
 1511SOL     OW16168   1.881   3.295   4.676 -0.6226 -0.1707 -0.0011
 1511SOL    HW116169   1.940   3.369   4.663 -1.2527  0.2606 -0.3816
 1511SOL    HW216170   1.813   3.330   4.734  0.7920  2.6717 -0.0624
 1512SOL     OW16171   2.687   4.442   4.338 -0.4774 -0.4344  0.2565
 1512SOL    HW116172   2.737   4.376   4.289  1.0318  0.6931  0.2749
 1512SOL    HW216173   2.631   4.476   4.269 -0.3368  2.6635  1.6263
 1513SOL     OW16174   0.990   0.030   1.424 -0.0399 -0.0508  0.1066
 1513SOL    HW116175   0.915   0.084   1.398  2.5253  2.8842 -1.2684
 1513SOL    HW216176   0.971   0.010   1.516  0.2057 -1.9160 -0.2599
 1514SOL     OW16177   3.681   1.147  15.184  0.8814 -0.2641  0.3718
 1514SOL    HW116178   3.656   1.195  15.263  1.7200 -1.0556  1.1155
 1514SOL    HW216179   3.753   1.091  15.215 -0.6030 -2.3411  0.0579
 1515SOL     OW16180   2.333   2.347   4.407 -0.2589 -0.0304 -0.3221
 1515SOL    HW116181   2.281   2.272   4.438  3.5525 -3.0176 -1.2690
 1515SOL    HW216182   2.287   2.374   4.327  2.7039 -1.0195 -2.3339
 1516SOL     OW16183   2.463   3.920   4.338 -0.0464 -0.6525 -0.5178
 1516SOL    HW116184   2.436   3.848   4.281 -0.5710  0.5807 -1.8326
 1516SOL    HW216185   2.558   3.911   4.329 -0.3020 -2.1013 -1.7083
 1517SOL     OW16186   2.319   4.642   0.088 -0.0241  0.3956 -0.2974
 1517SOL    HW116187   2.396   4.596   0.055 -0.1896 -0.3317  0.3370
 1517SOL    HW216188   2.257   4.592   0.035 -0.5616  0.2640  0.4551
 1518SOL     OW16189   3.528   1.375  13.355 -0.7919  0.0709  0.6339
 1518SOL    HW116190   3.603   1.360  13.412 -1.2365 -0.6634  1.0374
 1518SOL    HW216191   3.481   1.444  13.402  0.4433  0.7391  0.8853
 1519SOL     OW16192   3.949   0.016   2.134  0.6004  0.1330  0.4321
 1519SOL    HW116193   3.932   4.733   2.041  1.4398  1.3907  0.0474
 1519SOL    HW216194   3.863   0.046   2.164  1.5886  2.8331  0.5063
 1520SOL     OW16195   1.157   4.016  17.685 -0.2230 -0.2974 -0.0506
 1520SOL    HW116196   1.114   4.073  17.622 -0.4543 -0.0740  0.3106
 1520SOL    HW216197   1.156   3.927  17.650 -3.7559 -0.0728 -0.4876
 1521SOL     OW16198   2.926   0.959   5.318 -0.3341  0.5529 -0.7909
 1521SOL    HW116199   2.872   0.944   5.240 -1.1311  1.5278 -0.4266
 1521SOL    HW216200   2.928   1.053   5.333  0.0585 -0.1116  3.3442
 1522SOL     OW16201   3.671   1.890   0.238 -0.0202  0.1099 -0.0045
 1522SOL    HW116202   3.622   1.848   0.167  1.0098  1.3672 -1.4493
 1522SOL    HW216203   3.601   1.885   0.303 -0.6066  2.5466 -0.4574
 1523SOL     OW16204   0.145   3.216   5.276  0.1366 -0.1958  0.0773
 1523SOL    HW116205   0.123   3.261   5.195 -2.1828  1.6586  1.7167
 1523SOL    HW216206   0.053   3.210   5.301  0.2741 -0.8048  0.4438
 1524SOL     OW16207   2.862   1.329   8.269  0.1330  0.3028  0.0163
 1524SOL    HW116208   2.889   1.293   8.184 -2.2774  0.1346 -0.6773
 1524SOL    HW216209   2.944   1.373   8.289 -0.5864  1.3423  0.6789
 1525SOL     OW16210   0.349   3.630  17.163 -0.1217 -0.4651 -0.6196
 1525SOL    HW116211   0.299   3.659  17.087  1.7736  0.4559 -1.5191
 1525SOL    HW216212   0.396   3.711  17.182 -0.6594 -0.3823  0.3392
 1526SOL     OW16213   1.904   1.957   7.564 -0.4747 -0.0116 -0.0731
 1526SOL    HW116214   1.981   1.904   7.545 -0.8091 -0.1106 -1.1516
 1526SOL    HW216215   1.849   1.892   7.608 -0.0186  1.2255  2.3225
 1527SOL     OW16216   0.931   2.224   8.828  0.2368  0.7517 -0.2790
 1527SOL    HW116217   0.847   2.183   8.807 -0.3362  1.2645  1.0867
 1527SOL    HW216218   0.955   2.172   8.904 -0.4866 -0.8501 -1.1307
 1528SOL     OW16219   2.536   0.497   7.168  0.6981  0.2453  0.1036
 1528SOL    HW116220   2.448   0.520   7.197  0.4788 -1.5676  0.8742
 1528SOL    HW216221   2.552   0.572   7.111  2.1160 -0.9338 -1.0549
 1529SOL     OW16222   0.620   2.878  13.483 -0.6021  0.1832  0.5075
 1529SOL    HW116223   0.591   2.930  13.558 -2.4369 -0.3792  0.1821
 1529SOL    HW216224   0.689   2.830  13.529  1.0778  2.1447  0.0409
 1530SOL     OW16225   1.051   3.384   5.041  0.0173 -0.2842 -0.2656
 1530SOL    HW116226   1.024   3.476   5.046 -2.6978 -1.1693  1.4484
 1530SOL    HW216227   1.105   3.383   4.962  1.3273  1.0164  0.6306
 1531SOL     OW16228   0.356   3.335   2.041  0.1855 -0.1734 -0.2087
 1531SOL    HW116229   0.403   3.346   1.958  0.0219  0.4788 -0.2148
 1531SOL    HW216230   0.421   3.349   2.110  0.9921 -3.2864 -0.3361
 1532SOL     OW16231   2.308   3.595   3.206  0.1564 -0.1692 -0.5131
 1532SOL    HW116232   2.229   3.561   3.249  1.3037 -1.5804  0.4747
 1532SOL    HW216233   2.376   3.530   3.224 -0.2271 -0.7829 -1.2946
 1533SOL     OW16234   0.947   3.610   9.350 -0.1875  0.1635 -0.0844
 1533SOL    HW116235   0.993   3.690   9.375 -0.7228 -0.0245  1.5320
 1533SOL    HW216236   0.859   3.645   9.368 -0.6152 -1.4063  0.8993
 1534SOL     OW16237   3.046   0.584  14.642 -0.1012 -0.4462  0.2063
 1534SOL    HW116238   3.086   0.630  14.716  1.6955  0.1204 -1.1275
 1534SOL    HW216239   2.980   0.644  14.609 -0.4861 -0.1121  1.5693
 1535SOL     OW16240   2.413   3.646  11.939 -0.1918 -0.2836  0.2124
 1535SOL    HW116241   2.325   3.619  11.966 -0.6604  0.7268 -0.2985
 1535SOL    HW216242   2.475   3.579  11.968  0.0657  0.4139  1.2622
 1536SOL     OW16243   4.245   1.399   3.692  0.1250  0.1858  0.5049
 1536SOL    HW116244   4.301   1.352   3.753 -2.0967 -2.4288  0.5478
 1536SOL    HW216245   4.218   1.477   3.740 -3.6252  0.3585 -1.8340
 1537SOL     OW16246   3.751   1.193  12.109  0.1731  0.3115  0.3330
 1537SOL    HW116247   3.757   1.244  12.190 -1.1652  2.3542 -0.8739
 1537SOL    HW216248   3.656   1.186  12.118  0.2424 -0.9892  0.0795
 1538SOL     OW16249   2.837   1.117   5.565 -0.4058  0.2062  0.0629
 1538SOL    HW116250   2.820   1.025   5.586 -0.4738  0.2835  0.3471
 1538SOL    HW216251   2.782   1.138   5.490 -0.8628 -0.6497  0.1561
 1539SOL     OW16252   2.938   3.940   2.128 -0.0110  0.0927 -0.4534
 1539SOL    HW116253   2.992   4.014   2.156 -0.2724 -0.4295  1.4766
 1539SOL    HW216254   3.011   3.880   2.113 -0.0262  0.1709 -0.8246
 1540SOL     OW16255   4.495   2.845   7.615 -0.0567 -0.3933  0.0261
 1540SOL    HW116256   4.478   2.901   7.539  0.9600  0.3874  0.3635
 1540SOL    HW216257   4.509   2.763   7.568  0.9950  0.5803 -1.3708
 1541SOL     OW16258   3.120   3.017   7.779  0.3479  0.1708  0.2081
 1541SOL    HW116259   3.141   3.071   7.703  0.9207 -0.8237 -0.3537
 1541SOL    HW216260   3.128   2.928   7.745  0.6341  0.0243  0.6513
 1542SOL     OW16261   2.375   1.681   1.622 -0.2679  0.1415 -0.1199
 1542SOL    HW116262   2.353   1.693   1.530 -0.8433  0.5290  0.0717
 1542SOL    HW216263   2.286   1.684   1.657  0.3833 -0.8620  1.6196
 1543SOL     OW16264   0.553   3.720   9.179  0.1542 -0.0323 -0.0915
 1543SOL    HW116265   0.587   3.711   9.268  0.7292  0.0425 -0.3065
 1543SOL    HW216266   0.631   3.703   9.127  0.0858  0.2273 -0.2793
 1544SOL     OW16267   4.429   0.484  10.279  0.4146  0.2882 -0.5572
 1544SOL    HW116268   4.472   0.433  10.347  0.8948  2.0831  0.4648
 1544SOL    HW216269   4.392   0.554  10.332  1.9761  1.2308 -0.7429
 1545SOL     OW16270   0.179   0.366   0.528 -0.1746  0.0152 -0.5872
 1545SOL    HW116271   0.103   0.345   0.474  0.4583  0.7915 -1.7624
 1545SOL    HW216272   0.229   0.284   0.520 -0.1073  0.2824 -2.8271
 1546SOL     OW16273   1.616   2.175   7.558 -0.5471  0.3379  0.1658
 1546SOL    HW116274   1.594   2.268   7.548 -0.3738  0.4482  0.7974
 1546SOL    HW216275   1.676   2.185   7.631 -0.7979  1.7713  0.1835
 1547SOL     OW16276   3.235   0.397   2.980  0.5854 -0.4452 -0.0668
 1547SOL    HW116277   3.329   0.383   2.972  0.8567 -0.3066  3.0933
 1547SOL    HW216278   3.194   0.327   2.929 -1.2359 -0.2121  1.0839
 1548SOL     OW16279   0.581   3.377   3.178  0.3366  0.0231  0.0031
 1548SOL    HW116280   0.604   3.394   3.269  0.4110  2.0310 -0.3911
 1548SOL    HW216281   0.665   3.368   3.133  1.6378  2.5944  1.9785
 1549SOL     OW16282   0.923   4.211   4.680  0.0992  0.1482  1.2808
 1549SOL    HW116283   0.915   4.300   4.712 -0.6675  0.3038  0.6750
 1549SOL    HW216284   0.980   4.170   4.744  0.6850 -2.1439 -0.6952
 1550SOL     OW16285   1.635   0.521   5.310 -0.1541  0.0472 -0.3864
 1550SOL    HW116286   1.645   0.445   5.367 -0.1957 -0.2426 -0.7630
 1550SOL    HW216287   1.663   0.483   5.226  0.3174 -0.1473 -0.1433
 1551SOL     OW16288   3.883   0.499   6.089  0.2180  0.2348  0.1285
 1551SOL    HW116289   3.939   0.450   6.150  0.1796 -0.4511 -0.3812
 1551SOL    HW216290   3.856   0.563   6.154 -1.5921 -0.2897 -0.0980
 1552SOL     OW16291   2.389   1.306  13.418 -0.0179  0.1963 -0.6053
 1552SOL    HW116292   2.395   1.219  13.380 -1.2889 -1.2857  2.5358
 1552SOL    HW216293   2.481   1.329  13.426  0.6027 -2.7605  0.6777
 1553SOL     OW16294   2.205   1.879   7.296 -0.0592  0.2568 -0.5219
 1553SOL    HW116295   2.276   1.867   7.233 -0.3631 -2.4201 -0.3842
 1553SOL    HW216296   2.188   1.972   7.285 -3.8983 -0.3369  0.3153
 1554SOL     OW16297   0.566   0.308   1.540  0.1962  0.4548  0.6401
 1554SOL    HW116298   0.495   0.324   1.602 -1.6410  0.1230 -1.3768
 1554SOL    HW216299   0.525   0.328   1.456  0.6336 -0.7186  0.1332
 1555SOL     OW16300   1.453   4.129  15.940  0.0109 -0.0552 -0.6233
 1555SOL    HW116301   1.465   4.137  15.846 -0.7390 -2.9193 -0.9575
 1555SOL    HW216302   1.377   4.072  15.947 -0.4443  0.5972 -0.3543
 1556SOL     OW16303   0.246   0.112   4.119 -0.0874  0.4572  0.0403
 1556SOL    HW116304   0.332   0.140   4.150 -0.9800  0.6589  2.3193
 1556SOL    HW216305   0.240   0.178   4.050  0.3155  0.8125  0.3494
 1557SOL     OW16306   3.326   3.513   8.825  0.2346 -0.1602 -0.1848
 1557SOL    HW116307   3.267   3.588   8.818 -0.6265 -0.7148  1.0091
 1557SOL    HW216308   3.322   3.496   8.919  0.4486 -1.4253 -0.4046
 1558SOL     OW16309   3.807   3.009   4.275  0.1104  0.1736  0.0811
 1558SOL    HW116310   3.758   2.926   4.279 -0.4457  0.6182  2.4654
 1558SOL    HW216311   3.835   3.018   4.366 -0.6298 -0.9541  0.4275
 1559SOL     OW16312   0.432   0.232   9.490 -0.3157 -0.5712  0.1570
 1559SOL    HW116313   0.471   0.270   9.412 -1.0110  4.0273  2.0303
 1559SOL    HW216314   0.450   0.305   9.549  1.2401 -0.9680  0.1589
 1560SOL     OW16315   1.245   2.149   2.278 -0.1852 -0.5170  0.2455
 1560SOL    HW116316   1.267   2.059   2.299  2.1229 -0.2068 -0.8759
 1560SOL    HW216317   1.335   2.179   2.265 -0.3082  0.8843  2.5535
 1561SOL     OW16318   1.159   4.202   8.940  0.3402  0.4524 -0.1375
 1561SOL    HW116319   1.208   4.177   8.861  1.4464  0.4918  0.5337
 1561SOL    HW216320   1.147   4.113   8.972  1.5226 -0.9309 -3.4743
 1562SOL     OW16321   2.485   2.387   6.478 -0.0696 -0.6119 -0.2688
 1562SOL    HW116322   2.500   2.435   6.559 -0.3430  0.8055 -1.0566
 1562SOL    HW216323   2.533   2.307   6.494  1.5101  0.6962  1.4879
 1563SOL     OW16324   0.654   3.918   5.334 -0.1390  0.2303  0.2017
 1563SOL    HW116325   0.589   3.986   5.351 -0.5117  0.5386 -2.4340
 1563SOL    HW216326   0.703   3.965   5.267 -1.4202  0.6297 -0.4571
 1564SOL     OW16327   3.625   0.929   4.289  0.4461 -0.5294 -0.0386
 1564SOL    HW116328   3.661   0.868   4.354 -1.3435 -0.2794  1.1692
 1564SOL    HW216329   3.569   0.980   4.348  3.8238  2.4616  0.5945
 1565SOL     OW16330   0.970   3.790   2.505 -0.1411 -0.2888 -0.4634
 1565SOL    HW116331   1.056   3.833   2.505  0.0717 -0.6900  1.8952
 1565SOL    HW216332   0.924   3.860   2.458  1.7734  1.3843  0.1345
 1566SOL     OW16333   3.280   0.224  15.264  0.6749  0.5408 -0.1022
 1566SOL    HW116334   3.250   0.133  15.275  2.0282  0.0248 -0.7212
 1566SOL    HW216335   3.287   0.248  15.356  1.6681  1.8399 -0.5277
 1567SOL     OW16336   2.115   4.678   3.400 -0.3945 -0.3584  0.6749
 1567SOL    HW116337   2.139   4.589   3.375  3.4400  1.0627 -0.7239
 1567SOL    HW216338   2.189   4.689   3.460  1.3931 -1.9332 -1.2437
 1568SOL     OW16339   3.782   4.213   5.410  0.1451  0.0235 -0.1502
 1568SOL    HW116340   3.780   4.267   5.331 -1.7830  0.4041  0.1485
 1568SOL    HW216341   3.696   4.170   5.406  0.4613 -0.6207  0.0312
 1569SOL     OW16342   0.372   3.890   4.540 -0.0264 -0.2048  0.2433
 1569SOL    HW116343   0.351   3.851   4.456 -3.2579 -2.8443  2.2743
 1569SOL    HW216344   0.408   3.811   4.582 -1.3345 -0.8067  0.2353
 1570SOL     OW16345   3.108   1.741   6.324  0.5090  0.0559 -0.3562
 1570SOL    HW116346   3.113   1.821   6.270 -0.8257  0.4275  0.0808
 1570SOL    HW216347   3.159   1.670   6.285  2.2132  0.0084  1.9612
 1571SOL     OW16348   0.175   3.511   1.762 -0.1779  0.1178  0.5903
 1571SOL    HW116349   0.258   3.556   1.775  1.2019 -2.0757 -0.6746
 1571SOL    HW216350   0.113   3.560   1.816 -0.4407 -0.2545  0.6315
 1572SOL     OW16351   2.342   2.727   9.369  0.7521 -0.3573  0.4053
 1572SOL    HW116352   2.278   2.690   9.308 -0.4285  0.4302  1.1686
 1572SOL    HW216353   2.388   2.649   9.398  0.0501 -0.5300  1.0612
 1573SOL     OW16354   2.563   0.473   4.775 -0.0813  0.0741 -0.0353
 1573SOL    HW116355   2.597   0.450   4.862  0.3854 -0.1959 -0.2868
 1573SOL    HW216356   2.475   0.437   4.787  0.6038 -1.7348 -0.3754
 1574SOL     OW16357   0.970   4.080  12.935  0.1193 -0.4219  0.2910
 1574SOL    HW116358   0.969   4.166  12.893  0.8271 -0.7300 -0.3462
 1574SOL    HW216359   0.981   4.104  13.027  1.8906 -2.3981  0.5912
 1575SOL     OW16360   2.082   1.849   6.627  0.2840  0.1484 -0.0150
 1575SOL    HW116361   2.115   1.873   6.713 -0.1182 -2.0687  0.7492
 1575SOL    HW216362   1.992   1.872   6.650 -0.4546 -0.8923 -1.8248
 1576SOL     OW16363   0.230   2.997   0.857  0.2409 -0.0339 -0.3875
 1576SOL    HW116364   0.284   3.027   0.931  2.2416 -0.6263 -1.6134
 1576SOL    HW216365   0.213   2.909   0.891  2.4375 -0.8755 -1.4683
 1577SOL     OW16366   0.682   2.671  15.049 -0.9170 -0.1555 -0.3218
 1577SOL    HW116367   0.588   2.660  15.060 -0.9811  0.7945  0.0844
 1577SOL    HW216368   0.679   2.764  15.071 -0.6480  0.0903 -1.3140
 1578SOL     OW16369   2.819   3.644  15.250  0.3497 -0.1064 -0.2367
 1578SOL    HW116370   2.749   3.589  15.218  0.2435  0.0409 -0.2585
 1578SOL    HW216371   2.878   3.579  15.288  0.3994 -0.8305 -1.5679
 1579SOL     OW16372   0.428   2.001   2.680 -1.3095 -0.7881 -0.5708
 1579SOL    HW116373   0.427   2.059   2.603  1.3867  2.9557  2.1471
 1579SOL    HW216374   0.373   2.058   2.733  0.8224  0.3371  0.4375
 1580SOL     OW16375   3.165   3.219   5.759 -0.1886 -0.1678 -0.3381
 1580SOL    HW116376   3.095   3.277   5.729 -2.7660 -2.4966  1.0630
 1580SOL    HW216377   3.123   3.174   5.833  0.1390 -0.2410 -0.1952
 1581SOL     OW16378   0.169   4.272   6.817 -0.2766  0.1617 -0.4096
 1581SOL    HW116379   0.087   4.293   6.862  0.3749 -0.2663  0.9848
 1581SOL    HW216380   0.231   4.332   6.858 -1.5146  0.7756  0.5544
 1582SOL     OW16381   4.627   1.460   0.536 -0.0261  0.2320  0.5584
 1582SOL    HW116382   4.587   1.546   0.526 -1.8947 -0.5194  1.6265
 1582SOL    HW216383   4.553   1.399   0.541  0.7190 -0.6968  0.4418
 1583SOL     OW16384   3.990   2.421   9.564 -0.0314 -0.2488 -0.4973
 1583SOL    HW116385   4.015   2.512   9.547 -1.7823  0.3607  0.2860
 1583SOL    HW216386   3.917   2.409   9.503 -1.5005 -0.1094  1.2432
 1584SOL     OW16387   0.146   1.241   9.649  0.7349  0.2439 -0.5728
 1584SOL    HW116388   0.152   1.254   9.744 -2.7311 -0.7650 -0.2299
 1584SOL    HW216389   0.130   1.147   9.637 -0.0868  0.4032 -0.6931
 1585SOL     OW16390   3.186   1.989  15.244  0.1983 -0.1155  0.3970
 1585SOL    HW116391   3.137   1.948  15.173  1.4649 -1.8772  0.5458
 1585SOL    HW216392   3.112   1.997  15.304 -2.1809 -0.5147 -2.4851
 1586SOL     OW16393   1.099   0.643   9.016 -0.1183  0.8892 -0.1625
 1586SOL    HW116394   1.167   0.697   9.056  0.0952 -0.7214  1.6839
 1586SOL    HW216395   1.158   0.592   8.961 -0.1877 -0.2038  0.7613
 1587SOL     OW16396   1.788   4.167  12.535 -0.1142 -0.2842  0.2335
 1587SOL    HW116397   1.864   4.125  12.574 -1.1354 -1.2129  1.2264
 1587SOL    HW216398   1.722   4.136  12.597  1.0356  1.1196  2.1549
 1588SOL     OW16399   3.711   0.665   3.696  0.1447 -0.1967  0.6479
 1588SOL    HW116400   3.756   0.674   3.611  1.4662  0.2454  1.3913
 1588SOL    HW216401   3.725   0.578   3.733  0.2668 -1.6145 -2.6648
 1589SOL     OW16402   0.144   3.676   3.478 -0.3493 -0.4426  0.0473
 1589SOL    HW116403   0.227   3.675   3.526 -1.6906 -0.8066  2.4000
 1589SOL    HW216404   0.085   3.614   3.522  2.0892 -1.6134  1.6408
 1590SOL     OW16405   3.647   1.516  11.428  0.0091  0.0089 -0.1250
 1590SOL    HW116406   3.553   1.518  11.445 -0.1077 -0.0210 -0.7758
 1590SOL    HW216407   3.678   1.503  11.518  1.8850 -0.3196 -0.8261
 1591SOL     OW16408   1.602   3.488  13.083 -0.3720  0.4661  0.0410
 1591SOL    HW116409   1.679   3.435  13.065 -0.1108  0.8811 -0.0855
 1591SOL    HW216410   1.610   3.555  13.014 -0.0806  1.1657  0.7579
 1592SOL     OW16411   3.221   0.716   7.869 -0.7256  0.2417  0.1096
 1592SOL    HW116412   3.307   0.697   7.833 -0.9024 -1.6885  0.7271
 1592SOL    HW216413   3.159   0.680   7.806  1.7637 -5.0479  0.6701
 1593SOL     OW16414   2.698   1.745  12.795  0.3119  0.5886  0.1482
 1593SOL    HW116415   2.606   1.756  12.819  0.6731  0.8909  1.4040
 1593SOL    HW216416   2.708   1.655  12.826 -0.3348  1.1810  2.0580
 1594SOL     OW16417   1.359   1.027   2.711  0.3159 -0.7967  0.2619
 1594SOL    HW116418   1.387   1.091   2.645  3.1850 -2.6345 -0.2885
 1594SOL    HW216419   1.325   1.086   2.779  2.0278  3.1039 -2.2700
 1595SOL     OW16420   0.981   1.357  11.395  0.7233 -0.4341  0.1850
 1595SOL    HW116421   0.914   1.325  11.336  2.7333 -1.5963 -1.4688
 1595SOL    HW216422   0.986   1.286  11.459 -3.2649 -1.7064 -0.9650
 1596SOL     OW16423   3.899   0.561   8.527 -0.5467 -0.0314  0.1282
 1596SOL    HW116424   3.813   0.595   8.501 -0.0410 -0.4461 -2.0826
 1596SOL    HW216425   3.893   0.468   8.505 -1.2797 -0.1723  0.9111
 1597SOL     OW16426   3.734   0.694   6.211 -0.0056  0.2342 -0.2432
 1597SOL    HW116427   3.648   0.700   6.169 -0.5434 -3.4984  0.3567
 1597SOL    HW216428   3.719   0.681   6.305  1.0652 -2.1593 -0.4173
 1598SOL     OW16429   1.052   4.627   7.389  0.5030  0.3908 -0.2252
 1598SOL    HW116430   1.017   4.613   7.301  2.5238  0.9181 -1.1160
 1598SOL    HW216431   1.065   4.722   7.393 -0.9845  0.6425 -1.4513
 1599SOL     OW16432   0.877   0.585   3.626 -0.0667  0.1844 -0.8342
 1599SOL    HW116433   0.972   0.571   3.622  0.3275  2.4730  0.2287
 1599SOL    HW216434   0.864   0.553   3.537 -2.1981 -1.4917  0.1071
 1600SOL     OW16435   4.592   0.803  13.872  0.0901 -0.3600 -0.4386
 1600SOL    HW116436   4.519   0.741  13.872 -0.0764 -0.1566  0.7761
 1600SOL    HW216437   4.584   0.845  13.958 -0.3981 -0.9399 -0.1991
 1601SOL     OW16438   3.934   0.064   3.240  0.2723 -0.3002 -0.0996
 1601SOL    HW116439   3.839   0.056   3.243  0.1600  0.1085 -1.9601
 1601SOL    HW216440   3.945   0.156   3.214  0.3426  0.0243  1.1154
 1602SOL     OW16441   4.107   3.679  14.602  0.0957 -0.3026 -0.1789
 1602SOL    HW116442   4.169   3.610  14.626 -1.4478 -1.4586  0.4727
 1602SOL    HW216443   4.111   3.741  14.675 -1.8888  0.4007 -0.6824
 1603SOL     OW16444   1.797   1.067   5.386 -0.1087  0.0489 -0.1400
 1603SOL    HW116445   1.788   0.998   5.320 -0.0332  0.7979 -0.9282
 1603SOL    HW216446   1.718   1.037   5.432  0.0543  0.6832  0.5498
 1604SOL     OW16447   2.174   2.582  13.782 -0.2926 -0.4007  0.3561
 1604SOL    HW116448   2.179   2.598  13.688 -1.5947  0.5584  0.4520
 1604SOL    HW216449   2.241   2.640  13.818 -0.6679 -0.5999  1.3620
 1605SOL     OW16450   3.410   0.357  13.798 -0.0688  0.2072  0.6554
 1605SOL    HW116451   3.376   0.309  13.723 -0.2061  1.1420  0.1151
 1605SOL    HW216452   3.339   0.407  13.837 -2.2312 -1.9134 -0.6043
 1606SOL     OW16453   1.112   2.887   4.221  0.2361 -0.1554  0.2518
 1606SOL    HW116454   1.081   2.805   4.260 -2.1831  0.7896  0.3287
 1606SOL    HW216455   1.044   2.904   4.157  0.0907 -0.6583  0.2733
 1607SOL     OW16456   3.838   4.033  10.114  0.1273  0.1363  0.2549
 1607SOL    HW116457   3.795   4.096  10.171  3.2877  2.7127 -0.2236
 1607SOL    HW216458   3.765   3.972  10.106  0.4930 -0.3968  0.9770
 1608SOL     OW16459   0.373   3.685   4.907 -0.0957 -0.2163  0.0563
 1608SOL    HW116460   0.289   3.641   4.888 -0.1024 -1.1147  2.2294
 1608SOL    HW216461   0.413   3.674   4.821 -2.2364 -2.4598 -0.6877
 1609SOL     OW16462   2.573   3.687   3.762 -0.4536 -0.2558  0.0816
 1609SOL    HW116463   2.623   3.742   3.702  1.3437 -0.6268  1.2242
 1609SOL    HW216464   2.488   3.688   3.719  0.2293  1.1667 -1.2112
 1610SOL     OW16465   4.179   1.269   3.472 -0.3089  0.1359  0.1052
 1610SOL    HW116466   4.203   1.331   3.404  0.5308  0.0642  0.3373
 1610SOL    HW216467   4.191   1.318   3.554 -1.0621  0.2336  0.1554
 1611SOL     OW16468   1.308   4.082   7.154  0.3818 -0.4751 -0.0725
 1611SOL    HW116469   1.246   4.114   7.089 -0.1338 -0.8757  0.2221
 1611SOL    HW216470   1.350   4.160   7.190 -1.2151  0.4185 -0.1299
 1612SOL     OW16471   2.711   3.324   6.228 -0.8301  0.1649  0.6107
 1612SOL    HW116472   2.632   3.334   6.281 -1.5661  0.3197 -0.5130
 1612SOL    HW216473   2.697   3.363   6.142  0.5501  1.0890  0.8012
 1613SOL     OW16474   1.993   1.518   3.404  0.6670 -0.4867 -0.0376
 1613SOL    HW116475   2.009   1.600   3.451 -1.0429  1.1914 -2.4186
 1613SOL    HW216476   1.982   1.546   3.314 -1.5524 -0.1171  0.3599
 1614SOL     OW16477   0.827   3.512   4.824 -0.4038  0.0531  0.1416
 1614SOL    HW116478   0.828   3.594   4.776  0.6097  1.4412  2.5194
 1614SOL    HW216479   0.806   3.550   4.909 -0.3965 -2.7861  1.4306
 1615SOL     OW16480   0.999   1.145   1.323  0.6164 -0.3556 -0.1325
 1615SOL    HW116481   0.984   1.175   1.233  0.6147 -1.8783 -0.6470
 1615SOL    HW216482   1.082   1.099   1.309  0.8135 -0.1343  0.3266
 1616SOL     OW16483   1.171   2.449   2.169 -0.2199  0.1360 -0.8109
 1616SOL    HW116484   1.253   2.470   2.212 -1.0218 -0.2666  0.9286
 1616SOL    HW216485   1.196   2.383   2.105 -0.8465 -0.9405  0.0605
 1617SOL     OW16486   0.968   2.013   3.098 -0.3777  0.2858  0.3137
 1617SOL    HW116487   0.889   1.960   3.086  0.8081 -1.6680  1.1533
 1617SOL    HW216488   0.933   2.101   3.113 -1.2294  0.1068 -0.6269
 1618SOL     OW16489   2.362   3.978   0.683  0.0250 -0.1825  0.4751
 1618SOL    HW116490   2.285   3.963   0.628  0.7275 -2.8985  0.2226
 1618SOL    HW216491   2.328   3.938   0.763 -2.6051  0.9653 -0.0648
 1619SOL     OW16492   3.735   0.377   9.167  0.1410  0.2110  0.4661
 1619SOL    HW116493   3.648   0.405   9.196  0.7469  2.0731  0.4847
 1619SOL    HW216494   3.791   0.454   9.177  1.7968 -0.8954 -0.2667
 1620SOL     OW16495   3.377   0.024  10.970 -0.2222 -0.1110 -0.1771
 1620SOL    HW116496   3.384   4.722  10.882 -1.1736  0.2245 -0.3844
 1620SOL    HW216497   3.468   0.021  11.002 -0.5654  2.0039  1.0196
 1621SOL     OW16498   3.711   4.145   3.612 -0.9962  0.6812  0.0071
 1621SOL    HW116499   3.696   4.091   3.534  0.6295  1.5007 -0.8650
 1621SOL    HW216500   3.781   4.205   3.587  0.7111 -1.9480 -1.5830
 1622SOL     OW16501   1.870   4.584  12.912 -0.2961  0.0940  0.0452
 1622SOL    HW116502   1.900   4.508  12.862 -0.1345  0.6065 -0.6417
 1622SOL    HW216503   1.913   4.584  12.998  1.8607  2.1486 -1.0226
 1623SOL     OW16504   0.815   1.574   2.107 -1.0675  0.5028 -0.0238
 1623SOL    HW116505   0.830   1.480   2.101 -1.9091  0.5461 -2.8316
 1623SOL    HW216506   0.754   1.566   2.181 -1.2277 -0.9291 -0.3131
 1624SOL     OW16507   0.130   2.296   2.152 -0.0339  0.0725  0.1597
 1624SOL    HW116508   0.177   2.339   2.224  0.7024  1.8519 -1.3925
 1624SOL    HW216509   0.189   2.222   2.139 -0.9765 -0.3049 -1.9590
 1625SOL     OW16510   3.841   1.629   4.781 -0.7086  0.1319  0.1706
 1625SOL    HW116511   3.882   1.664   4.860  0.4418 -0.8315 -0.0027
 1625SOL    HW216512   3.844   1.534   4.793 -1.2536 -0.1405 -1.8142
 1626SOL     OW16513   0.378   3.147   6.685  0.0997 -0.1126 -0.6554
 1626SOL    HW116514   0.287   3.175   6.673  0.1851  1.9909  3.3643
 1626SOL    HW216515   0.417   3.197   6.614  1.8196 -1.5901 -0.7470
 1627SOL     OW16516   1.077   4.379   9.133 -0.1129  0.4721  0.3018
 1627SOL    HW116517   0.996   4.330   9.143 -0.6920  1.3607  0.0027
 1627SOL    HW216518   1.120   4.306   9.088  0.6647  0.1509  1.5526
 1628SOL     OW16519   4.681   2.280   8.666  0.2965 -0.2401 -0.8443
 1628SOL    HW116520   4.632   2.229   8.730 -0.1659  0.9151 -0.2667
 1628SOL    HW216521   4.653   2.236   8.586  1.6912 -1.0022 -0.8960
 1629SOL     OW16522   2.293   3.662  17.733 -0.3502  0.3976 -1.1967
 1629SOL    HW116523   2.242   3.606  17.675 -1.3369  0.4349 -0.3666
 1629SOL    HW216524   2.379   3.621  17.721  0.4032  1.0216  2.0117
 1630SOL     OW16525   1.300   4.062   5.442 -0.6230  0.1130 -0.1673
 1630SOL    HW116526   1.338   4.134   5.391  1.9236 -0.7040  0.5781
 1630SOL    HW216527   1.213   4.097   5.422 -0.6165  0.8568  1.0564
 1631SOL     OW16528   0.244   3.434   4.134  0.3679 -0.1497 -0.1373
 1631SOL    HW116529   0.240   3.521   4.173  1.6267 -1.0151  1.9005
 1631SOL    HW216530   0.325   3.397   4.167  0.2900 -0.6723 -0.5346
 1632SOL     OW16531   2.077   4.641   9.024  0.0212  0.0965 -0.5526
 1632SOL    HW116532   2.095   4.721   9.074 -2.8753 -0.1064  0.8394
 1632SOL    HW216533   2.161   4.596   9.010  0.5784  1.3260 -1.1684
 1633SOL     OW16534   1.310   1.942   5.781  0.4782  0.5392 -0.4736
 1633SOL    HW116535   1.306   1.882   5.856 -2.7422  0.2732 -0.8481
 1633SOL    HW216536   1.263   1.891   5.715 -0.7115  0.7727  0.1930
 1634SOL     OW16537   0.335   4.592  11.602  0.2163  0.3704  0.0441
 1634SOL    HW116538   0.321   4.550  11.517 -0.7357  0.0391  0.3743
 1634SOL    HW216539   0.421   4.630  11.582  0.2983  0.6798  1.0061
 1635SOL     OW16540   0.874   2.545   1.630  0.1196  0.4489  0.5320
 1635SOL    HW116541   0.919   2.480   1.576 -2.5274  0.3719 -1.5714
 1635SOL    HW216542   0.814   2.494   1.685 -1.3493 -0.3773 -1.8263
 1636SOL     OW16543   0.169   2.263   4.272  0.7162 -0.2391 -0.1449
 1636SOL    HW116544   0.101   2.326   4.296  0.3193 -0.1531 -1.5375
 1636SOL    HW216545   0.110   2.190   4.252 -0.5454  1.2807 -1.9728
 1637SOL     OW16546   0.917   3.086   8.715 -0.1417 -0.3859  0.3442
 1637SOL    HW116547   0.830   3.124   8.699  0.3352  0.2651 -0.7597
 1637SOL    HW216548   0.909   3.009   8.771  0.5540  0.2727  1.3304
 1638SOL     OW16549   3.277   3.924   1.708  0.0415  0.3161 -0.2601
 1638SOL    HW116550   3.215   3.877   1.652 -1.3942  0.9295  0.8062
 1638SOL    HW216551   3.327   3.846   1.733 -1.6485 -0.4176  0.8328
 1639SOL     OW16552   3.865   3.860   8.465 -0.3794 -0.1864  0.0238
 1639SOL    HW116553   3.784   3.856   8.515 -0.8164 -0.8511 -0.7310
 1639SOL    HW216554   3.924   3.881   8.537  0.3289  0.5488 -0.7714
 1640SOL     OW16555   0.016   3.857   4.061 -0.3819 -0.2081 -0.0024
 1640SOL    HW116556   0.021   3.799   4.138  1.9136 -1.4232 -1.0608
 1640SOL    HW216557   0.001   3.800   3.987  1.2048  0.2507 -0.6817
 1641SOL     OW16558   3.350   0.710  12.735  0.4336  0.5609 -0.4337
 1641SOL    HW116559   3.426   0.725  12.792 -0.7581 -2.2409  1.8697
 1641SOL    HW216560   3.323   0.800  12.717 -1.3291  0.2528  0.6834
 1642SOL     OW16561   3.237   1.724   3.913 -0.3489  0.3497 -0.4682
 1642SOL    HW116562   3.175   1.675   3.859 -0.6153  1.9526 -1.6167
 1642SOL    HW216563   3.174   1.749   3.980 -2.1043  0.3696 -2.1343
 1643SOL     OW16564   3.638   2.206  13.298 -0.0580 -0.6872 -0.3940
 1643SOL    HW116565   3.695   2.279  13.275  1.1830 -1.8561 -1.0076
 1643SOL    HW216566   3.703   2.142  13.270  1.8979  1.3711 -0.6037
 1644SOL     OW16567   0.940   4.521   4.248 -0.5804 -0.3300  0.0080
 1644SOL    HW116568   0.975   4.470   4.175 -1.1150 -1.3350  0.4541
 1644SOL    HW216569   0.945   4.450   4.312 -1.1993  0.4541  0.9312
 1645SOL     OW16570   4.341   0.669   0.711  0.3820  0.4648 -0.5072
 1645SOL    HW116571   4.389   0.650   0.791  0.0889 -2.1590 -0.9488
 1645SOL    HW216572   4.255   0.707   0.732  0.5517 -0.7062  2.3019
 1646SOL     OW16573   0.959   3.457   3.803  0.0889 -0.2441 -0.7252
 1646SOL    HW116574   0.981   3.458   3.710 -0.3246  0.7658 -0.8149
 1646SOL    HW216575   1.042   3.479   3.846 -1.7260  1.1714  2.0675
 1647SOL     OW16576   2.002   2.132   3.183  0.0576  0.2201  0.0491
 1647SOL    HW116577   2.005   2.228   3.193 -1.8239  0.4714 -1.8766
 1647SOL    HW216578   2.094   2.110   3.168 -0.3627 -2.0678  0.9678
 1648SOL     OW16579   4.256   0.664   5.371  0.2379  0.1687 -0.4408
 1648SOL    HW116580   4.260   0.725   5.444  0.7662 -1.0517  0.5588
 1648SOL    HW216581   4.176   0.620   5.398  1.1937 -1.8658 -0.8990
 1649SOL     OW16582   4.051   0.518   2.101 -0.2182  0.4938  0.0659
 1649SOL    HW116583   3.962   0.535   2.132 -0.4581 -0.5924 -0.0204
 1649SOL    HW216584   4.069   0.607   2.069  1.6782 -0.8580 -2.5909
 1650SOL     OW16585   3.096   4.228   7.332 -0.1965 -0.1008  0.1512
 1650SOL    HW116586   3.152   4.287   7.281  1.0952 -1.3744  0.0829
 1650SOL    HW216587   3.079   4.287   7.406  0.7307  1.8759 -1.2172
 1651SOL     OW16588   4.235   1.179   6.343 -0.7733  0.1721 -0.0042
 1651SOL    HW116589   4.253   1.106   6.402 -2.4894  0.7519  1.2584
 1651SOL    HW216590   4.157   1.204   6.394 -1.0916  1.0771 -0.9250
 1652SOL     OW16591   3.133   4.423  14.569 -0.3237  0.3668 -0.0998
 1652SOL    HW116592   3.115   4.470  14.650 -0.9921 -1.2698  0.6862
 1652SOL    HW216593   3.054   4.448  14.521 -0.0824 -1.1644 -1.2966
 1653SOL     OW16594   4.343   0.616   7.791 -0.7119  0.0404 -0.2625
 1653SOL    HW116595   4.389   0.661   7.720 -1.9652  2.3822  0.4076
 1653SOL    HW216596   4.273   0.577   7.738  0.6027 -4.3596  1.2672
 1654SOL     OW16597   3.799   1.083   5.412 -0.2184 -0.0341  0.0742
 1654SOL    HW116598   3.705   1.082   5.398 -0.4665  1.7181  1.6090
 1654SOL    HW216599   3.820   1.162   5.363  0.2592 -0.7781 -0.9208
 1655SOL     OW16600   1.241   3.534   3.793  0.0172 -0.1202 -0.1116
 1655SOL    HW116601   1.271   3.618   3.760 -0.9763 -0.2064 -1.2259
 1655SOL    HW216602   1.255   3.485   3.712 -0.0844  0.4193 -0.4516
 1656SOL     OW16603   2.129   0.625   2.737 -0.3098  0.4911  0.3812
 1656SOL    HW116604   2.137   0.699   2.798 -2.9080  1.6926 -0.7652
 1656SOL    HW216605   2.070   0.575   2.792 -1.4004  0.5824 -0.7223
 1657SOL     OW16606   2.507   1.094   1.344 -0.4816  0.3804 -0.2500
 1657SOL    HW116607   2.476   1.034   1.411  1.2236  0.3522  0.5171
 1657SOL    HW216608   2.554   1.031   1.289 -0.5226  1.3850 -1.4369
 1658SOL     OW16609   3.682   3.432  15.927 -0.1321  0.2517  0.2803
 1658SOL    HW116610   3.615   3.454  15.863  0.3022 -1.2945 -0.7125
 1658SOL    HW216611   3.740   3.392  15.863 -1.3256  0.3613 -0.8572
 1659SOL     OW16612   0.563   0.664   0.824  0.2843  0.1835  0.1983
 1659SOL    HW116613   0.504   0.721   0.775  0.2474 -1.3721 -1.5394
 1659SOL    HW216614   0.496   0.668   0.893  1.0494 -1.8159  1.0486
 1660SOL     OW16615   2.495   0.052   2.471  0.5618  0.1851 -0.1844
 1660SOL    HW116616   2.482   4.730   2.548 -2.3183  0.8231 -0.1810
 1660SOL    HW216617   2.577   0.019   2.436 -0.3180 -1.3439 -0.7866
 1661SOL     OW16618   1.903   2.815   7.065 -0.6591  0.8597  0.0356
 1661SOL    HW116619   1.831   2.854   7.014 -3.1186 -1.7867  1.5278
 1661SOL    HW216620   1.900   2.727   7.027 -1.0478  1.5443 -1.5311
 1662SOL     OW16621   1.605   2.700   6.613 -0.0712 -0.3581 -0.5048
 1662SOL    HW116622   1.583   2.610   6.590  1.0902 -0.6317 -0.5469
 1662SOL    HW216623   1.597   2.740   6.526  1.4988 -0.7699 -0.8540
 1663SOL     OW16624   3.835   1.481   5.807 -0.1853 -0.0444  0.1642
 1663SOL    HW116625   3.813   1.528   5.886  1.5616  2.6510 -0.9549
 1663SOL    HW216626   3.750   1.452   5.774  0.6169 -2.4144  0.1413
 1664SOL     OW16627   1.477   4.002   1.621  0.2912 -0.3010  0.4646
 1664SOL    HW116628   1.537   4.036   1.554  0.2903  1.8864  1.5673
 1664SOL    HW216629   1.494   3.908   1.620  1.1802 -0.1349 -0.9089
 1665SOL     OW16630   4.160   2.707   6.092 -0.2968 -0.4580  0.3887
 1665SOL    HW116631   4.078   2.706   6.044  0.8854  0.4802 -1.6577
 1665SOL    HW216632   4.190   2.619   6.068  1.9711 -0.8456  4.5955
 1666SOL     OW16633   3.125   0.846  10.627  1.0563 -0.3953  0.3913
 1666SOL    HW116634   3.068   0.793  10.571  0.7364 -0.1605  0.4951
 1666SOL    HW216635   3.068   0.897  10.684  0.2510 -0.5505 -0.2847
 1667SOL     OW16636   3.430   0.553   7.541  0.4713 -0.1616 -0.7819
 1667SOL    HW116637   3.484   0.483   7.504  0.2403  0.2209 -1.8459
 1667SOL    HW216638   3.342   0.516   7.536 -0.5619  2.3009 -0.4988
 1668SOL     OW16639   3.133   1.484   3.394  0.3468  0.1815 -0.0552
 1668SOL    HW116640   3.038   1.492   3.383  0.4339 -0.9554 -1.7060
 1668SOL    HW216641   3.148   1.416   3.460 -3.1493 -0.8869 -0.3346
 1669SOL     OW16642   4.338   0.630   3.440 -0.1194 -0.6114 -0.1259
 1669SOL    HW116643   4.306   0.708   3.485  1.6211 -0.0670  0.1849
 1669SOL    HW216644   4.274   0.569   3.475 -0.0474 -0.3683  0.4234
 1670SOL     OW16645   0.716   4.538   4.757  0.3045  0.0227 -0.3795
 1670SOL    HW116646   0.805   4.539   4.792 -0.0544 -0.6785  0.5581
 1670SOL    HW216647   0.724   4.461   4.701  3.0124  0.1985 -0.2515
 1671SOL     OW16648   3.756   0.524   4.553  0.5947 -0.1044  0.5556
 1671SOL    HW116649   3.728   0.512   4.643  0.8495  1.4007  0.8325
 1671SOL    HW216650   3.726   0.441   4.516 -1.0725  0.7244  0.0750
 1672SOL     OW16651   0.829   2.173   5.275 -0.2817  0.1362 -0.0273
 1672SOL    HW116652   0.832   2.131   5.189 -1.4139  1.5736 -0.7798
 1672SOL    HW216653   0.748   2.127   5.297 -1.1196  0.9370 -1.4130
 1673SOL     OW16654   4.005   0.846   9.025 -0.8175  0.4022 -0.5353
 1673SOL    HW116655   4.100   0.857   9.019 -0.8326  0.1172 -1.2418
 1673SOL    HW216656   3.985   0.791   8.949  0.0225  0.9525 -1.1567
 1674SOL     OW16657   4.682   4.353   7.199 -0.7066  0.0184  0.3973
 1674SOL    HW116658   4.612   4.413   7.176 -0.8376 -0.2426  0.1221
 1674SOL    HW216659   4.680   4.295   7.124 -1.0939 -1.2033  1.3509
 1675SOL     OW16660   3.215   3.999   5.184  0.1555 -0.1668  0.2145
 1675SOL    HW116661   3.257   4.085   5.182  0.0872 -0.1211  0.9614
 1675SOL    HW216662   3.292   3.945   5.166 -0.9589 -2.0965  1.2848
 1676SOL     OW16663   2.765   2.384   4.541  0.7165 -0.2947 -0.5743
 1676SOL    HW116664   2.679   2.344   4.523  0.9581 -0.4553 -1.3766
 1676SOL    HW216665   2.757   2.430   4.625  1.3293  0.1939 -0.7843
 1677SOL     OW16666   1.501   2.034   4.261  0.1108 -0.4492  0.0167
 1677SOL    HW116667   1.414   2.027   4.300  0.0310 -0.1073 -0.0988
 1677SOL    HW216668   1.485   1.968   4.194  2.2262 -0.1407 -0.7945
 1678SOL     OW16669   2.852   0.728   8.878  0.5536  0.2778 -0.0795
 1678SOL    HW116670   2.892   0.645   8.903 -0.7448  0.2956  1.9815
 1678SOL    HW216671   2.778   0.696   8.827 -1.9411  1.0487  3.0459
 1679SOL     OW16672   3.703   0.230   2.131  0.1878 -0.2265  0.5200
 1679SOL    HW116673   3.713   0.323   2.148 -0.0898 -0.0356 -0.3344
 1679SOL    HW216674   3.670   0.188   2.210  0.7239 -0.9045  0.3848
 1680SOL     OW16675   2.432   1.079   8.568 -0.0206  0.8504 -0.4043
 1680SOL    HW116676   2.463   1.159   8.525 -1.8270  1.2784 -0.8991
 1680SOL    HW216677   2.467   1.016   8.505  0.3534  1.2323 -0.5832
 1681SOL     OW16678   0.994   2.212   2.364  0.3054 -0.3992 -0.0457
 1681SOL    HW116679   1.080   2.191   2.329  0.6391  1.1077 -0.1272
 1681SOL    HW216680   0.947   2.156   2.302 -0.7867  1.3523 -0.7992
 1682SOL     OW16681   0.026   2.123   5.149 -0.0236  0.4405 -0.4679
 1682SOL    HW116682   4.686   2.074   5.186  0.6694  0.6096  1.0979
 1682SOL    HW216683   4.728   2.213   5.136  0.6017  0.3651 -2.5676
 1683SOL     OW16684   0.276   2.675   5.602 -0.4042 -0.1053 -0.0411
 1683SOL    HW116685   0.186   2.699   5.580 -1.6585 -2.3786  2.6355
 1683SOL    HW216686   0.273   2.703   5.694 -1.1328 -1.8962  0.4867
 1684SOL     OW16687   1.562   0.726   1.432 -0.6049 -0.2706  0.0019
 1684SOL    HW116688   1.629   0.664   1.462  1.3750  2.2511  0.8148
 1684SOL    HW216689   1.621   0.780   1.379  0.9923 -1.6753  0.3365
 1685SOL     OW16690   0.972   3.869   9.027 -0.1217 -0.1987 -0.5672
 1685SOL    HW116691   1.062   3.897   9.013  0.0378 -0.6275 -0.3810
 1685SOL    HW216692   0.946   3.855   8.935 -1.1242 -1.9204 -0.0213
 1686SOL     OW16693   1.321   2.906  12.732 -0.3809 -0.0674 -0.1612
 1686SOL    HW116694   1.312   2.942  12.644 -0.9515 -0.6057 -0.3246
 1686SOL    HW216695   1.286   2.817  12.726  0.3394 -0.4616  1.5946
 1687SOL     OW16696   4.205   3.626   5.238  0.4923 -0.1140  0.4236
 1687SOL    HW116697   4.193   3.689   5.167  0.1662 -0.7378 -0.0735
 1687SOL    HW216698   4.200   3.678   5.319  1.1479  1.0328 -0.2723
 1688SOL     OW16699   2.015   0.656   1.805  0.6445  0.0554 -0.2641
 1688SOL    HW116700   2.070   0.726   1.769 -0.2226  0.4501 -0.8305
 1688SOL    HW216701   2.016   0.604   1.725  0.4280 -1.8124  0.9573
 1689SOL     OW16702   0.613   2.592   1.471 -0.3269 -0.0035  0.5471
 1689SOL    HW116703   0.566   2.634   1.543 -0.5908  1.4934 -0.5003
 1689SOL    HW216704   0.702   2.626   1.484  0.3810 -1.4738 -0.4908
 1690SOL     OW16705   1.442   3.559   6.517 -0.0464  0.0344 -0.1507
 1690SOL    HW116706   1.519   3.520   6.560  0.5070  0.5571 -0.6700
 1690SOL    HW216707   1.473   3.622   6.452  0.5756 -0.8734 -0.7302
 1691SOL     OW16708   0.369   3.134  14.481 -0.3784  0.4832  0.0456
 1691SOL    HW116709   0.381   3.145  14.575  0.6932  0.2861 -0.0655
 1691SOL    HW216710   0.379   3.225  14.453 -1.6179  0.4391 -0.5441
 1692SOL     OW16711   2.008   2.673   5.601  0.2175  0.4838  0.0519
 1692SOL    HW116712   1.954   2.614   5.655  1.4561 -1.6749 -1.0663
 1692SOL    HW216713   1.955   2.717   5.536 -0.7009 -1.5134 -0.5314
 1693SOL     OW16714   1.708   2.658   4.554  0.0488 -0.5232  0.3561
 1693SOL    HW116715   1.653   2.736   4.553 -0.0954 -0.6355 -0.2534
 1693SOL    HW216716   1.795   2.693   4.572  0.2162 -0.5125 -0.4565
 1694SOL     OW16717   2.983   3.546  10.714 -0.0781  0.5701 -0.0821
 1694SOL    HW116718   3.077   3.559  10.731 -0.0737 -1.2607  1.3084
 1694SOL    HW216719   2.948   3.577  10.798  1.1171  0.0352  0.6174
 1695SOL     OW16720   0.143   0.326   7.805 -0.0027  0.2346 -0.3459
 1695SOL    HW116721   0.129   0.324   7.899  0.0884 -2.4370 -0.3861
 1695SOL    HW216722   0.114   0.238   7.783 -0.7082  0.5036 -0.4830
 1696SOL     OW16723   3.191   1.971   8.453  0.0773  0.1526 -0.2299
 1696SOL    HW116724   3.106   2.012   8.445 -0.1757 -0.6138 -1.4078
 1696SOL    HW216725   3.187   1.934   8.541 -0.2668 -0.6230 -0.5677
 1697SOL     OW16726   1.502   1.139   3.334 -0.5702  0.0699 -0.2586
 1697SOL    HW116727   1.432   1.196   3.367  0.5118  0.7072  0.9595
 1697SOL    HW216728   1.459   1.067   3.288 -0.8302  1.4976 -2.2695
 1698SOL     OW16729   0.573   3.955   6.604 -0.2554  0.2716 -0.6979
 1698SOL    HW116730   0.499   3.903   6.636  0.6468 -1.2859 -1.1280
 1698SOL    HW216731   0.614   3.974   6.689 -1.7816  1.4841 -0.2417
 1699SOL     OW16732   4.509   1.752   4.145 -0.3171  0.3559  0.2529
 1699SOL    HW116733   4.543   1.736   4.233 -2.0078 -0.9470  0.6854
 1699SOL    HW216734   4.536   1.671   4.101  1.5764  1.0332  0.1617
 1700SOL     OW16735   1.922   1.854   5.377 -0.1938  0.3502  0.3529
 1700SOL    HW116736   1.950   1.782   5.321  1.9241  1.3873  0.0380
 1700SOL    HW216737   1.828   1.857   5.365 -0.1872  2.3113  0.7350
 1701SOL     OW16738   3.597   0.335  16.097  0.7866  0.1048 -0.0358
 1701SOL    HW116739   3.667   0.291  16.146  1.7138  1.7522  0.0895
 1701SOL    HW216740   3.596   0.293  16.011 -3.6770 -1.7142  0.9050
 1702SOL     OW16741   1.009   0.835   3.635  0.4640 -0.3429  0.1840
 1702SOL    HW116742   0.959   0.753   3.628  1.0047 -0.7588  1.2375
 1702SOL    HW216743   0.974   0.875   3.714  1.8746 -0.1313  0.6930
 1703SOL     OW16744   2.462   2.355   5.350 -0.0298  0.0547  0.3880
 1703SOL    HW116745   2.534   2.293   5.343 -0.0242  0.0377  0.5938
 1703SOL    HW216746   2.386   2.309   5.387  1.2195 -0.4572  2.3363
 1704SOL     OW16747   4.632   1.301  14.636 -0.5183  0.0352  0.7051
 1704SOL    HW116748   4.693   1.373  14.621  1.0124 -1.9324 -2.6472
 1704SOL    HW216749   4.695   1.235  14.664 -0.8286 -0.4339  0.2984
 1705SOL     OW16750   1.060   4.189   3.694  0.2301 -0.0405  0.0437
 1705SOL    HW116751   1.095   4.221   3.611  0.5897 -0.1854  0.1395
 1705SOL    HW216752   1.097   4.101   3.690 -3.1062 -1.5635  1.9971
 1706SOL     OW16753   1.673   3.799   8.163 -1.1089 -0.6561  0.0813
 1706SOL    HW116754   1.657   3.866   8.229  0.6158  0.5734 -0.7495
 1706SOL    HW216755   1.659   3.858   8.089  1.1538 -0.6713 -0.3672
 1707SOL     OW16756   2.985   0.021   6.202  0.2639 -0.0950 -0.2224
 1707SOL    HW116757   3.015   0.021   6.112  0.7465  0.2700 -0.0664
 1707SOL    HW216758   2.891   0.006   6.193 -0.3593  2.4197  1.8186
 1708SOL     OW16759   2.794   1.095   5.990  0.4618  0.5828  0.0541
 1708SOL    HW116760   2.710   1.104   5.945  1.6314  0.9670 -2.0403
 1708SOL    HW216761   2.846   1.167   5.954  1.2862 -0.0106  0.0539
 1709SOL     OW16762   0.992   2.811   8.278  0.3530  0.5770 -0.6250
 1709SOL    HW116763   1.045   2.890   8.288 -0.0483  0.4664  2.1593
 1709SOL    HW216764   1.036   2.760   8.346  2.3510 -0.7929 -2.9056
 1710SOL     OW16765   4.362   3.630  10.769  0.0299  0.7418  0.2493
 1710SOL    HW116766   4.428   3.567  10.798 -0.1990  0.1688 -0.4625
 1710SOL    HW216767   4.382   3.641  10.676  1.6514  1.1050  0.6394
 1711SOL     OW16768   0.201   4.364   4.763 -0.4404  0.9367  0.5136
 1711SOL    HW116769   0.139   4.290   4.765  0.1975  0.3216 -1.4514
 1711SOL    HW216770   0.267   4.314   4.714 -0.5395  0.2548  1.0725
 1712SOL     OW16771   1.706   0.072   0.536  0.2205 -0.9996 -0.5224
 1712SOL    HW116772   1.694   0.021   0.455 -1.2162 -1.3689 -0.0641
 1712SOL    HW216773   1.787   0.035   0.572  1.0916  1.0318 -0.3527
 1713SOL     OW16774   1.546   2.485   2.762  0.5734  0.5330  0.0113
 1713SOL    HW116775   1.568   2.464   2.853  0.5192  0.6336  0.0485
 1713SOL    HW216776   1.547   2.399   2.722  0.3061  0.2624  0.5811
 1714SOL     OW16777   4.533   3.858  16.221 -0.4280  0.0454 -0.2151
 1714SOL    HW116778   4.580   3.936  16.192 -0.7647  0.4331  0.2858
 1714SOL    HW216779   4.607   3.810  16.258 -1.0993 -2.0365 -1.5757
 1715SOL     OW16780   2.517   2.897   7.279 -0.5617  0.1287 -0.4420
 1715SOL    HW116781   2.563   2.814   7.295  2.9516  2.2537  0.3245
 1715SOL    HW216782   2.577   2.969   7.297 -1.2203  0.5088  0.2383
 1716SOL     OW16783   4.516   0.852  10.605 -0.0448 -0.0535 -0.6214
 1716SOL    HW116784   4.547   0.927  10.555 -0.1997  0.0961 -0.4942
 1716SOL    HW216785   4.425   0.851  10.576 -0.0130 -0.7774 -0.6906
 1717SOL     OW16786   2.280   2.851   5.063 -0.2921 -0.4235 -0.5729
 1717SOL    HW116787   2.348   2.803   5.016 -0.2012  0.1001 -0.9762
 1717SOL    HW216788   2.310   2.942   5.056 -0.4964 -0.1554  2.1487
 1718SOL     OW16789   1.545   2.188   9.846 -0.0804 -0.0680 -0.3286
 1718SOL    HW116790   1.451   2.183   9.862  0.3028  0.1894  1.8891
 1718SOL    HW216791   1.573   2.246   9.917  0.0417 -2.0438  1.2103
 1719SOL     OW16792   3.780   0.869  14.587  0.1724  0.0373 -0.2771
 1719SOL    HW116793   3.854   0.813  14.611 -0.7188 -0.8361  0.4861
 1719SOL    HW216794   3.822   0.928  14.525  1.0994  1.3836  1.6355
 1720SOL     OW16795   1.590   0.315   6.084  0.0557 -0.1881 -0.4328
 1720SOL    HW116796   1.543   0.398   6.084 -2.2821 -1.5162  2.3941
 1720SOL    HW216797   1.605   0.315   6.178  0.2717  0.6721 -0.4702
 1721SOL     OW16798   4.262   4.411  14.150  0.5350  0.3774 -0.3302
 1721SOL    HW116799   4.341   4.465  14.149  1.0966 -0.4288  1.3412
 1721SOL    HW216800   4.221   4.449  14.072 -3.6086 -2.0448  0.6913
 1722SOL     OW16801   1.498   3.952   2.139 -0.6703  0.4633 -0.9289
 1722SOL    HW116802   1.567   3.951   2.073  0.2195  1.1647 -0.0258
 1722SOL    HW216803   1.530   4.021   2.198 -0.3340 -0.5722  0.1061
 1723SOL     OW16804   2.986   1.343   4.491  0.5071  0.1782 -0.4128
 1723SOL    HW116805   3.079   1.338   4.516  0.1189 -0.1247  0.9531
 1723SOL    HW216806   2.946   1.269   4.535  0.5058 -1.2213 -2.7296
 1724SOL     OW16807   1.474   2.734  10.358  0.2659  0.2944  0.1146
 1724SOL    HW116808   1.503   2.798  10.422 -0.6692  0.1203  0.7229
 1724SOL    HW216809   1.380   2.751  10.363  0.0383 -1.1076  0.5806
 1725SOL     OW16810   3.651   0.649   8.513 -0.2487  0.6478  0.2858
 1725SOL    HW116811   3.569   0.631   8.560  0.4781  0.3488  1.4399
 1725SOL    HW216812   3.656   0.744   8.524 -0.4846  0.7577 -0.5464
 1726SOL     OW16813   1.395   4.085   0.175  0.0722 -0.0771 -0.4174
 1726SOL    HW116814   1.350   4.123   0.100 -1.3253 -0.3375  0.2827
 1726SOL    HW216815   1.412   4.170   0.215 -0.3754 -0.3120  0.2626
 1727SOL     OW16816   3.008   4.281   1.836 -0.7764 -0.5126  0.0396
 1727SOL    HW116817   2.953   4.325   1.771  1.8755  1.6544 -0.7280
 1727SOL    HW216818   2.971   4.194   1.820 -0.1644 -0.7223 -0.2425
 1728SOL     OW16819   0.150   3.639  16.983 -0.3247  0.0404  0.1909
 1728SOL    HW116820   0.123   3.636  16.891  0.3729  1.2510 -0.0528
 1728SOL    HW216821   0.075   3.589  17.015  0.4094 -0.9095  0.4070
 1729SOL     OW16822   2.693   4.247   3.506 -0.1863  0.2754  0.1110
 1729SOL    HW116823   2.755   4.175   3.506  3.7968  3.6547 -0.0466
 1729SOL    HW216824   2.607   4.209   3.522  0.9757 -1.1244  2.9442
 1730SOL     OW16825   1.337   0.696   5.071  0.2038  0.6545 -0.0643
 1730SOL    HW116826   1.296   0.639   5.006  0.2679 -0.4102  0.8271
 1730SOL    HW216827   1.284   0.775   5.065  0.9992  1.2576  0.7643
 1731SOL     OW16828   1.946   0.438   7.361  0.0418 -0.0200 -0.0605
 1731SOL    HW116829   1.963   0.359   7.309  1.2071  0.1400  0.0761
 1731SOL    HW216830   1.863   0.467   7.323 -0.4066 -0.3985  0.6144
 1732SOL     OW16831   0.561   2.030   9.060 -0.2856  0.1306  0.2765
 1732SOL    HW116832   0.471   2.048   9.033  0.5195  0.1915 -2.3712
 1732SOL    HW216833   0.606   2.080   8.992  1.4319  0.5580  1.7179
 1733SOL     OW16834   0.362   0.813   4.404 -0.1636 -0.4925 -0.0511
 1733SOL    HW116835   0.372   0.740   4.343  0.6038  0.0238 -0.5532
 1733SOL    HW216836   0.345   0.767   4.486  1.0505 -1.2215 -0.2049
 1734SOL     OW16837   4.286   3.367   9.755  0.3330  0.3580  0.1661
 1734SOL    HW116838   4.257   3.340   9.842  0.1377  1.1407  0.3432
 1734SOL    HW216839   4.344   3.294   9.729 -2.5901 -1.4790 -1.1884
 1735SOL     OW16840   1.350   2.966   3.167  0.2220  0.0205  0.1605
 1735SOL    HW116841   1.288   2.928   3.105 -0.3403 -0.5259  1.0557
 1735SOL    HW216842   1.366   2.898   3.232 -0.2997 -0.2952 -0.0461
 1736SOL     OW16843   0.263   2.076   6.436  0.2142  0.6748 -0.0666
 1736SOL    HW116844   0.207   2.133   6.488  1.6309  2.1684 -0.1840
 1736SOL    HW216845   0.206   2.001   6.418 -1.0962  1.5287  0.4990
 1737SOL     OW16846   2.893   2.924   4.227  0.0324 -0.1025 -0.2142
 1737SOL    HW116847   2.883   2.835   4.193  0.1033 -0.7869  1.5536
 1737SOL    HW216848   2.848   2.973   4.159 -1.2890  2.1353  2.3006
 1738SOL     OW16849   2.147   2.846   9.056 -0.2222  0.1741 -0.5967
 1738SOL    HW116850   2.081   2.890   9.003 -0.1206  0.7305 -0.2690
 1738SOL    HW216851   2.223   2.898   9.029 -0.5967  1.8218  1.4962
 1739SOL     OW16852   2.274   1.048   2.956  0.0023  0.4060  0.2365
 1739SOL    HW116853   2.298   1.077   2.868 -1.7912  1.2419  0.0326
 1739SOL    HW216854   2.210   1.114   2.981 -1.2725  0.1402 -2.4130
 1740SOL     OW16855   2.461   0.126   5.054 -1.1281 -0.6221  0.5945
 1740SOL    HW116856   2.485   0.218   5.064  3.0276 -1.5448 -0.7943
 1740SOL    HW216857   2.532   0.081   5.100 -0.8362 -1.2072 -0.4242
 1741SOL     OW16858   1.413   0.492   2.147  0.5308 -0.1985  0.1819
 1741SOL    HW116859   1.371   0.517   2.229  1.6339 -3.5427  1.7616
 1741SOL    HW216860   1.335   0.484   2.092  1.4846 -1.0947 -1.0562
 1742SOL     OW16861   3.563   0.132   6.333  0.3786 -0.4438 -0.3714
 1742SOL    HW116862   3.643   0.163   6.290  0.9093  0.5155  1.3150
 1742SOL    HW216863   3.557   0.191   6.409  0.2561 -0.0971 -0.6500
 1743SOL     OW16864   1.252   0.009   5.554 -0.1425 -0.7183  0.2330
 1743SOL    HW116865   1.250   0.093   5.509 -1.1107 -1.9051 -1.9436
 1743SOL    HW216866   1.265   4.689   5.476 -1.1384 -1.0551  0.2935
 1744SOL     OW16867   4.104   4.596  13.990 -0.5684  0.2102  0.1258
 1744SOL    HW116868   4.068   4.553  13.912  0.3715 -0.1036 -0.1374
 1744SOL    HW216869   4.162   4.661  13.951  0.0253 -0.5010 -0.1763
 1745SOL     OW16870   1.956   1.635   1.199  0.2305  0.0881 -0.5644
 1745SOL    HW116871   1.941   1.558   1.145 -0.6564 -0.4192  0.4076
 1745SOL    HW216872   1.996   1.695   1.136  0.8895  1.1839  0.8733
 1746SOL     OW16873   0.260   2.862   6.140  0.4157 -0.0611 -0.4277
 1746SOL    HW116874   0.277   2.956   6.145 -1.7887  0.3893 -1.4188
 1746SOL    HW216875   0.184   2.870   6.082 -0.5037  0.4329  0.8477
 1747SOL     OW16876   4.328   0.447  17.062  0.3895 -0.1864  0.0154
 1747SOL    HW116877   4.404   0.438  17.120 -1.0660 -1.8324  1.6415
 1747SOL    HW216878   4.263   0.383  17.089  1.5735 -0.0598  3.2375
 1748SOL     OW16879   3.516   2.766  12.542  0.0404 -0.0320 -0.4747
 1748SOL    HW116880   3.535   2.683  12.497  0.2316  0.8059 -1.9393
 1748SOL    HW216881   3.594   2.820  12.530  1.4407 -2.4942 -2.4180
 1749SOL     OW16882   0.864   4.322  11.093  0.6280 -0.2295  0.3448
 1749SOL    HW116883   0.816   4.360  11.020  1.3675  0.0110 -0.0203
 1749SOL    HW216884   0.809   4.254  11.130 -0.7813  2.6175  3.4686
 1750SOL     OW16885   0.431   2.203  12.343 -0.0071  0.2422  0.4050
 1750SOL    HW116886   0.397   2.293  12.348  1.4146  0.7701  0.7221
 1750SOL    HW216887   0.365   2.161  12.289  2.0174 -1.7668 -0.5071
 1751SOL     OW16888   4.478   0.389   5.930  0.4240  0.1875 -0.1299
 1751SOL    HW116889   4.433   0.397   5.846 -0.8218  0.9683  0.6014
 1751SOL    HW216890   4.489   0.482   5.950  2.5713  0.0564 -0.7656
 1752SOL     OW16891   3.109   3.128  14.156  0.3868 -0.0459  0.0402
 1752SOL    HW116892   3.122   3.221  14.137 -2.1182 -0.4557 -3.6024
 1752SOL    HW216893   3.016   3.116  14.138 -0.0050  2.8244  0.0822
 1753SOL     OW16894   1.960   2.426   8.071  0.1238  0.5306 -0.2145
 1753SOL    HW116895   1.917   2.439   7.986  0.6554 -1.2097 -0.7348
 1753SOL    HW216896   1.914   2.353   8.111  0.8041  1.6186  2.5484
 1754SOL     OW16897   3.422   1.347   4.275 -0.5009 -0.6564  0.1739
 1754SOL    HW116898   3.345   1.374   4.226 -1.6773 -2.3461  1.1104
 1754SOL    HW216899   3.418   1.406   4.350  0.7951  0.4853 -0.6485
 1755SOL     OW16900   3.196   3.281  15.416 -0.3735 -0.2934  0.0541
 1755SOL    HW116901   3.250   3.278  15.495 -0.1275  3.1171  0.0133
 1755SOL    HW216902   3.224   3.200  15.373 -0.1397 -0.0995 -0.1542
 1756SOL     OW16903   4.202   2.007   3.387 -0.0888 -0.0400 -0.8255
 1756SOL    HW116904   4.133   2.066   3.358 -1.1011 -0.7607  0.1195
 1756SOL    HW216905   4.281   2.059   3.375 -0.4669  0.4757 -1.0520
 1757SOL     OW16906   4.034   1.156  16.348  0.2996 -0.3116 -0.1065
 1757SOL    HW116907   3.941   1.134  16.341  0.0628  0.5618  0.3348
 1757SOL    HW216908   4.043   1.241  16.305 -1.5655 -0.6604 -1.1505
 1758SOL     OW16909   2.680   1.338  15.901  0.0349 -0.3401  0.5455
 1758SOL    HW116910   2.650   1.312  15.988 -0.3088 -1.2005  0.1756
 1758SOL    HW216911   2.639   1.270  15.847  1.6016 -0.4295 -0.5578
 1759SOL     OW16912   3.863   1.683   4.373 -0.4513  0.2736  0.1593
 1759SOL    HW116913   3.871   1.711   4.282  0.2093 -2.5493 -0.6485
 1759SOL    HW216914   3.798   1.741   4.413 -1.6701 -1.2327  0.3427
 1760SOL     OW16915   4.387   3.913   5.619  0.1980 -0.3785 -0.1732
 1760SOL    HW116916   4.466   3.935   5.570 -0.1400 -0.4053 -0.7233
 1760SOL    HW216917   4.351   4.001   5.625 -0.3659 -0.8889  4.0003
 1761SOL     OW16918   4.520   1.660  11.315 -0.2102  0.1281 -0.2169
 1761SOL    HW116919   4.445   1.712  11.285  1.6211  2.0326 -1.5076
 1761SOL    HW216920   4.506   1.576  11.273 -1.8970 -0.7427  2.0303
 1762SOL     OW16921   4.387   2.834   6.977 -0.1695  0.0434  0.0819
 1762SOL    HW116922   4.355   2.787   7.053  1.0451  0.4496  0.8515
 1762SOL    HW216923   4.474   2.861   7.006 -0.1214  1.0852 -0.9934
 1763SOL     OW16924   4.285   2.063   4.533  0.5584 -0.0773 -0.1911
 1763SOL    HW116925   4.258   1.980   4.493 -0.3019  0.4226 -0.6458
 1763SOL    HW216926   4.242   2.129   4.479 -0.2049 -0.0486  0.4511
 1764SOL     OW16927   4.399   3.709  17.693 -0.1468 -0.0853  0.0706
 1764SOL    HW116928   4.343   3.708   0.036 -0.1290  0.4852  0.0886
 1764SOL    HW216929   4.451   3.788  17.697  0.9624 -0.9839  3.2517
 1765SOL     OW16930   1.020   0.302   1.598  0.0138 -0.0398 -0.1945
 1765SOL    HW116931   1.095   0.305   1.539 -0.2285 -0.9609 -0.5529
 1765SOL    HW216932   0.954   0.260   1.543  1.0420 -0.0287 -1.4473
 1766SOL     OW16933   1.827   0.745   7.223  0.6215 -0.3399  0.3560
 1766SOL    HW116934   1.829   0.763   7.129  1.6826 -0.0764  0.4374
 1766SOL    HW216935   1.750   0.688   7.223  0.2576  0.1414 -0.1354
 1767SOL     OW16936   2.791   3.267   0.016 -0.0305 -0.3262 -0.0353
 1767SOL    HW116937   2.839   3.329   0.071  1.4890 -0.8399 -0.7774
 1767SOL    HW216938   2.775   3.195   0.076 -1.0610  0.0354  0.1342
 1768SOL     OW16939   2.580   4.462   1.567  0.3002  0.1645  0.3887
 1768SOL    HW116940   2.615   4.532   1.513 -0.0891  0.7495  0.8827
 1768SOL    HW216941   2.544   4.398   1.506 -3.1001  1.6358  0.8475
 1769SOL     OW16942   1.176   2.021  14.028 -0.2838  0.1977 -0.1372
 1769SOL    HW116943   1.121   1.948  14.001  1.2294 -0.4498 -1.4523
 1769SOL    HW216944   1.109   2.088  14.041 -0.2229 -0.2633  2.3814
 1770SOL     OW16945   2.295   4.215   2.288 -0.5098  0.2182  1.0540
 1770SOL    HW116946   2.389   4.198   2.296 -0.6545 -0.7721  0.5398
 1770SOL    HW216947   2.291   4.309   2.271 -0.0364 -0.1200 -0.8708
 1771SOL     OW16948   4.364   3.533  17.493 -0.0601  0.0518 -0.0333
 1771SOL    HW116949   4.384   3.588  17.568  2.0521  0.2738 -0.7664
 1771SOL    HW216950   4.373   3.445  17.530  2.0390  0.3178  0.1004
 1772SOL     OW16951   4.204   4.691  16.382  0.0567 -0.7798  0.3040
 1772SOL    HW116952   4.116   4.698  16.345 -0.5322 -1.4180  1.6022
 1772SOL    HW216953   4.188   4.606  16.422  0.3163 -0.4682  1.0575
 1773SOL     OW16954   3.341   4.205   9.103  0.5159  0.1050  0.6899
 1773SOL    HW116955   3.436   4.217   9.103  0.4191  0.9037 -0.8036
 1773SOL    HW216956   3.315   4.242   9.018 -2.4249 -1.1783  1.0310
 1774SOL     OW16957   1.315   4.274   5.255  0.4550  0.2494 -0.1622
 1774SOL    HW116958   1.323   4.242   5.165 -0.0005 -0.4074  0.0321
 1774SOL    HW216959   1.247   4.339   5.242  0.3217 -0.5836 -3.6646
 1775SOL     OW16960   1.615   2.872   4.828 -0.8368  0.3733 -0.1075
 1775SOL    HW116961   1.683   2.812   4.796 -0.6594  0.4745  0.0763
 1775SOL    HW216962   1.665   2.952   4.846 -1.4394  0.3129  1.7460
 1776SOL     OW16963   2.550   2.140  17.093 -0.5280 -0.6043  0.4488
 1776SOL    HW116964   2.487   2.132  17.022  1.5016  1.9552 -1.7065
 1776SOL    HW216965   2.503   2.144  17.176  0.8468  1.8717  1.1163
 1777SOL     OW16966   4.133   1.011   3.213  0.3845 -0.0515 -0.0907
 1777SOL    HW116967   4.041   1.032   3.225  0.6547 -0.9008  3.4694
 1777SOL    HW216968   4.163   1.001   3.304  1.4997 -1.6252 -0.6487
 1778SOL     OW16969   4.332   0.318   4.063 -0.1142  0.4464 -0.0649
 1778SOL    HW116970   4.295   0.296   4.149 -0.8391 -0.7334 -0.6742
 1778SOL    HW216971   4.394   0.386   4.088  0.9338  0.3371 -2.3757
 1779SOL     OW16972   3.482   3.640   5.719  0.4865  0.6795 -1.3199
 1779SOL    HW116973   3.462   3.730   5.745  0.0516  0.5136 -1.0770
 1779SOL    HW216974   3.489   3.597   5.804  2.0356  0.3275 -1.6257
 1780SOL     OW16975   0.477   1.946   7.997  0.7217  0.1489 -0.2902
 1780SOL    HW116976   0.505   1.988   7.916 -0.0224 -1.5554 -1.4098
 1780SOL    HW216977   0.502   2.017   8.056  2.1649 -0.4451 -0.1926
 1781SOL     OW16978   0.451   0.448   8.414  0.0982 -0.0466  0.1633
 1781SOL    HW116979   0.442   0.505   8.338  3.9689 -2.1909 -1.8885
 1781SOL    HW216980   0.479   0.503   8.488  0.4382  2.0117 -1.5037
 1782SOL     OW16981   4.697   3.437   7.032  0.2999  0.3810  0.2248
 1782SOL    HW116982   4.612   3.421   6.992  1.4908 -0.6784 -1.8421
 1782SOL    HW216983   4.695   3.396   7.119  0.1217  1.6381  0.8197
 1783SOL     OW16984   1.206   1.911   4.150  0.2007  0.1364  0.1390
 1783SOL    HW116985   1.264   1.930   4.076  0.8747 -2.8407 -0.0722
 1783SOL    HW216986   1.236   1.828   4.186 -0.0183  1.4226  3.3324
 1784SOL     OW16987   2.021   4.270  12.417 -0.0158  0.3386 -0.4610
 1784SOL    HW116988   1.927   4.262  12.429 -0.1422  2.8099  0.1990
 1784SOL    HW216989   2.040   4.318  12.498  0.3922  0.5841 -0.7023
 1785SOL     OW16990   3.443   1.629   6.989 -0.5041 -0.6373 -0.1495
 1785SOL    HW116991   3.463   1.611   7.080  1.2105 -0.7362 -0.5462
 1785SOL    HW216992   3.431   1.538   6.963  0.8639 -0.8433 -0.0639
 1786SOL     OW16993   4.130   0.237   5.302 -0.1809 -0.0336 -0.5461
 1786SOL    HW116994   4.171   0.232   5.215  1.3144 -2.0062  0.2586
 1786SOL    HW216995   4.038   0.244   5.275  0.2287 -1.2082 -2.3239
 1787SOL     OW16996   2.735   4.541  17.508  0.0589  0.8051 -0.6512
 1787SOL    HW116997   2.792   4.466  17.494  0.3322  1.0702 -0.9700
 1787SOL    HW216998   2.780   4.612  17.463 -0.6755  0.6534 -1.6354
 1788SOL     OW16999   2.173   4.259  13.316 -0.0899 -0.0111 -0.2902
 1788SOL    HW117000   2.094   4.206  13.304 -0.3820  0.5402 -0.8520
 1788SOL    HW217001   2.231   4.187  13.338 -3.5687 -2.5289  0.6293
 1789SOL     OW17002   3.865   0.415   1.133 -0.4720 -0.6882  0.1840
 1789SOL    HW117003   3.786   0.403   1.080  0.5184  0.2465 -1.4994
 1789SOL    HW217004   3.876   0.321   1.146 -0.1895 -0.9348 -1.8698
 1790SOL     OW17005   0.863   0.624   7.485  0.3389  0.2527 -0.3164
 1790SOL    HW117006   0.830   0.534   7.495  0.3963  0.6992  3.6114
 1790SOL    HW217007   0.872   0.641   7.391  0.6862 -0.2939 -0.3822
 1791SOL     OW17008   0.572   2.188  17.159 -0.8069  0.0958  0.1356
 1791SOL    HW117009   0.548   2.251  17.091 -1.6020  1.0878  1.3329
 1791SOL    HW217010   0.538   2.109  17.118  0.8936 -0.7441  0.3410
 1792SOL     OW17011   3.030   3.956  13.502 -0.1210 -0.0525  0.6077
 1792SOL    HW117012   2.957   3.958  13.563 -0.5154 -2.3568  0.1875
 1792SOL    HW217013   3.090   3.891  13.537  1.4193 -0.4297 -2.6944
 1793SOL     OW17014   1.295   1.079   8.347 -0.3438 -0.1058  0.6616
 1793SOL    HW117015   1.329   0.999   8.386  1.2844  0.1506 -0.2397
 1793SOL    HW217016   1.241   1.051   8.273  0.1115 -2.3758  1.2053
 1794SOL     OW17017   4.235   4.195  17.603 -0.1302 -0.6535  0.3419
 1794SOL    HW117018   4.296   4.220  17.533  0.5652  2.2399  1.9840
 1794SOL    HW217019   4.299   4.150  17.657 -0.0783 -1.7175 -0.6003
 1795SOL     OW17020   3.207   1.059   5.926 -0.0534  0.3345 -0.1745
 1795SOL    HW117021   3.251   1.134   5.967  1.6650 -1.8869  2.0595
 1795SOL    HW217022   3.120   1.066   5.966  0.2582  0.6654  0.4473
 1796SOL     OW17023   2.314   0.976   3.775  0.8082  0.8333 -0.3081
 1796SOL    HW117024   2.394   0.932   3.804 -1.1310 -1.6899  1.2051
 1796SOL    HW217025   2.299   1.037   3.847  0.4320 -0.0991  0.4147
 1797SOL     OW17026   0.613   0.746  17.451 -0.3112  0.0848 -0.6417
 1797SOL    HW117027   0.674   0.707  17.389  1.0933 -1.4739  1.7102
 1797SOL    HW217028   0.582   0.669  17.499 -0.7153  1.1961  0.8693
 1798SOL     OW17029   0.606   3.010   9.512  0.1334 -0.0207  0.3724
 1798SOL    HW117030   0.571   2.956   9.583 -0.1823  0.4268  0.5572
 1798SOL    HW217031   0.552   3.089   9.522  1.5648  1.1087 -0.6805
 1799SOL     OW17032   2.039   2.574  10.752  0.0409  0.2767  0.1647
 1799SOL    HW117033   1.982   2.604  10.823  0.9646 -1.4926  1.6518
 1799SOL    HW217034   2.039   2.478  10.750 -0.9365  0.2849 -0.4778
 1800SOL     OW17035   0.345   0.232   9.194 -0.3670  0.2428 -0.3654
 1800SOL    HW117036   0.431   0.195   9.215 -0.3442 -0.1155 -1.0945
 1800SOL    HW217037   0.293   0.206   9.270 -0.8548 -2.9629 -1.8122
 1801SOL     OW17038   1.086   0.967   4.368  0.2622 -0.6558  0.2889
 1801SOL    HW117039   1.168   0.992   4.411 -0.1618  2.0545 -0.4902
 1801SOL    HW217040   1.088   1.019   4.288  0.3352  0.7110  1.1601
 1802SOL     OW17041   0.924   0.056   2.496 -0.6190 -0.6474  0.8945
 1802SOL    HW117042   0.988   0.060   2.424 -0.3938 -0.6366  1.0956
 1802SOL    HW217043   0.981   0.027   2.567  0.4284 -0.4384  0.1427
 1803SOL     OW17044   2.734   1.084  11.605  0.6990 -0.2947  0.0626
 1803SOL    HW117045   2.770   1.073  11.517  1.5765 -0.9005  0.4956
 1803SOL    HW217046   2.668   1.151  11.588  1.1408 -0.2259 -1.3866
 1804SOL     OW17047   3.641   4.406  11.158  0.0749 -0.1321 -0.2868
 1804SOL    HW117048   3.632   4.469  11.086 -1.7789  1.5816  1.4482
 1804SOL    HW217049   3.579   4.439  11.223 -1.3960 -1.7701 -0.8558
 1805SOL     OW17050   0.004   2.949   2.664  0.3302 -0.2201  0.1256
 1805SOL    HW117051   4.679   2.972   2.592 -1.1600  0.1483  1.4631
 1805SOL    HW217052   0.008   2.854   2.661  0.3790 -0.2105 -0.0785
 1806SOL     OW17053   0.844   1.865   5.737  0.7861 -0.3625  0.3519
 1806SOL    HW117054   0.878   1.818   5.662  0.6565  0.2349 -0.0814
 1806SOL    HW217055   0.754   1.886   5.713  1.0242  1.5261  1.0774
 1807SOL     OW17056   4.445   2.352   2.442  0.1839  0.9120  0.1166
 1807SOL    HW117057   4.374   2.403   2.480  0.1414 -1.6750  3.5258
 1807SOL    HW217058   4.459   2.409   2.367  0.5257  1.7714  0.8379
 1808SOL     OW17059   3.273   0.662   3.007  0.2900  0.0254  0.5105
 1808SOL    HW117060   3.243   0.571   3.005 -0.3513  0.3352 -3.3134
 1808SOL    HW217061   3.184   0.695   2.993  0.2238  0.1267  1.1612
 1809SOL     OW17062   1.459   0.846   0.061 -0.2597  0.1339  0.0814
 1809SOL    HW117063   1.369   0.821   0.083 -0.8160  1.1738 -0.9944
 1809SOL    HW217064   1.451   0.824  17.703 -1.1256  1.0609 -0.0621
 1810SOL     OW17065   2.899   4.713   2.214 -0.5873 -0.3444  0.4362
 1810SOL    HW117066   2.814   4.670   2.221 -1.0634  0.9125  2.4716
 1810SOL    HW217067   2.874   0.069   2.234  1.5330  0.5337 -0.8911
 1811SOL     OW17068   1.893   3.388   2.536 -0.1036 -0.1577 -0.4760
 1811SOL    HW117069   1.801   3.368   2.516 -0.2411  2.4857 -2.3467
 1811SOL    HW217070   1.924   3.364   2.449 -1.5393 -1.6807 -0.5693
 1812SOL     OW17071   2.259   3.933   1.175 -0.8165 -0.8269 -0.2739
 1812SOL    HW117072   2.263   3.842   1.203  2.3671 -0.2569  1.1490
 1812SOL    HW217073   2.313   3.979   1.240  0.8087 -1.3526 -1.2502
 1813SOL     OW17074   0.086   1.444   2.184 -0.1750  0.1204 -0.1317
 1813SOL    HW117075   0.145   1.443   2.260  2.8839 -0.5773 -2.5275
 1813SOL    HW217076   0.030   1.521   2.191  1.0134  0.9960 -0.3197
 1814SOL     OW17077   1.192   3.378  13.596  0.0215 -0.1667 -0.0627
 1814SOL    HW117078   1.277   3.382  13.639 -0.1347 -1.6240  0.3858
 1814SOL    HW217079   1.225   3.431  13.524  0.0035  0.7730  0.6034
 1815SOL     OW17080   4.209   1.413   8.907  0.0890 -0.1803 -0.4855
 1815SOL    HW117081   4.268   1.452   8.972  1.6109 -1.9893 -0.7886
 1815SOL    HW217082   4.275   1.392   8.842 -0.5628  0.6699 -1.4188
 1816SOL     OW17083   1.225   3.055   4.440 -0.2227 -0.3935 -0.1701
 1816SOL    HW117084   1.190   3.001   4.370 -0.5530  1.0009 -1.0728
 1816SOL    HW217085   1.258   2.994   4.506 -0.6782  1.2615  1.5849
 1817SOL     OW17086   1.248   4.315   0.258  0.2373  0.2834  0.6660
 1817SOL    HW117087   1.182   4.249   0.236 -0.6756  1.8962 -1.4835
 1817SOL    HW217088   1.221   4.329   0.348 -1.6133  2.1189 -0.1713
 1818SOL     OW17089   1.953   0.223   3.567  0.1611  0.7408 -0.0240
 1818SOL    HW117090   1.966   0.311   3.531  1.1137  1.4161  1.9998
 1818SOL    HW217091   1.951   0.177   3.483  0.5174  1.0053 -0.1810
 1819SOL     OW17092   0.810   4.428   5.776  0.4518  0.7834  0.1759
 1819SOL    HW117093   0.751   4.475   5.718  0.8981  0.6050 -0.4332
 1819SOL    HW217094   0.738   4.389   5.825  1.5985 -0.9016  0.5342
 1820SOL     OW17095   1.935   1.821  15.982  0.1412  0.0407  0.3090
 1820SOL    HW117096   1.920   1.861  15.897  1.5939 -0.7373 -0.2952
 1820SOL    HW217097   1.850   1.796  16.019 -0.2588  0.7291 -0.1542
 1821SOL     OW17098   3.206   0.804  11.677  0.2137  0.0544  0.3598
 1821SOL    HW117099   3.134   0.850  11.721  1.3082  2.0486  0.0603
 1821SOL    HW217100   3.243   0.759  11.753  1.8875  0.4461 -0.2325
 1822SOL     OW17101   2.992   3.878   7.978  0.2107 -0.2872 -0.7478
 1822SOL    HW117102   3.007   3.923   8.062 -1.1106  2.0183 -1.7602
 1822SOL    HW217103   3.080   3.894   7.943  0.5827  0.6856  0.5956
 1823SOL     OW17104   3.242   4.126   4.825 -0.0154 -0.1778 -0.4149
 1823SOL    HW117105   3.168   4.066   4.823  1.0622 -1.4624 -1.4024
 1823SOL    HW217106   3.306   4.055   4.826 -1.8428 -1.8086 -0.9628
 1824SOL     OW17107   3.656   0.170   4.136 -0.3990 -0.1454 -0.0602
 1824SOL    HW117108   3.730   0.150   4.079 -1.7470 -0.0112 -1.8324
 1824SOL    HW217109   3.626   0.237   4.075  0.1380 -0.4658 -0.6668
 1825SOL     OW17110   2.687   0.664  12.212  0.6013  0.1442  0.1958
 1825SOL    HW117111   2.710   0.749  12.176  0.1683 -0.4823 -1.5320
 1825SOL    HW217112   2.592   0.668  12.202  0.5946 -1.5079 -0.4827
 1826SOL     OW17113   3.214   4.195   7.782  0.1916  0.2629  0.0570
 1826SOL    HW117114   3.291   4.233   7.741  2.1825 -2.2857  1.4041
 1826SOL    HW217115   3.152   4.197   7.709 -1.2517  0.6255  1.2952
 1827SOL     OW17116   0.786   3.574  13.102 -0.3183 -0.0399 -0.2601
 1827SOL    HW117117   0.830   3.565  13.187 -5.2636 -0.5016  2.2068
 1827SOL    HW217118   0.693   3.585  13.119 -0.1867  0.7963 -0.0440
 1828SOL     OW17119   3.696   2.688  17.531  0.3231  0.8206 -0.7183
 1828SOL    HW117120   3.763   2.627  17.561  0.0490 -0.7201 -3.2123
 1828SOL    HW217121   3.638   2.635  17.476 -2.1291  2.4215  0.3348
 1829SOL     OW17122   4.716   2.668   9.738 -0.0079 -0.8303 -0.1082
 1829SOL    HW117123   0.058   2.720   9.715 -0.6390 -0.0960 -0.5216
 1829SOL    HW217124   0.019   2.626   9.816  1.0395 -0.1112 -0.2249
 1830SOL     OW17125   2.495   0.803   6.599  0.0936  0.2982 -0.2251
 1830SOL    HW117126   2.575   0.826   6.646 -0.1377 -1.3389  0.9692
 1830SOL    HW217127   2.430   0.806   6.669  1.4730 -1.1517  1.1190
 1831SOL     OW17128   2.982   3.807  12.287  0.2388 -0.2376  0.2279
 1831SOL    HW117129   2.971   3.902  12.284 -0.6757 -0.2880  1.7011
 1831SOL    HW217130   2.892   3.775  12.284  0.1069  0.0062  1.3743
 1832SOL     OW17131   0.848   1.100   8.224  0.1153  0.3835 -0.5057
 1832SOL    HW117132   0.915   1.164   8.251 -0.8268  1.5248 -0.8653
 1832SOL    HW217133   0.791   1.159   8.175  0.3901 -0.4491 -1.8441
 1833SOL     OW17134   1.062   4.328   4.425 -0.1706  0.8110 -0.1114
 1833SOL    HW117135   1.144   4.378   4.428 -0.4148  1.2460 -0.7267
 1833SOL    HW217136   1.053   4.308   4.518  2.1804  0.9586  0.1613
 1834SOL     OW17137   3.909   4.107  12.064  0.3861  0.3349 -0.0667
 1834SOL    HW117138   3.918   4.153  12.147 -0.2858 -1.1308  0.8278
 1834SOL    HW217139   3.925   4.171  11.995  0.9990 -1.1390 -1.3013
 1835SOL     OW17140   2.406   1.826   7.096 -0.2494  0.4500  0.1767
 1835SOL    HW117141   2.392   1.812   7.002  0.1334  2.0031 -0.1153
 1835SOL    HW217142   2.480   1.886   7.094 -0.1280  0.2824 -0.3168
 1836SOL     OW17143   4.615   0.347  17.003  0.2768 -0.5929  0.2237
 1836SOL    HW117144   4.582   0.417  16.946 -0.9858 -0.8179  0.6599
 1836SOL    HW217145   4.569   0.370  17.084  0.5543 -2.5997  0.9483
 1837SOL     OW17146   4.307   3.847   5.080 -0.0774  0.0822  0.4515
 1837SOL    HW117147   4.379   3.811   5.028 -1.7509  0.6848 -2.3347
 1837SOL    HW217148   4.333   3.921   5.135  0.5496 -0.6677  1.1647
 1838SOL     OW17149   0.403   3.379   5.401  0.0289 -0.1880  0.5537
 1838SOL    HW117150   0.405   3.435   5.323 -0.8710  0.7230  1.1815
 1838SOL    HW217151   0.436   3.302   5.355  0.2459  0.6449 -0.6910
 1839SOL     OW17152   0.576   4.155   7.426  0.3353  0.4705 -0.1597
 1839SOL    HW117153   0.656   4.205   7.409  0.4132 -0.8271 -3.5565
 1839SOL    HW217154   0.544   4.151   7.336  2.9778 -2.3079 -0.9877
 1840SOL     OW17155   0.081   0.320   3.410  0.2060  0.0234 -0.1673
 1840SOL    HW117156   0.067   0.342   3.502  1.3030  1.1182 -0.2619
 1840SOL    HW217157   0.003   0.357   3.371 -0.3308 -1.3678 -0.4312
 1841SOL     OW17158   4.729   3.139   5.640 -0.4728 -0.0650 -0.5868
 1841SOL    HW117159   4.725   3.119   5.547  0.7205  0.6845 -0.7910
 1841SOL    HW217160   0.033   3.056   5.668 -2.3030 -0.6268  0.2305
 1842SOL     OW17161   1.974   3.703   6.275  0.0573 -0.4069  0.1441
 1842SOL    HW117162   1.989   3.792   6.246 -1.2616  0.3576  1.8129
 1842SOL    HW217163   1.992   3.657   6.193 -0.0378 -0.0286 -0.0884
 1843SOL     OW17164   3.195   3.326   9.079  0.4616  0.1434 -0.6742
 1843SOL    HW117165   3.220   3.239   9.112 -0.2027  1.0876  2.2326
 1843SOL    HW217166   3.245   3.390   9.130 -2.6091  0.5465  1.7793
 1844SOL     OW17167   2.798   0.378   9.604 -0.0319 -0.7118  0.0449
 1844SOL    HW117168   2.857   0.400   9.532  0.7543  0.2125  0.9759
 1844SOL    HW217169   2.863   0.334   9.659  1.1421  0.0614 -0.7435
 1845SOL     OW17170   0.846   0.465   2.551  0.0852 -0.3869 -0.0290
 1845SOL    HW117171   0.815   0.556   2.555 -1.3888 -0.8323 -1.6057
 1845SOL    HW217172   0.802   0.423   2.625 -1.0228 -1.2518 -1.1837
 1846SOL     OW17173   1.907   3.126   3.696  0.0413 -0.4810  1.0882
 1846SOL    HW117174   1.966   3.201   3.692 -2.8033  1.7493  1.5243
 1846SOL    HW217175   1.959   3.069   3.639 -2.3582 -0.8422 -0.7125
 1847SOL     OW17176   0.550   1.736   5.745  0.3846 -0.1237 -0.3575
 1847SOL    HW117177   0.503   1.693   5.674  0.2738  2.5902 -1.8976
 1847SOL    HW217178   0.586   1.661   5.793 -1.7321 -0.9045  0.0312
 1848SOL     OW17179   0.592   4.563   5.599  0.1747 -0.5198  0.3346
 1848SOL    HW117180   0.576   4.527   5.512  1.4265 -2.7212  1.0032
 1848SOL    HW217181   0.514   4.614   5.618 -0.7080 -1.1196 -1.6672
 1849SOL     OW17182   4.045   0.998   7.420 -0.2331 -0.0349 -0.4813
 1849SOL    HW117183   4.125   0.960   7.455 -0.7686  0.7192  1.5468
 1849SOL    HW217184   4.061   0.999   7.325  1.5442  0.2505 -0.1871
 1850SOL     OW17185   3.471   3.806   8.604 -0.4125 -0.2475 -0.8324
 1850SOL    HW117186   3.467   3.774   8.514 -0.5654  2.7847 -1.9044
 1850SOL    HW217187   3.520   3.886   8.586  1.8474 -1.4805 -0.1432
 1851SOL     OW17188   1.529   2.296   4.220 -0.0448 -0.0169 -0.0701
 1851SOL    HW117189   1.524   2.203   4.241 -0.1263  0.3933  1.6516
 1851SOL    HW217190   1.537   2.336   4.306  0.9582  0.4116 -0.3663
 1852SOL     OW17191   3.614   4.035  11.993  0.0176 -0.3020  0.1091
 1852SOL    HW117192   3.704   4.064  11.981  0.8107 -2.6618  0.3875
 1852SOL    HW217193   3.579   4.097  12.057  0.9359  1.6009 -1.2409
 1853SOL     OW17194   4.225   4.019   8.213  0.0606  0.2109  0.0591
 1853SOL    HW117195   4.247   4.112   8.221 -0.5867  0.3094  0.6972
 1853SOL    HW217196   4.293   3.980   8.267 -0.7192  0.7289  1.4170
 1854SOL     OW17197   3.720   0.691   8.966 -0.1479 -0.1502 -0.1475
 1854SOL    HW117198   3.763   0.742   9.034 -0.6429 -0.1295  0.1499
 1854SOL    HW217199   3.632   0.730   8.962 -0.6385 -1.2402  0.0656
 1855SOL     OW17200   1.954   1.600   3.138 -0.2473 -0.1742  0.5779
 1855SOL    HW117201   2.034   1.651   3.145 -0.3509 -0.0984  1.2019
 1855SOL    HW217202   1.956   1.563   3.050  1.0481 -0.3807  0.7005
 1856SOL     OW17203   1.019   4.323  14.771  0.1794 -0.2792 -0.6157
 1856SOL    HW117204   1.023   4.291  14.861 -2.3483 -1.0373 -0.7644
 1856SOL    HW217205   1.075   4.257  14.730  0.2775 -0.6483  0.1229
 1857SOL     OW17206   3.465   3.792   8.868  0.2836  0.3321  0.4152
 1857SOL    HW117207   3.552   3.832   8.861 -0.7272  2.1868 -1.6717
 1857SOL    HW217208   3.457   3.774   8.774  0.5287  0.5648  0.3486
 1858SOL     OW17209   2.828   4.374   1.637 -0.2603 -0.1220  0.1609
 1858SOL    HW117210   2.741   4.412   1.645 -0.9136 -1.6870  0.6419
 1858SOL    HW217211   2.806   4.296   1.586  0.8744 -0.1706 -0.2637
 1859SOL     OW17212   1.368   3.224   7.863  0.1479  0.0894  0.5235
 1859SOL    HW117213   1.274   3.209   7.854  0.3181 -0.6354 -0.0480
 1859SOL    HW217214   1.388   3.223   7.770  2.2150  0.9859  0.9564
 1860SOL     OW17215   3.284   3.194   8.025  0.3035 -0.1773 -0.3420
 1860SOL    HW117216   3.327   3.274   7.994  0.2418  0.3490  0.9463
 1860SOL    HW217217   3.359   3.137   8.040 -0.7911 -1.7047 -0.6059
 1861SOL     OW17218   1.372   0.587  11.491  0.0095 -0.6957 -0.2860
 1861SOL    HW117219   1.408   0.675  11.502  0.3122 -0.9271  0.5632
 1861SOL    HW217220   1.358   0.567  11.584 -1.7320  1.0443 -0.1648
 1862SOL     OW17221   2.297   3.077   1.470 -0.5979  0.0579 -0.3835
 1862SOL    HW117222   2.367   3.133   1.503  0.2551  0.3338 -2.6833
 1862SOL    HW217223   2.232   3.139   1.435 -0.3573 -0.5190 -1.8105
 1863SOL     OW17224   2.827   1.982   7.997 -0.0976  0.8367  0.4146
 1863SOL    HW117225   2.738   1.991   8.031 -0.2586 -0.2226  0.2632
 1863SOL    HW217226   2.840   2.072   7.967 -0.1432 -0.2665 -2.9158
 1864SOL     OW17227   4.533   3.547   2.824 -0.0813  0.2421 -1.0463
 1864SOL    HW117228   4.589   3.590   2.889  0.6716 -1.9540 -0.2536
 1864SOL    HW217229   4.601   3.519   2.762  1.0807 -0.9673  0.7799
 1865SOL     OW17230   4.219   0.315   3.827  0.5015 -0.3398 -0.3305
 1865SOL    HW117231   4.286   0.254   3.795 -1.1533 -1.6015 -1.3958
 1865SOL    HW217232   4.247   0.328   3.918 -0.8905 -1.7688  0.3029
 1866SOL     OW17233   0.502   3.424  14.921  0.0191 -0.4111  0.3471
 1866SOL    HW117234   0.516   3.517  14.939  0.6124 -0.3501 -0.3842
 1866SOL    HW217235   0.407   3.425  14.933 -0.2538 -0.6791 -1.7545
 1867SOL     OW17236   3.009   1.671   5.538 -0.3436 -0.1828  0.0749
 1867SOL    HW117237   3.056   1.751   5.561 -2.5546  0.2838  2.8100
 1867SOL    HW217238   3.037   1.616   5.611 -1.5998  0.6328  1.1586
 1868SOL     OW17239   3.148   0.185  14.786 -0.0302 -0.3902 -0.9166
 1868SOL    HW117240   3.214   0.214  14.723 -0.3087  0.0510 -1.0131
 1868SOL    HW217241   3.112   0.114  14.732 -2.3654  0.1261 -0.0450
 1869SOL     OW17242   4.329   1.025  14.000  0.0498 -0.5339 -0.0097
 1869SOL    HW117243   4.413   1.013  14.044 -0.4682 -2.5377  0.4154
 1869SOL    HW217244   4.329   1.121  14.003  1.5300 -0.5631  1.0753
 1870SOL     OW17245   1.255   1.390   6.056  0.1765 -0.4278  0.6665
 1870SOL    HW117246   1.336   1.393   6.108  0.6892 -1.2285 -0.0846
 1870SOL    HW217247   1.244   1.296   6.044 -1.5156 -0.2389  0.7445
 1871SOL     OW17248   4.198   0.615   9.094 -0.5268  0.0188  0.1412
 1871SOL    HW117249   4.189   0.565   9.013 -2.1124  0.0854  0.2728
 1871SOL    HW217250   4.228   0.700   9.062 -1.4593  0.7886  1.3140
 1872SOL     OW17251   1.860   2.598   6.917  0.3115  0.0698  0.4806
 1872SOL    HW117252   1.898   2.637   6.839 -1.3486  1.2252  0.2591
 1872SOL    HW217253   1.803   2.532   6.876 -0.5939  0.9637  0.3025
 1873SOL     OW17254   0.778   2.694  12.291  0.0506  0.4997 -0.3623
 1873SOL    HW117255   0.845   2.662  12.230 -0.7268  0.5589 -1.2466
 1873SOL    HW217256   0.781   2.627  12.359  2.7965 -0.2979 -1.2665
 1874SOL     OW17257   2.558   3.307   2.503 -0.2520 -0.0577  0.3609
 1874SOL    HW117258   2.599   3.291   2.418  0.3646  1.6943  0.3318
 1874SOL    HW217259   2.607   3.384   2.532 -0.5456  0.8479 -1.5599
 1875SOL     OW17260   4.602   4.605   3.211  0.0637 -0.3631  0.7370
 1875SOL    HW117261   4.544   4.614   3.136 -1.0673 -1.9475  1.4172
 1875SOL    HW217262   4.684   4.639   3.176  0.8167  0.0948  2.9778
 1876SOL     OW17263   3.614   0.520   7.299  0.6004  0.0785 -0.0777
 1876SOL    HW117264   3.641   0.600   7.343  1.1730 -0.2042  0.0850
 1876SOL    HW217265   3.634   0.450   7.361  2.0019 -0.3918 -1.0669
 1877SOL     OW17266   2.154   0.805   5.987 -0.2920  0.3460  0.4330
 1877SOL    HW117267   2.093   0.733   5.999 -0.9522  0.7632 -0.4466
 1877SOL    HW217268   2.115   0.874   6.042  0.1107  0.4190  0.6298
 1878SOL     OW17269   0.536   0.829   4.933  0.6181 -0.5552 -0.0801
 1878SOL    HW117270   0.511   0.916   4.903  1.4443  0.0354  0.9302
 1878SOL    HW217271   0.468   0.777   4.891 -1.4834  1.2367  1.0588
 1879SOL     OW17272   1.560   0.833   2.707 -0.2107 -0.3172  0.1876
 1879SOL    HW117273   1.483   0.888   2.716  2.0528  2.5125  2.4543
 1879SOL    HW217274   1.603   0.867   2.786  0.8647  0.0941 -0.5720
 1880SOL     OW17275   1.840   1.630   4.499  0.2169  0.2729  0.1439
 1880SOL    HW117276   1.745   1.630   4.487  0.3626 -1.5337 -0.9184
 1880SOL    HW217277   1.864   1.683   4.423 -1.3836 -1.3194 -1.4575
 1881SOL     OW17278   3.658   4.298  17.078  0.2705 -0.7570 -0.1471
 1881SOL    HW117279   3.737   4.335  17.117  0.3425 -1.4606  0.3783
 1881SOL    HW217280   3.595   4.369  17.087 -0.1896 -1.1340 -0.3590
 1882SOL     OW17281   0.054   2.523   3.698 -0.0863 -0.4577 -0.3111
 1882SOL    HW117282   4.707   2.519   3.648  0.0325  3.7698 -0.8547
 1882SOL    HW217283   0.060   2.433   3.729 -1.9735 -1.0281 -1.6344
 1883SOL     OW17284   0.392   0.359  12.534  0.1506  0.3820  0.1118
 1883SOL    HW117285   0.438   0.420  12.592 -0.0730  1.2675 -0.6370
 1883SOL    HW217286   0.316   0.413  12.512  0.6269  2.0617  2.5299
 1884SOL     OW17287   4.289   1.161   2.061 -0.1418  0.3771 -0.0103
 1884SOL    HW117288   4.297   1.250   2.093 -1.4143  0.3208  0.4678
 1884SOL    HW217289   4.377   1.137   2.032 -0.4637 -0.4348 -0.3393
 1885SOL     OW17290   3.629   0.022   9.781  1.3344  0.6408 -0.1050
 1885SOL    HW117291   3.563   4.686   9.788  0.9921  0.9423 -0.3080
 1885SOL    HW217292   3.573   0.096   9.804 -0.4955 -0.8214  0.1654
 1886SOL     OW17293   4.683   1.619   3.713  0.0764  0.7910 -0.8612
 1886SOL    HW117294   0.003   1.630   3.791  0.1529 -0.5506 -0.7213
 1886SOL    HW217295   4.673   1.524   3.703  0.2793  0.5942  0.7869
 1887SOL     OW17296   4.690   4.062   3.607  0.2963  0.0133  0.3362
 1887SOL    HW117297   4.639   4.086   3.529  2.6909  3.4991 -0.1147
 1887SOL    HW217298   0.034   4.031   3.562 -0.7391  1.4391 -2.4760
 1888SOL     OW17299   0.265   0.471  10.998 -0.1014 -0.1444 -0.4977
 1888SOL    HW117300   0.272   0.494  11.091  0.3598 -0.8736 -0.3466
 1888SOL    HW217301   0.324   0.531  10.954  0.8983 -0.6482  0.1600
 1889SOL     OW17302   1.522   0.416   8.489  0.5359  0.5864  0.6968
 1889SOL    HW117303   1.528   0.488   8.552 -2.6604  1.3091  0.1676
 1889SOL    HW217304   1.449   0.454   8.440  1.6498  0.3758 -1.1222
 1890SOL     OW17305   4.612   2.540   6.955  0.7616  0.2887  0.3012
 1890SOL    HW117306   4.557   2.597   7.008  1.7125  1.8837 -0.4352
 1890SOL    HW217307   4.663   2.604   6.906  0.4492  0.5799  0.3589
 1891SOL     OW17308   2.988   0.947   6.097  0.0615 -0.4402 -0.7437
 1891SOL    HW117309   2.984   1.019   6.160  1.1929 -0.6357 -0.4522
 1891SOL    HW217310   2.909   0.964   6.046  0.2247  1.8195 -0.2225
 1892SOL     OW17311   0.887   4.453  16.395 -0.5146 -0.2671 -0.2098
 1892SOL    HW117312   0.806   4.425  16.353  0.3246 -1.9193 -0.7091
 1892SOL    HW217313   0.960   4.405  16.357  0.3910 -0.0948  1.3105
 1893SOL     OW17314   1.189   0.405   6.207  0.2774 -0.1416 -0.3407
 1893SOL    HW117315   1.118   0.406   6.143 -0.1871  1.9767  0.2250
 1893SOL    HW217316   1.167   0.318   6.241 -0.1805 -0.3179 -1.0765
 1894SOL     OW17317   3.249   0.502  11.800  0.0582 -0.2603  0.1022
 1894SOL    HW117318   3.326   0.556  11.779 -0.2075 -0.2262 -0.7875
 1894SOL    HW217319   3.274   0.475  11.888 -0.9957  0.3702  0.5841
 1895SOL     OW17320   1.925   1.462  15.978 -0.3009 -0.1030  0.1445
 1895SOL    HW117321   1.866   1.435  15.908 -0.7438 -1.1054  0.9124
 1895SOL    HW217322   1.869   1.426  16.047 -0.5633 -0.0942 -0.0652
 1896SOL     OW17323   3.165   3.511   7.010 -0.0589 -0.4239  0.5977
 1896SOL    HW117324   3.214   3.495   7.090  1.1411 -0.8228 -0.2130
 1896SOL    HW217325   3.097   3.570   7.043  0.7782  0.7368  0.2434
 1897SOL     OW17326   2.836   0.223   5.939 -0.0646 -0.0770 -0.4714
 1897SOL    HW117327   2.830   0.315   5.964  0.5738 -0.5568  1.4182
 1897SOL    HW217328   2.755   0.194   5.897 -0.1400 -1.4357  0.5937
 1898SOL     OW17329   4.481   0.068   0.344 -0.3102  0.2663 -0.1166
 1898SOL    HW117330   4.394   0.030   0.335  0.0938  0.6132 -5.3837
 1898SOL    HW217331   4.534   0.000   0.387 -0.6309  0.4237  0.5294
 1899SOL     OW17332   0.017   3.461  16.068 -0.1856 -0.5252  0.2240
 1899SOL    HW117333   4.682   3.398  16.090 -1.6173  0.1250 -2.3953
 1899SOL    HW217334   4.690   3.527  16.035  0.7020 -0.2479 -0.8421
 1900SOL     OW17335   4.694   1.938   9.241  0.2353 -0.3986  0.3978
 1900SOL    HW117336   4.668   2.030   9.243 -1.6410 -0.8766 -1.2038
 1900SOL    HW217337   4.670   1.902   9.326 -3.2840 -0.3487 -0.5812
 1901SOL     OW17338   4.414   4.522   2.703  0.1109 -0.3864 -0.1161
 1901SOL    HW117339   4.405   4.427   2.715  1.0161 -0.2442  1.6348
 1901SOL    HW217340   4.498   4.532   2.746 -0.2033 -0.4483  0.5144
 1902SOL     OW17341   0.599   0.657   4.163 -0.1680  0.5647  0.0479
 1902SOL    HW117342   0.585   0.611   4.080  0.1981 -1.3916  1.0727
 1902SOL    HW217343   0.513   0.647   4.202  0.0275 -0.4663  0.2117
 1903SOL     OW17344   3.669   4.316   5.162 -0.1503  0.2707 -0.0658
 1903SOL    HW117345   3.621   4.355   5.088  1.8940 -0.2042 -1.6541
 1903SOL    HW217346   3.736   4.265   5.117  0.0238  0.0072  0.5045
 1904SOL     OW17347   1.557   1.558   7.171  0.0305 -0.3136  0.4033
 1904SOL    HW117348   1.638   1.525   7.210  1.4172  1.1696 -1.2218
 1904SOL    HW217349   1.591   1.643   7.142 -0.1875 -0.3717 -0.0142
 1905SOL     OW17350   4.667   0.976   3.044  0.8214  0.4937  0.7485
 1905SOL    HW117351   4.623   0.976   3.129 -1.7012 -1.9823 -0.5740
 1905SOL    HW217352   4.646   1.063   3.010 -1.4503  0.1733  1.3556
 1906SOL     OW17353   0.407   1.664   0.022  0.2701 -0.3238 -0.2444
 1906SOL    HW117354   0.356   1.636   0.098  0.6482  2.4311  1.0163
 1906SOL    HW217355   0.406   1.759   0.027 -0.8792 -0.3291 -0.4713
 1907SOL     OW17356   1.106   4.439  10.035 -0.5204 -0.1217  0.3639
 1907SOL    HW117357   1.202   4.440  10.042 -0.1766 -1.7172 -3.9723
 1907SOL    HW217358   1.091   4.416   9.944  0.4688  2.2840 -0.4198
 1908SOL     OW17359   3.179   4.535  17.131 -0.3153 -0.1507  0.3147
 1908SOL    HW117360   3.157   4.450  17.169 -0.8325 -0.2177 -0.1275
 1908SOL    HW217361   3.193   4.517  17.038 -2.7992 -0.9736  0.0915
 1909SOL     OW17362   0.136   1.978   7.272 -0.0577  0.1104  0.4083
 1909SOL    HW117363   0.181   2.005   7.192  0.4187 -1.6536  0.0949
 1909SOL    HW217364   0.186   2.025   7.339  2.6116 -2.4072  0.1861
 1910SOL     OW17365   2.350   0.347  11.433 -0.0367 -0.0913  0.4702
 1910SOL    HW117366   2.271   0.294  11.425  0.8709 -1.3807  0.1446
 1910SOL    HW217367   2.402   0.305  11.502  2.3169  0.4632 -0.9753
 1911SOL     OW17368   2.537   0.915   8.378 -0.3415 -0.2537 -0.1669
 1911SOL    HW117369   2.630   0.897   8.368 -0.1541 -1.5752  3.9596
 1911SOL    HW217370   2.496   0.829   8.367 -0.4379 -0.1844 -0.3399
 1912SOL     OW17371   3.360   1.076   9.155 -0.0923 -0.4037 -0.0650
 1912SOL    HW117372   3.414   1.029   9.092  1.4334  0.3326  0.6931
 1912SOL    HW217373   3.299   1.008   9.183 -0.1503 -0.5309 -0.4968
 1913SOL     OW17374   4.371   2.221   2.932 -0.0377 -0.3859  0.3898
 1913SOL    HW117375   4.303   2.225   2.999 -0.9844 -1.0042 -0.5291
 1913SOL    HW217376   4.320   2.184   2.860  1.1063 -0.7300 -0.2428
 1914SOL     OW17377   1.285   2.270   4.109  0.2049  0.4947 -0.4448
 1914SOL    HW117378   1.257   2.329   4.040  0.7035  0.5968 -0.5613
 1914SOL    HW217379   1.349   2.319   4.160  0.0493 -1.9657  2.1609
 1915SOL     OW17380   0.389   0.812   5.176  0.2327  0.0538 -0.0682
 1915SOL    HW117381   0.428   0.824   5.263  2.2156 -0.6341 -0.8522
 1915SOL    HW217382   0.461   0.842   5.119 -0.1072  0.0167 -0.5138
 1916SOL     OW17383   3.660   0.359   2.501 -0.3297 -0.2328  0.0658
 1916SOL    HW117384   3.594   0.291   2.491 -0.1315 -0.4434  0.2032
 1916SOL    HW217385   3.610   0.424   2.549 -3.7944 -0.9761 -2.5839
 1917SOL     OW17386   2.269   3.415  16.804 -0.3453 -0.0371 -0.1533
 1917SOL    HW117387   2.249   3.423  16.897  0.9149 -0.7989  0.1862
 1917SOL    HW217388   2.201   3.359  16.767  1.5637 -2.3429 -0.1888
 1918SOL     OW17389   2.338   0.096   2.156  0.0846  0.2095  0.2650
 1918SOL    HW117390   2.302   0.041   2.226  0.5005 -1.1009 -0.5508
 1918SOL    HW217391   2.278   0.170   2.164  3.1205  2.5353  1.4663
 1919SOL     OW17392   2.882   1.232  15.398  0.6665  0.0652 -0.3236
 1919SOL    HW117393   2.815   1.295  15.425  2.0357  0.7066  1.6184
 1919SOL    HW217394   2.855   1.211  15.309 -1.9472  2.1034 -0.0161
 1920SOL     OW17395   0.474   1.303   4.787  0.0994 -0.0327  0.3542
 1920SOL    HW117396   0.393   1.318   4.740 -0.3902 -0.3954  1.0808
 1920SOL    HW217397   0.515   1.389   4.778 -1.5366  0.4649 -2.0535
 1921SOL     OW17398   0.964   1.871   4.940 -0.6842 -0.1753 -0.1699
 1921SOL    HW117399   1.020   1.829   4.874 -2.9218 -1.9154 -0.9830
 1921SOL    HW217400   0.968   1.964   4.921  4.6098 -0.4068 -0.4143
 1922SOL     OW17401   0.827   3.958   9.273 -0.0912  0.0759 -0.0846
 1922SOL    HW117402   0.882   3.942   9.349 -0.4871  3.3649  0.8834
 1922SOL    HW217403   0.885   3.931   9.202  2.5756  1.6818  1.4933
 1923SOL     OW17404   2.478   2.597   4.506 -0.0153  0.1060 -0.3682
 1923SOL    HW117405   2.406   2.536   4.490 -0.5433  1.0633 -1.7285
 1923SOL    HW217406   2.533   2.577   4.430  1.1203 -1.3984  0.8819
 1924SOL     OW17407   1.603   0.501   9.903 -0.1405 -0.1985  0.4477
 1924SOL    HW117408   1.525   0.463   9.863  0.8394 -0.6060 -1.0556
 1924SOL    HW217409   1.582   0.514   9.996 -0.2502 -2.5801  0.7566
 1925SOL     OW17410   1.159   0.281   1.858 -0.6993 -0.3231 -0.3506
 1925SOL    HW117411   1.136   0.367   1.891  1.6774 -0.3398  1.3453
 1925SOL    HW217412   1.132   0.298   1.768  0.3604  0.5541 -0.4975
 1926SOL     OW17413   3.009   1.120  11.613  0.2530 -0.2073  1.1205
 1926SOL    HW117414   2.917   1.098  11.626  0.6078 -2.4296 -0.1298
 1926SOL    HW217415   3.020   1.133  11.518  2.7432 -3.4944  0.9495
 1927SOL     OW17416   2.679   4.414   5.435 -1.0753  0.0152 -0.1937
 1927SOL    HW117417   2.596   4.455   5.461 -1.6686 -0.2562 -1.6806
 1927SOL    HW217418   2.682   4.322   5.463 -1.0429  0.0024 -0.2405
 1928SOL     OW17419   4.512   4.092   9.418 -0.4294  0.6431 -0.6355
 1928SOL    HW117420   4.492   4.065   9.508 -0.9787  2.2872 -0.2748
 1928SOL    HW217421   4.581   4.025   9.414  0.5833  1.6085  0.6586
 1929SOL     OW17422   1.563   2.270  13.789 -0.1101 -0.5736 -0.8236
 1929SOL    HW117423   1.528   2.357  13.771  0.2331 -0.4135 -0.7183
 1929SOL    HW217424   1.576   2.232  13.702 -0.9617 -1.2850 -0.6393
 1930SOL     OW17425   4.000   3.428   1.593 -0.3146  0.2346  0.3898
 1930SOL    HW117426   4.048   3.360   1.545  1.0249  0.3109  1.6130
 1930SOL    HW217427   4.057   3.434   1.670 -0.8744 -0.5649  0.8780
 1931SOL     OW17428   2.990   3.003   3.899  0.0905  0.2849  0.4355
 1931SOL    HW117429   2.895   2.997   3.892  0.0591 -0.2630  1.2698
 1931SOL    HW217430   3.010   2.979   3.809  0.4113  0.8726  0.3498
 1932SOL     OW17431   4.200   2.079   6.553  0.5277 -0.3416  0.4395
 1932SOL    HW117432   4.131   2.094   6.488  0.5147  0.6014  0.6758
 1932SOL    HW217433   4.220   1.991   6.522  0.6062  0.4017 -1.6234
 1933SOL     OW17434   3.102   2.620   8.452 -0.2160  0.4126  0.3186
 1933SOL    HW117435   3.036   2.551   8.464 -0.8569  0.7316 -1.2836
 1933SOL    HW217436   3.117   2.639   8.544  1.6942  0.4135  0.0061
 1934SOL     OW17437   3.537   4.312   4.576 -0.0305  0.0117  0.6891
 1934SOL    HW117438   3.505   4.332   4.488 -0.5664 -0.5187  0.7616
 1934SOL    HW217439   3.618   4.362   4.568 -1.1137  1.7924  0.6555
 1935SOL     OW17440   2.499   1.578  15.066  0.2701 -0.6420  0.0028
 1935SOL    HW117441   2.412   1.558  15.032  0.8413 -1.3924 -1.0580
 1935SOL    HW217442   2.547   1.610  14.989 -0.9807  2.7295  0.6514
 1936SOL     OW17443   4.059   2.675   7.054 -0.1949 -0.7841  0.2521
 1936SOL    HW117444   4.114   2.597   7.058  0.4861 -0.4241 -1.9381
 1936SOL    HW217445   4.017   2.660   6.969 -1.1974 -0.0706  0.6106
 1937SOL     OW17446   1.061   1.215   4.183 -0.2322  0.1066  0.2366
 1937SOL    HW117447   1.139   1.184   4.138 -0.1635 -1.3001  1.3214
 1937SOL    HW217448   0.987   1.184   4.130 -0.6403 -0.5212  1.1736
 1938SOL     OW17449   4.510   2.617  15.121 -0.1223  0.7127  0.1066
 1938SOL    HW117450   4.547   2.612  15.033  1.1117  1.0332  0.6112
 1938SOL    HW217451   4.421   2.630  15.089  0.6389  2.1065 -1.4294
 1939SOL     OW17452   0.031   0.479  10.552  0.4221  0.8505  0.2420
 1939SOL    HW117453   4.683   0.433  10.533  0.5215  0.8032 -0.0814
 1939SOL    HW217454   0.063   0.433  10.630 -2.4093  1.3890  1.7264
 1940SOL     OW17455   0.118   4.126   5.359 -0.3777  0.2585 -0.0786
 1940SOL    HW117456   0.092   4.064   5.291  2.3801  0.1973 -1.0963
 1940SOL    HW217457   0.087   4.096   5.444 -2.4686  1.2022 -0.5345
 1941SOL     OW17458   2.242   2.181   6.619 -0.0557  0.2317  0.0311
 1941SOL    HW117459   2.245   2.225   6.534 -0.2215  1.6119  0.7351
 1941SOL    HW217460   2.249   2.262   6.670  0.2554  0.5346 -0.4889
 1942SOL     OW17461   2.436   2.657   2.298 -0.3444  0.2683 -0.7341
 1942SOL    HW117462   2.361   2.711   2.272  1.0607  2.3684 -0.4420
 1942SOL    HW217463   2.500   2.646   2.228  1.8925 -1.9968  1.6766
 1943SOL     OW17464   4.627   0.038   3.897  0.0043  0.1441  0.1823
 1943SOL    HW117465   4.660   0.033   3.807 -1.5623  0.1087 -0.3896
 1943SOL    HW217466   4.692   4.714   3.936 -0.8933 -1.6994 -1.0283
 1944SOL     OW17467   4.492   1.582   8.030 -0.0341 -0.1777  0.1033
 1944SOL    HW117468   4.536   1.644   8.089  0.9863  0.0404 -0.8712
 1944SOL    HW217469   4.431   1.552   8.096  1.4206  0.0654  1.5634
 1945SOL     OW17470   3.255   2.732   7.747  0.5600  0.0274 -0.1827
 1945SOL    HW117471   3.343   2.711   7.716 -0.0111 -0.9459 -1.1539
 1945SOL    HW217472   3.270   2.732   7.841 -1.7779 -0.9086  0.2041
 1946SOL     OW17473   1.650   0.932   7.645 -0.7202  0.2510 -0.2227
 1946SOL    HW117474   1.580   0.867   7.641 -1.6065  1.3162 -1.9791
 1946SOL    HW217475   1.595   1.007   7.670 -2.2319 -0.9525  0.0236
 1947SOL     OW17476   1.118   4.333   2.440  0.1224  0.3662  0.3891
 1947SOL    HW117477   1.174   4.298   2.509 -2.6651 -2.5271  1.1539
 1947SOL    HW217478   1.165   4.416   2.427  0.9544 -0.2948 -0.8712
 1948SOL     OW17479   2.273   3.031   6.026 -0.4352 -0.1118  0.5166
 1948SOL    HW117480   2.265   2.937   6.009  2.1825 -0.0981 -0.8399
 1948SOL    HW217481   2.189   3.046   6.069 -0.4631  0.3306  0.2978
 1949SOL     OW17482   3.661   3.149   6.916 -0.1389 -0.0309  0.1760
 1949SOL    HW117483   3.635   3.081   6.854 -1.8708  0.4043  0.4301
 1949SOL    HW217484   3.751   3.166   6.888  0.2473 -0.4462  1.1405
 1950SOL     OW17485   0.658   4.610   7.955 -0.1732 -0.0513  0.5880
 1950SOL    HW117486   0.631   4.520   7.935  0.6348  0.3413 -2.2883
 1950SOL    HW217487   0.580   4.644   7.911 -0.5494 -0.9562  0.5569
 1951SOL     OW17488   3.313   0.330  15.499  0.1287 -0.2597  0.1838
 1951SOL    HW117489   3.349   0.317  15.587  0.2208 -0.2178  0.1526
 1951SOL    HW217490   3.264   0.411  15.505 -1.5399 -1.3449  1.1657
 1952SOL     OW17491   0.971   0.534   7.877 -0.0298 -0.7014 -0.4632
 1952SOL    HW117492   1.019   0.538   7.960  0.1822  0.2221 -0.6369
 1952SOL    HW217493   0.899   0.477   7.905  0.9979 -1.2340  1.1396
 1953SOL     OW17494   4.056   2.615   9.855 -0.1177  0.2523 -0.0551
 1953SOL    HW117495   4.051   2.527   9.892  0.2211  0.2244 -0.0760
 1953SOL    HW217496   4.136   2.617   9.802  0.2045  0.4834  0.4393
 1954SOL     OW17497   1.786   1.050   5.754 -0.0531 -0.0313 -0.5246
 1954SOL    HW117498   1.728   1.123   5.735  2.6024  2.6696  1.5905
 1954SOL    HW217499   1.836   1.085   5.828 -0.0499 -0.1585 -0.4652
 1955SOL     OW17500   4.282   0.942   6.484  0.4814  0.2829  0.0459
 1955SOL    HW117501   4.235   0.950   6.567  2.2835  3.1377  0.7715
 1955SOL    HW217502   4.358   0.903   6.526 -0.1758 -1.5176 -0.4090
 1956SOL     OW17503   4.232   1.267   3.130  0.2337 -0.3652 -0.8376
 1956SOL    HW117504   4.160   1.204   3.129  1.7070 -2.0514 -0.0594
 1956SOL    HW217505   4.306   1.207   3.141  1.0500  1.1095  1.7673
 1957SOL     OW17506   0.047   3.100   6.912 -0.1008 -0.2792  0.2078
 1957SOL    HW117507   4.733   3.145   6.842 -1.1113 -0.7231  0.6098
 1957SOL    HW217508   0.122   3.159   6.903  1.4284 -2.4596 -1.2886
 1958SOL     OW17509   1.362   1.838   0.523 -0.1738  0.0855  0.5061
 1958SOL    HW117510   1.363   1.926   0.560  0.1974 -0.5611  2.0353
 1958SOL    HW217511   1.311   1.849   0.443  0.3467 -1.3259 -0.0276
 1959SOL     OW17512   3.390   2.946   4.377 -0.0119  0.6783 -0.5503
 1959SOL    HW117513   3.408   2.981   4.290  0.1273 -1.7367 -1.4739
 1959SOL    HW217514   3.295   2.961   4.375 -0.4110 -1.4925  1.8574
 1960SOL     OW17515   1.664   0.510   1.736 -0.8144 -0.1426 -0.4174
 1960SOL    HW117516   1.666   0.482   1.644 -1.3055  0.5593 -0.6392
 1960SOL    HW217517   1.594   0.574   1.731 -3.7326 -3.3174 -0.5464
 1961SOL     OW17518   0.358   2.393   1.154  0.4329  0.1146 -0.2088
 1961SOL    HW117519   0.378   2.307   1.191 -0.3988  0.2940  0.6606
 1961SOL    HW217520   0.430   2.450   1.182 -1.5036  2.1463  0.6491
 1962SOL     OW17521   0.691   3.310   4.270 -0.3952 -0.0104  0.5180
 1962SOL    HW117522   0.730   3.365   4.338  0.2512  0.2015 -0.0260
 1962SOL    HW217523   0.720   3.353   4.190  1.8779  0.3856  1.5502
 1963SOL     OW17524   2.821   3.436   2.077 -0.1163  0.0086 -0.6046
 1963SOL    HW117525   2.761   3.438   2.002 -0.9142 -1.5264 -0.0082
 1963SOL    HW217526   2.879   3.366   2.047 -0.0380 -1.0410  2.0024
 1964SOL     OW17527   0.679   1.304   1.650 -0.0236 -0.3308 -0.8651
 1964SOL    HW117528   0.696   1.273   1.561  1.2521  0.5737 -0.9419
 1964SOL    HW217529   0.769   1.319   1.678  0.0053 -2.1526  0.0622
 1965SOL     OW17530   4.143   4.538   2.153 -0.3204 -0.0005  0.2711
 1965SOL    HW117531   4.056   4.574   2.173  0.0062  0.4910  0.8132
 1965SOL    HW217532   4.171   4.603   2.088 -1.3196  0.5479  0.3822
 1966SOL     OW17533   3.508   4.499   8.061 -0.0614  0.2724  0.7455
 1966SOL    HW117534   3.475   4.409   8.063 -0.4951  0.4352  0.8498
 1966SOL    HW217535   3.496   4.536   8.148 -2.4152 -2.6050  1.6536
 1967SOL     OW17536   0.006   0.777   6.315  0.4677 -0.4787  0.6801
 1967SOL    HW117537   0.051   0.798   6.234 -0.9102 -1.1895 -0.2651
 1967SOL    HW217538   4.702   0.862   6.337  1.4780  0.5821 -1.6905
 1968SOL     OW17539   0.691   0.292   1.208  0.1178 -0.2514  0.7057
 1968SOL    HW117540   0.619   0.312   1.149  0.5132 -0.5632  0.1091
 1968SOL    HW217541   0.757   0.263   1.145  0.6367  2.0639  0.1927
 1969SOL     OW17542   2.617   0.355  14.035  0.2618 -0.4275 -0.0135
 1969SOL    HW117543   2.667   0.435  14.055 -3.3220  1.3617  1.7302
 1969SOL    HW217544   2.611   0.353  13.939 -4.1325 -0.2606  0.2914
 1970SOL     OW17545   0.208   4.480   8.954 -0.1418 -0.4970 -0.5198
 1970SOL    HW117546   0.296   4.443   8.944  0.3823  0.4636  0.5619
 1970SOL    HW217547   0.218   4.537   9.030  0.8116 -0.8594 -0.3639
 1971SOL     OW17548   0.658   0.634  12.445 -0.2717 -0.2881 -0.4386
 1971SOL    HW117549   0.689   0.578  12.516 -1.0797 -0.1545  0.0177
 1971SOL    HW217550   0.604   0.587  12.381 -1.8294  1.7671 -0.6265
 1972SOL     OW17551   1.475   3.513   4.176  0.1103  0.1861 -0.4194
 1972SOL    HW117552   1.397   3.569   4.172  0.1787  0.2249 -1.2324
 1972SOL    HW217553   1.480   3.463   4.095  1.5004 -1.3838  0.6255
 1973SOL     OW17554   3.400   3.117   0.923  0.1128 -0.1146 -0.1337
 1973SOL    HW117555   3.376   3.138   1.013  3.7589  0.8992  0.5961
 1973SOL    HW217556   3.495   3.125   0.917  0.1245 -0.5176 -0.4740
 1974SOL     OW17557   4.543   2.668  14.841 -0.3915 -0.2430 -0.5264
 1974SOL    HW117558   4.454   2.703  14.842 -0.9921 -1.7260 -1.2919
 1974SOL    HW217559   4.531   2.599  14.775 -0.0200 -1.7193  0.9352
 1975SOL     OW17560   0.111   4.291  11.141 -0.3557 -0.2514 -0.0432
 1975SOL    HW117561   0.155   4.213  11.107  0.5018  0.5117 -0.7035
 1975SOL    HW217562   0.092   4.270  11.232  0.9953  1.9708  0.7470
 1976SOL     OW17563   1.581   1.419   1.172 -0.1441 -0.5594  0.0805
 1976SOL    HW117564   1.670   1.443   1.201  0.0755  0.3633 -1.3822
 1976SOL    HW217565   1.596   1.377   1.088  1.1246  0.7423 -0.3519
 1977SOL     OW17566   3.557   1.066   6.906 -0.2806 -0.5189  0.7432
 1977SOL    HW117567   3.575   1.014   6.828 -0.0230 -1.1545  1.2217
 1977SOL    HW217568   3.466   1.038   6.918 -1.1492  1.7679 -0.5139
 1978SOL     OW17569   2.920   3.827   9.223 -0.3376 -0.0636  0.3237
 1978SOL    HW117570   2.979   3.805   9.295  1.3579  0.5094 -0.8791
 1978SOL    HW217571   2.876   3.904   9.258 -0.3789  0.3142 -0.5381
 1979SOL     OW17572   4.252   1.032   2.527  0.2250  0.2237  0.7241
 1979SOL    HW117573   4.169   1.041   2.572 -0.8222 -0.3097 -1.0934
 1979SOL    HW217574   4.225   1.049   2.437  1.4158 -1.5041  0.0381
 1980SOL     OW17575   2.855   4.456   7.229  0.4342 -0.4892 -0.4892
 1980SOL    HW117576   2.838   4.404   7.308  1.1931 -0.6598 -0.4378
 1980SOL    HW217577   2.945   4.489   7.232  0.2554  0.0572 -1.2612
 1981SOL     OW17578   4.314   4.007   5.320  0.1644 -0.2307  0.2850
 1981SOL    HW117579   4.396   3.958   5.326  0.0751 -0.2493  1.4092
 1981SOL    HW217580   4.258   3.960   5.382 -0.4769  1.2171  0.8035
 1982SOL     OW17581   4.690   2.355   1.924 -0.4137  0.4768  0.7854
 1982SOL    HW117582   4.705   2.327   1.834 -1.6075 -2.0160  1.3629
 1982SOL    HW217583   0.034   2.320   1.966 -0.0909 -1.5831 -1.5227
 1983SOL     OW17584   3.950   4.641  16.250 -0.1978  0.4537 -0.4085
 1983SOL    HW117585   4.003   4.613  16.176  0.3687  1.1311 -0.2668
 1983SOL    HW217586   3.876   4.581  16.246  0.2239 -0.1790  1.3126
 1984SOL     OW17587   3.234   1.222   3.147  0.1195  0.1158 -0.2868
 1984SOL    HW117588   3.297   1.293   3.132 -0.1420  0.4606  0.2407
 1984SOL    HW217589   3.271   1.178   3.223 -0.3352  2.6362  1.4079
 1985SOL     OW17590   3.650   0.823   2.444  0.2907 -0.1099  0.2891
 1985SOL    HW117591   3.668   0.913   2.473  1.6796  0.0920 -1.2032
 1985SOL    HW217592   3.630   0.835   2.351  0.1953  1.6187  0.5198
 1986SOL     OW17593   3.655   4.029  17.159  0.1025  0.3263 -0.2372
 1986SOL    HW117594   3.654   4.104  17.099  0.2175  0.1266 -0.4906
 1986SOL    HW217595   3.600   4.070  17.225 -0.0768  2.0648 -1.4474
 1987SOL     OW17596   1.944   4.074  13.904 -0.2753  0.2773  0.2216
 1987SOL    HW117597   1.906   4.084  13.991 -2.9822  1.6995 -1.1155
 1987SOL    HW217598   2.039   4.080  13.912 -0.3142  0.9461  0.1604
 1988SOL     OW17599   2.559   3.515  14.356  0.5071  0.4481 -0.1214
 1988SOL    HW117600   2.645   3.490  14.389 -0.1103  0.1464  1.2799
 1988SOL    HW217601   2.507   3.435  14.370  0.7083 -0.3443 -3.7800
 1989SOL     OW17602   0.351   1.093  10.271 -0.3853 -0.5442 -0.0190
 1989SOL    HW117603   0.377   1.011  10.313 -1.9236 -0.4986  1.0056
 1989SOL    HW217604   0.379   1.154  10.339 -1.9657  0.2671 -0.1065
 1990SOL     OW17605   0.183   0.331  14.474  0.5867  0.1809  0.8498
 1990SOL    HW117606   0.160   0.241  14.496 -0.6194  0.7407  1.8827
 1990SOL    HW217607   0.270   0.310  14.441  0.2863  2.1018 -1.1758
 1991SOL     OW17608   0.736   0.247   3.291 -0.0133 -0.1155 -0.0075
 1991SOL    HW117609   0.676   0.321   3.280 -0.4885 -0.3504  1.0007
 1991SOL    HW217610   0.676   0.173   3.299  1.0284 -1.4676 -4.7236
 1992SOL     OW17611   3.032   1.919  15.625 -0.2794 -0.0491 -0.9690
 1992SOL    HW117612   3.023   1.962  15.710  1.5148 -0.7452 -0.4328
 1992SOL    HW217613   3.006   1.984  15.560  0.8247  1.4828  0.0936
 1993SOL     OW17614   0.454   0.344   7.525  0.3928  0.1949 -0.6579
 1993SOL    HW117615   0.380   0.285   7.510  2.8088 -2.8060 -0.7415
 1993SOL    HW217616   0.414   0.431   7.524 -0.9855 -0.4322  0.4855
 1994SOL     OW17617   0.462   3.024   4.878 -0.1934  0.1265  0.3986
 1994SOL    HW117618   0.383   2.971   4.878 -1.2107  1.6563 -0.2390
 1994SOL    HW217619   0.526   2.954   4.866  1.2820  1.2946  1.3843
 1995SOL     OW17620   3.639   3.684  14.078  1.0113  1.0120  0.4723
 1995SOL    HW117621   3.706   3.616  14.085  0.2182  0.2950  1.2226
 1995SOL    HW217622   3.627   3.703  13.985  0.0830  2.4659  0.8900
 1996SOL     OW17623   2.094   2.889   8.165 -0.6404  0.0353  0.3337
 1996SOL    HW117624   2.114   2.975   8.130  1.5930 -0.4801  0.3264
 1996SOL    HW217625   2.104   2.904   8.260  0.5281  1.8396 -0.0721
 1997SOL     OW17626   1.580   3.872   0.821  0.2605 -0.2738  0.2038
 1997SOL    HW117627   1.592   3.799   0.761  0.7777  0.7641 -0.9416
 1997SOL    HW217628   1.499   3.841   0.863  0.0823  1.4080  1.1068
 1998SOL     OW17629   4.521   0.267  11.147  0.2940 -0.1604  0.9596
 1998SOL    HW117630   4.580   0.342  11.145 -1.6471  1.3244 -0.4389
 1998SOL    HW217631   4.546   0.216  11.070 -1.4464 -0.2292  0.4532
 1999SOL     OW17632   0.984   2.045   3.921 -0.0961  0.0238 -0.1653
 1999SOL    HW117633   1.066   2.057   3.969 -0.2958  0.3599  0.0928
 1999SOL    HW217634   0.926   2.053   3.996  0.4637  0.9747  0.1582
 2000SOL     OW17635   3.194   0.040   9.046  0.0680  0.4853  0.1063
 2000SOL    HW117636   3.250   0.079   9.113 -0.7847  1.0298  0.5130
 2000SOL    HW217637   3.256   4.729   8.989 -0.0167 -0.3084  0.6379
 2001SOL     OW17638   2.259   0.456   1.639 -0.5698 -0.3294  0.1620
 2001SOL    HW117639   2.230   0.394   1.706 -0.3667 -0.5477  0.0476
 2001SOL    HW217640   2.347   0.421   1.626 -0.6275 -0.4455  0.0877
 2002SOL     OW17641   0.863   4.637   5.464 -0.3780 -0.2270  0.2963
 2002SOL    HW117642   0.944   4.599   5.498  0.0716  0.5067  0.0475
 2002SOL    HW217643   0.816   4.554   5.457 -0.6070  0.1496 -2.6152
 2003SOL     OW17644   2.648   1.480   7.940 -0.1766  0.2948  0.2958
 2003SOL    HW117645   2.660   1.556   7.997  0.1837 -1.3966  2.4389
 2003SOL    HW217646   2.741   1.467   7.925 -0.0597  0.3804  0.9411
 2004SOL     OW17647   3.120   4.275   9.227  0.0728 -0.3269 -0.2919
 2004SOL    HW117648   3.180   4.231   9.165 -0.1852  0.3247 -1.0036
 2004SOL    HW217649   3.174   4.261   9.305 -1.9934 -2.2606  0.7928
 2005SOL     OW17650   2.749   1.564   8.840  0.3538 -0.6252 -0.0943
 2005SOL    HW117651   2.838   1.599   8.853 -0.5608  1.6767 -0.1319
 2005SOL    HW217652   2.733   1.536   8.931 -0.1529  1.0925  0.3429
 2006SOL     OW17653   4.180   1.452   8.500  0.1078  0.3035 -0.3045
 2006SOL    HW117654   4.106   1.449   8.560  0.0836 -0.2913 -0.3745
 2006SOL    HW217655   4.213   1.536   8.533 -0.9578  1.1948 -1.5428
 2007SOL     OW17656   0.364   0.102   8.137 -0.2044  0.3447 -0.0022
 2007SOL    HW117657   0.370   0.103   8.233  0.9371  0.9337 -0.0773
 2007SOL    HW217658   0.360   0.193   8.108 -1.5274  0.2048 -0.2413
 2008SOL     OW17659   1.968   4.654  16.011 -0.2733 -0.4363 -0.1501
 2008SOL    HW117660   1.880   4.618  16.003 -0.6190  0.6317 -1.1692
 2008SOL    HW217661   1.945   4.721  16.076  1.7677  0.6598 -0.5389
 2009SOL     OW17662   3.039   4.407   5.408  0.4701 -0.1711 -0.3296
 2009SOL    HW117663   3.093   4.453   5.344  0.8943 -1.9439 -1.2348
 2009SOL    HW217664   2.982   4.477   5.439  0.9127  0.4496 -0.8966
 2010SOL     OW17665   2.711   4.135  16.969  0.7325  0.1124  0.8780
 2010SOL    HW117666   2.734   4.045  16.949 -3.1790 -1.0983  1.8160
 2010SOL    HW217667   2.714   4.172  16.881  0.9553  1.3361  1.3959
 2011SOL     OW17668   1.580   2.308   2.352 -0.9295 -0.5518 -0.0035
 2011SOL    HW117669   1.634   2.340   2.425 -1.8781  0.1507  0.3902
 2011SOL    HW217670   1.648   2.308   2.285  1.9415  0.5837  2.8784
 2012SOL     OW17671   3.352   4.647  16.066  0.5198 -0.5348  0.1027
 2012SOL    HW117672   3.273   4.600  16.092  0.0346 -0.3563 -1.0513
 2012SOL    HW217673   3.346   4.716  16.132  1.2777 -0.8531  0.5051
 2013SOL     OW17674   2.269   4.536   2.019  0.5830 -0.2368  0.3798
 2013SOL    HW117675   2.310   4.523   2.105  2.4215  4.6584  0.2626
 2013SOL    HW217676   2.184   4.575   2.041  0.6634 -0.7266  1.5576
 2014SOL     OW17677   1.402   3.113   8.290 -0.4012  0.1285 -0.0713
 2014SOL    HW117678   1.443   3.182   8.238  2.3783 -1.4418 -0.0297
 2014SOL    HW217679   1.409   3.144   8.380 -2.9234 -0.8871  0.4672
 2015SOL     OW17680   2.225   4.015  17.078  1.1825  0.1738  0.2866
 2015SOL    HW117681   2.298   4.072  17.054 -1.1907  3.1028 -0.0187
 2015SOL    HW217682   2.195   3.996  16.989  1.5829  0.4718  0.0853
 2016SOL     OW17683   4.592   4.273  12.405 -0.1042 -0.3101  0.5218
 2016SOL    HW117684   4.657   4.305  12.468 -0.8695  0.2629  1.0131
 2016SOL    HW217685   4.629   4.304  12.322 -0.4612 -0.3206  0.3588
 2017SOL     OW17686   2.150   2.529  14.538  0.1434  0.2114 -0.3788
 2017SOL    HW117687   2.093   2.586  14.590 -1.3675  0.0325 -1.8328
 2017SOL    HW217688   2.081   2.467  14.516  1.1921 -0.9128 -0.5152
 2018SOL     OW17689   2.312   2.398  11.842 -0.7646  0.2583 -0.0969
 2018SOL    HW117690   2.384   2.345  11.874  1.3828  1.9467 -2.1165
 2018SOL    HW217691   2.242   2.334  11.829 -0.8557  0.4652 -0.6284
 2019SOL     OW17692   1.435   1.052   6.694 -0.2951  0.5092  0.1205
 2019SOL    HW117693   1.442   0.997   6.773  0.4436  0.3996 -0.0230
 2019SOL    HW217694   1.419   1.134   6.741  0.8348  1.4432 -1.1145
 2020SOL     OW17695   2.527   3.721   2.042  0.0475  0.1286  0.1693
 2020SOL    HW117696   2.499   3.734   1.952  2.9466  2.0902 -0.4457
 2020SOL    HW217697   2.593   3.791   2.046 -1.3201  1.3526  1.2955
 2021SOL     OW17698   0.843   1.523   4.727 -0.3267  0.3896  0.0591
 2021SOL    HW117699   0.794   1.505   4.807 -0.0374 -0.7258 -0.0182
 2021SOL    HW217700   0.804   1.467   4.660  0.8729 -0.9164  0.4492
 2022SOL     OW17701   1.181   3.205   6.547  0.1781  0.4267  0.1532
 2022SOL    HW117702   1.208   3.283   6.595 -0.2238  0.0647  0.9697
 2022SOL    HW217703   1.151   3.143   6.614 -0.1506  0.5217  0.0938
 2023SOL     OW17704   1.140   0.350   6.627 -0.8833  0.7695  0.0587
 2023SOL    HW117705   1.196   0.416   6.668 -0.4515  0.9087 -0.7500
 2023SOL    HW217706   1.062   0.402   6.606 -0.8545  0.2471 -1.3247
 2024SOL     OW17707   4.233   4.199   4.785  0.4048 -0.2643  0.5061
 2024SOL    HW117708   4.176   4.148   4.842 -0.6699  0.3243 -0.0405
 2024SOL    HW217709   4.172   4.263   4.748  1.1690 -0.4506 -1.1048
 2025SOL     OW17710   1.920   1.010   9.138  0.4859 -0.3570  0.3099
 2025SOL    HW117711   1.834   1.026   9.101  0.6337  0.3152  0.2611
 2025SOL    HW217712   1.911   1.034   9.230  1.0475 -2.6245  0.9494
 2026SOL     OW17713   1.094   2.150   6.149  0.4528 -0.0430  0.1262
 2026SOL    HW117714   1.005   2.119   6.159  0.2090  0.1946 -1.2813
 2026SOL    HW217715   1.105   2.150   6.053 -1.3189  2.3031 -0.0834
 2027SOL     OW17716   0.073   1.371   9.037  0.3866  0.0948 -0.6351
 2027SOL    HW117717   0.118   1.449   9.070 -0.7073  0.6015 -0.3298
 2027SOL    HW217718   0.125   1.305   9.082 -2.1463 -1.3814  0.1177
 2028SOL     OW17719   2.913   3.678   6.758  0.1180 -0.4415  0.3558
 2028SOL    HW117720   2.924   3.759   6.807 -0.7057 -0.8032  1.1592
 2028SOL    HW217721   2.928   3.707   6.669 -1.4190 -0.5701  0.0604
 2029SOL     OW17722   1.497   3.299   7.326  0.4891  0.0665  0.2449
 2029SOL    HW117723   1.591   3.288   7.309  0.0664 -2.4093 -0.4386
 2029SOL    HW217724   1.499   3.339   7.413 -0.3665 -0.1128  0.3415
 2030SOL     OW17725   3.705   3.873   3.855 -0.4578  0.6014 -0.4938
 2030SOL    HW117726   3.644   3.945   3.839  0.7566  1.2228 -2.2878
 2030SOL    HW217727   3.754   3.878   3.773  0.1793 -0.5457 -0.1907
 2031SOL     OW17728   1.216   0.966   8.652 -0.2919 -0.3107  0.3815
 2031SOL    HW117729   1.301   0.963   8.608 -0.8966 -1.2291 -0.7166
 2031SOL    HW217730   1.218   1.046   8.704  1.8331 -1.4060  1.9822
 2032SOL     OW17731   4.041   0.836   7.684  0.0194 -0.2029  0.0672
 2032SOL    HW117732   4.100   0.855   7.611 -1.2354 -1.3701 -1.2639
 2032SOL    HW217733   4.069   0.896   7.753  0.3408 -1.6137  1.1462
 2033SOL     OW17734   0.099   3.798   1.825 -0.4941  0.9563  0.1230
 2033SOL    HW117735   0.180   3.784   1.875 -0.3710  1.7064  0.1209
 2033SOL    HW217736   0.032   3.784   1.891 -1.2329  1.1997 -0.5708
 2034SOL     OW17737   0.440   3.669   7.676 -0.2544 -0.8063  0.1396
 2034SOL    HW117738   0.528   3.676   7.713 -0.9959 -0.5745  1.8650
 2034SOL    HW217739   0.413   3.760   7.685 -2.2954 -1.2761 -1.0690
 2035SOL     OW17740   0.271   1.249  15.360 -0.0026 -0.7939 -0.3478
 2035SOL    HW117741   0.187   1.263  15.316  0.0041 -0.6596 -0.3196
 2035SOL    HW217742   0.279   1.154  15.357  1.0118 -0.7093 -0.2963
 2036SOL     OW17743   2.522   4.105   6.005  0.0091  0.6092  0.4314
 2036SOL    HW117744   2.461   4.157   6.057 -0.0113 -1.4456  2.4877
 2036SOL    HW217745   2.587   4.076   6.069  0.0239  1.3886  0.7716
 2037SOL     OW17746   2.788   4.230   8.929 -0.3281 -0.2188 -0.1073
 2037SOL    HW117747   2.715   4.169   8.935 -0.0839 -0.5282 -0.2707
 2037SOL    HW217748   2.735   4.309   8.918  1.4601  1.0328  0.1854
 2038SOL     OW17749   1.392   3.147   2.117  0.7735  0.4055 -0.2756
 2038SOL    HW117750   1.303   3.146   2.151  1.1185  0.8832  0.6309
 2038SOL    HW217751   1.392   3.230   2.070  1.4602 -0.0403 -1.0706
 2039SOL     OW17752   4.060   2.921   5.659  0.0949 -0.1005  0.5091
 2039SOL    HW117753   4.008   2.953   5.733  1.7228  2.8786  0.3855
 2039SOL    HW217754   4.141   2.970   5.671 -0.7845  1.8245 -1.3021
 2040SOL     OW17755   4.059   2.491   7.805  0.2425  0.3473  0.0006
 2040SOL    HW117756   4.077   2.443   7.886  0.0102 -0.6462 -0.5401
 2040SOL    HW217757   4.137   2.544   7.792  0.0627 -0.0541 -2.5817
 2041SOL     OW17758   2.856   0.246   8.836  0.1941  0.4611  0.2748
 2041SOL    HW117759   2.906   0.165   8.852  0.9082  0.4176 -2.2140
 2041SOL    HW217760   2.771   0.224   8.872  0.0399  1.1895  0.3564
 2042SOL     OW17761   2.852   3.319   1.373  0.1916 -0.3126 -0.2741
 2042SOL    HW117762   2.784   3.379   1.404  0.9114 -0.8653  2.4036
 2042SOL    HW217763   2.791   3.255   1.338 -1.0798  0.7426  0.0404
 2043SOL     OW17764   0.081   4.368   0.435 -0.0920  0.1561 -0.4427
 2043SOL    HW117765   0.127   4.285   0.446 -2.0103 -0.5470  2.0725
 2043SOL    HW217766   0.091   4.425   0.511  2.7980 -1.8141  0.6490
 2044SOL     OW17767   4.702   0.656   3.069 -0.2598  0.1345  0.1636
 2044SOL    HW117768   4.640   0.584   3.061 -0.1844  0.2275 -1.3350
 2044SOL    HW217769   4.647   0.725   3.107 -1.1183  0.0546 -0.9248
 2045SOL     OW17770   2.660   1.594   2.814  0.0706 -0.0870  0.2101
 2045SOL    HW117771   2.723   1.556   2.752 -0.4770  2.2712 -1.8052
 2045SOL    HW217772   2.694   1.560   2.897  0.5617  1.6651  0.7133
 2046SOL     OW17773   2.615   3.358   9.362 -0.0442 -0.1925 -0.0762
 2046SOL    HW117774   2.583   3.350   9.272 -0.6752 -1.2664  0.2375
 2046SOL    HW217775   2.622   3.453   9.363 -0.1286 -0.2015  1.0229
 2047SOL     OW17776   2.920   3.474   4.761 -0.1828 -0.3407  0.0484
 2047SOL    HW117777   2.993   3.467   4.699  0.7136 -2.0213  1.3048
 2047SOL    HW217778   2.871   3.548   4.725  1.7221  1.2685  0.7563
 2048SOL     OW17779   1.205   3.533   2.408  0.0491 -0.3592 -0.0767
 2048SOL    HW117780   1.182   3.587   2.333 -1.5087 -2.3322 -1.0260
 2048SOL    HW217781   1.226   3.606   2.466 -0.1656 -1.0955  0.9453
 2049SOL     OW17782   1.310   4.008  13.305  0.5151  0.3673  0.9337
 2049SOL    HW117783   1.257   4.024  13.227 -0.3109  1.6926  1.7522
 2049SOL    HW217784   1.370   4.081  13.291 -0.3808  0.6612 -1.3734
 2050SOL     OW17785   0.350   2.389  10.693 -0.5202  0.5327 -0.0446
 2050SOL    HW117786   0.293   2.424  10.625  2.2085  1.1491 -1.9680
 2050SOL    HW217787   0.313   2.301  10.702  1.5168 -0.4500 -1.5364
 2051SOL     OW17788   3.277   4.153   5.475 -0.4156  0.0836  0.6982
 2051SOL    HW117789   3.267   4.174   5.568 -0.1297 -0.7243  0.9103
 2051SOL    HW217790   3.231   4.223   5.429 -0.7379 -1.9430 -2.0638
 2052SOL     OW17791   3.345   0.605  16.905  0.3087  0.1353 -0.0101
 2052SOL    HW117792   3.413   0.646  16.853  0.9061 -2.8415 -1.5722
 2052SOL    HW217793   3.401   0.540  16.947 -0.7739 -0.3461  0.7130
 2053SOL     OW17794   4.520   0.260   5.327  0.4830 -0.2324  0.8024
 2053SOL    HW117795   4.455   0.231   5.390  1.1886 -0.5349  1.3922
 2053SOL    HW217796   4.478   0.339   5.294 -0.7637 -1.3360 -0.2665
 2054SOL     OW17797   3.788   0.991   7.374  0.5990  0.7047 -0.0751
 2054SOL    HW117798   3.791   1.023   7.283  0.8967  1.3839  0.1730
 2054SOL    HW217799   3.878   1.010   7.401  0.0515  4.3572 -0.7670
 2055SOL     OW17800   1.651   1.848   7.181  0.6007  0.7464  0.0205
 2055SOL    HW117801   1.689   1.936   7.178 -0.1838  1.0682 -0.4201
 2055SOL    HW217802   1.660   1.834   7.275 -2.3158  0.8328  0.3253
 2056SOL     OW17803   3.312   3.582   3.404 -0.3278 -0.3115  0.6644
 2056SOL    HW117804   3.387   3.613   3.352 -1.4385  0.0490 -0.7140
 2056SOL    HW217805   3.301   3.654   3.466 -0.9106  0.5965 -0.4810
 2057SOL     OW17806   1.331   1.587   5.266 -0.0395 -0.7201  0.1750
 2057SOL    HW117807   1.336   1.612   5.359  2.3875  0.1708 -0.1987
 2057SOL    HW217808   1.253   1.638   5.244  2.9075  2.9410 -1.8493
 2058SOL     OW17809   0.332   2.041   9.922 -0.0986  0.1578  0.2017
 2058SOL    HW117810   0.371   1.980   9.859  2.2700  0.2176  1.5742
 2058SOL    HW217811   0.350   2.123   9.875 -1.8171  0.9485  0.9434
 2059SOL     OW17812   1.069   0.873   6.799  0.3191 -0.0584 -0.4475
 2059SOL    HW117813   1.035   0.952   6.842 -3.5369 -2.7731  1.5914
 2059SOL    HW217814   1.049   0.910   6.713 -1.3312  0.4557  0.1418
 2060SOL     OW17815   2.995   4.639  10.837  0.3694  0.1776 -0.1830
 2060SOL    HW117816   3.021   4.697  10.909  1.0221  1.9981 -1.8616
 2060SOL    HW217817   3.064   4.572  10.840  1.8447  1.6052 -2.0082
 2061SOL     OW17818   2.035   4.031   7.789  0.0594 -0.3707 -0.8444
 2061SOL    HW117819   2.122   4.027   7.830 -0.5502  0.3385  0.5129
 2061SOL    HW217820   1.974   3.970   7.829  1.9406 -1.1620  0.7877
 2062SOL     OW17821   3.549   3.745   6.768 -0.0271  0.5333 -0.0510
 2062SOL    HW117822   3.564   3.651   6.754  0.8140  1.0034 -2.4437
 2062SOL    HW217823   3.571   3.788   6.685  1.4790 -1.2307 -0.5825
 2063SOL     OW17824   2.377   2.992   8.977  0.4755 -0.4971 -0.3020
 2063SOL    HW117825   2.440   3.021   9.042  0.7585  0.2192 -0.8903
 2063SOL    HW217826   2.444   2.942   8.930  0.9540  0.6600 -0.8685
 2064SOL     OW17827   3.623   4.532   0.459  0.0082 -0.0250  0.2485
 2064SOL    HW117828   3.539   4.571   0.483 -1.5811 -0.5974 -4.2436
 2064SOL    HW217829   3.661   4.508   0.543  1.2555 -0.8066 -0.5403
 2065SOL     OW17830   0.747   1.429   0.829 -0.1885 -0.7316 -0.3764
 2065SOL    HW117831   0.725   1.336   0.835 -1.6475 -0.4517 -1.3490
 2065SOL    HW217832   0.780   1.453   0.915 -0.1424 -1.2183 -0.2637
 2066SOL     OW17833   2.204   2.142   4.558 -0.2306 -0.4011 -0.0347
 2066SOL    HW117834   2.296   2.122   4.574 -0.1969 -0.2936 -0.0925
 2066SOL    HW217835   2.167   2.054   4.563 -0.9722 -0.0883  0.0357
 2067SOL     OW17836   1.919   1.220   2.208  0.8702 -0.0140  0.9132
 2067SOL    HW117837   1.856   1.229   2.136  2.5638 -0.4516 -0.6356
 2067SOL    HW217838   1.995   1.252   2.160  0.9174 -1.4850  0.0173
 2068SOL     OW17839   4.564   1.811   2.735 -0.0959  0.2508 -0.0700
 2068SOL    HW117840   4.584   1.744   2.800  0.1392  0.7142  0.3327
 2068SOL    HW217841   4.523   1.880   2.787 -1.5229  0.2955 -1.2717
 2069SOL     OW17842   4.437   2.305   7.743  0.6189 -0.2206 -0.3914
 2069SOL    HW117843   4.380   2.271   7.812  1.0446 -0.1787 -0.0200
 2069SOL    HW217844   4.443   2.233   7.680 -1.1631  1.4543 -2.4796
 2070SOL     OW17845   1.765   1.511   8.134 -0.2154 -0.2496  0.0187
 2070SOL    HW117846   1.712   1.576   8.180  0.3037 -1.0297  1.7359
 2070SOL    HW217847   1.719   1.429   8.150 -0.2840  0.3616  3.0153
 2071SOL     OW17848   0.187   2.855   9.663 -1.2116  0.4825  0.2183
 2071SOL    HW117849   0.256   2.910   9.699 -1.1369  1.4119 -1.3344
 2071SOL    HW217850   0.138   2.914   9.606  0.0552 -0.1174 -1.4849
 2072SOL     OW17851   3.240   0.542   9.142 -0.2385 -0.3775  0.1000
 2072SOL    HW117852   3.195   0.523   9.224  1.8731  2.2997  1.8613
 2072SOL    HW217853   3.206   0.476   9.081 -0.6763 -0.9512  0.9743
 2073SOL     OW17854   3.665   4.579  16.171 -0.6335 -0.4728 -0.4199
 2073SOL    HW117855   3.663   4.516  16.244  2.4390 -1.2672 -0.9871
 2073SOL    HW217856   3.614   4.649  16.211  1.1070 -0.5213  1.9006
 2074SOL     OW17857   2.959   3.849   7.267  0.1653  0.2059  0.2999
 2074SOL    HW117858   3.049   3.882   7.263 -0.0790  0.9171  0.6297
 2074SOL    HW217859   2.910   3.930   7.279 -3.0020 -1.7456  0.4880
 2075SOL     OW17860   2.726   1.625   5.043 -0.5244 -0.1814 -0.5324
 2075SOL    HW117861   2.649   1.631   5.100  0.3969  3.2590  0.2877
 2075SOL    HW217862   2.699   1.680   4.969 -2.0652 -0.9816 -0.5860
 2076SOL     OW17863   4.099   4.176   0.708  0.4000 -0.5901  0.1971
 2076SOL    HW117864   4.030   4.116   0.678 -0.2512 -0.1726  0.8896
 2076SOL    HW217865   4.087   4.233   0.632  1.9874 -0.5394 -0.0217
 2077SOL     OW17866   1.059   2.215   4.662  0.0160 -0.0583 -0.5954
 2077SOL    HW117867   0.993   2.217   4.593  0.3455 -0.4743 -0.9261
 2077SOL    HW217868   1.138   2.193   4.611 -0.3178 -0.2828 -1.0197
 2078SOL     OW17869   1.711   1.992   5.833 -0.2937 -0.0210 -0.2233
 2078SOL    HW117870   1.657   1.988   5.911  0.8439  0.3885  0.5917
 2078SOL    HW217871   1.741   1.901   5.836  0.9523  0.3979  0.0155
 2079SOL     OW17872   0.492   4.178   5.087 -0.1252 -0.1996 -0.0145
 2079SOL    HW117873   0.450   4.262   5.068  2.2811  1.0177 -0.0842
 2079SOL    HW217874   0.467   4.166   5.179  1.6123 -2.1225  0.2125
 2080SOL     OW17875   2.024   4.519   0.037  0.6119 -0.2210 -0.0076
 2080SOL    HW117876   2.094   4.475   0.086 -1.1066  0.2196  2.8394
 2080SOL    HW217877   2.060   4.526  17.684  1.0071  0.4381  0.2039
 2081SOL     OW17878   1.898   1.131   1.501 -0.3241 -0.2986  0.5619
 2081SOL    HW117879   1.846   1.210   1.485 -0.9859 -0.6816  0.8362
 2081SOL    HW217880   1.951   1.155   1.577  1.3740 -0.7765 -0.4801
 2082SOL     OW17881   0.445   2.380   2.079 -0.2356  0.1576 -0.5741
 2082SOL    HW117882   0.405   2.443   2.138  0.4265 -1.5522  1.7019
 2082SOL    HW217883   0.384   2.385   2.006 -0.3558 -1.2721 -0.5804
 2083SOL     OW17884   1.052   1.731  16.943  0.2762 -0.4654  0.0263
 2083SOL    HW117885   1.063   1.707  16.851  0.0892 -1.1621  0.1865
 2083SOL    HW217886   1.037   1.645  16.981  1.2705  0.5608  2.7186
 2084SOL     OW17887   4.504   2.135   4.987  0.2963  0.3716  0.5821
 2084SOL    HW117888   4.498   2.077   5.063 -1.2852  2.0417  1.7384
 2084SOL    HW217889   4.409   2.146   4.980  0.2260  1.9348  3.8882
 2085SOL     OW17890   2.485   4.450   7.699 -0.2942  0.2158 -0.2019
 2085SOL    HW117891   2.573   4.485   7.683 -0.0091 -0.0161  0.8141
 2085SOL    HW217892   2.425   4.523   7.689  0.6274  1.1999  1.4418
 2086SOL     OW17893   3.691   0.381   3.122  0.1516 -0.1888  0.1334
 2086SOL    HW117894   3.620   0.323   3.094 -0.5791  0.5716  0.4229
 2086SOL    HW217895   3.766   0.335   3.084  1.2985  0.1424  1.9996
 2087SOL     OW17896   1.075   1.944   6.659 -0.1291 -0.0090  0.3060
 2087SOL    HW117897   1.057   2.035   6.683 -0.6373  0.7720 -3.0101
 2087SOL    HW217898   1.170   1.949   6.645 -0.2887 -0.1830 -0.7741
 2088SOL     OW17899   3.939   0.334   2.389  0.0381 -0.4182  0.4478
 2088SOL    HW117900   3.891   0.347   2.470 -0.9519  2.2775 -0.5603
 2088SOL    HW217901   3.906   0.408   2.337  0.0620 -1.5242 -1.1626
 2089SOL     OW17902   4.096   2.818  13.433 -0.3651  0.7618 -0.0390
 2089SOL    HW117903   4.133   2.752  13.375 -1.2089 -0.8005  1.2167
 2089SOL    HW217904   4.042   2.756  13.483 -1.8457  1.9405 -0.1607
 2090SOL     OW17905   1.388   1.500   2.305 -0.5328 -0.0616 -0.1616
 2090SOL    HW117906   1.433   1.529   2.226  0.2850 -2.0720 -0.4242
 2090SOL    HW217907   1.450   1.464   2.368 -1.8464 -1.1625  0.5105
 2091SOL     OW17908   0.165   3.998   2.539 -0.2083  0.4745  0.3324
 2091SOL    HW117909   0.205   3.957   2.616 -0.2504  0.9028  0.5840
 2091SOL    HW217910   0.170   3.927   2.476 -1.1296  1.3358 -0.7034
 2092SOL     OW17911   4.597   4.207  10.744 -0.5772 -0.0266 -0.0255
 2092SOL    HW117912   4.647   4.209  10.662  0.1761 -1.3694  0.4056
 2092SOL    HW217913   4.631   4.281  10.796 -0.7485 -0.1831  0.3054
 2093SOL     OW17914   2.840   2.780   2.516  0.3892  0.5306  0.6838
 2093SOL    HW117915   2.823   2.870   2.544  0.8558  1.5301 -2.1805
 2093SOL    HW217916   2.841   2.743   2.604  1.3477 -0.5191  0.2228
 2094SOL     OW17917   2.130   4.286   0.908 -0.5000  0.3854 -0.3577
 2094SOL    HW117918   2.056   4.240   0.868 -0.3331  1.0391 -1.4256
 2094SOL    HW217919   2.126   4.250   0.996  0.6092  0.8749 -0.1052
 2095SOL     OW17920   3.658   3.460   7.733  0.8352  1.3339  0.1279
 2095SOL    HW117921   3.746   3.488   7.759  1.7620  0.4021 -1.9954
 2095SOL    HW217922   3.682   3.412   7.654  2.5613  2.1467  0.1639
 2096SOL     OW17923   4.566   2.075   8.502 -0.7420 -0.6579  0.4430
 2096SOL    HW117924   4.540   2.088   8.411  0.7095  0.5925  0.2148
 2096SOL    HW217925   4.481   2.058   8.542 -1.8263  0.1710 -1.5068
 2097SOL     OW17926   0.642   4.147   5.820 -0.3494 -0.3420  0.1058
 2097SOL    HW117927   0.657   4.169   5.728  3.8515  0.8425  1.0687
 2097SOL    HW217928   0.600   4.227   5.852  0.7928 -0.3381  1.6053
 2098SOL     OW17929   0.245   3.919   1.630 -0.0356 -0.5526  0.0010
 2098SOL    HW117930   0.196   3.898   1.710 -1.3557 -0.6510 -0.8352
 2098SOL    HW217931   0.177   3.916   1.562  1.2627 -0.9540 -1.2688
 2099SOL     OW17932   1.994   0.715   6.298  0.0588 -0.5773 -0.1064
 2099SOL    HW117933   2.046   0.794   6.308  0.2993 -0.9971  1.9846
 2099SOL    HW217934   1.923   0.758   6.250  0.5353  1.8599  1.3635
 2100SOL     OW17935   3.650   1.938   7.673 -0.0637  0.1442  0.2009
 2100SOL    HW117936   3.744   1.947   7.686  0.4046 -3.8569 -0.5150
 2100SOL    HW217937   3.627   2.022   7.633 -0.3294 -0.3078 -0.6036
 2101SOL     OW17938   3.003   2.418   2.787  0.2162  0.2912 -0.0468
 2101SOL    HW117939   3.066   2.352   2.816  0.0093  0.2006  0.2021
 2101SOL    HW217940   3.056   2.491   2.754  1.1190  0.5451  1.9407
 2102SOL     OW17941   1.395   2.715   7.591  0.9221 -0.2694  0.1194
 2102SOL    HW117942   1.317   2.704   7.537  1.4335 -1.5439 -0.3599
 2102SOL    HW217943   1.359   2.706   7.679  1.1284  1.6444  0.3983
 2103SOL     OW17944   3.162   2.845   2.132 -0.2677 -0.3194  0.3365
 2103SOL    HW117945   3.253   2.824   2.108 -0.4190 -0.5491 -0.0408
 2103SOL    HW217946   3.134   2.754   2.142 -0.8178 -0.2154 -0.2384
 2104SOL     OW17947   1.513   0.654   7.720  0.0825  0.0630 -0.0412
 2104SOL    HW117948   1.560   0.580   7.759  0.7280  0.7844  0.5493
 2104SOL    HW217949   1.505   0.626   7.629 -0.6600  5.1028 -1.5162
 2105SOL     OW17950   1.398   0.022   7.236  0.3531 -0.8048  0.4399
 2105SOL    HW117951   1.359   0.018   7.324 -2.9178  2.8759 -0.8864
 2105SOL    HW217952   1.353   0.100   7.203  3.4064  0.2853 -1.1338
 2106SOL     OW17953   1.439   0.147   0.634 -0.1250 -0.1776  0.6319
 2106SOL    HW117954   1.426   0.137   0.728  0.0039 -3.8680  0.2651
 2106SOL    HW217955   1.521   0.106   0.606 -1.3079 -2.2915  0.2210
 2107SOL     OW17956   2.694   3.831  13.651 -0.4652  0.5119 -0.0904
 2107SOL    HW117957   2.634   3.778  13.704 -0.8575  0.4944 -0.5477
 2107SOL    HW217958   2.772   3.777  13.640 -1.4268 -0.9639  0.2362
 2108SOL     OW17959   2.077   1.452   1.493  0.5813 -0.8998  0.2587
 2108SOL    HW117960   1.985   1.427   1.498  0.4823 -0.0098  2.9005
 2108SOL    HW217961   2.080   1.524   1.430 -1.9249 -0.9403  0.1067
 2109SOL     OW17962   3.711   1.595   5.135  0.6224 -0.5267  0.4711
 2109SOL    HW117963   3.659   1.673   5.115  0.7724 -1.1422 -2.3819
 2109SOL    HW217964   3.650   1.539   5.184 -0.9905  0.0558 -0.8357
 2110SOL     OW17965   3.773   1.720  11.256 -0.3656 -0.3429 -0.7081
 2110SOL    HW117966   3.752   1.639  11.302  1.1139 -1.0703 -1.3316
 2110SOL    HW217967   3.765   1.778  11.331  0.1157 -0.2570 -0.7269
 2111SOL     OW17968   3.532   4.117   5.345  0.3977  0.3670 -0.3336
 2111SOL    HW117969   3.515   4.198   5.297  0.8704 -0.0716 -1.2269
 2111SOL    HW217970   3.449   4.108   5.392  0.8189  1.4749  0.6353
 2112SOL     OW17971   1.032   1.301   9.457 -0.1396  0.1314 -0.5335
 2112SOL    HW117972   0.963   1.345   9.507 -0.2449 -0.7711  0.1137
 2112SOL    HW217973   1.091   1.266   9.523 -0.6413 -0.0978 -0.2003
 2113SOL     OW17974   4.454   1.926  11.167 -0.9081 -0.3313  0.1459
 2113SOL    HW117975   4.385   1.939  11.102  0.5974 -0.7962 -1.5510
 2113SOL    HW217976   4.512   1.867  11.119  0.2021  1.8520 -1.1735
 2114SOL     OW17977   0.817   3.698   8.093 -0.6951  0.5318  0.0338
 2114SOL    HW117978   0.894   3.737   8.136 -2.4341  2.8540  1.0850
 2114SOL    HW217979   0.759   3.774   8.089  1.8665  2.3917 -1.1320
 2115SOL     OW17980   2.105   2.513   5.232  0.2658  0.6000 -0.5608
 2115SOL    HW117981   2.060   2.463   5.164  2.1557 -0.6786 -0.8757
 2115SOL    HW217982   2.028   2.533   5.286  0.0682  0.6668 -0.8728
 2116SOL     OW17983   4.110   0.143   9.672 -0.4898  0.1409  0.3911
 2116SOL    HW117984   4.168   0.099   9.610  0.0018  1.3378 -0.0017
 2116SOL    HW217985   4.031   0.154   9.619  2.2357  2.3512 -3.1837
 2117SOL     OW17986   1.094   0.807   8.264  0.2593 -0.1714  0.0233
 2117SOL    HW117987   1.049   0.826   8.347  3.5194  0.8701  1.5462
 2117SOL    HW217988   1.182   0.808   8.302  0.5293  0.1309 -0.6068
 2118SOL     OW17989   1.312   3.830   5.734  0.2816 -0.3744  0.0119
 2118SOL    HW117990   1.292   3.914   5.775  3.8798  1.1469 -1.3067
 2118SOL    HW217991   1.256   3.766   5.779 -1.1679  1.6017  0.9964
 2119SOL     OW17992   2.630   2.734  16.360  0.3511  0.4245  0.5829
 2119SOL    HW117993   2.623   2.814  16.310  2.3317  0.0750 -0.2570
 2119SOL    HW217994   2.699   2.686  16.314 -0.2468 -0.8515  0.9986
 2120SOL     OW17995   4.165   2.492   6.429 -0.6528  0.0698  0.0712
 2120SOL    HW117996   4.146   2.399   6.421 -1.5086  0.2873 -0.3735
 2120SOL    HW217997   4.260   2.483   6.422 -0.8632 -2.4049  0.4551
 2121SOL     OW17998   3.046   4.252   3.388 -0.4898  0.0962 -0.1565
 2121SOL    HW117999   2.975   4.195   3.421  1.7654 -1.9366  1.1988
 2121SOL    HW218000   3.099   4.278   3.464  1.0746 -0.0372 -1.2103
 2122SOL     OW18001   4.419   1.786   3.528 -0.6069 -0.2612 -0.0926
 2122SOL    HW118002   4.435   1.776   3.435  0.4450 -0.5226  0.1181
 2122SOL    HW218003   4.323   1.785   3.524 -0.5819 -2.0361  0.0798
 2123SOL     OW18004   2.003   0.441   6.293 -0.4972  0.4600  0.5566
 2123SOL    HW118005   2.031   0.531   6.277 -0.3807  0.5896  1.4849
 2123SOL    HW218006   1.952   0.412   6.217  0.6500  2.1203 -0.8546
 2124SOL     OW18007   4.211   0.188   3.105  0.1410 -0.6922  0.3095
 2124SOL    HW118008   4.179   0.102   3.132 -0.2390 -0.9841 -1.0732
 2124SOL    HW218009   4.287   0.208   3.159 -0.2741 -0.8040  0.9253
 2125SOL     OW18010   4.604   0.440   7.521 -0.2715  0.5144 -0.3351
 2125SOL    HW118011   4.569   0.529   7.512 -4.6542 -1.3646 -1.6888
 2125SOL    HW218012   4.692   0.466   7.550  1.2376 -3.9500 -0.9890
 2126SOL     OW18013   3.031   0.074   8.701 -0.1015 -0.0782  0.0677
 2126SOL    HW118014   3.033   4.715   8.727  1.7528  1.0609  4.0109
 2126SOL    HW218015   3.100   0.078   8.635 -0.8653 -1.1180 -0.7996
 2127SOL     OW18016   0.587   3.482   9.601  0.1195 -0.5034  0.2517
 2127SOL    HW118017   0.595   3.448   9.690 -1.2523 -1.2074  0.1005
 2127SOL    HW218018   0.543   3.408   9.560 -0.4369  0.7312 -1.3609
 2128SOL     OW18019   0.261   2.412   6.281 -0.1669  0.0566 -0.3022
 2128SOL    HW118020   0.232   2.449   6.364 -1.6973 -2.0102  0.0609
 2128SOL    HW218021   0.318   2.344   6.315  0.7246  1.1629  0.4224
 2129SOL     OW18022   0.513   0.477   6.878  0.2117 -0.1392 -0.1396
 2129SOL    HW118023   0.562   0.455   6.957  0.6760 -4.0157 -1.4752
 2129SOL    HW218024   0.430   0.467   6.924  0.1391  0.0675 -0.2252
 2130SOL     OW18025   2.337   2.429   9.543 -0.1329  0.1750  0.5102
 2130SOL    HW118026   2.370   2.498   9.599  0.3324  0.0550  0.3800
 2130SOL    HW218027   2.268   2.386   9.594  2.5223 -0.6024  3.4610
 2131SOL     OW18028   2.338   1.763   5.528  0.1704 -0.6641 -0.3552
 2131SOL    HW118029   2.274   1.823   5.491  0.5979  0.3208  0.4722
 2131SOL    HW218030   2.386   1.822   5.587 -1.8624 -1.6258  2.2484
 2132SOL     OW18031   3.638   3.854   7.645  0.0113 -0.3674  0.2779
 2132SOL    HW118032   3.546   3.836   7.629 -0.3614  1.5833  0.3514
 2132SOL    HW218033   3.639   3.859   7.740 -2.1597 -2.1710  0.3941
 2133SOL     OW18034   1.719   1.261   1.966  0.0101 -0.0123  0.0485
 2133SOL    HW118035   1.700   1.168   1.953 -0.3233  0.3644 -2.1578
 2133SOL    HW218036   1.629   1.294   1.979  0.3588  1.5294 -1.4774
 2134SOL     OW18037   2.434   4.016  12.172 -0.0471  0.5150 -0.3464
 2134SOL    HW118038   2.450   3.953  12.103  0.6995 -1.4288  1.6062
 2134SOL    HW218039   2.522   4.035  12.203  0.3222 -1.3643 -0.2928
 2135SOL     OW18040   4.189   1.872  13.197  0.4344  0.7913  0.2853
 2135SOL    HW118041   4.261   1.929  13.221 -0.5845  1.6794  1.2349
 2135SOL    HW218042   4.125   1.915  13.254  0.6606 -0.3258  1.3914
 2136SOL     OW18043   3.407   1.854  14.892  0.2388  0.5882 -0.1080
 2136SOL    HW118044   3.493   1.869  14.854 -0.6184  0.7794 -2.0274
 2136SOL    HW218045   3.427   1.785  14.954 -0.3921  0.4812 -0.0199
 2137SOL     OW18046   3.130   4.361   0.267 -0.6790  0.0265  0.3434
 2137SOL    HW118047   3.104   4.439   0.217 -2.8579 -0.0833  1.3058
 2137SOL    HW218048   3.137   4.298   0.196  1.0902  1.6838 -0.9471
 2138SOL     OW18049   3.741   1.310  11.875  0.9849 -0.1374  0.6634
 2138SOL    HW118050   3.752   1.269  11.961 -2.6201 -2.3692  0.0769
 2138SOL    HW218051   3.831   1.322  11.846  1.6606 -1.9335  2.0249
 2139SOL     OW18052   0.654   0.393   6.039 -0.1679 -0.0569 -0.2499
 2139SOL    HW118053   0.643   0.307   5.998 -1.0893 -0.9840  1.9154
 2139SOL    HW218054   0.640   0.447   5.961 -0.1348 -0.3538 -0.4611
 2140SOL     OW18055   2.444   0.334   6.166 -0.0066 -0.3080  0.0508
 2140SOL    HW118056   2.512   0.360   6.229  0.9190 -2.0238 -0.2347
 2140SOL    HW218057   2.382   0.299   6.230 -0.0033 -0.1664  0.1307
 2141SOL     OW18058   3.329   3.302   8.651  0.2144  0.8525 -0.3275
 2141SOL    HW118059   3.335   3.384   8.701 -0.6250  0.9635 -0.4080
 2141SOL    HW218060   3.352   3.330   8.562 -0.6312 -0.8740 -1.0745
 2142SOL     OW18061   4.442   3.255   2.288  0.3918 -0.4265 -0.3140
 2142SOL    HW118062   4.348   3.268   2.276  0.3157 -2.0443 -1.5349
 2142SOL    HW218063   4.452   3.168   2.250  1.6345 -0.9887  1.3068
 2143SOL     OW18064   3.400   0.238  11.482 -0.0227  0.0758 -0.3621
 2143SOL    HW118065   3.413   0.236  11.388  1.1337 -1.2147 -0.1764
 2143SOL    HW218066   3.365   0.149  11.495  0.8992 -0.5475 -2.2172
 2144SOL     OW18067   3.024   1.079   0.962  0.2121 -1.2444 -0.4558
 2144SOL    HW118068   2.939   1.103   0.999  1.1504 -2.0605  2.2529
 2144SOL    HW218069   2.997   1.031   0.883 -1.4803 -0.5777 -0.2822
 2145SOL     OW18070   4.617   4.568   6.752  0.2696  0.0904 -0.5818
 2145SOL    HW118071   4.568   4.497   6.711  0.2693  0.0147 -0.4525
 2145SOL    HW218072   4.647   4.623   6.680  0.4313 -1.2315 -1.5282
 2146SOL     OW18073   2.152   0.605   4.935  0.4440  0.2529  0.3826
 2146SOL    HW118074   2.139   0.658   4.856  1.8077  0.9824  0.6503
 2146SOL    HW218075   2.227   0.552   4.908 -0.6210 -1.3239  0.5348
 2147SOL     OW18076   2.379   1.870   9.246  0.4085  0.5818 -0.9180
 2147SOL    HW118077   2.440   1.941   9.265 -0.0878  0.4955  1.0022
 2147SOL    HW218078   2.373   1.820   9.328 -0.5689  2.3289  0.0762
 2148SOL     OW18079   3.862   3.003   2.889  0.6600 -0.1877 -0.1148
 2148SOL    HW118080   3.939   3.047   2.854  0.0327  0.6445 -0.4528
 2148SOL    HW218081   3.811   3.084   2.891  1.2581  0.2076 -1.3137
 2149SOL     OW18082   3.262   3.531  16.777  0.3108 -0.6759 -0.3800
 2149SOL    HW118083   3.305   3.475  16.711  1.5480  0.2763 -0.3806
 2149SOL    HW218084   3.320   3.505  16.849 -0.2180  2.1242  1.0136
 2150SOL     OW18085   1.252   3.937   2.281 -0.4320 -0.0881 -0.9024
 2150SOL    HW118086   1.342   3.948   2.250 -0.1498  0.3391  0.0617
 2150SOL    HW218087   1.228   4.024   2.313  0.4560 -0.9021  1.9638
 2151SOL     OW18088   2.870   1.633   2.486 -0.1239 -0.4695 -0.1005
 2151SOL    HW118089   2.779   1.652   2.508  0.0454  0.7748 -0.4577
 2151SOL    HW218090   2.893   1.577   2.560 -1.4703 -1.6235 -0.5498
 2152SOL     OW18091   2.315   4.191  17.546 -0.1733  0.3617  0.7693
 2152SOL    HW118092   2.256   4.189  17.470  0.0661  0.0610  0.5908
 2152SOL    HW218093   2.294   4.101  17.574 -0.8666 -0.2635 -1.7411
 2153SOL     OW18094   1.232   0.301  12.478 -0.1488  0.8277  0.6358
 2153SOL    HW118095   1.165   0.358  12.442 -0.5788 -0.6043 -0.8125
 2153SOL    HW218096   1.314   0.325  12.434  0.6134 -1.9179  0.5246
 2154SOL     OW18097   2.206   4.222   2.960 -0.5640 -0.1531 -0.2822
 2154SOL    HW118098   2.275   4.211   3.025  0.5993 -1.8602 -1.7998
 2154SOL    HW218099   2.133   4.229   3.021 -0.7401  1.4829 -0.6655
 2155SOL     OW18100   2.274   4.471  17.221 -0.0835  0.2168 -0.0521
 2155SOL    HW118101   2.206   4.414  17.258  0.1768  0.0681  0.1903
 2155SOL    HW218102   2.341   4.478  17.288 -0.0207  4.3629 -0.5463
 2156SOL     OW18103   4.330   1.785  12.258  0.3333 -0.0110  0.2402
 2156SOL    HW118104   4.322   1.704  12.309  0.4917  0.1162  0.4653
 2156SOL    HW218105   4.419   1.783  12.222 -0.4989  1.0480 -1.8820
 2157SOL     OW18106   0.798   3.686   9.070  0.5665  0.1542 -0.1162
 2157SOL    HW118107   0.839   3.600   9.062  2.0237  0.9137 -0.6763
 2157SOL    HW218108   0.879   3.736   9.072  0.0118  0.9966  1.4052
 2158SOL     OW18109   2.813   3.051   5.854  0.3799 -0.2640  0.3362
 2158SOL    HW118110   2.745   2.998   5.896  0.0948 -1.4288 -1.6288
 2158SOL    HW218111   2.755   3.113   5.809 -1.2510 -1.1949  1.1522
 2159SOL     OW18112   2.084   3.089   4.917 -0.3656 -0.5607 -0.2986
 2159SOL    HW118113   2.106   3.124   4.831  0.0002 -1.8780 -0.7405
 2159SOL    HW218114   2.137   3.150   4.969 -0.6878  0.8889 -1.6780
 2160SOL     OW18115   4.246   2.051   8.515 -0.0458  0.2045  0.2351
 2160SOL    HW118116   4.201   2.131   8.489 -0.3381 -0.4866 -1.3902
 2160SOL    HW218117   4.190   2.029   8.589 -0.1098  1.1888  0.4805
 2161SOL     OW18118   4.577   0.051   1.874 -0.0032 -0.0072  0.1648
 2161SOL    HW118119   4.526   0.125   1.905 -0.0571  0.3555 -0.7994
 2161SOL    HW218120   4.657   0.059   1.926  0.0446  1.2899 -0.1195
 2162SOL     OW18121   1.611   1.091   5.059  0.3527 -0.1491 -0.0343
 2162SOL    HW118122   1.586   1.037   4.983  2.0851 -0.2254 -0.5463
 2162SOL    HW218123   1.668   1.154   5.016  1.5931 -0.4333  1.1899
 2163SOL     OW18124   3.406   0.032   3.334  0.2258 -0.6781 -0.0394
 2163SOL    HW118125   3.351   0.030   3.412  1.5627 -0.2055  0.9272
 2163SOL    HW218126   3.340   0.030   3.265  0.2803  1.2344 -0.1485
 2164SOL     OW18127   2.762   0.931   6.316  0.6518  0.2349 -0.3945
 2164SOL    HW118128   2.785   0.890   6.232  0.3056 -0.3896 -0.1812
 2164SOL    HW218129   2.781   0.866   6.384  1.0885 -0.5197 -1.2318
 2165SOL     OW18130   3.949   4.374   9.501  0.1176  0.0350  0.4055
 2165SOL    HW118131   3.980   4.430   9.430 -1.3920  2.1405  1.3784
 2165SOL    HW218132   3.855   4.380   9.483  0.1249  0.0158  0.3625
 2166SOL     OW18133   0.213   0.347   1.910 -0.6844  0.6260 -0.6860
 2166SOL    HW118134   0.164   0.422   1.943 -0.0316 -0.0150  1.7225
 2166SOL    HW218135   0.303   0.376   1.929 -0.9148 -0.5482  2.1371
 2167SOL     OW18136   1.752   4.069   5.406  0.6848 -0.0890 -0.7109
 2167SOL    HW118137   1.745   3.991   5.461  0.2851  0.3062 -0.2027
 2167SOL    HW218138   1.782   4.040   5.319  0.5428  1.6237 -1.3430
 2168SOL     OW18139   0.468   1.472   3.946 -0.4554  0.0459  0.3281
 2168SOL    HW118140   0.557   1.438   3.955  0.4727  1.7609 -2.3435
 2168SOL    HW218141   0.432   1.427   3.870 -0.2391  1.7970 -0.8218
 2169SOL     OW18142   0.321   2.004   1.807 -0.2650  0.6597 -0.2809
 2169SOL    HW118143   0.377   2.081   1.801  2.0877 -1.0560  0.0662
 2169SOL    HW218144   0.293   2.002   1.898 -2.5830  1.0647 -0.9683
 2170SOL     OW18145   0.974   1.291   5.882 -0.1172  0.7828 -0.0256
 2170SOL    HW118146   0.884   1.269   5.857  0.1607  0.3473 -0.6665
 2170SOL    HW218147   0.977   1.229   5.955 -0.4886  0.0168 -0.6559
 2171SOL     OW18148   4.024   0.464   5.414 -0.1233 -0.2059 -0.1446
 2171SOL    HW118149   4.001   0.496   5.326  0.7772 -1.1580 -0.7384
 2171SOL    HW218150   4.082   0.390   5.398 -1.5626 -1.4969  0.6423
 2172SOL     OW18151   0.839   0.624   6.310  0.2345  0.5960  0.2558
 2172SOL    HW118152   0.826   0.712   6.346 -0.4437  0.9460 -0.8209
 2172SOL    HW218153   0.929   0.633   6.278  0.7226 -0.8470  1.2573
 2173SOL     OW18154   4.085   1.907   6.021 -0.6619  0.4478 -0.3912
 2173SOL    HW118155   4.066   1.999   6.003 -3.7442  0.2959  2.1145
 2173SOL    HW218156   4.042   1.877   5.941 -0.0389 -0.1880 -0.4854
 2174SOL     OW18157   0.673   0.825  14.909 -0.5726  0.1277  0.1304
 2174SOL    HW118158   0.637   0.795  14.825 -0.8940 -1.2725  0.7706
 2174SOL    HW218159   0.720   0.905  14.883  0.7513 -0.5844  0.3760
 2175SOL     OW18160   1.872   0.584   9.962  0.2036  0.3114  0.4198
 2175SOL    HW118161   1.920   0.602   9.881 -0.7893  0.8125 -0.0514
 2175SOL    HW218162   1.780   0.593   9.937 -0.5101 -2.3506  2.0625
 2176SOL     OW18163   4.337   0.277   2.510  0.5649 -0.5845  0.4165
 2176SOL    HW118164   4.363   0.229   2.589  1.4267  0.8304  0.9832
 2176SOL    HW218165   4.276   0.211   2.478  0.8255 -0.3189 -0.6104
 2177SOL     OW18166   4.153   3.995  15.415 -0.1621 -0.0364  0.5584
 2177SOL    HW118167   4.087   3.953  15.360 -1.0509  0.6134  1.1304
 2177SOL    HW218168   4.222   3.931  15.430 -0.7454 -0.6250  0.7246
 2178SOL     OW18169   1.061   0.171  17.607  0.7674  0.0946 -0.2930
 2178SOL    HW118170   0.965   0.172  17.608  0.7631 -1.8749  2.7718
 2178SOL    HW218171   1.073   0.076  17.619 -1.4341  0.0527  1.5464
 2179SOL     OW18172   1.373   1.600   6.400 -0.0543  0.2316  0.4142
 2179SOL    HW118173   1.364   1.595   6.496  0.9911  4.4363  0.7429
 2179SOL    HW218174   1.338   1.515   6.373 -1.0614  0.3166  1.4193
 2180SOL     OW18175   2.117   1.324   6.958  0.3104 -0.2336  0.6174
 2180SOL    HW118176   2.042   1.373   6.924 -0.5550 -0.8654  1.6178
 2180SOL    HW218177   2.154   1.396   7.010  0.1574  0.3591 -0.0860
 2181SOL     OW18178   1.343   0.071   8.687 -0.3660 -0.1460 -0.5749
 2181SOL    HW118179   1.338   4.718   8.729 -2.3781  0.9111  1.3715
 2181SOL    HW218180   1.309   0.115   8.765 -0.9374 -0.4323 -0.6595
 2182SOL     OW18181   0.318   1.393  10.894  0.2242 -0.1256 -1.0712
 2182SOL    HW118182   0.383   1.334  10.934  0.5209 -0.3955 -1.9613
 2182SOL    HW218183   0.253   1.402  10.964 -0.6866  0.0277 -1.9506
 2183SOL     OW18184   4.185   1.084   4.159 -0.2945  0.1305  0.5130
 2183SOL    HW118185   4.118   1.019   4.180  2.0323 -1.9272  1.5225
 2183SOL    HW218186   4.219   1.116   4.243  0.4239 -0.8029  0.5721
 2184SOL     OW18187   2.730   2.254   8.000 -0.3911  0.6166  0.5211
 2184SOL    HW118188   2.698   2.329   7.950 -1.1880  0.5631  0.9468
 2184SOL    HW218189   2.643   2.225   8.026  0.1397 -0.0136  1.6128
 2185SOL     OW18190   2.099   4.726   6.960  0.1834 -0.3549  0.0075
 2185SOL    HW118191   2.139   4.645   6.992 -1.2633 -1.0123  0.1196
 2185SOL    HW218192   2.048   4.680   6.894 -0.3314 -0.1216  0.2458
 2186SOL     OW18193   4.326   2.789   3.383  0.2460 -0.3756 -0.1525
 2186SOL    HW118194   4.238   2.802   3.419 -0.1736 -2.1480 -0.5342
 2186SOL    HW218195   4.357   2.823   3.467 -0.2662 -2.0505  0.7182
 2187SOL     OW18196   4.607   3.408   5.405 -0.1820 -0.4066 -0.0868
 2187SOL    HW118197   4.701   3.423   5.400 -0.3643  1.2319  1.4477
 2187SOL    HW218198   4.577   3.488   5.448  0.4776 -0.4168  0.3994
 2188SOL     OW18199   4.535   4.238   8.436 -0.9205  0.2434 -0.1812
 2188SOL    HW118200   4.587   4.289   8.374 -2.5008  0.5674 -1.2421
 2188SOL    HW218201   4.455   4.288   8.451 -0.5546  0.6210  0.5351
 2189SOL     OW18202   2.061   2.636   6.688  0.2330 -0.2248  0.3321
 2189SOL    HW118203   2.029   2.637   6.598 -0.8668 -0.8421  0.7229
 2189SOL    HW218204   2.102   2.723   6.690  1.1225 -0.6497  0.6128
 2190SOL     OW18205   2.455   4.133   3.534  0.3178  0.1655 -0.2356
 2190SOL    HW118206   2.425   4.223   3.547  0.8572  0.6975 -2.5980
 2190SOL    HW218207   2.406   4.088   3.602 -0.0889  2.0505  0.7240
 2191SOL     OW18208   0.998   3.128   5.075 -0.5932 -0.2077 -0.0279
 2191SOL    HW118209   0.942   3.166   5.007  0.2305 -0.6356 -0.9470
 2191SOL    HW218210   1.025   3.210   5.114  0.4219 -0.7861  0.4709
 2192SOL     OW18211   0.959   1.601   6.587 -0.2140 -0.1955  0.3295
 2192SOL    HW118212   0.925   1.536   6.525  0.6918  0.5969 -0.9880
 2192SOL    HW218213   0.956   1.682   6.537  2.9182 -1.5091 -1.9830
 2193SOL     OW18214   1.442   1.170  17.624  0.7113  0.1084  0.1861
 2193SOL    HW118215   1.468   1.187  17.715 -0.7362 -0.1674  0.6390
 2193SOL    HW218216   1.508   1.110  17.590 -1.3308 -1.8185 -0.3259
 2194SOL     OW18217   0.082   0.661   9.789 -0.1041  0.4517  0.0640
 2194SOL    HW118218   0.107   0.753   9.783 -0.4605  0.6507  1.7909
 2194SOL    HW218219   4.733   0.668   9.836 -1.8118 -1.9586 -2.5338
 2195SOL     OW18220   1.130   2.125  16.084  0.0912  0.0342  0.0098
 2195SOL    HW118221   1.097   2.128  16.174 -0.0257  1.6460 -0.0797
 2195SOL    HW218222   1.068   2.184  16.041  0.8150 -0.3650 -1.5594
 2196SOL     OW18223   1.948   3.956   6.114  0.0007  0.1396  0.2772
 2196SOL    HW118224   1.956   4.035   6.059  2.9372 -1.0217 -0.9913
 2196SOL    HW218225   1.866   3.913   6.092  0.2708 -0.5273  0.5614
 2197SOL     OW18226   1.219   2.991  12.442 -0.0644 -0.5104 -0.0913
 2197SOL    HW118227   1.151   2.942  12.395  0.7322 -2.8409  1.1959
 2197SOL    HW218228   1.278   3.006  12.369  1.7241 -1.7920  1.0873
 2198SOL     OW18229   1.904   4.659  10.582 -0.1348 -0.7964  0.3448
 2198SOL    HW118230   1.908   4.686  10.491 -0.8153 -1.0220  0.2473
 2198SOL    HW218231   1.983   4.703  10.614  0.7361 -0.7495 -1.9044
 2199SOL     OW18232   1.360   4.702   4.169 -0.2911  0.2473 -0.0037
 2199SOL    HW118233   1.419   4.675   4.240 -0.5002  0.0718  0.1025
 2199SOL    HW218234   1.415   4.671   4.096 -1.5739 -0.0017 -0.8664
 2200SOL     OW18235   1.270   0.719  12.333  0.1126  0.1501  0.0990
 2200SOL    HW118236   1.282   0.627  12.358 -1.0808 -0.5451 -1.8886
 2200SOL    HW218237   1.317   0.757  12.407  0.1023 -1.1602  0.7872
 2201SOL     OW18238   4.688   1.083  11.015  0.3861 -0.1647  0.8593
 2201SOL    HW118239   4.660   1.031  10.940 -0.9807 -0.8688  1.8602
 2201SOL    HW218240   0.041   1.046  11.033 -0.0813 -0.9437  1.5184
 2202SOL     OW18241   3.439   0.001   9.510  0.3977  0.0278 -0.6471
 2202SOL    HW118242   3.480   4.660   9.466 -0.7144 -0.0458 -1.5630
 2202SOL    HW218243   3.380   4.685   9.566  1.5833 -1.0356 -0.3548
 2203SOL     OW18244   2.481   2.531  16.499  0.0238 -0.0920 -0.6115
 2203SOL    HW118245   2.546   2.589  16.459 -0.2818 -1.1787 -2.6866
 2203SOL    HW218246   2.465   2.488  16.415 -0.1804  1.4590 -1.3733
 2204SOL     OW18247   1.559   4.681  11.748 -0.1480  0.2186 -0.1635
 2204SOL    HW118248   1.654   4.680  11.753 -0.1362 -0.9163 -0.5609
 2204SOL    HW218249   1.545   0.042  11.748  0.5604  0.3226 -1.7796
 2205SOL     OW18250   3.958   4.295  14.180 -0.0038 -0.2788 -0.4944
 2205SOL    HW118251   3.918   4.368  14.228  1.7877  1.2071 -1.2510
 2205SOL    HW218252   3.911   4.322  14.100 -2.8220  0.3589  1.3673
 2206SOL     OW18253   1.118   2.113   7.306  0.4651  0.4832  0.3163
 2206SOL    HW118254   1.175   2.090   7.233 -1.8662  0.5393 -1.5228
 2206SOL    HW218255   1.181   2.131   7.376 -0.3939  1.4776  0.8502
 2207SOL     OW18256   2.125   3.964   0.492 -0.1827 -0.4130 -0.5415
 2207SOL    HW118257   2.100   3.876   0.463  1.3332 -1.5386  1.5165
 2207SOL    HW218258   2.145   3.999   0.406 -1.7594 -0.8381 -1.0851
 2208SOL     OW18259   1.818   2.833  11.185  0.1588  0.0756  0.0712
 2208SOL    HW118260   1.846   2.923  11.168 -1.1397  0.7930  1.7001
 2208SOL    HW218261   1.788   2.848  11.274  1.6263  2.5019  0.1581
 2209SOL     OW18262   2.203   2.924   8.673 -0.3004  0.5457 -0.1362
 2209SOL    HW118263   2.122   2.903   8.627  0.6075 -0.4239 -1.2612
 2209SOL    HW218264   2.245   2.838   8.668  1.8769  1.4788  1.7064
 2210SOL     OW18265   4.428   1.124   5.991  0.4861 -0.0129  0.0393
 2210SOL    HW118266   4.428   1.219   6.002  3.3236  0.1540 -1.3724
 2210SOL    HW218267   4.337   1.102   6.010  0.7567  0.0447  1.4090
 2211SOL     OW18268   4.713   2.544   5.053  0.0336 -0.1409 -0.2047
 2211SOL    HW118269   0.036   2.601   5.103 -0.3601 -1.7966  2.1040
 2211SOL    HW218270   0.044   2.514   4.989  0.7831 -0.0816  0.5389
 2212SOL     OW18271   2.681   2.937   3.465  0.2825 -0.0626 -0.7878
 2212SOL    HW118272   2.703   2.937   3.371  1.4652 -0.3629 -0.5078
 2212SOL    HW218273   2.587   2.952   3.461  0.4276  1.4731  1.5366
 2213SOL     OW18274   3.341   1.897  16.728 -0.1400 -0.6667  0.3405
 2213SOL    HW118275   3.366   1.907  16.636 -1.4772  0.2257  0.0798
 2213SOL    HW218276   3.251   1.928  16.719  0.0602 -0.1205  0.2592
 2214SOL     OW18277   1.356   0.553   4.561  0.6709  0.5317 -0.1137
 2214SOL    HW118278   1.281   0.604   4.532 -1.1874 -1.9580  0.2504
 2214SOL    HW218279   1.313   0.468   4.573  0.3756  0.8167  0.9069
 2215SOL     OW18280   0.615   4.155   8.871 -0.6965 -0.5375  0.0869
 2215SOL    HW118281   0.626   4.111   8.955 -3.7760  2.5756  2.1745
 2215SOL    HW218282   0.703   4.186   8.854  0.0197 -4.0527 -2.4664
 2216SOL     OW18283   4.166   4.633   2.781  0.5417 -0.1312 -0.0744
 2216SOL    HW118284   4.097   4.572   2.808  2.1833 -1.4397  1.1204
 2216SOL    HW218285   4.233   4.569   2.758 -0.5061 -1.3848  0.3262
 2217SOL     OW18286   0.717   0.086   7.329  0.3899 -0.5161  0.0157
 2217SOL    HW118287   0.765   0.103   7.248  1.3879  0.8249  0.9098
 2217SOL    HW218288   0.706   0.174   7.364  2.5034 -0.6263  0.9431
 2218SOL     OW18289   3.183   3.901   5.476 -0.3477 -0.5541 -0.2790
 2218SOL    HW118290   3.177   3.867   5.387  0.1087 -0.5394 -0.3151
 2218SOL    HW218291   3.224   3.985   5.453  0.0035 -0.4697  0.6365
 2219SOL     OW18292   0.651   0.155  14.569 -0.5498 -0.2209  0.1521
 2219SOL    HW118293   0.700   0.181  14.491  1.0403 -0.2698  1.1191
 2219SOL    HW218294   0.727   0.141  14.626 -0.4384  1.5743  0.4323
 2220SOL     OW18295   4.415   3.472   1.285  0.0733 -0.1564 -0.2341
 2220SOL    HW118296   4.501   3.512   1.292 -0.2791  0.3912  0.8690
 2220SOL    HW218297   4.371   3.544   1.329 -2.0927 -3.0203  2.3015
 2221SOL     OW18298   4.125   3.555   3.529  0.0579 -0.4928  0.0842
 2221SOL    HW118299   4.219   3.553   3.549 -0.1669 -1.8012  1.0416
 2221SOL    HW218300   4.096   3.626   3.587  0.5623  0.1962 -0.5078
 2222SOL     OW18301   2.430   4.506  14.865 -0.3849 -0.7158 -0.9062
 2222SOL    HW118302   2.501   4.559  14.901 -0.3343 -0.8961 -0.7443
 2222SOL    HW218303   2.485   4.431  14.842  1.7501  1.1640 -1.9507
 2223SOL     OW18304   0.458   3.975   6.074  1.2113  0.0155  0.0099
 2223SOL    HW118305   0.499   3.921   6.141 -0.0252  0.9642  1.5360
 2223SOL    HW218306   0.416   3.917   6.011 -1.9310  2.0097  0.2622
 2224SOL     OW18307   0.118   3.451   3.282  0.0555 -0.2534  0.8541
 2224SOL    HW118308   0.198   3.503   3.289 -1.9767  3.1325 -1.3450
 2224SOL    HW218309   0.085   3.433   3.370  0.6783 -0.6188  1.0209
 2225SOL     OW18310   2.441   1.760   3.873  0.3108  0.0281  0.0631
 2225SOL    HW118311   2.424   1.848   3.841  1.3607 -0.6083 -2.2981
 2225SOL    HW218312   2.362   1.745   3.923  1.0318 -2.4142  0.4702
 2226SOL     OW18313   1.183   2.925   6.327 -0.6449  0.4700  0.0716
 2226SOL    HW118314   1.173   2.936   6.232  2.6880  1.1550 -0.2034
 2226SOL    HW218315   1.272   2.959   6.335  0.8405 -3.7225  1.3579
 2227SOL     OW18316   3.148   2.084   6.576 -0.7183 -0.2407  0.4979
 2227SOL    HW118317   3.215   2.041   6.629 -1.2063 -2.7904 -0.9634
 2227SOL    HW218318   3.170   2.061   6.486 -0.7661 -1.2938  0.7504
 2228SOL     OW18319   2.448   4.678  13.235  0.3293  0.3590  0.1240
 2228SOL    HW118320   2.515   4.632  13.184  0.4609 -1.4445  1.9449
 2228SOL    HW218321   2.415   4.610  13.294  0.7788 -0.1078 -0.1708
 2229SOL     OW18322   0.521   2.064   0.245  0.0463  0.2411  0.1187
 2229SOL    HW118323   0.457   2.130   0.273  1.7377  2.1500 -0.4859
 2229SOL    HW218324   0.535   2.086   0.153  2.3793 -0.6843  0.2353
 2230SOL     OW18325   1.184   2.243   6.392  0.3215  0.1340  0.2499
 2230SOL    HW118326   1.122   2.293   6.444 -1.0477 -2.0117  0.6568
 2230SOL    HW218327   1.144   2.239   6.305  0.4191 -0.0206  0.2121
 2231SOL     OW18328   0.042   1.406   8.545 -0.2510  0.9925  0.3567
 2231SOL    HW118329   0.126   1.364   8.563  0.1002 -0.5336 -4.9585
 2231SOL    HW218330   0.005   1.343   8.484  4.3947 -2.5954  1.2297
 2232SOL     OW18331   3.011   4.578   6.916  0.0607  0.2500  0.1167
 2232SOL    HW118332   3.065   4.636   6.970 -1.1248  0.1390  1.4295
 2232SOL    HW218333   3.053   4.574   6.830  0.6766  0.2517  0.4211
 2233SOL     OW18334   1.308   0.079   8.299 -0.0591 -0.4913  0.3229
 2233SOL    HW118335   1.246   0.014   8.268  0.0877 -0.6364  0.3334
 2233SOL    HW218336   1.249   0.154   8.306  1.0292  0.6713 -2.6940
 2234SOL     OW18337   0.328   2.810   3.972  0.5394 -0.6885  0.1520
 2234SOL    HW118338   0.401   2.807   3.910  0.0288  1.6796 -0.5859
 2234SOL    HW218339   0.337   2.904   3.992 -1.2736 -0.3383 -0.7064
 2235SOL     OW18340   0.609   4.651  11.533 -0.1647 -0.4627 -0.9838
 2235SOL    HW118341   0.676   4.712  11.501 -0.2752 -0.4049 -1.1022
 2235SOL    HW218342   0.613   4.581  11.468 -4.2531 -0.4077 -1.2802
 2236SOL     OW18343   2.989   4.006   8.994  0.5083  0.1234  0.2711
 2236SOL    HW118344   2.915   4.067   8.992 -0.0019 -0.5632 -2.1344
 2236SOL    HW218345   2.953   3.925   9.031  1.2954  0.1353  1.0531
 2237SOL     OW18346   3.581   3.659  17.183 -0.4405  0.0050 -0.2979
 2237SOL    HW118347   3.597   3.569  17.157 -2.1218 -0.0666 -1.1040
 2237SOL    HW218348   3.513   3.686  17.122 -0.0885  1.2636 -0.1403
 2238SOL     OW18349   1.919   0.872   3.956  0.5359 -0.5806  0.2326
 2238SOL    HW118350   2.012   0.877   3.936  0.6839  1.0722  1.3713
 2238SOL    HW218351   1.886   0.912   3.875 -1.1919  0.9582  1.7032
 2239SOL     OW18352   3.431   3.313  15.088  0.0517  0.0697 -0.6160
 2239SOL    HW118353   3.458   3.289  14.999  0.8592 -0.8927 -0.1094
 2239SOL    HW218354   3.500   3.287  15.148 -1.0195 -1.1102  0.0833
 2240SOL     OW18355   4.554   1.014   5.777 -0.2996  0.2974 -0.3791
 2240SOL    HW118356   4.571   1.104   5.749  2.1063  0.2062  0.7301
 2240SOL    HW218357   4.490   1.025   5.847 -0.8967 -1.2991 -0.6733
 2241SOL     OW18358   1.730   2.172  17.626 -0.4285 -0.2119  0.2489
 2241SOL    HW118359   1.726   2.145  17.534 -1.6364  0.0112  0.2354
 2241SOL    HW218360   1.637   2.179  17.648 -0.1464  0.5967  1.2091
 2242SOL     OW18361   3.801   0.229   6.244  0.0397  0.0805  0.3286
 2242SOL    HW118362   3.783   0.250   6.153 -1.1822  2.5186  1.1299
 2242SOL    HW218363   3.883   0.274   6.267  0.4094 -0.6469  0.4446
 2243SOL     OW18364   1.840   1.639  13.543  0.0320 -0.5474 -0.0055
 2243SOL    HW118365   1.859   1.733  13.535 -0.1886 -0.7032 -2.3373
 2243SOL    HW218366   1.795   1.620  13.460  0.3079 -3.2033  0.4518
 2244SOL     OW18367   3.397   1.723   8.476  0.1650  0.0272  0.0324
 2244SOL    HW118368   3.314   1.681   8.499  1.1544 -2.0482 -0.1163
 2244SOL    HW218369   3.442   1.657   8.423 -0.5500 -0.1390 -0.3661
 2245SOL     OW18370   3.432   2.334   7.114  0.7635 -0.1285  0.2216
 2245SOL    HW118371   3.436   2.427   7.137 -0.5255 -0.1068  0.3585
 2245SOL    HW218372   3.336   2.331   7.120  0.7253 -1.6060 -0.9851
 2246SOL     OW18373   0.922   2.693  11.742  0.3718 -0.0621 -0.8276
 2246SOL    HW118374   0.843   2.675  11.794  2.4287 -3.4682  1.1054
 2246SOL    HW218375   0.890   2.672  11.654 -0.3286 -2.5179 -0.0037
 2247SOL     OW18376   3.546   4.553   9.316 -0.3057 -0.2461  0.4244
 2247SOL    HW118377   3.596   4.479   9.353 -1.0372 -1.2739 -0.6560
 2247SOL    HW218378   3.596   4.569   9.237  1.7267  0.1360  1.7816
 2248SOL     OW18379   0.220   4.575   3.753 -0.4020 -1.0281  0.3154
 2248SOL    HW118380   0.240   4.503   3.693  3.1458  0.7785 -0.7034
 2248SOL    HW218381   0.307   4.587   3.790  0.1399 -0.5867 -1.0664
 2249SOL     OW18382   3.447   3.856   5.089 -1.1003  0.1236 -0.6245
 2249SOL    HW118383   3.473   3.777   5.041  0.5587  0.0480  0.4071
 2249SOL    HW218384   3.528   3.904   5.106 -1.0844 -0.3792  0.7729
 2250SOL     OW18385   4.169   2.457   0.818  0.0219 -0.1190 -0.1735
 2250SOL    HW118386   4.192   2.376   0.771 -0.0781 -1.7179  2.5271
 2250SOL    HW218387   4.224   2.458   0.896 -0.3739  0.3004  0.0956
 2251SOL     OW18388   1.440   4.127  17.517 -0.1286  0.5522 -0.1937
 2251SOL    HW118389   1.446   4.165  17.430  1.6794  0.7632  0.0241
 2251SOL    HW218390   1.358   4.077  17.511 -0.5776  1.3140 -0.3635
 2252SOL     OW18391   2.343   1.670   1.345  0.2140  0.0475  0.4683
 2252SOL    HW118392   2.422   1.696   1.297  0.3916 -0.2694  0.5926
 2252SOL    HW218393   2.332   1.588   1.297 -0.1197  0.0705  0.5040
 2253SOL     OW18394   4.172   1.310   2.294  0.2390 -0.3349  0.2115
 2253SOL    HW118395   4.118   1.347   2.364 -0.2232  2.1826 -1.4799
 2253SOL    HW218396   4.130   1.236   2.250  0.4908 -0.0994 -0.4292
 2254SOL     OW18397   0.312   0.854   8.802  0.1727 -0.1015  0.1086
 2254SOL    HW118398   0.395   0.826   8.765 -1.0450 -2.0944 -1.0627
 2254SOL    HW218399   0.284   0.923   8.742 -1.6068 -1.6345 -0.8449
 2255SOL     OW18400   1.495   3.192   1.045  0.4164 -0.2029  0.3392
 2255SOL    HW118401   1.543   3.193   1.128 -1.4314 -0.6090  1.3976
 2255SOL    HW218402   1.406   3.184   1.078 -0.2576 -0.7038 -1.5963
 2256SOL     OW18403   1.711   2.560   9.261  0.3052 -0.5381 -0.6308
 2256SOL    HW118404   1.649   2.537   9.192 -2.6266  2.6509  0.9160
 2256SOL    HW218405   1.749   2.476   9.285  1.1478  0.3212  1.1067
 2257SOL     OW18406   4.463   0.138   4.476  0.3905 -0.4589  0.5576
 2257SOL    HW118407   4.371   0.160   4.464  0.0853 -1.4497  1.0354
 2257SOL    HW218408   4.467   0.058   4.529 -2.1087 -0.2717  1.0082
 2258SOL     OW18409   0.852   3.433   5.796  0.1875 -0.0377  0.1143
 2258SOL    HW118410   0.803   3.421   5.714 -0.3433 -0.7226  0.5322
 2258SOL    HW218411   0.830   3.524   5.816  1.6155  0.0425  1.3211
 2259SOL     OW18412   2.846   0.825   4.813  0.1659  0.9514 -0.0975
 2259SOL    HW118413   2.897   0.754   4.850  1.0577  1.2627 -0.7377
 2259SOL    HW218414   2.911   0.883   4.773  0.7741  0.8743  0.7790
 2260SOL     OW18415   3.022   4.676   4.396  0.2756 -0.2513 -0.2919
 2260SOL    HW118416   2.959   4.710   4.333  1.5411 -1.2630 -2.1098
 2260SOL    HW218417   3.056   4.594   4.362  1.7947  0.4681 -0.5308
 2261SOL     OW18418   1.353   2.553   7.113 -0.8895 -0.1002  0.5601
 2261SOL    HW118419   1.261   2.528   7.102 -1.0280  0.9538 -0.6491
 2261SOL    HW218420   1.384   2.556   7.022 -0.7766 -0.9563  0.5677
 2262SOL     OW18421   2.543   1.009  12.271 -0.3537  0.3418 -0.2866
 2262SOL    HW118422   2.513   0.918  12.261  0.4092  0.2282 -1.6681
 2262SOL    HW218423   2.613   1.001  12.206  1.3127  0.8301  1.4718
 2263SOL     OW18424   0.818   2.185   3.704  0.1714  0.4685  0.1498
 2263SOL    HW118425   0.881   2.123   3.741 -2.1973 -1.5538  0.8275
 2263SOL    HW218426   0.871   2.260   3.677 -0.9852  0.6126 -1.6931
 2264SOL     OW18427   4.354   3.224   4.532  0.3574  0.4949  0.6649
 2264SOL    HW118428   4.309   3.213   4.448  0.0628  1.9582  0.6385
 2264SOL    HW218429   4.441   3.188   4.515  0.0477 -0.1949  0.5392
 2265SOL     OW18430   0.186   1.856   2.324  0.2547 -0.1426  0.2200
 2265SOL    HW118431   0.123   1.923   2.353  0.0949  0.2260 -0.9713
 2265SOL    HW218432   0.170   1.789   2.390 -1.6625 -1.4527 -1.5728
 2266SOL     OW18433   3.419   0.584   5.564  0.3155  0.7826 -0.3608
 2266SOL    HW118434   3.387   0.648   5.500  2.2983  0.5900 -1.5490
 2266SOL    HW218435   3.346   0.570   5.624 -0.1253 -3.9308 -2.0473
 2267SOL     OW18436   3.613   2.549   2.963  0.9242 -0.3341 -0.5232
 2267SOL    HW118437   3.622   2.562   2.868 -1.5883 -0.5338 -0.7901
 2267SOL    HW218438   3.676   2.613   2.996 -0.5750  1.2026 -0.6294
 2268SOL     OW18439   2.681   2.815   0.520  0.1708 -0.2895  0.6624
 2268SOL    HW118440   2.714   2.904   0.530 -1.3562  0.5091 -1.4770
 2268SOL    HW218441   2.706   2.786   0.432  2.3142 -0.1842  1.2381
 2269SOL     OW18442   0.307   3.499   8.615  0.1450 -0.1998 -0.0377
 2269SOL    HW118443   0.278   3.427   8.560 -1.1052  0.0544  0.3038
 2269SOL    HW218444   0.256   3.573   8.580 -2.2291 -0.6828  2.4384
 2270SOL     OW18445   4.030   2.934   7.124  0.2467 -0.6263  0.0779
 2270SOL    HW118446   4.041   2.842   7.098  0.5765 -0.0917 -1.6005
 2270SOL    HW218447   3.935   2.935   7.124  0.2675  0.6711 -0.8125
 2271SOL     OW18448   4.373   3.640  16.089  0.1673 -0.2211  0.2435
 2271SOL    HW118449   4.453   3.601  16.055 -0.5134  0.3827 -2.0172
 2271SOL    HW218450   4.404   3.678  16.172  0.4099 -0.3582  0.2156
 2272SOL     OW18451   4.011   4.111   2.756  0.4981 -0.3302 -0.4343
 2272SOL    HW118452   3.985   4.077   2.671 -0.7635  0.3563 -0.3212
 2272SOL    HW218453   3.984   4.042   2.818 -0.4016  1.5236  1.2448
 2273SOL     OW18454   3.951   2.099   5.667 -0.2268 -0.5759  0.1800
 2273SOL    HW118455   4.045   2.100   5.653 -0.2279 -2.1556  0.0634
 2273SOL    HW218456   3.938   2.108   5.762 -0.3390  1.3866 -0.0165
 2274SOL     OW18457   4.184   0.874  14.721  0.9564  0.0306 -0.3427
 2274SOL    HW118458   4.140   0.956  14.699 -0.5909 -0.5820  0.4745
 2274SOL    HW218459   4.191   0.822  14.640 -1.2590 -0.2365 -0.3583
 2275SOL     OW18460   0.122   3.578  16.508  0.1690 -0.7553  0.2952
 2275SOL    HW118461   0.114   3.489  16.472  0.6596 -0.3376 -0.8365
 2275SOL    HW218462   0.075   3.557  16.589  0.8790 -1.5530  0.5029
 2276SOL     OW18463   4.051   1.148   1.551  0.1100 -0.1914 -0.3366
 2276SOL    HW118464   4.143   1.136   1.530 -0.1275 -0.0415 -1.4819
 2276SOL    HW218465   4.007   1.102   1.479  0.9421  0.5524 -1.3114
 2277SOL     OW18466   3.665   1.136   4.739  0.1423 -0.0845  0.2727
 2277SOL    HW118467   3.728   1.190   4.787  0.1959  2.4010 -2.5774
 2277SOL    HW218468   3.703   1.130   4.651 -2.5565  0.2868 -0.9212
 2278SOL     OW18469   2.560   4.091   8.312  0.1486 -0.4330 -0.8392
 2278SOL    HW118470   2.636   4.069   8.259  0.2992  1.9045 -1.5908
 2278SOL    HW218471   2.499   4.098   8.239  0.8453  1.2450 -1.2413
 2279SOL     OW18472   0.465   3.242   9.534  0.6906  0.0053 -0.4519
 2279SOL    HW118473   0.469   3.276   9.444 -1.5924 -0.1509 -0.6095
 2279SOL    HW218474   0.375   3.262   9.558  0.2437 -1.7205 -0.6634
 2280SOL     OW18475   1.293   0.886   5.433  0.3377  0.0116 -0.6456
 2280SOL    HW118476   1.258   0.803   5.398 -1.6466 -0.0075  1.3749
 2280SOL    HW218477   1.247   0.953   5.383 -0.3005  1.0526  1.3438
 2281SOL     OW18478   4.310   1.696  10.601 -0.5229  0.0359 -0.0465
 2281SOL    HW118479   4.302   1.642  10.523 -0.5434  0.7442 -0.5330
 2281SOL    HW218480   4.310   1.631  10.671  0.0626  0.6834  0.5602
 2282SOL     OW18481   3.259   4.270   3.205 -0.5572  0.0775 -0.5111
 2282SOL    HW118482   3.201   4.282   3.280 -1.4091  0.4439 -1.2306
 2282SOL    HW218483   3.273   4.176   3.215 -2.1696 -0.1474 -0.4151
 2283SOL     OW18484   1.684   1.589   0.914  0.4601  0.2427 -0.1704
 2283SOL    HW118485   1.667   1.495   0.916 -3.3177  0.8834 -0.9097
 2283SOL    HW218486   1.771   1.588   0.875 -0.2836  0.0743 -1.8244
 2284SOL     OW18487   3.214   2.312   7.357  0.4111  0.0029  0.1845
 2284SOL    HW118488   3.205   2.219   7.377 -2.3783 -0.0838 -1.4164
 2284SOL    HW218489   3.154   2.346   7.423  1.3820  0.2319  0.9484
 2285SOL     OW18490   1.749   3.863   1.457 -0.0233  0.2274  0.1250
 2285SOL    HW118491   1.798   3.782   1.445 -0.0834  0.0842  0.8176
 2285SOL    HW218492   1.755   3.880   1.551  0.9470  0.0893  0.0878
 2286SOL     OW18493   4.152   2.732   3.915 -0.0278  0.4438 -0.6890
 2286SOL    HW118494   4.171   2.733   4.008 -0.4172  1.1285 -0.6154
 2286SOL    HW218495   4.229   2.687   3.879 -0.4483  0.5614 -1.7430
 2287SOL     OW18496   3.370   2.261   8.921  0.0612  0.1467  0.1101
 2287SOL    HW118497   3.452   2.309   8.933  0.3571 -1.0035  2.6421
 2287SOL    HW218498   3.322   2.281   9.001 -1.9114  1.0093 -1.3025
 2288SOL     OW18499   0.073   2.440  13.698 -0.9244 -0.3127 -0.2341
 2288SOL    HW118500   0.012   2.394  13.641 -0.9514 -0.3248 -0.1955
 2288SOL    HW218501   0.063   2.380  13.773 -1.8875  2.2690  1.7097
 2289SOL     OW18502   2.148   0.249   8.087  0.2177 -0.2644 -0.9804
 2289SOL    HW118503   2.130   0.335   8.125 -1.1182 -1.0137  0.0867
 2289SOL    HW218504   2.178   0.203   8.165 -2.3779 -1.5948 -0.7531
 2290SOL     OW18505   3.472   2.584  17.379 -0.0361 -0.2722 -0.2938
 2290SOL    HW118506   3.462   2.490  17.394 -1.6868 -0.2787 -1.4369
 2290SOL    HW218507   3.383   2.618  17.373  0.0998 -0.0597 -1.1593
 2291SOL     OW18508   3.250   3.948   7.905 -0.6289  0.1108  0.6316
 2291SOL    HW118509   3.209   4.027   7.870 -1.6579  0.1996  2.0540
 2291SOL    HW218510   3.308   3.933   7.831  0.8290  0.4681  1.7162
 2292SOL     OW18511   4.097   2.107   8.880 -0.2355  0.0548 -0.6673
 2292SOL    HW118512   4.058   2.181   8.927  0.6934  0.2674 -0.2316
 2292SOL    HW218513   4.187   2.136   8.869 -0.0873 -0.0631  0.2066
 2293SOL     OW18514   3.379   3.013  16.064 -0.9122  0.4720 -0.3029
 2293SOL    HW118515   3.339   3.095  16.094 -1.3516 -0.1940  0.9318
 2293SOL    HW218516   3.429   3.036  15.986  0.0620 -0.3752  0.0785
 2294SOL     OW18517   0.567   4.314   7.970 -0.0938 -0.3995 -0.3882
 2294SOL    HW118518   0.615   4.293   7.890  1.6423 -0.2335  0.6154
 2294SOL    HW218519   0.493   4.366   7.938  0.7403  0.7264 -0.4522
 2295SOL     OW18520   0.576   0.621   9.588 -0.0198  0.4034 -0.0606
 2295SOL    HW118521   0.527   0.700   9.609  0.6473  0.7158  0.3406
 2295SOL    HW218522   0.662   0.660   9.573  0.3858 -0.1506  0.7693
 2296SOL     OW18523   0.585   3.580   4.149 -0.0372 -0.6987 -0.6958
 2296SOL    HW118524   0.666   3.530   4.136  0.4329  0.4688 -2.2312
 2296SOL    HW218525   0.593   3.646   4.080 -2.5213 -1.5137 -1.7405
 2297SOL     OW18526   1.140   0.498   5.876 -0.0431  0.0854  0.0608
 2297SOL    HW118527   1.052   0.465   5.896 -0.4343  0.7776 -0.5267
 2297SOL    HW218528   1.117   0.590   5.865  1.0034  0.5472  1.7803
 2298SOL     OW18529   1.312   1.923   3.686 -0.1055 -0.9835 -0.1610
 2298SOL    HW118530   1.320   1.985   3.759  1.5376 -0.2155 -0.9905
 2298SOL    HW218531   1.404   1.902   3.672  0.8417  0.5401  3.6781
 2299SOL     OW18532   0.826   2.142  16.158 -0.3741  0.4753  0.1527
 2299SOL    HW118533   0.769   2.067  16.173  0.8486  0.1597  3.2513
 2299SOL    HW218534   0.852   2.167  16.247 -0.2585  0.1934  0.1979
 2300SOL     OW18535   4.731   2.982   8.414  0.0654  0.3417  0.5689
 2300SOL    HW118536   4.730   2.888   8.433  0.7033  0.0836 -0.6712
 2300SOL    HW218537   4.676   3.020   8.483 -1.9903 -1.3015 -0.1701
 2301SOL     OW18538   2.380   2.682   9.707  0.2657  0.3051  0.5588
 2301SOL    HW118539   2.413   2.771   9.692 -2.3388  1.4879  1.9281
 2301SOL    HW218540   2.293   2.691   9.669 -0.0781  2.2291  1.7591
 2302SOL     OW18541   4.151   0.544   8.313 -0.5010 -0.5757 -0.4810
 2302SOL    HW118542   4.199   0.510   8.237  1.2109 -0.8042  0.6776
 2302SOL    HW218543   4.116   0.626   8.279  2.1042  0.6164 -0.3222
 2303SOL     OW18544   2.496   0.193  11.004  0.5548 -0.6522 -0.2492
 2303SOL    HW118545   2.538   0.252  11.066 -2.8460  1.3399  0.1501
 2303SOL    HW218546   2.403   0.211  11.017  0.1283 -2.0909 -1.2108
 2304SOL     OW18547   1.831   0.339   7.656 -0.1990  0.2760 -0.2491
 2304SOL    HW118548   1.921   0.323   7.626 -0.1024 -1.2753  0.8334
 2304SOL    HW218549   1.780   0.303   7.584 -0.1013  3.3595 -1.8653
 2305SOL     OW18550   4.122   0.116  13.441 -0.3876  0.3401  0.2587
 2305SOL    HW118551   4.208   0.159  13.438 -0.7505  0.9648 -0.8383
 2305SOL    HW218552   4.083   0.165  13.370  0.4221  1.8624  0.8765
 2306SOL     OW18553   2.495   3.912   3.359  0.1403 -0.0338  0.1225
 2306SOL    HW118554   2.504   3.981   3.424  4.1915  1.3963 -1.9176
 2306SOL    HW218555   2.503   3.830   3.408  0.8675 -0.2256 -0.3242
 2307SOL     OW18556   2.579   1.870  15.807  0.5060  0.1341 -0.5314
 2307SOL    HW118557   2.541   1.833  15.887  1.5785 -0.1012 -0.1365
 2307SOL    HW218558   2.638   1.796  15.791 -0.3481 -0.1553 -2.3867
 2308SOL     OW18559   1.335   2.042  11.326  0.0060 -0.0331  0.3215
 2308SOL    HW118560   1.292   2.069  11.245 -0.9752  0.3271  0.9532
 2308SOL    HW218561   1.285   1.966  11.355 -1.2170  0.8557  0.5765
 2309SOL     OW18562   3.848   3.803  17.194 -0.1117  0.3652  0.6455
 2309SOL    HW118563   3.795   3.876  17.225 -0.8137 -0.5277  1.5714
 2309SOL    HW218564   3.780   3.737  17.177 -1.4838  2.2155 -1.0015
 2310SOL     OW18565   1.327   3.996   4.481  0.1389 -0.0037  0.5530
 2310SOL    HW118566   1.328   3.967   4.572  0.5318 -0.0086  0.5491
 2310SOL    HW218567   1.381   4.076   4.479  0.2932 -0.1075  0.4979
 2311SOL     OW18568   2.887   0.137   4.982 -0.1109  0.6976 -0.0873
 2311SOL    HW118569   2.869   0.230   4.998 -0.2017  0.4160  1.4791
 2311SOL    HW218570   2.835   0.128   4.902 -1.6249 -1.5551  1.1475
 2312SOL     OW18571   0.529   4.467   8.491 -0.0977 -0.1224 -0.2270
 2312SOL    HW118572   0.469   4.418   8.548 -1.2828  0.8002 -0.7112
 2312SOL    HW218573   0.591   4.500   8.557  2.8796 -3.6734 -1.2528
 2313SOL     OW18574   0.062   1.398  16.925  0.0699  0.0677 -0.1290
 2313SOL    HW118575   4.705   1.379  16.903  0.3786 -1.4465 -0.0475
 2313SOL    HW218576   0.097   1.352  16.849 -0.7038 -0.1646 -0.3348
 2314SOL     OW18577   3.386   3.856   4.518  0.2099  0.1741  0.1504
 2314SOL    HW118578   3.397   3.898   4.604 -0.8010  0.9781 -0.1042
 2314SOL    HW218579   3.469   3.809   4.528 -0.4007 -1.6113 -3.2068
 2315SOL     OW18580   3.188   0.420   6.594  0.3059  0.0111  0.4696
 2315SOL    HW118581   3.235   0.437   6.512 -0.0431  2.1250  0.7110
 2315SOL    HW218582   3.114   0.476   6.569  0.9273  0.0611 -1.2776
 2316SOL     OW18583   1.591   2.613   3.343  0.7126  0.1019 -0.0822
 2316SOL    HW118584   1.647   2.669   3.398  1.4765  0.9602 -1.7524
 2316SOL    HW218585   1.597   2.650   3.256  1.9453  1.5086  0.5967
 2317SOL     OW18586   0.976   3.827   3.139 -0.0739  0.0748  0.2374
 2317SOL    HW118587   1.007   3.890   3.074 -0.5111 -0.3088 -0.3506
 2317SOL    HW218588   0.954   3.748   3.088  2.8954 -1.0370  0.7233
 2318SOL     OW18589   0.433   3.399   7.758  0.5090 -0.1430 -0.0866
 2318SOL    HW118590   0.431   3.394   7.854  3.3754  0.5409 -0.0071
 2318SOL    HW218591   0.418   3.491   7.737  2.1860  0.6988  2.3120
 2319SOL     OW18592   3.435   1.758   5.651  0.0508 -0.1077  0.0289
 2319SOL    HW118593   3.515   1.771   5.599 -0.4622  2.7897 -0.0314
 2319SOL    HW218594   3.409   1.850   5.657 -1.5905 -0.5117 -1.0465
 2320SOL     OW18595   4.158   3.965  16.960 -0.0715 -0.7557  0.0655
 2320SOL    HW118596   4.091   4.019  17.000  1.4492  2.4532 -1.6792
 2320SOL    HW218597   4.108   3.887  16.937 -0.9195  0.7146 -3.0774
 2321SOL     OW18598   4.399   0.878   0.477 -0.3742  0.0993 -0.2229
 2321SOL    HW118599   4.451   0.798   0.482 -0.1114  0.3352  0.9752
 2321SOL    HW218600   4.339   0.872   0.403 -0.3982  0.8928 -0.2754
 2322SOL     OW18601   2.091   2.593   8.269 -0.3532 -0.1999 -0.3904
 2322SOL    HW118602   2.036   2.667   8.242 -2.3775 -1.1610  1.0718
 2322SOL    HW218603   2.041   2.522   8.229  0.7177 -1.1742 -0.0255
 2323SOL     OW18604   1.201   0.977   4.648  0.0329  0.1626  0.0227
 2323SOL    HW118605   1.165   0.893   4.676 -0.8116  1.1501  1.9753
 2323SOL    HW218606   1.261   0.996   4.721 -1.1804 -0.5303  1.2056
 2324SOL     OW18607   4.546   0.472   4.068 -0.1797 -0.6042 -0.2676
 2324SOL    HW118608   4.543   0.531   3.992  0.5928 -1.3186 -0.8578
 2324SOL    HW218609   4.619   0.416   4.040 -0.1467 -0.7074  0.0249
 2325SOL     OW18610   1.647   2.251  10.124 -0.1021  0.1966  0.0209
 2325SOL    HW118611   1.654   2.247  10.219 -1.0710  0.0205  0.0803
 2325SOL    HW218612   1.554   2.237  10.139 -0.3106  0.3551 -1.1669
 2326SOL     OW18613   2.283   4.078   4.487 -0.1013  0.0889  0.1389
 2326SOL    HW118614   2.350   4.037   4.433 -0.6205 -1.3860  0.6308
 2326SOL    HW218615   2.207   4.084   4.429 -0.1238  0.9380  0.2486
 2327SOL     OW18616   0.351   4.082  16.735 -0.3507 -0.1547 -0.1504
 2327SOL    HW118617   0.291   4.107  16.806  1.3013 -1.4490  1.7233
 2327SOL    HW218618   0.326   3.991  16.723  0.2886 -0.4840  0.9422
 2328SOL     OW18619   4.083   4.351   4.630 -0.2072 -0.0728  0.3294
 2328SOL    HW118620   4.099   4.441   4.660 -0.4531  0.1275 -0.1325
 2328SOL    HW218621   4.125   4.349   4.544 -0.7535  0.3560  0.0509
 2329SOL     OW18622   3.763   1.909   2.605  0.0344  0.1515 -0.5184
 2329SOL    HW118623   3.801   1.827   2.638 -0.1783  0.1486 -0.2856
 2329SOL    HW218624   3.813   1.920   2.524  1.4369 -2.6740 -0.0602
 2330SOL     OW18625   0.443   3.720  14.129 -0.0284  0.4634 -0.0647
 2330SOL    HW118626   0.441   3.792  14.065 -2.0673  1.1734  0.8008
 2330SOL    HW218627   0.420   3.775  14.204 -0.0206 -2.1819  1.8757
 2331SOL     OW18628   0.562   0.147   5.433 -0.1815  0.2221 -0.5452
 2331SOL    HW118629   0.506   0.084   5.478 -0.2414 -0.0272 -0.9578
 2331SOL    HW218630   0.507   0.196   5.372  2.0704 -1.4062 -3.8849
 2332SOL     OW18631   0.546   3.614   1.538 -0.1539  0.1984 -0.4599
 2332SOL    HW118632   0.544   3.521   1.560  1.8600  0.0505 -0.8994
 2332SOL    HW218633   0.487   3.621   1.462 -0.2789  0.9070 -0.3001
 2333SOL     OW18634   0.586   0.859   5.761  0.5336 -0.5220 -0.1366
 2333SOL    HW118635   0.586   0.771   5.724  1.9535 -0.7454  0.4156
 2333SOL    HW218636   0.677   0.887   5.752  0.6894 -0.8666  0.4243
 2334SOL     OW18637   4.102   0.000   3.953  0.0989 -0.2696  0.3054
 2334SOL    HW118638   4.193   0.027   3.965  0.3304 -1.3368  0.9642
 2334SOL    HW218639   4.066   0.058   4.020 -0.5831 -1.0714  0.6272
 2335SOL     OW18640   0.759   2.426  14.967  0.0763 -0.3037  0.8526
 2335SOL    HW118641   0.754   2.442  14.873  0.2102  1.3551  1.1156
 2335SOL    HW218642   0.747   2.515  15.001 -3.4652 -0.4374 -0.0468
 2336SOL     OW18643   0.281   1.788   1.670 -0.5478 -0.3512  0.8449
 2336SOL    HW118644   0.309   1.868   1.715  2.1255  0.0427 -1.5251
 2336SOL    HW218645   0.365   1.743   1.659  0.3105  1.2221  1.0265
 2337SOL     OW18646   0.205   2.818   8.097 -0.3904  0.2784  0.3839
 2337SOL    HW118647   0.114   2.846   8.083 -1.0026 -0.4605  2.9386
 2337SOL    HW218648   0.223   2.742   8.042 -0.9281  0.9424 -0.6985
 2338SOL     OW18649   0.474   2.793   6.558  0.0051  0.0579 -0.1257
 2338SOL    HW118650   0.421   2.771   6.481 -0.5781 -1.1804  0.6190
 2338SOL    HW218651   0.556   2.810   6.511  0.2579 -1.4785 -0.2432
 2339SOL     OW18652   1.867   4.082   8.276 -0.0740  0.0723  0.0082
 2339SOL    HW118653   1.869   4.089   8.180  0.7639  2.0259  0.1678
 2339SOL    HW218654   1.861   4.176   8.294 -0.0086  0.5616 -2.4747
 2340SOL     OW18655   3.123   4.171   6.319  0.5831 -0.6205  0.2609
 2340SOL    HW118656   3.162   4.090   6.284 -2.1913 -2.0546  0.4944
 2340SOL    HW218657   3.029   4.157   6.318  0.6160 -0.9237  0.9519
 2341SOL     OW18658   1.572   0.707  12.816  1.0993  0.2783 -0.5520
 2341SOL    HW118659   1.612   0.794  12.810  2.3959 -0.4009 -1.7063
 2341SOL    HW218660   1.595   0.662  12.736  0.6597  1.7449 -1.5064
 2342SOL     OW18661   2.874   2.625   4.056 -0.7234 -0.4502  0.0503
 2342SOL    HW118662   2.923   2.543   4.047 -0.8775 -0.7198  1.6299
 2342SOL    HW218663   2.863   2.648   3.964  2.1577  0.5023 -0.0562
 2343SOL     OW18664   0.592   4.387  15.285  0.1067  0.4633 -0.3920
 2343SOL    HW118665   0.542   4.306  15.296  0.3787  0.2680 -0.5761
 2343SOL    HW218666   0.642   4.395  15.367  0.2118 -2.9708 -0.0954
 2344SOL     OW18667   0.756   0.623   6.706  0.3206  0.3304  0.5551
 2344SOL    HW118668   0.696   0.551   6.727 -0.4485  0.3124 -1.7165
 2344SOL    HW218669   0.731   0.692   6.768 -1.9033 -0.3170  0.3652
 2345SOL     OW18670   0.793   0.454   0.008 -0.4942 -0.3357  0.0660
 2345SOL    HW118671   0.766   0.398  17.670  1.4260  0.4491 -1.2576
 2345SOL    HW218672   0.888   0.454  17.731 -0.9201 -3.3606 -3.3421
 2346SOL     OW18673   1.681   1.181   6.690 -0.0132 -0.5154 -0.4481
 2346SOL    HW118674   1.606   1.126   6.666 -0.3003  1.2907 -3.6667
 2346SOL    HW218675   1.679   1.187   6.785  2.8944 -1.6963 -0.3093
 2347SOL     OW18676   1.617   3.208   4.965  0.0819 -0.1160  0.0244
 2347SOL    HW118677   1.643   3.291   4.925  1.6824 -0.5760  0.1123
 2347SOL    HW218678   1.581   3.166   4.887 -1.3560  2.5897 -0.7464
 2348SOL     OW18679   0.783   3.206   2.007 -0.3751 -0.2905  0.1068
 2348SOL    HW118680   0.770   3.111   1.997  0.5938 -0.3452 -0.6528
 2348SOL    HW218681   0.834   3.223   2.086  1.1207 -1.0496 -0.7145
 2349SOL     OW18682   1.935   3.881   6.746  0.0386  0.0644 -0.0184
 2349SOL    HW118683   1.968   3.927   6.669  0.3277 -2.0356 -1.1457
 2349SOL    HW218684   1.904   3.799   6.709  1.1667 -1.1777  1.7764
 2350SOL     OW18685   3.589   3.650   0.095 -0.0722  0.2878  0.2028
 2350SOL    HW118686   3.497   3.672   0.105 -0.1752  0.8311 -1.9382
 2350SOL    HW218687   3.606   3.571   0.146  3.0209  1.0700  0.3970
 2351SOL     OW18688   3.055   0.289   8.348 -0.1049 -0.4107  0.3296
 2351SOL    HW118689   3.128   0.343   8.317 -0.7030 -0.8561 -1.8065
 2351SOL    HW218690   3.019   0.346   8.416  2.0409 -0.1323  1.2313
 2352SOL     OW18691   0.168   0.047  10.554  0.3352  0.2015 -0.3721
 2352SOL    HW118692   0.182   0.120  10.494 -0.0203  1.7005  1.3627
 2352SOL    HW218693   0.248   4.730  10.539  0.3340  0.2678 -0.6014
 2353SOL     OW18694   1.137   2.264   9.314  0.2066 -0.0077 -0.1235
 2353SOL    HW118695   1.220   2.294   9.352  0.7115  1.0088 -2.0104
 2353SOL    HW218696   1.133   2.175   9.349  0.5690  0.3818  0.9075
 2354SOL     OW18697   2.550   4.549  17.702  0.3175  0.5961  0.5008
 2354SOL    HW118698   2.559   4.456  17.723 -2.4339  0.9781  3.3867
 2354SOL    HW218699   2.602   4.555  17.622  0.8905  0.1142  0.8425
 2355SOL     OW18700   2.203   0.742   4.667  0.2830  0.2460 -0.7735
 2355SOL    HW118701   2.208   0.837   4.678  1.5391  0.1245 -0.3080
 2355SOL    HW218702   2.160   0.738   4.582 -0.3539  0.1653 -0.4490
 2356SOL     OW18703   2.124   1.639  11.292 -0.1464  0.6066 -0.2403
 2356SOL    HW118704   2.109   1.687  11.374 -0.7932 -0.0586  0.0343
 2356SOL    HW218705   2.116   1.706  11.225  0.5941  2.3495  1.4062
 2357SOL     OW18706   1.967   3.292   1.161  0.2870 -0.4791 -0.8606
 2357SOL    HW118707   1.902   3.358   1.185 -0.1350 -1.9667  2.0821
 2357SOL    HW218708   1.979   3.313   1.068 -1.3591  2.4611 -0.4232
 2358SOL     OW18709   2.075   0.485  14.802 -0.1976 -0.3826  0.2397
 2358SOL    HW118710   2.123   0.562  14.771 -0.3277 -0.2855  0.2762
 2358SOL    HW218711   2.142   0.445  14.856  0.8985  2.8798  1.3221
 2359SOL     OW18712   4.543   0.081   0.876  0.0160 -0.7528  0.2620
 2359SOL    HW118713   4.505   0.138   0.810 -0.6600 -1.3452  0.1364
 2359SOL    HW218714   4.541   0.143   0.949  1.0353 -0.4413  0.0268
 2360SOL     OW18715   0.120   4.240  13.694 -0.0374 -0.0396  0.4770
 2360SOL    HW118716   0.063   4.288  13.634  1.6781  0.5952 -0.6531
 2360SOL    HW218717   0.202   4.290  13.695 -0.1958  0.2168  0.4946
 2361SOL     OW18718   0.194   0.882   5.578  0.1419  0.0253  0.2594
 2361SOL    HW118719   0.285   0.912   5.582  0.5667 -0.9589 -2.0046
 2361SOL    HW218720   0.191   0.823   5.502  1.8795  1.2898 -0.7939
 2362SOL     OW18721   2.455   3.416   5.192 -0.1934  0.5086  0.1117
 2362SOL    HW118722   2.491   3.412   5.280 -1.4740  1.5535  0.6633
 2362SOL    HW218723   2.460   3.325   5.161  1.8715  0.3894  0.7679
 2363SOL     OW18724   2.301   3.030   7.374  0.7130  0.5193  0.8478
 2363SOL    HW118725   2.319   3.124   7.374 -1.3399  0.9112 -2.0158
 2363SOL    HW218726   2.386   2.992   7.353  2.4255  3.5314  2.4660
 2364SOL     OW18727   3.867   1.676  13.262 -0.2693 -0.0952  0.4065
 2364SOL    HW118728   3.888   1.658  13.354  1.4967  2.1026  0.4194
 2364SOL    HW218729   3.950   1.693  13.219  1.0180  0.7567  3.2837
 2365SOL     OW18730   2.593   3.039   5.313  0.3886 -0.3737 -0.4226
 2365SOL    HW118731   2.684   3.019   5.337  0.6125  2.2098  0.8300
 2365SOL    HW218732   2.552   2.958   5.344  1.5281 -0.6646  0.3408
 2366SOL     OW18733   0.359   2.222   9.707 -0.2194 -0.2382  0.8012
 2366SOL    HW118734   0.370   2.171   9.627 -1.9979  1.4019 -0.5112
 2366SOL    HW218735   0.287   2.284   9.695  0.3887  0.1578 -0.7640
 2367SOL     OW18736   2.769   0.801   8.036 -0.3275 -0.4574 -1.2250
 2367SOL    HW118737   2.788   0.874   8.095  0.0926 -1.5300 -0.0323
 2367SOL    HW218738   2.677   0.820   8.018 -0.5611  0.2128  0.7211
 2368SOL     OW18739   1.987   2.066   5.736 -0.1646  0.3441  0.4079
 2368SOL    HW118740   1.902   2.047   5.696  0.1859  1.3731 -0.8251
 2368SOL    HW218741   1.966   2.130   5.804 -1.3980  1.5678 -1.1245
 2369SOL     OW18742   2.325   1.450   1.203 -0.5315  0.0337  0.9207
 2369SOL    HW118743   2.376   1.371   1.221  1.1335  1.2610  1.6002
 2369SOL    HW218744   2.294   1.425   1.116  1.8229 -1.9677  0.6240
 2370SOL     OW18745   3.966   3.024  16.024  0.1024  0.0549  0.4591
 2370SOL    HW118746   4.007   2.953  16.073 -1.4070 -1.5529 -0.6178
 2370SOL    HW218747   3.982   3.101  16.080  0.7201  1.4721 -1.6501
 2371SOL     OW18748   0.926   1.357  12.123  0.2876  0.4186  0.5089
 2371SOL    HW118749   0.937   1.359  12.028 -1.4460 -1.2750  0.2755
 2371SOL    HW218750   0.999   1.300  12.145  1.9011  1.9387 -0.8359
 2372SOL     OW18751   1.751   2.219   3.435 -0.2135 -0.6457 -0.0891
 2372SOL    HW118752   1.812   2.288   3.460 -0.4431 -0.3900 -0.2455
 2372SOL    HW218753   1.807   2.144   3.415  1.4817  0.1895  1.5717
 2373SOL     OW18754   4.060   2.991  12.558 -0.2190  0.1757 -0.5884
 2373SOL    HW118755   4.088   2.930  12.626  3.2925  0.2195 -1.9934
 2373SOL    HW218756   4.088   3.076  12.591 -1.7741  0.7289 -0.6999
 2374SOL     OW18757   1.825   4.580   3.032  0.2237 -0.7447  0.4919
 2374SOL    HW118758   1.755   4.515   3.021  0.1057 -0.7220  1.0669
 2374SOL    HW218759   1.832   4.566   3.127  2.6175 -4.9243 -0.3148
 2375SOL     OW18760   4.584   3.872   0.758 -0.2784  0.1177 -0.2615
 2375SOL    HW118761   4.593   3.777   0.759  0.3492  0.2003  1.6217
 2375SOL    HW218762   4.513   3.890   0.696 -0.2673  0.7287 -0.0996
 2376SOL     OW18763   3.528   3.892   0.334 -0.3435 -0.0311 -0.4662
 2376SOL    HW118764   3.577   3.859   0.409  1.8447  0.6036 -1.6216
 2376SOL    HW218765   3.524   3.815   0.276 -1.5093 -0.4955  0.2183
 2377SOL     OW18766   2.234   1.187   5.441  0.2002 -0.0186 -0.2278
 2377SOL    HW118767   2.159   1.129   5.428 -0.7184  0.9462  0.7957
 2377SOL    HW218768   2.222   1.217   5.531  0.5624 -0.4354 -0.0437
 2378SOL     OW18769   3.611   3.210   6.257 -0.1446 -0.3319 -0.0554
 2378SOL    HW118770   3.575   3.196   6.170  1.2347 -1.6255 -0.4292
 2378SOL    HW218771   3.538   3.190   6.317  1.2478 -0.0397  1.7244
 2379SOL     OW18772   3.576   1.257   2.071 -0.3058 -0.6984  0.7749
 2379SOL    HW118773   3.663   1.225   2.093 -0.2028 -0.2906  0.9563
 2379SOL    HW218774   3.536   1.174   2.046 -0.3598 -0.3850 -0.1853
 2380SOL     OW18775   1.108   0.238   8.851 -0.0361 -0.3972  0.0590
 2380SOL    HW118776   1.062   0.195   8.923  0.1577  2.5863  2.0106
 2380SOL    HW218777   1.039   0.276   8.796 -0.0638  1.1323  1.1422
 2381SOL     OW18778   1.952   2.754   3.182  0.9618  0.3403 -0.4417
 2381SOL    HW118779   2.038   2.719   3.158  1.4311  1.9523 -1.1016
 2381SOL    HW218780   1.938   2.733   3.275 -0.2940  0.9955 -0.4856
 2382SOL     OW18781   2.383   0.418  14.627 -0.0487 -0.0080  0.6576
 2382SOL    HW118782   2.326   0.346  14.600  1.3145  0.0469 -2.3450
 2382SOL    HW218783   2.334   0.446  14.704 -0.9203 -1.7550  0.7259
 2383SOL     OW18784   0.977   2.313  15.090  0.5821 -0.5576  0.0444
 2383SOL    HW118785   0.900   2.360  15.058 -0.1868 -0.4788  2.0282
 2383SOL    HW218786   1.034   2.389  15.081  0.4441 -0.3433  0.9876
 2384SOL     OW18787   4.290   1.861   7.160 -0.1981  0.5170 -0.3823
 2384SOL    HW118788   4.203   1.884   7.127 -0.7123  0.0074  0.6261
 2384SOL    HW218789   4.274   1.884   7.251  1.0482 -1.5207  0.3404
 2385SOL     OW18790   2.433   3.226  15.866  0.3298 -0.1677 -0.3955
 2385SOL    HW118791   2.342   3.245  15.840 -0.2934  0.0713  1.9784
 2385SOL    HW218792   2.462   3.317  15.862 -0.9896  0.2620 -0.4622
 2386SOL     OW18793   2.745   1.212  13.151  0.2251  0.2638  0.1492
 2386SOL    HW118794   2.707   1.294  13.119  0.6571 -0.2265 -1.6293
 2386SOL    HW218795   2.825   1.243  13.195  1.0531  1.7187 -2.3575
 2387SOL     OW18796   0.683   2.046   9.686 -0.3485 -0.3671  0.3288
 2387SOL    HW118797   0.646   2.133   9.672 -2.5360 -0.9301  2.7117
 2387SOL    HW218798   0.749   2.046   9.616 -2.2496 -0.7927 -1.4570
 2388SOL     OW18799   1.494   4.303   4.822  0.3104 -0.0030  0.2730
 2388SOL    HW118800   1.569   4.268   4.869  0.8924 -1.2633 -1.5927
 2388SOL    HW218801   1.536   4.336   4.743  2.1360  0.9792  1.6535
 2389SOL     OW18802   3.073   0.278   5.159 -0.2136 -0.0123  0.1850
 2389SOL    HW118803   3.040   0.259   5.071  0.9682  1.7563 -0.6374
 2389SOL    HW218804   3.166   0.278   5.137 -0.4297  0.2610 -0.7377
 2390SOL     OW18805   0.792   4.139   3.740  0.0434  0.0161  0.9471
 2390SOL    HW118806   0.779   4.168   3.650  0.0795  1.7910  1.5173
 2390SOL    HW218807   0.885   4.158   3.753  0.3470 -0.8811  0.0984
 2391SOL     OW18808   4.695   1.215   6.181 -0.2771 -0.2960 -0.0146
 2391SOL    HW118809   4.721   1.270   6.107 -1.3062 -0.0450 -0.1918
 2391SOL    HW218810   4.665   1.278   6.246 -0.3770  0.6130 -0.9364
 2392SOL     OW18811   1.141   2.212   0.224  0.3901 -0.8362 -0.4185
 2392SOL    HW118812   1.206   2.156   0.182 -0.2525 -1.4430 -0.6068
 2392SOL    HW218813   1.192   2.293   0.226  0.4549 -0.9395  1.6526
 2393SOL     OW18814   4.521   2.251   4.723  0.2530  0.3425 -0.4647
 2393SOL    HW118815   4.520   2.257   4.818 -1.1617 -2.4471 -0.3098
 2393SOL    HW218816   4.517   2.157   4.705  1.3599  0.2499 -0.2278
 2394SOL     OW18817   0.071   4.063   9.522  0.1492 -0.3881  0.3465
 2394SOL    HW118818   0.044   3.972   9.508  1.9766 -0.9244  0.3456
 2394SOL    HW218819   0.150   4.079   9.471  0.2555  0.3506  0.7596
 2395SOL     OW18820   4.127   0.361   1.870 -0.2617 -0.4606 -0.4729
 2395SOL    HW118821   4.145   0.430   1.805  0.0783 -0.7151 -0.6505
 2395SOL    HW218822   4.088   0.418   1.936 -0.0389  1.0818 -1.6734
 2396SOL     OW18823   4.312   1.292  13.923  0.7488 -0.5392  0.6266
 2396SOL    HW118824   4.245   1.282  13.855 -1.8330  0.7520  3.0075
 2396SOL    HW218825   4.314   1.388  13.914 -0.1418 -0.6184 -0.4528
 2397SOL     OW18826   3.072   1.263   4.036  0.2827 -0.0897  0.2222
 2397SOL    HW118827   3.158   1.258   3.995  0.0476 -0.8084 -0.1700
 2397SOL    HW218828   3.094   1.205   4.109  1.0216 -1.5060 -1.1504
 2398SOL     OW18829   1.751   0.273   6.313 -0.5985 -0.6014  0.1462
 2398SOL    HW118830   1.819   0.322   6.359 -0.9594 -1.2263  1.3452
 2398SOL    HW218831   1.690   0.251   6.384 -0.1763  0.9694  1.0042
 2399SOL     OW18832   3.155   1.671   1.355  0.5284 -0.3190  1.0124
 2399SOL    HW118833   3.194   1.647   1.271  0.2315  1.2971  0.4270
 2399SOL    HW218834   3.063   1.676   1.332  1.0150 -1.2076 -1.1246
 2400SOL     OW18835   4.168   3.803   5.451 -0.1036  0.2714  0.1950
 2400SOL    HW118836   4.188   3.794   5.544  2.7866  0.5363 -0.4073
 2400SOL    HW218837   4.078   3.769   5.455  1.0083 -2.5222  0.7747
 2401SOL     OW18838   4.375   1.950   6.269  0.2030 -0.7631  0.4652
 2401SOL    HW118839   4.356   1.906   6.186 -3.2533 -0.3822  1.0421
 2401SOL    HW218840   4.457   1.911   6.298 -0.2386 -1.8327  0.2844
 2402SOL     OW18841   2.499   4.678   3.291  0.3596 -0.2438  0.1429
 2402SOL    HW118842   2.589   4.672   3.323 -0.2844  0.2236  2.0428
 2402SOL    HW218843   2.518   0.005   3.220  2.6389 -0.0606  0.9030
 2403SOL     OW18844   0.505   1.377  15.322  0.0497 -0.1643 -0.5879
 2403SOL    HW118845   0.581   1.335  15.362  1.4494  2.0366 -0.9227
 2403SOL    HW218846   0.432   1.332  15.366 -1.3389  1.8693 -0.8212
 2404SOL     OW18847   1.127   1.710   3.706  0.6155  0.6710 -0.0915
 2404SOL    HW118848   1.208   1.761   3.699  0.8081  0.3708 -0.0652
 2404SOL    HW218849   1.058   1.773   3.725  1.5881  1.3688  1.1200
 2405SOL     OW18850   0.522   0.357   4.773 -0.2150 -0.0146  0.1730
 2405SOL    HW118851   0.571   0.372   4.692 -1.1166 -1.9563 -0.7450
 2405SOL    HW218852   0.525   0.261   4.779  1.4282  0.0343 -0.0719
 2406SOL     OW18853   0.209   4.133   0.468 -0.0720 -0.4294  0.1004
 2406SOL    HW118854   0.190   4.066   0.402  2.0152 -0.2958 -0.6278
 2406SOL    HW218855   0.193   4.082   0.547  0.5759 -2.4412 -1.0594
 2407SOL     OW18856   2.374   4.270   6.168 -0.2843  0.1250 -0.1070
 2407SOL    HW118857   2.308   4.337   6.155  2.5866  2.8347 -0.8078
 2407SOL    HW218858   2.342   4.226   6.246 -2.1925 -0.9125 -1.4945
 2408SOL     OW18859   2.161   0.627  10.989 -0.5057  0.1497  0.1055
 2408SOL    HW118860   2.117   0.557  11.037 -0.4642  0.1929  0.2046
 2408SOL    HW218861   2.107   0.705  11.000 -0.2379  0.1985  1.0875
 2409SOL     OW18862   3.916   4.346  11.162 -0.8310 -0.3381 -0.6807
 2409SOL    HW118863   3.954   4.404  11.096  0.9651  1.0512  1.5687
 2409SOL    HW218864   3.833   4.390  11.179  0.5064  1.8478  0.1326
 2410SOL     OW18865   1.294   0.156   6.366 -0.3580  0.2650  0.3307
 2410SOL    HW118866   1.346   0.145   6.445 -1.1122  0.0459  0.7993
 2410SOL    HW218867   1.327   0.086   6.310 -1.5032  0.9188 -1.1739
 2411SOL     OW18868   2.338   0.940   0.219 -0.4092  0.2185  0.2246
 2411SOL    HW118869   2.358   0.851   0.191 -1.3030 -0.2522  1.0806
 2411SOL    HW218870   2.344   0.945   0.314  1.2131  1.1974  0.0760
 2412SOL     OW18871   3.982   2.841  12.336  0.2681  0.1304 -0.5366
 2412SOL    HW118872   3.897   2.835  12.379  1.4040 -0.1913  1.6683
 2412SOL    HW218873   4.035   2.884  12.404 -0.0696  0.1005 -0.2574
 2413SOL     OW18874   0.705   0.125   0.748 -0.7509  0.3513 -0.4987
 2413SOL    HW118875   0.652   0.092   0.676 -0.8955 -3.6580  1.4350
 2413SOL    HW218876   0.757   0.048   0.771 -0.6579  0.7545  0.6880
 2414SOL     OW18877   1.664   1.450   2.581  0.2087  0.5062 -0.2748
 2414SOL    HW118878   1.674   1.469   2.674  0.2122 -1.1169  0.0418
 2414SOL    HW218879   1.572   1.473   2.567  0.2467 -0.1180 -1.5229
 2415SOL     OW18880   3.446   2.903   4.877 -0.1064 -0.5571 -0.1391
 2415SOL    HW118881   3.379   2.926   4.942 -0.7064  0.3175 -1.0554
 2415SOL    HW218882   3.421   2.963   4.806 -1.9759  0.1130  1.0840
 2416SOL     OW18883   1.998   2.764  10.108 -0.2718  0.2658 -0.4324
 2416SOL    HW118884   1.978   2.692  10.168 -0.3712 -0.3385 -1.1829
 2416SOL    HW218885   1.972   2.843  10.155 -1.2071 -0.4128  0.1891
 2417SOL     OW18886   0.629   3.897   1.857 -0.0245  0.2879 -0.3235
 2417SOL    HW118887   0.546   3.851   1.870  0.7351 -1.2739 -0.9166
 2417SOL    HW218888   0.692   3.834   1.822  2.4008  2.3229  0.3511
 2418SOL     OW18889   2.429   0.556   4.063 -0.2826  0.2712  0.3023
 2418SOL    HW118890   2.392   0.539   3.976  1.2239 -0.7377 -0.1536
 2418SOL    HW218891   2.348   0.579   4.108 -0.7964 -1.9746  0.5485
 2419SOL     OW18892   1.831   1.653   1.456  0.6183 -0.4974 -0.2278
 2419SOL    HW118893   1.853   1.672   1.365 -0.4547  0.0899 -0.3658
 2419SOL    HW218894   1.887   1.718   1.497 -2.3213  1.6740  0.3462
 2420SOL     OW18895   1.929   0.398  11.030 -0.4056 -0.7299 -0.4456
 2420SOL    HW118896   1.917   0.310  11.067  0.6497 -0.1255  1.3260
 2420SOL    HW218897   1.939   0.370  10.939 -1.1806 -2.1012 -0.1126
 2421SOL     OW18898   1.586   2.629   8.235 -0.2477  0.1101 -0.2527
 2421SOL    HW118899   1.596   2.661   8.146 -1.5799 -3.6561 -1.7225
 2421SOL    HW218900   1.525   2.693   8.273 -0.7148 -1.7986  2.2511
 2422SOL     OW18901   0.716   1.230   3.681 -0.1559 -0.2868 -0.1833
 2422SOL    HW118902   0.770   1.294   3.727 -1.8774  0.4614  0.8208
 2422SOL    HW218903   0.759   1.150   3.711  2.0736  0.4850 -1.2951
 2423SOL     OW18904   2.544   2.367   2.791  0.0646  0.2329  0.2087
 2423SOL    HW118905   2.549   2.459   2.767 -0.7472 -0.1414 -1.3520
 2423SOL    HW218906   2.477   2.331   2.734 -1.1827  0.8546  1.2996
 2424SOL     OW18907   1.358   0.819   8.413 -0.2210 -0.9708 -0.6448
 2424SOL    HW118908   1.382   0.793   8.502  2.5852 -1.4012 -1.5069
 2424SOL    HW218909   1.444   0.798   8.374  1.0313  1.6288  0.7228
 2425SOL     OW18910   2.588   1.671   6.288  0.6201  0.2467 -0.1442
 2425SOL    HW118911   2.632   1.629   6.214  2.7915  2.6935 -0.2103
 2425SOL    HW218912   2.658   1.649   6.349  0.2716 -0.2460  0.0810
 2426SOL     OW18913   1.401   1.154  13.612  0.5200  0.5240  0.3736
 2426SOL    HW118914   1.404   1.137  13.518  1.6392  2.6826  0.0374
 2426SOL    HW218915   1.307   1.165  13.628  0.1909 -1.1443 -0.4052
 2427SOL     OW18916   3.533   2.571  15.288  0.0078 -0.0270  0.1581
 2427SOL    HW118917   3.604   2.596  15.229  1.6180  1.1330  2.5630
 2427SOL    HW218918   3.489   2.657  15.288  0.8548  0.4151 -1.1118
 2428SOL     OW18919   1.295   0.391   7.481  0.3529  0.5293 -0.0812
 2428SOL    HW118920   1.364   0.457   7.483 -0.5056  1.4230  0.2245
 2428SOL    HW218921   1.241   0.415   7.556 -0.6408  0.3332 -0.7318
 2429SOL     OW18922   4.610   1.899   6.079  0.6021 -0.1149 -0.1495
 2429SOL    HW118923   4.519   1.887   6.050  0.3487  0.8228  0.2645
 2429SOL    HW218924   4.605   1.840   6.155 -1.2971  0.5391  0.2560
 2430SOL     OW18925   4.392   3.544   3.542  0.4802 -0.0027 -0.2720
 2430SOL    HW118926   4.431   3.607   3.482  0.3599 -0.2846 -0.6492
 2430SOL    HW218927   4.457   3.553   3.612 -1.7059  1.2604  1.5950
 2431SOL     OW18928   1.114   3.812   4.993  0.1313 -0.1654  0.0807
 2431SOL    HW118929   1.194   3.856   5.023 -0.1924 -0.2074  1.0032
 2431SOL    HW218930   1.146   3.735   4.947  2.6034  1.5258 -1.0427
 2432SOL     OW18931   3.743   3.751   0.451 -0.4731 -0.0199  0.2562
 2432SOL    HW118932   3.819   3.693   0.442  0.4574  1.1323  0.5986
 2432SOL    HW218933   3.776   3.837   0.423 -0.4732 -0.1635 -0.1731
 2433SOL     OW18934   2.111   0.978   6.358  0.2942  0.5245 -0.6406
 2433SOL    HW118935   2.159   0.927   6.422  2.2291  3.1090 -0.0396
 2433SOL    HW218936   2.178   1.041   6.334 -0.1999  1.0159 -0.7438
 2434SOL     OW18937   3.477   4.218   2.860  0.2731 -0.0705  0.0467
 2434SOL    HW118938   3.493   4.212   2.766 -0.6284  1.1140 -0.1834
 2434SOL    HW218939   3.387   4.244   2.844  0.4319 -0.1702 -0.9954
 2435SOL     OW18940   0.084   3.871   4.735  0.0615 -0.3660 -0.4810
 2435SOL    HW118941   0.104   3.800   4.795 -2.5078 -0.4228  0.3068
 2435SOL    HW218942   0.057   3.811   4.666 -0.0949  0.8776 -1.5068
 2436SOL     OW18943   1.190   1.719   5.675 -0.4694 -0.0048  0.5682
 2436SOL    HW118944   1.134   1.676   5.739 -0.0720 -0.6892  0.4571
 2436SOL    HW218945   1.125   1.742   5.608  0.9628 -0.5544 -1.0143
 2437SOL     OW18946   4.365   2.789   8.885 -0.3789  0.4245 -0.4325
 2437SOL    HW118947   4.429   2.860   8.882  0.7920 -0.5462  2.0163
 2437SOL    HW218948   4.384   2.745   8.968  0.5589 -0.4115 -1.0958
 2438SOL     OW18949   3.734   1.343   6.067  0.9243  0.0866 -0.3492
 2438SOL    HW118950   3.772   1.429   6.050  1.3069 -0.1668 -0.7736
 2438SOL    HW218951   3.758   1.299   5.986 -0.1835 -1.3819  0.1221
 2439SOL     OW18952   3.782   1.973  13.225 -0.9064  0.4607  0.2599
 2439SOL    HW118953   3.834   1.903  13.185 -0.2791  0.7448  0.5899
 2439SOL    HW218954   3.782   1.948  13.318  0.7481 -1.6050 -0.2957
 2440SOL     OW18955   2.767   2.372   3.331  0.3057  0.1076 -0.3007
 2440SOL    HW118956   2.772   2.302   3.267  1.4976 -0.7206  0.7012
 2440SOL    HW218957   2.847   2.361   3.382 -1.2880 -0.7710  2.0361
 2441SOL     OW18958   2.272   3.182   6.610 -0.0894 -0.0573  0.0317
 2441SOL    HW118959   2.245   3.265   6.572  3.1286  1.4583  1.0843
 2441SOL    HW218960   2.220   3.120   6.558 -1.6447  0.5416  0.8801
 2442SOL     OW18961   4.346   2.445  11.265 -0.4117  0.3073 -0.0715
 2442SOL    HW118962   4.278   2.469  11.202  1.6141  0.7800 -2.0895
 2442SOL    HW218963   4.378   2.371  11.213  0.8220 -0.2615  1.4934
 2443SOL     OW18964   2.564   0.980   7.177 -0.3485  0.2509  1.3163
 2443SOL    HW118965   2.643   0.987   7.231  0.4084  1.4871  0.0152
 2443SOL    HW218966   2.557   0.890   7.145 -2.4883  0.1178  2.1241
 2444SOL     OW18967   3.821   1.162   1.693 -0.0950  0.8685 -1.0200
 2444SOL    HW118968   3.906   1.147   1.652  0.9141  0.8068  1.1164
 2444SOL    HW218969   3.833   1.241   1.744 -1.5703  0.6828 -0.3816
 2445SOL     OW18970   0.989   3.743   8.750  0.8755 -0.0901  0.2327
 2445SOL    HW118971   0.895   3.736   8.733  0.3840  2.9359  1.5728
 2445SOL    HW218972   1.011   3.814   8.690 -1.5212 -0.0254 -0.5763
 2446SOL     OW18973   2.814   1.966   8.317 -0.2406  0.2949  0.2991
 2446SOL    HW118974   2.829   1.883   8.271 -0.5781  1.1985 -1.4465
 2446SOL    HW218975   2.757   2.015   8.258 -0.0515  0.0304 -0.1060
 2447SOL     OW18976   0.967   1.879   2.394 -0.7901 -0.0609 -0.7792
 2447SOL    HW118977   0.939   1.954   2.341  0.0902 -0.3903 -1.7310
 2447SOL    HW218978   0.983   1.807   2.333  1.5295  0.3572 -0.6779
 2448SOL     OW18979   3.897   2.666   9.149  0.3741 -0.0205  0.2611
 2448SOL    HW118980   3.819   2.707   9.187  1.0579  3.0053 -1.5580
 2448SOL    HW218981   3.909   2.715   9.067 -1.0348  0.2408  0.2052
 2449SOL     OW18982   3.942   1.363   7.309  0.2405 -0.5517 -0.4348
 2449SOL    HW118983   3.957   1.454   7.286  0.0436 -0.8019 -1.5224
 2449SOL    HW218984   4.022   1.351   7.362 -1.0864  0.9644  1.9090
 2450SOL     OW18985   2.915   0.189   6.946  0.4598 -0.6029 -0.1974
 2450SOL    HW118986   2.896   0.102   6.910  0.8872 -1.3936  1.4830
 2450SOL    HW218987   2.825   0.222   6.952  1.2667  1.1842  1.7858
 2451SOL     OW18988   3.636   1.829   5.466 -0.0962 -0.2994  0.2247
 2451SOL    HW118989   3.652   1.915   5.504  0.1137 -0.4091  0.3884
 2451SOL    HW218990   3.616   1.842   5.374 -1.9701  0.4033  0.7378
 2452SOL     OW18991   1.858   3.747   7.058  0.1096 -0.0606  0.1617
 2452SOL    HW118992   1.813   3.742   6.974 -0.7152 -3.3127  0.8131
 2452SOL    HW218993   1.798   3.693   7.110  1.0400  0.2008  1.4969
 2453SOL     OW18994   3.503   0.821   5.194 -0.2896  0.5039 -0.3364
 2453SOL    HW118995   3.522   0.904   5.239  1.0012  0.1647 -0.2597
 2453SOL    HW218996   3.417   0.807   5.233  0.7875 -1.1519  1.4522
 2454SOL     OW18997   1.449   1.221   2.260  0.3593  0.9775  0.4889
 2454SOL    HW118998   1.475   1.284   2.193  1.4402 -0.0864 -0.0993
 2454SOL    HW218999   1.493   1.142   2.228 -1.3170  1.2887 -2.6033
 2455SOL     OW19000   3.322   0.091   0.320 -0.6284  0.1367 -0.0544
 2455SOL    HW119001   3.334   0.185   0.304 -0.1247  0.0069 -0.4279
 2455SOL    HW219002   3.226   0.082   0.321 -0.6586  0.7118  1.6816
 2456SOL     OW19003   4.689   0.299   3.938  0.3110 -0.1572  0.5726
 2456SOL    HW119004   0.038   0.263   3.969 -1.2457 -2.0614  2.5041
 2456SOL    HW219005   4.647   0.218   3.909  2.3627 -1.8055  2.1837
 2457SOL     OW19006   4.212   0.185   4.685  0.2218  0.3583  0.0443
 2457SOL    HW119007   4.167   0.176   4.769  1.2076  1.3320  0.6809
 2457SOL    HW219008   4.297   0.217   4.715  0.6807  0.6651 -1.6126
 2458SOL     OW19009   0.633   4.443  10.499  0.2061  0.1777 -0.2218
 2458SOL    HW119010   0.547   4.415  10.466 -0.7323  0.6915  1.7764
 2458SOL    HW219011   0.634   4.396  10.582  1.2640 -1.3130 -1.0740
 2459SOL     OW19012   2.820   3.609  11.607 -0.3952  0.0619 -0.2022
 2459SOL    HW119013   2.890   3.671  11.626 -0.8237  1.1233 -2.0813
 2459SOL    HW219014   2.818   3.605  11.511  1.1953  4.2270 -0.4203
 2460SOL     OW19015   2.000   0.228   1.069 -0.0696 -0.3197  0.4230
 2460SOL    HW119016   2.085   0.190   1.089  0.5526  0.3342 -0.9520
 2460SOL    HW219017   1.956   0.224   1.154  0.4471  0.7425  0.7442
 2461SOL     OW19018   2.651   3.471   1.501  0.3136 -0.3435 -0.2315
 2461SOL    HW119019   2.652   3.509   1.589  0.3036 -1.2299  0.1475
 2461SOL    HW219020   2.617   3.384   1.521 -0.7351 -0.3661 -2.0609
 2462SOL     OW19021   0.402   1.556   5.571 -0.2495  0.4734 -0.2088
 2462SOL    HW119022   0.334   1.572   5.637 -2.4722  0.5368 -2.5123
 2462SOL    HW219023   0.439   1.471   5.596  0.1041  0.7227  0.1178
 2463SOL     OW19024   0.762   4.216  14.927  0.1325 -0.2556  0.1115
 2463SOL    HW119025   0.690   4.276  14.912  0.0897 -1.2951 -3.7111
 2463SOL    HW219026   0.816   4.275  14.979  2.4554 -0.8679 -1.5877
 2464SOL     OW19027   2.773   1.803   7.486  0.2202 -0.1899  0.4605
 2464SOL    HW119028   2.764   1.782   7.579 -1.3514 -1.2848  0.0656
 2464SOL    HW219029   2.680   1.822   7.473  0.0879 -0.2162  1.3424
 2465SOL     OW19030   0.764   1.623   2.379 -0.3438  0.0649 -0.5558
 2465SOL    HW119031   0.725   1.711   2.373 -0.4409  0.2501  2.5647
 2465SOL    HW219032   0.717   1.583   2.453 -0.0231 -0.9485 -0.9065
 2466SOL     OW19033   2.757   4.171   8.101  0.0202  0.2627 -0.5890
 2466SOL    HW119034   2.782   4.147   8.012 -4.0247 -0.4465 -1.5230
 2466SOL    HW219035   2.801   4.256   8.101 -0.2501  0.3926 -2.4184
 2467SOL     OW19036   1.715   1.185   2.599  0.0624  0.1306 -0.7774
 2467SOL    HW119037   1.684   1.276   2.600  0.5830  0.2971 -0.1928
 2467SOL    HW219038   1.636   1.131   2.587 -0.2790  0.5858 -0.5998
 2468SOL     OW19039   2.722   0.034  15.609  0.5133 -0.5496  0.5743
 2468SOL    HW119040   2.657   4.703  15.583  1.3047 -1.0957 -0.0455
 2468SOL    HW219041   2.737   0.005  15.699 -1.3804  2.0267  1.7375
 2469SOL     OW19042   0.835   3.991   0.754 -0.5293  0.1020 -0.3490
 2469SOL    HW119043   0.742   4.003   0.775 -0.7529  0.6382 -1.6206
 2469SOL    HW219044   0.842   3.897   0.774 -2.2202 -0.3342 -1.7671
 2470SOL     OW19045   1.390   3.347   5.437  0.0333  0.2607  0.0140
 2470SOL    HW119046   1.422   3.264   5.402 -1.0087 -0.1402  0.0109
 2470SOL    HW219047   1.337   3.377   5.363  2.0793  0.5564 -1.3477
 2471SOL     OW19048   3.321   3.538  12.724 -0.5545  0.6539 -0.5105
 2471SOL    HW119049   3.303   3.630  12.703 -3.1815  0.1823 -0.3870
 2471SOL    HW219050   3.301   3.488  12.645  0.7962 -0.4628 -0.1314
 2472SOL     OW19051   3.995   1.953   4.686 -0.5437 -0.4504 -0.2658
 2472SOL    HW119052   4.050   1.917   4.616  0.2779 -1.0620  0.6854
 2472SOL    HW219053   4.050   1.929   4.761 -0.0011  3.0553  0.4334
 2473SOL     OW19054   2.264   4.419   1.752  0.4544 -0.4899  0.4833
 2473SOL    HW119055   2.357   4.420   1.776  0.4494  0.6937  0.4842
 2473SOL    HW219056   2.225   4.443   1.836 -0.9658 -0.6634 -0.1420
 2474SOL     OW19057   0.705   0.858   9.941  0.3654 -0.1445  0.5806
 2474SOL    HW119058   0.677   0.773   9.974  0.4180 -1.4161 -2.7572
 2474SOL    HW219059   0.786   0.868   9.992 -0.2234  1.1949  1.2825
 2475SOL     OW19060   0.958   0.313   4.552 -0.7163  0.1454 -0.0870
 2475SOL    HW119061   0.916   0.344   4.633 -1.5459  0.5491 -0.6832
 2475SOL    HW219062   0.950   0.218   4.554  1.9865 -0.0349  2.0976
 2476SOL     OW19063   1.053   3.423   4.372  0.2741  0.3675  0.3652
 2476SOL    HW119064   0.972   3.474   4.372  0.2674  0.3571  0.7964
 2476SOL    HW219065   1.017   3.337   4.346 -1.1446  0.6213  1.4902
 2477SOL     OW19066   2.635   4.406   4.812 -0.3169 -0.0524 -0.3636
 2477SOL    HW119067   2.655   4.361   4.894  1.6653  1.1780 -0.1913
 2477SOL    HW219068   2.635   4.330   4.754  2.3730 -1.0000  0.9105
 2478SOL     OW19069   0.791   2.784   6.174  0.1810  0.3014 -0.1251
 2478SOL    HW119070   0.836   2.828   6.102 -0.3562  1.3732  0.1909
 2478SOL    HW219071   0.861   2.738   6.219  0.1471  1.1236  0.7869
 2479SOL     OW19072   1.697   0.990   0.053  0.0727  0.2209 -0.1035
 2479SOL    HW119073   1.639   0.914   0.048 -0.0455  0.4124 -1.3949
 2479SOL    HW219074   1.712   1.012  17.696 -0.3807  1.1011  0.0237
 2480SOL     OW19075   4.521   2.931   2.433 -0.0536 -0.2710  0.3405
 2480SOL    HW119076   4.523   2.959   2.341 -3.2796  3.9164  1.5573
 2480SOL    HW219077   4.456   2.861   2.430 -0.7692  0.5011 -2.6925
 2481SOL     OW19078   1.637   1.889   6.457  0.5675 -0.0742 -0.0118
 2481SOL    HW119079   1.566   1.886   6.392 -0.5512 -1.6166  1.2815
 2481SOL    HW219080   1.641   1.795   6.473  1.6973 -0.4112 -2.1865
 2482SOL     OW19081   0.103   1.497  17.421 -0.2297 -0.4422  0.7758
 2482SOL    HW119082   0.028   1.550  17.393 -1.0882  0.1268  4.0526
 2482SOL    HW219083   0.146   1.493  17.336  0.1499  0.1104  0.9372
 2483SOL     OW19084   2.277   4.387   6.825  0.2118 -0.2707 -0.1299
 2483SOL    HW119085   2.194   4.400   6.780  1.1204 -0.1878 -1.7647
 2483SOL    HW219086   2.251   4.426   6.909 -2.1195  0.4019 -1.1726
 2484SOL     OW19087   3.034   4.666   3.031  0.0194  0.0654 -0.1626
 2484SOL    HW119088   2.990   4.691   2.950 -0.2893 -2.2550 -0.6904
 2484SOL    HW219089   3.064   4.577   3.016  1.7225  0.7455 -0.8225
 2485SOL     OW19090   3.811   0.388   2.739  0.6263 -0.1556 -0.5473
 2485SOL    HW119091   3.774   0.461   2.689  1.0766  0.4721  0.0387
 2485SOL    HW219092   3.772   0.314   2.692  0.4991  2.4139 -4.5091
 2486SOL     OW19093   4.216   3.311   1.439  0.4198 -0.0080 -0.4701
 2486SOL    HW119094   4.250   3.226   1.412 -2.3876  0.0148 -4.0628
 2486SOL    HW219095   4.292   3.369   1.437  0.5592 -0.2171 -1.1370
 2487SOL     OW19096   3.437   1.404   3.065  0.3040  0.6887  0.0007
 2487SOL    HW119097   3.517   1.418   3.115  0.4162 -0.2724  0.0798
 2487SOL    HW219098   3.395   1.488   3.083 -2.4432 -0.6305 -0.2127
 2488SOL     OW19099   1.548   3.111   3.957 -0.5551 -0.2087  0.0456
 2488SOL    HW119100   1.525   3.203   3.965  0.7613  0.1233  0.0189
 2488SOL    HW219101   1.470   3.066   3.991  0.3186  0.1235  2.4688
 2489SOL     OW19102   4.387   1.040   0.689 -0.3035 -0.0616  0.4531
 2489SOL    HW119103   4.322   1.004   0.749 -0.1277 -0.4678  0.4010
 2489SOL    HW219104   4.377   0.979   0.616  3.8379  0.3037 -0.4455
 2490SOL     OW19105   0.839   3.004  15.816  0.4681  0.5749 -0.0570
 2490SOL    HW119106   0.760   3.028  15.865  0.5049  0.1071  0.2292
 2490SOL    HW219107   0.892   2.967  15.886 -1.8703 -0.6035  1.0904
 2491SOL     OW19108   1.214   1.191  14.156 -0.1047 -0.2539  0.1326
 2491SOL    HW119109   1.255   1.254  14.097  0.8524 -1.0065 -0.0075
 2491SOL    HW219110   1.123   1.220  14.154 -0.0508 -0.1226 -0.4863
 2492SOL     OW19111   3.692   0.733   7.456  0.6237 -0.3435  0.3583
 2492SOL    HW119112   3.624   0.755   7.520  0.8977 -3.3436  1.6911
 2492SOL    HW219113   3.705   0.820   7.419 -1.3316 -0.5317 -0.7636
 2493SOL     OW19114   0.081   4.462   4.299 -0.4108 -0.0694  0.1844
 2493SOL    HW119115   0.109   4.554   4.302 -1.2538  0.2268 -1.2831
 2493SOL    HW219116   4.728   4.474   4.261  0.9183 -0.7484 -3.1032
 2494SOL     OW19117   4.374   3.305   2.936 -0.2082 -0.3658  0.1442
 2494SOL    HW119118   4.415   3.376   2.887 -0.2296 -1.7067 -1.7930
 2494SOL    HW219119   4.401   3.318   3.027 -0.0832  1.1903 -0.1185
 2495SOL     OW19120   1.901   2.499   2.078 -0.5674 -0.3142  0.2047
 2495SOL    HW119121   1.898   2.579   2.132 -2.9938  0.4212 -1.0451
 2495SOL    HW219122   1.923   2.537   1.993 -0.5093 -0.5388  0.1188
 2496SOL     OW19123   3.411   4.732   5.262  0.2714 -0.7616  0.2764
 2496SOL    HW119124   3.393   4.641   5.237 -1.6518 -0.9688  2.3889
 2496SOL    HW219125   3.322   0.023   5.286  0.7927  0.9418  0.4038
 2497SOL     OW19126   1.378   3.195   8.883 -0.1858  0.4545  0.2822
 2497SOL    HW119127   1.401   3.134   8.813  2.7981  1.3359  0.4598
 2497SOL    HW219128   1.461   3.195   8.931  2.7238  0.3840 -4.6517
 2498SOL     OW19129   3.484   1.666  15.052 -0.5708  0.0139  0.3152
 2498SOL    HW119130   3.528   1.583  15.032  0.2375  0.7040 -0.7279
 2498SOL    HW219131   3.466   1.654  15.145 -0.8285  0.9359  0.3867
 2499SOL     OW19132   0.280   3.280   6.906  0.1076  0.7650 -0.1802
 2499SOL    HW119133   0.347   3.215   6.884 -0.0078  0.6598 -0.2261
 2499SOL    HW219134   0.316   3.310   6.989 -0.3174 -1.3588  0.7882
 2500SOL     OW19135   1.083   3.661   0.972 -0.3233  0.4256 -0.2146
 2500SOL    HW119136   1.065   3.586   1.029 -2.7621  0.8160 -0.5030
 2500SOL    HW219137   1.009   3.718   0.991 -1.2874 -0.5845 -0.9883
 2501SOL     OW19138   3.464   0.614   0.270  0.4719  0.0103 -0.3336
 2501SOL    HW119139   3.433   0.666   0.344  3.7100 -0.4850  1.3442
 2501SOL    HW219140   3.542   0.574   0.309  0.5703  1.9942  1.4937
 2502SOL     OW19141   4.438   4.687   1.655 -0.2102 -0.0308  0.3083
 2502SOL    HW119142   4.415   0.038   1.619  2.7277  0.2715 -0.8485
 2502SOL    HW219143   4.492   4.723   1.726 -0.6651  2.9577 -0.8655
 2503SOL     OW19144   4.614   0.009   7.516 -0.3350 -0.3505  0.2314
 2503SOL    HW119145   4.559   4.686   7.569 -1.1809 -0.7654 -1.0920
 2503SOL    HW219146   4.650   4.681   7.453 -1.5762 -0.7241 -0.1125
 2504SOL     OW19147   1.182   0.533   6.893  0.1371  0.2567 -0.2633
 2504SOL    HW119148   1.237   0.578   6.958 -0.4714  1.4086 -0.5565
 2504SOL    HW219149   1.204   0.441   6.913  0.9549  0.3587 -0.6888
 2505SOL     OW19150   3.884   2.321  12.904  0.0754 -0.5647  0.5900
 2505SOL    HW119151   3.805   2.371  12.885  1.1841  1.9923  2.5972
 2505SOL    HW219152   3.910   2.378  12.977 -0.6863  1.3347 -0.6153
 2506SOL     OW19153   2.736   2.094   5.135  0.4791 -0.4452 -0.1398
 2506SOL    HW119154   2.765   2.161   5.074  1.0091  0.6783  1.3402
 2506SOL    HW219155   2.663   2.071   5.077  1.5536  0.2535 -1.7535
 2507SOL     OW19156   3.296   1.713   6.127 -0.1137 -0.1146 -0.3946
 2507SOL    HW119157   3.335   1.800   6.121 -0.7211  0.0886 -1.4265
 2507SOL    HW219158   3.367   1.665   6.169 -1.7676  0.0487  2.6048
 2508SOL     OW19159   1.642   1.550  11.658 -0.5849 -0.5378 -0.2824
 2508SOL    HW119160   1.711   1.572  11.721 -1.6101  0.4181  0.5067
 2508SOL    HW219161   1.692   1.536  11.577  1.4504 -1.1747  1.0993
 2509SOL     OW19162   0.170   2.865   6.429  0.6659  0.2484  0.0121
 2509SOL    HW119163   0.200   2.934   6.371  0.8154  0.9420  0.9201
 2509SOL    HW219164   0.212   2.786   6.394  0.4190  0.9478 -1.8278
 2510SOL     OW19165   1.726   4.070   9.238  0.1305 -0.1409  0.5339
 2510SOL    HW119166   1.753   4.049   9.148  0.5886  0.5364  0.5175
 2510SOL    HW219167   1.783   4.142   9.263  0.2697 -1.0197  2.7750
 2511SOL     OW19168   0.643   1.580   8.791  0.3658  0.1825 -0.3293
 2511SOL    HW119169   0.549   1.574   8.770  0.5620 -0.3761 -1.0905
 2511SOL    HW219170   0.679   1.601   8.705 -1.7460  1.9563 -0.7670
 2512SOL     OW19171   0.283   4.438  13.785  0.6457 -0.7699  0.1123
 2512SOL    HW119172   0.337   4.456  13.863 -1.0853 -0.1638  1.1506
 2512SOL    HW219173   0.202   4.483  13.809  0.3797 -1.4460  0.5047
 2513SOL     OW19174   1.744   2.355   7.225  0.0016  0.1575  0.2487
 2513SOL    HW119175   1.719   2.352   7.133 -0.2343 -0.6337  0.3321
 2513SOL    HW219176   1.722   2.440   7.262 -1.0166 -0.6430  1.5079
 2514SOL     OW19177   0.731   1.939   3.533 -0.0898  0.5671  0.5588
 2514SOL    HW119178   0.703   1.915   3.445  2.2418 -2.5685  0.6799
 2514SOL    HW219179   0.710   2.033   3.535 -1.8583  0.1948 -0.4120
 2515SOL     OW19180   0.917   0.046   4.606  0.1388  0.1191  0.3404
 2515SOL    HW119181   0.977   0.028   4.679 -0.1520  1.5675  0.9289
 2515SOL    HW219182   0.970   0.022   4.529  0.8381  2.0747  0.2142
 2516SOL     OW19183   4.423   2.796   5.545  0.2962  0.0887 -0.3737
 2516SOL    HW119184   4.342   2.846   5.555 -0.1042 -1.0635  2.1132
 2516SOL    HW219185   4.440   2.823   5.455  1.3151 -0.2219 -0.2687
 2517SOL     OW19186   4.560   2.640   7.255 -0.6581  0.9795  0.1999
 2517SOL    HW119187   4.482   2.682   7.292 -1.9861  0.7654 -2.3844
 2517SOL    HW219188   4.518   2.566   7.211  0.0781  0.6797  0.0032
 2518SOL     OW19189   3.848   3.914   2.850 -0.1082  0.0217  0.1810
 2518SOL    HW119190   3.756   3.905   2.876  0.0533  0.5901  0.9658
 2518SOL    HW219191   3.876   3.825   2.828  3.6933  1.3898 -0.4658
 2519SOL     OW19192   3.877   2.480  17.497  0.4859 -0.7223 -0.3030
 2519SOL    HW119193   3.925   2.416  17.444 -0.5252 -0.7014 -1.2379
 2519SOL    HW219194   3.797   2.428  17.506 -0.9793  1.7937  1.3633
 2520SOL     OW19195   3.458   3.784   5.378  0.0401  0.0184  0.2752
 2520SOL    HW119196   3.378   3.734   5.394 -0.8891  1.7032  0.8819
 2520SOL    HW219197   3.454   3.789   5.283 -2.9582  1.2816  0.4523
 2521SOL     OW19198   3.891   3.055  14.887  0.1042 -0.4686  0.1746
 2521SOL    HW119199   3.814   3.067  14.944 -0.4112  4.0547 -1.4616
 2521SOL    HW219200   3.932   2.979  14.928  3.9297 -0.1641 -3.1132
 2522SOL     OW19201   0.195   1.268  11.854 -0.1928  0.1290 -0.0445
 2522SOL    HW119202   0.105   1.302  11.854  0.7682  2.6689  0.7512
 2522SOL    HW219203   0.246   1.348  11.843  0.8267 -0.6078 -0.6723
 2523SOL     OW19204   0.883   3.717   4.108 -0.2199 -0.3227  0.1852
 2523SOL    HW119205   0.966   3.765   4.104  0.3010 -1.2448 -0.0014
 2523SOL    HW219206   0.828   3.780   4.156  0.2152  1.5383 -1.7377
 2524SOL     OW19207   3.622   3.463   7.169 -0.1265  0.1258  0.4958
 2524SOL    HW119208   3.607   3.498   7.257  0.6630 -0.4477  0.8583
 2524SOL    HW219209   3.572   3.381   7.172  1.6576 -0.9626  0.2508
 2525SOL     OW19210   3.940   3.808   7.744 -0.0844  0.4592 -0.0603
 2525SOL    HW119211   3.883   3.744   7.787  0.7242 -0.1830  0.0435
 2525SOL    HW219212   3.945   3.870   7.817  0.2043  1.4342 -0.9158
 2526SOL     OW19213   1.576   0.275  16.137  0.5097  0.3066 -0.7820
 2526SOL    HW119214   1.507   0.209  16.129  1.5925 -0.9329  0.2303
 2526SOL    HW219215   1.627   0.271  16.056  0.3276 -0.7887 -0.8419
 2527SOL     OW19216   3.513   0.562  16.207  0.1890  0.0577 -0.2746
 2527SOL    HW119217   3.552   0.480  16.177  1.2929  0.2484  0.6361
 2527SOL    HW219218   3.421   0.539  16.194 -0.6320  1.6638  2.8752
 2528SOL     OW19219   2.934   1.742   1.262  0.2735  0.1262 -0.6291
 2528SOL    HW119220   2.932   1.716   1.170 -0.6869 -2.1847  0.0284
 2528SOL    HW219221   2.893   1.828   1.261 -0.1766 -0.0557  2.9848
 2529SOL     OW19222   4.371   3.803   3.857  0.1925 -0.2381 -0.3558
 2529SOL    HW119223   4.435   3.807   3.786  0.1223 -0.3215 -0.4240
 2529SOL    HW219224   4.345   3.895   3.862 -1.5224 -0.6276 -2.0956
 2530SOL     OW19225   2.308   3.214   4.730  0.2314 -0.2256 -0.3705
 2530SOL    HW119226   2.396   3.183   4.708 -0.0453 -0.5103 -1.0737
 2530SOL    HW219227   2.252   3.157   4.677  1.2969 -2.6985  1.1322
 2531SOL     OW19228   1.031   3.361   9.231  0.7897  0.1756 -0.0233
 2531SOL    HW119229   0.981   3.375   9.150  1.3505  1.2398 -0.1845
 2531SOL    HW219230   1.004   3.433   9.288  0.0661  1.1642 -1.6152
 2532SOL     OW19231   2.176   1.165   3.237 -0.1419  0.0854 -0.0305
 2532SOL    HW119232   2.177   1.187   3.144 -1.8304  1.0458  0.1945
 2532SOL    HW219233   2.109   1.228   3.263  0.0371  0.4996 -0.5756
 2533SOL     OW19234   3.617   3.718   4.523 -0.5916  0.0443  0.5784
 2533SOL    HW119235   3.657   3.718   4.610  0.6971  0.6078 -0.0258
 2533SOL    HW219236   3.677   3.655   4.483 -1.8112 -1.1503  0.5949
 2534SOL     OW19237   0.560   1.054   6.464 -0.1560 -0.0171  0.4514
 2534SOL    HW119238   0.549   1.065   6.370  0.7173 -1.0748  0.2167
 2534SOL    HW219239   0.510   0.973   6.469 -0.6046  0.2807  0.7860
 2535SOL     OW19240   1.946   3.304   7.683 -0.8416 -0.5262  0.1088
 2535SOL    HW119241   1.935   3.380   7.627  0.8655  1.5686  2.6167
 2535SOL    HW219242   1.970   3.246   7.611  0.1161  3.6060 -2.8618
 2536SOL     OW19243   0.318   1.846  16.330  0.4537 -0.8337 -0.4909
 2536SOL    HW119244   0.258   1.783  16.371  0.2876  0.7781  1.7312
 2536SOL    HW219245   0.326   1.824  16.237 -1.1495 -0.6650 -0.6572
 2537SOL     OW19246   3.573   1.806  16.508  0.3681  0.0945  0.6129
 2537SOL    HW119247   3.594   1.724  16.464 -0.5929  0.0565  0.2188
 2537SOL    HW219248   3.628   1.799  16.586  2.7180  0.0995 -1.0426
 2538SOL     OW19249   4.389   0.026  15.789 -0.1918  0.3314 -0.4857
 2538SOL    HW119250   4.475   4.730  15.760 -0.7415 -2.7131  1.0574
 2538SOL    HW219251   4.405   0.102  15.845 -0.3497  0.1910 -0.2538
 2539SOL     OW19252   4.285   0.011  17.023 -0.0841 -0.1758  0.7978
 2539SOL    HW119253   4.364   4.734  16.969 -0.7576  0.6647 -0.3732
 2539SOL    HW219254   4.240   0.065  16.957 -0.8288  0.6271  1.9755
 2540SOL     OW19255   2.439   0.625   5.347 -0.5971 -0.5764 -0.0363
 2540SOL    HW119256   2.416   0.688   5.415  2.5138  1.5892 -1.0015
 2540SOL    HW219257   2.394   0.666   5.273  0.2021 -4.5532 -2.7190
 2541SOL     OW19258   3.341   3.366   0.229 -0.4352  0.0488 -0.3683
 2541SOL    HW119259   3.277   3.332   0.291  1.9014 -2.3575  0.7209
 2541SOL    HW219260   3.296   3.324   0.156 -1.5360  2.3567 -1.0176
 2542SOL     OW19261   3.258   0.820   4.310 -0.5628 -0.4407  0.2852
 2542SOL    HW119262   3.198   0.856   4.375  0.4168  2.0348 -0.1857
 2542SOL    HW219263   3.334   0.804   4.366 -0.2153  3.5156  0.9308
 2543SOL     OW19264   2.694   1.584  12.363 -0.6555 -0.0091  0.1599
 2543SOL    HW119265   2.736   1.639  12.429 -0.2650  1.5340 -1.3901
 2543SOL    HW219266   2.735   1.498  12.376 -0.1672  0.2207  0.1262
 2544SOL     OW19267   0.775   2.419   6.663  0.1382  0.1932 -0.1783
 2544SOL    HW119268   0.705   2.459   6.611  1.6949 -0.2237 -2.5998
 2544SOL    HW219269   0.728   2.337   6.676 -2.2485  1.4030 -1.1085
 2545SOL     OW19270   1.161   3.530  13.355 -0.5821 -0.2335 -0.0769
 2545SOL    HW119271   1.121   3.452  13.317  0.5763 -0.6327 -0.4857
 2545SOL    HW219272   1.141   3.601  13.294 -1.1732  1.1722  1.7524
 2546SOL     OW19273   0.006   0.486  11.462 -0.5066 -0.5023  0.3493
 2546SOL    HW119274   0.024   0.553  11.527  1.8825  0.1504 -0.9568
 2546SOL    HW219275   4.661   0.447  11.500  0.2188 -0.9131  1.4398
 2547SOL     OW19276   0.069   4.343   7.920 -0.1976  0.6668  0.5296
 2547SOL    HW119277   0.066   4.302   7.833 -0.4147  0.6509  0.5429
 2547SOL    HW219278   4.716   4.353   7.960 -0.5160  0.5197 -0.1126
 2548SOL     OW19279   1.163   1.922   1.653  0.0482 -0.2051  0.3299
 2548SOL    HW119280   1.248   1.878   1.652  3.1507  5.8768 -1.0848
 2548SOL    HW219281   1.152   1.953   1.743  0.1651  0.6045  0.0667
 2549SOL     OW19282   0.506   3.100   7.246  0.1793 -0.3901 -0.0048
 2549SOL    HW119283   0.509   3.171   7.311 -0.0272  0.5235 -1.0072
 2549SOL    HW219284   0.466   3.033   7.302 -1.6200  0.3651 -0.3985
 2550SOL     OW19285   0.126   3.989   1.163  0.1575 -0.8786  0.1736
 2550SOL    HW119286   0.074   4.067   1.143  1.5001 -0.3395 -1.1949
 2550SOL    HW219287   0.212   3.999   1.123  0.4183  0.2260  1.0327
 2551SOL     OW19288   1.334   2.292  11.859 -0.1547  0.0921 -0.2614
 2551SOL    HW119289   1.357   2.384  11.844  0.5079 -0.0482 -0.0695
 2551SOL    HW219290   1.408   2.247  11.819 -1.3669 -0.9843 -1.2957
 2552SOL     OW19291   2.899   0.953  12.655  0.4339  0.1112 -0.0186
 2552SOL    HW119292   2.927   0.890  12.722  1.5572  0.9154  0.2784
 2552SOL    HW219293   2.924   0.897  12.582 -2.7019 -3.1376  1.3959
 2553SOL     OW19294   4.214   2.296   8.381 -0.1211 -0.1901 -0.1314
 2553SOL    HW119295   4.127   2.335   8.371  1.0658  2.6708  1.0657
 2553SOL    HW219296   4.252   2.334   8.460 -2.7549 -0.2046  1.1226
 2554SOL     OW19297   4.375   4.031  16.828 -0.8611  0.8090 -0.0913
 2554SOL    HW119298   4.298   4.009  16.881  1.4698 -1.4866  2.3724
 2554SOL    HW219299   4.443   4.051  16.892 -0.6745  0.2961 -0.1308
 2555SOL     OW19300   0.877   2.680   6.630  0.2564 -1.0051  0.1374
 2555SOL    HW119301   0.814   2.747   6.603  1.3877 -0.2933 -0.7544
 2555SOL    HW219302   0.826   2.603   6.655 -3.7522  1.3241 -0.6940
 2556SOL     OW19303   4.624   4.415   4.777  0.0197 -0.4158  0.0673
 2556SOL    HW119304   4.621   4.376   4.690  0.0604  2.7275 -1.3281
 2556SOL    HW219305   4.717   4.416   4.799 -0.0419  1.3735  0.2817
 2557SOL     OW19306   3.808   3.583   1.528 -0.3360  0.2324  0.5041
 2557SOL    HW119307   3.849   3.621   1.450 -1.1100 -1.4426 -0.7385
 2557SOL    HW219308   3.869   3.511   1.544  1.7439  1.6444 -1.0979
 2558SOL     OW19309   0.853   2.058   8.036 -0.1608 -0.2201 -0.0066
 2558SOL    HW119310   0.918   2.044   7.967  0.5596  0.7714  0.4691
 2558SOL    HW219311   0.789   2.111   7.988  0.3858 -0.0903 -0.5895
 2559SOL     OW19312   0.632   3.436  12.235  0.2232 -0.1814  0.0273
 2559SOL    HW119313   0.565   3.409  12.173 -0.9948 -0.4515  1.4585
 2559SOL    HW219314   0.706   3.454  12.177  0.3712 -1.5330 -0.1972
 2560SOL     OW19315   3.383   0.768   2.371 -0.2054  0.8661  0.1108
 2560SOL    HW119316   3.381   0.860   2.344  2.1343  1.0882  0.6616
 2560SOL    HW219317   3.464   0.776   2.422 -0.8846  0.8485  1.2019
 2561SOL     OW19318   4.297   3.596  15.215  0.0668  0.3825 -0.3226
 2561SOL    HW119319   4.213   3.623  15.254  0.1365  2.3103 -1.4869
 2561SOL    HW219320   4.287   3.636  15.128  1.4363 -0.1783 -0.7252
 2562SOL     OW19321   3.677   0.453   0.401 -0.5865  0.2521 -0.4275
 2562SOL    HW119322   3.687   0.369   0.446 -0.4517  0.7253  0.4227
 2562SOL    HW219323   3.756   0.461   0.348 -0.5862  1.0695 -0.3074
 2563SOL     OW19324   2.672   0.195  13.585  0.2911  0.3461  0.4490
 2563SOL    HW119325   2.762   0.164  13.586 -0.6417 -2.4505 -1.9780
 2563SOL    HW219326   2.621   0.138  13.642  3.1060 -0.2672  2.3605
 2564SOL     OW19327   2.844   0.700   4.016 -0.2040 -0.2408  0.2332
 2564SOL    HW119328   2.918   0.655   3.977  0.3116  2.0067 -1.4033
 2564SOL    HW219329   2.814   0.753   3.942  1.7971  0.4595 -0.0755
 2565SOL     OW19330   3.896   1.323   8.881 -0.5100 -0.2458 -0.3386
 2565SOL    HW119331   3.921   1.253   8.940  0.7429  1.3538  1.0268
 2565SOL    HW219332   3.965   1.379   8.916  1.3200 -2.0408 -1.0785
 2566SOL     OW19333   2.242   4.237   8.714 -0.0231  0.0826  0.0299
 2566SOL    HW119334   2.283   4.150   8.715  0.6441  0.3944  0.2252
 2566SOL    HW219335   2.241   4.253   8.809 -1.5515  1.4103 -0.2130
 2567SOL     OW19336   2.085   1.225  17.057  0.5916 -0.2863 -0.5522
 2567SOL    HW119337   2.053   1.143  17.020 -1.7291 -0.2483  1.3448
 2567SOL    HW219338   2.038   1.238  17.139  1.1564 -2.3976  0.0886
 2568SOL     OW19339   0.347   3.230   3.320 -0.6816 -0.5093 -0.0050
 2568SOL    HW119340   0.318   3.250   3.408 -0.9136 -1.9845  0.2449
 2568SOL    HW219341   0.443   3.223   3.315 -0.7284  0.5442 -2.4820
 2569SOL     OW19342   2.320   3.587   0.713 -0.0005  0.3164 -0.0854
 2569SOL    HW119343   2.261   3.611   0.785 -1.2462  2.6551 -1.9073
 2569SOL    HW219344   2.401   3.635   0.729  0.0195  0.5639 -0.9345
 2570SOL     OW19345   2.730   1.154   5.321 -0.3781 -0.8762 -0.1000
 2570SOL    HW119346   2.761   1.192   5.238 -0.7410  0.9958  0.6475
 2570SOL    HW219347   2.664   1.094   5.286 -1.2584 -0.4114  0.7867
 2571SOL     OW19348   0.665   4.078   7.675  0.1920  0.1778 -0.6166
 2571SOL    HW119349   0.656   4.118   7.588  2.3668 -1.5513 -1.6312
 2571SOL    HW219350   0.734   4.126   7.721  3.8368 -2.0943 -3.6799
 2572SOL     OW19351   0.681   3.246  12.519 -0.5776 -0.5272  0.4968
 2572SOL    HW119352   0.738   3.211  12.587 -1.0937 -0.0993  1.1489
 2572SOL    HW219353   0.657   3.335  12.547  0.5120 -0.1000  0.0948
 2573SOL     OW19354   1.390   0.604   5.991  0.1747  0.1046 -0.3419
 2573SOL    HW119355   1.432   0.603   5.905  0.4164  1.1528 -0.2372
 2573SOL    HW219356   1.306   0.564   5.970  0.2814 -0.4695  0.3070
 2574SOL     OW19357   2.782   3.805   3.601 -0.3707  0.1467  0.3038
 2574SOL    HW119358   2.870   3.767   3.599  0.8324  2.9163  0.1847
 2574SOL    HW219359   2.765   3.796   3.508 -0.7561  0.8669  0.3047
 2575SOL     OW19360   0.374   1.703   6.414  0.2210 -0.4598 -0.0107
 2575SOL    HW119361   0.342   1.637   6.476 -0.8308  1.3335  1.3320
 2575SOL    HW219362   0.447   1.735   6.468  1.3755  0.7501 -2.2867
 2576SOL     OW19363   4.714   0.433   3.643  0.1794  0.0245 -0.4131
 2576SOL    HW119364   4.645   0.494   3.668 -1.1960 -2.7726  2.6290
 2576SOL    HW219365   4.692   0.359   3.700 -0.8269  1.0836  0.5717
 2577SOL     OW19366   3.744   2.005   4.734 -0.2997 -0.1088 -0.4232
 2577SOL    HW119367   3.727   1.973   4.823 -2.1380  1.0400 -0.3531
 2577SOL    HW219368   3.837   1.989   4.719  0.0681  1.5815  0.0248
 2578SOL     OW19369   2.718   2.581   3.010  0.0850  0.3177  0.2517
 2578SOL    HW119370   2.629   2.545   3.011  1.6458 -3.5364 -0.5964
 2578SOL    HW219371   2.767   2.499   3.005 -1.1101 -0.2673 -1.7087
 2579SOL     OW19372   2.021   4.550   4.302 -0.2029  0.0134 -0.2120
 2579SOL    HW119373   2.109   4.513   4.299  0.2526  1.3709 -3.3878
 2579SOL    HW219374   1.973   4.476   4.264  0.2847 -0.8298  0.7982
 2580SOL     OW19375   1.563   2.561  13.117 -0.2993  0.3271  0.5942
 2580SOL    HW119376   1.529   2.647  13.139 -1.1686  0.1722 -0.1508
 2580SOL    HW219377   1.581   2.578  13.024 -3.2071  0.6588  0.0891
 2581SOL     OW19378   2.761   0.212   2.676 -0.4303 -0.1642 -1.2166
 2581SOL    HW119379   2.762   0.242   2.767 -0.1590 -1.2212 -0.8653
 2581SOL    HW219380   2.671   0.181   2.672 -0.7440  0.7546 -1.2695
 2582SOL     OW19381   0.703   2.468   5.573  0.1650  0.0528 -0.4477
 2582SOL    HW119382   0.727   2.535   5.508 -0.9442  0.7484 -0.1340
 2582SOL    HW219383   0.615   2.439   5.546  0.7492 -0.2340 -2.0702
 2583SOL     OW19384   3.886   1.243  12.828 -0.4157 -0.4865 -0.2030
 2583SOL    HW119385   3.929   1.175  12.879  0.2601  0.0429 -0.0726
 2583SOL    HW219386   3.891   1.199  12.743  0.8459 -0.2640 -0.2343
 2584SOL     OW19387   3.112   2.439   4.770  0.2052  0.1738 -0.2447
 2584SOL    HW119388   3.075   2.418   4.685 -0.1769  2.5322 -0.6587
 2584SOL    HW219389   3.116   2.356   4.818 -0.6053 -1.9916 -3.9226
 2585SOL     OW19390   1.369   1.114   4.472  0.2943  0.4377 -0.3218
 2585SOL    HW119391   1.429   1.039   4.469  0.0276  0.2828 -1.8633
 2585SOL    HW219392   1.307   1.070   4.530 -0.0633 -1.3821 -2.0688
 2586SOL     OW19393   3.804   2.425   9.353 -0.0554 -0.7413 -0.2759
 2586SOL    HW119394   3.820   2.342   9.308  1.9280 -1.1485  1.2015
 2586SOL    HW219395   3.833   2.483   9.283  0.0629  1.0963  1.3129
 2587SOL     OW19396   1.400   0.775   6.466  1.0429  0.0931 -0.4238
 2587SOL    HW119397   1.342   0.755   6.539  2.4580 -1.5687  0.2322
 2587SOL    HW219398   1.483   0.735   6.492  2.1797  0.6585 -3.1251
 2588SOL     OW19399   3.782   0.943   6.138  0.7242 -0.4922 -0.1102
 2588SOL    HW119400   3.812   0.923   6.049 -1.5320 -1.8030 -0.5918
 2588SOL    HW219401   3.756   0.852   6.153  3.3369 -0.8984  2.0336
 2589SOL     OW19402   3.211   3.844   5.733 -0.0398  0.3617  0.2486
 2589SOL    HW119403   3.219   3.865   5.640 -1.4238  1.6412  0.4237
 2589SOL    HW219404   3.297   3.882   5.749 -0.6317  2.0258 -0.4876
 2590SOL     OW19405   2.199   3.917   6.251  0.1137 -0.0349  0.1395
 2590SOL    HW119406   2.234   3.972   6.322  1.8310 -0.7462 -0.1519
 2590SOL    HW219407   2.144   3.979   6.203  0.4153  0.7707  0.8193
 2591SOL     OW19408   0.953   3.358   2.538 -0.0594  0.4795  0.3514
 2591SOL    HW119409   1.005   3.281   2.563 -0.5291  0.4759  1.3195
 2591SOL    HW219410   1.025   3.410   2.503  1.2588 -1.0955  0.7142
 2592SOL     OW19411   0.217   3.159   3.710  0.0332 -0.7142 -0.1821
 2592SOL    HW119412   0.190   3.193   3.795 -0.2291 -1.5919  0.0856
 2592SOL    HW219413   0.276   3.225   3.673  0.7204 -0.3140  1.6446
 2593SOL     OW19414   0.415   1.292   5.251  0.3085 -0.1873 -0.4300
 2593SOL    HW119415   0.333   1.287   5.301 -0.4100 -0.2460 -1.6035
 2593SOL    HW219416   0.408   1.381   5.216  0.9019 -0.2751 -0.7625
 2594SOL     OW19417   2.923   1.678  17.446 -0.1064 -0.2567 -0.1414
 2594SOL    HW119418   2.882   1.751  17.399 -1.4136 -1.0877 -0.2992
 2594SOL    HW219419   2.847   1.628  17.477 -0.5914  0.4920 -0.1286
 2595SOL     OW19420   2.281   1.490   4.931  0.0591 -0.1814  0.1957
 2595SOL    HW119421   2.291   1.535   5.014  1.6916  0.1722 -0.1994
 2595SOL    HW219422   2.270   1.567   4.875  0.4987  0.0221  0.3941
 2596SOL     OW19423   0.908   0.441   3.901 -0.0004 -0.4078 -0.2488
 2596SOL    HW119424   0.959   0.363   3.881  1.0189 -0.1834  1.4348
 2596SOL    HW219425   0.834   0.431   3.841  0.0028  0.0996 -0.3361
 2597SOL     OW19426   0.370   2.397   1.522  0.5705  0.5951 -0.1626
 2597SOL    HW119427   0.307   2.456   1.481  0.0062 -0.1958 -0.4242
 2597SOL    HW219428   0.453   2.423   1.484  0.9067 -1.7107 -0.9988
 2598SOL     OW19429   1.788   0.718  12.564  0.0813  0.0160 -0.0910
 2598SOL    HW119430   1.791   0.622  12.562 -0.4800 -0.0731  2.3618
 2598SOL    HW219431   1.853   0.737  12.632  0.0484  1.0231 -0.3361
 2599SOL     OW19432   1.688   0.113   4.349 -0.6340 -0.4685 -0.7148
 2599SOL    HW119433   1.760   0.149   4.401 -3.3941  1.5545  1.7157
 2599SOL    HW219434   1.650   0.197   4.325 -0.5937  0.3515  2.0907
 2600SOL     OW19435   3.282   2.418   4.312  0.3100  0.2011 -0.1173
 2600SOL    HW119436   3.189   2.433   4.327  0.2480  0.5538 -0.8230
 2600SOL    HW219437   3.318   2.506   4.326 -0.5313 -0.1254  4.1194
 2601SOL     OW19438   4.716   1.489   2.521  0.0402  0.4209  0.3581
 2601SOL    HW119439   4.680   1.447   2.599 -0.6118  1.3159  0.5382
 2601SOL    HW219440   4.664   1.439   2.458  1.0746  2.1846 -1.9059
 2602SOL     OW19441   2.677   2.291   9.689  0.1513  0.2700 -0.2973
 2602SOL    HW119442   2.769   2.292   9.716  0.1543  1.1423 -0.3294
 2602SOL    HW219443   2.668   2.385   9.671 -1.5546  0.6318  2.3522
 2603SOL     OW19444   1.260   1.612   1.472  0.0200  0.3862  0.2000
 2603SOL    HW119445   1.306   1.603   1.389 -2.6562 -0.7866 -1.1436
 2603SOL    HW219446   1.169   1.599   1.448  0.5013 -0.5838 -1.0963
 2604SOL     OW19447   3.162   2.339   6.676 -0.0758  0.0767  0.2520
 2604SOL    HW119448   3.176   2.401   6.604 -0.0087  0.4559  0.5946
 2604SOL    HW219449   3.159   2.254   6.631 -2.2496 -0.1964  0.8763
 2605SOL     OW19450   0.282   3.205   7.433  0.4357 -0.3016 -1.2176
 2605SOL    HW119451   0.293   3.114   7.459  2.7099  0.3223 -0.0085
 2605SOL    HW219452   0.203   3.234   7.479  0.5008 -1.3312 -0.4836
 2606SOL     OW19453   0.201   0.776  10.402  0.4698 -0.6408  0.1769
 2606SOL    HW119454   0.184   0.836  10.474 -0.8781  2.2662 -2.5618
 2606SOL    HW219455   0.293   0.788  10.376  0.5455 -1.2133  0.1773
 2607SOL     OW19456   4.257   4.201   3.081 -0.7179 -0.1693  0.0991
 2607SOL    HW119457   4.183   4.183   3.023  0.1730  0.2899 -1.1863
 2607SOL    HW219458   4.274   4.294   3.063 -1.1127 -0.1637 -0.2577
 2608SOL     OW19459   0.742   0.920   8.792  0.1595 -0.6453  0.5203
 2608SOL    HW119460   0.787   0.912   8.876 -0.0782  1.5961  0.8575
 2608SOL    HW219461   0.773   0.992   8.738  1.0879 -0.4555  1.3141
 2609SOL     OW19462   1.361   3.792   5.339  0.2545  0.0338  0.3295
 2609SOL    HW119463   1.296   3.861   5.349 -0.3334 -0.2785 -1.4308
 2609SOL    HW219464   1.358   3.768   5.432  0.7388  1.0955  0.6256
 2610SOL     OW19465   0.779   3.858   3.743 -0.1399  0.3466  0.1156
 2610SOL    HW119466   0.703   3.816   3.702  2.0286 -2.2405 -1.2554
 2610SOL    HW219467   0.755   3.950   3.749 -0.9383  0.1541 -0.1273
 2611SOL     OW19468   1.086   1.508   3.251 -0.1923  0.9790 -0.1701
 2611SOL    HW119469   1.084   1.516   3.346  0.2320 -0.6735 -0.0087
 2611SOL    HW219470   0.997   1.493   3.218  0.8030  1.2743 -2.9686
 2612SOL     OW19471   1.420   0.802   2.421 -0.2829 -0.2625 -0.8838
 2612SOL    HW119472   1.465   0.800   2.336  0.1424 -2.1175 -0.6173
 2612SOL    HW219473   1.482   0.838   2.484 -0.7907  0.9364 -1.0822
 2613SOL     OW19474   3.131   0.520   7.156 -0.0560 -0.3910  0.3310
 2613SOL    HW119475   3.061   0.507   7.093 -0.2026  0.0165  0.4087
 2613SOL    HW219476   3.088   0.538   7.240 -1.1981  0.8773 -0.5337
 2614SOL     OW19477   3.529   3.939   1.476 -0.3638 -0.4075  0.0764
 2614SOL    HW119478   3.584   3.979   1.543  2.2647  0.3518 -2.5293
 2614SOL    HW219479   3.528   3.845   1.495 -3.5925 -0.5582 -0.8734
 2615SOL     OW19480   2.317   3.290   3.931  0.6127  0.5528 -0.3390
 2615SOL    HW119481   2.375   3.253   3.997  2.0489  1.4057 -1.1292
 2615SOL    HW219482   2.234   3.253   3.960  0.2793  2.8211  1.6037
 2616SOL     OW19483   4.590   1.424   6.334 -0.1832  0.9077 -0.2536
 2616SOL    HW119484   4.538   1.473   6.271  0.1205  0.6367 -0.7095
 2616SOL    HW219485   4.520   1.417   6.399  1.6193 -1.2730  1.4594
 2617SOL     OW19486   2.901   0.503  13.523 -0.0727 -0.1614  0.1519
 2617SOL    HW119487   2.913   0.579  13.466 -0.3357  2.0229  3.0024
 2617SOL    HW219488   2.820   0.476  13.481  0.2537 -0.2317 -0.4398
 2618SOL     OW19489   2.334   3.294  14.745  0.2873  0.0336  1.0534
 2618SOL    HW119490   2.287   3.289  14.828 -2.1258 -0.6513 -0.3617
 2618SOL    HW219491   2.271   3.349  14.698  0.3795 -0.5392  0.2592
 2619SOL     OW19492   3.728   0.443   3.429  0.4519  0.0131 -0.2200
 2619SOL    HW119493   3.817   0.408   3.438 -0.5177 -2.8151 -1.5453
 2619SOL    HW219494   3.704   0.429   3.338  1.9421 -1.5294 -0.3725
 2620SOL     OW19495   2.073   0.473  11.274  0.0024 -0.1976  0.2080
 2620SOL    HW119496   2.017   0.463  11.197 -0.5715 -0.5756  0.6768
 2620SOL    HW219497   2.055   0.395  11.327  1.1492  0.0488  0.9711
 2621SOL     OW19498   0.916   2.318   0.340 -0.0973  0.2714 -0.1664
 2621SOL    HW119499   0.855   2.311   0.267 -0.8441 -1.5562  0.6547
 2621SOL    HW219500   0.998   2.300   0.295  0.5049  1.5159  0.4362
 2622SOL     OW19501   4.018   1.299   4.019  0.5352  0.0724 -0.3328
 2622SOL    HW119502   3.941   1.264   4.063  2.6961 -3.0426  1.0358
 2622SOL    HW219503   4.069   1.218   4.010 -0.6229 -0.6921  0.0480
 2623SOL     OW19504   2.741   2.287   6.294  0.4653  0.4518 -0.6024
 2623SOL    HW119505   2.825   2.256   6.327 -0.5659  2.2840  3.7502
 2623SOL    HW219506   2.683   2.271   6.369  4.3242  0.1915  2.3284
 2624SOL     OW19507   0.400   3.003  10.962 -0.2430 -0.5409 -0.4851
 2624SOL    HW119508   0.488   3.021  10.995 -1.2085  2.6131  0.4549
 2624SOL    HW219509   0.409   2.926  10.907 -5.0929 -0.0308 -1.9824
 2625SOL     OW19510   0.729   1.623  10.081 -0.1795 -0.5985 -0.5564
 2625SOL    HW119511   0.813   1.595  10.045  0.1223 -1.6785  1.0048
 2625SOL    HW219512   0.660   1.593  10.022 -0.1001 -0.6632 -0.6163
 2626SOL     OW19513   1.664   3.392  14.944 -0.4798 -0.2175  0.0417
 2626SOL    HW119514   1.642   3.371  14.853  1.1323  2.3781 -0.9657
 2626SOL    HW219515   1.696   3.307  14.975 -1.9811 -1.4460 -1.7466
 2627SOL     OW19516   3.451   4.588   3.854  0.3946 -0.1563  0.2115
 2627SOL    HW119517   3.492   4.654   3.798  0.8158 -0.5532  0.0579
 2627SOL    HW219518   3.455   4.512   3.797  0.2211 -0.2628  0.3418
 2628SOL     OW19519   2.980   0.613   3.592 -0.3376 -0.3314 -0.1635
 2628SOL    HW119520   2.993   0.597   3.686 -0.8651  0.8576  0.1145
 2628SOL    HW219521   2.904   0.556   3.578 -0.5208 -0.3332  0.8026
 2629SOL     OW19522   4.411   4.674   2.479 -0.9252 -0.7800  0.2912
 2629SOL    HW119523   4.382   4.630   2.559 -0.0350  0.8328  1.5030
 2629SOL    HW219524   4.489   4.721   2.508 -1.1139 -0.3465  0.0931
 2630SOL     OW19525   1.433   4.415   0.956 -0.2953  0.6363 -0.2444
 2630SOL    HW119526   1.496   4.473   0.913 -0.4426  0.0699 -1.2110
 2630SOL    HW219527   1.371   4.477   0.995 -0.1278  0.5652  0.1336
 2631SOL     OW19528   4.601   3.452   4.373  0.2090 -0.5011  0.4685
 2631SOL    HW119529   4.551   3.534   4.375  1.2782  0.2034 -0.7455
 2631SOL    HW219530   4.552   3.401   4.308 -0.3645 -1.2140  1.4758
 2632SOL     OW19531   3.984   1.151   8.506  0.6433 -0.0946 -0.1849
 2632SOL    HW119532   3.949   1.234   8.536  1.0015  0.7712 -2.1620
 2632SOL    HW219533   3.981   1.098   8.585 -1.3699 -0.9669 -0.8394
 2633SOL     OW19534   2.553   4.073   8.894  0.0884  0.0656  0.0325
 2633SOL    HW119535   2.544   3.992   8.943  0.7314 -0.1726 -0.2339
 2633SOL    HW219536   2.483   4.059   8.830 -0.5170 -0.8283  0.8873
 2634SOL     OW19537   1.224   1.429   4.585  0.0257 -0.2281  0.4108
 2634SOL    HW119538   1.180   1.398   4.506  0.5910 -0.9447  0.3720
 2634SOL    HW219539   1.178   1.371   4.646 -0.6673  1.1955  1.2363
 2635SOL     OW19540   3.432   4.586   5.868 -0.2154 -0.6313 -0.5851
 2635SOL    HW119541   3.480   4.662   5.835  1.6921 -0.5132  2.4780
 2635SOL    HW219542   3.500   4.520   5.869 -1.7023 -2.1184  1.8430
 2636SOL     OW19543   0.453   1.370   2.223 -0.1109  0.4899 -0.0645
 2636SOL    HW119544   0.370   1.385   2.177 -1.6808 -2.1062  1.9599
 2636SOL    HW219545   0.425   1.396   2.311  0.2482 -2.5246  0.9184
 2637SOL     OW19546   3.523   1.674  13.385 -0.4525  0.3385  0.1916
 2637SOL    HW119547   3.559   1.664  13.297  2.1456  0.0343  1.2910
 2637SOL    HW219548   3.475   1.755  13.365  2.6669  2.9677  3.4236
 2638SOL     OW19549   1.705   1.085  14.868 -0.3157 -0.1747  0.1970
 2638SOL    HW119550   1.702   1.174  14.831  1.9387 -0.5697 -0.9503
 2638SOL    HW219551   1.780   1.044  14.824 -0.3684 -2.4054  2.2081
 2639SOL     OW19552   1.078   3.098  14.878 -0.2899 -0.3531 -0.4082
 2639SOL    HW119553   1.097   3.137  14.793 -1.1673  0.7807 -0.0923
 2639SOL    HW219554   1.164   3.094  14.920  0.1636 -0.0323 -1.3246
 2640SOL     OW19555   0.853   1.783   8.129  0.0786 -0.2887 -0.4386
 2640SOL    HW119556   0.800   1.747   8.059 -1.3874  2.0756 -0.5459
 2640SOL    HW219557   0.847   1.878   8.117  2.4419 -0.1951 -0.9079
 2641SOL     OW19558   2.348   4.703  11.218  0.1772 -0.4095  0.2145
 2641SOL    HW119559   2.424   0.022  11.239 -0.2509  1.1451 -2.1776
 2641SOL    HW219560   2.320   4.701  11.310 -1.2108  0.6240 -0.1837
 2642SOL     OW19561   0.330   4.103   2.210  0.3441 -0.2581  0.4409
 2642SOL    HW119562   0.246   4.140   2.238  1.9950  2.1706  2.2051
 2642SOL    HW219563   0.347   4.149   2.128 -0.7053 -0.5775  0.0592
 2643SOL     OW19564   0.546   1.561   6.731 -0.1607 -0.1593  0.3625
 2643SOL    HW119565   0.452   1.546   6.742 -0.4450  2.5120  1.6095
 2643SOL    HW219566   0.596   1.501   6.786  2.8141  0.5415 -1.6126
 2644SOL     OW19567   4.183   2.945  16.918 -0.3474  0.3659  0.4399
 2644SOL    HW119568   4.194   3.017  16.980  1.7630  0.2464  0.2279
 2644SOL    HW219569   4.150   2.870  16.966 -0.5581  1.4048  1.9199
 2645SOL     OW19570   3.909   2.410   7.265 -0.2539  0.0426 -0.4198
 2645SOL    HW119571   3.903   2.366   7.180  0.5523 -2.3494  0.7592
 2645SOL    HW219572   3.970   2.362   7.321 -1.0609  2.5911  2.6507
 2646SOL     OW19573   3.919   4.263   7.228  0.2019 -0.1248  0.1751
 2646SOL    HW119574   3.900   4.357   7.228  0.6692 -0.0319 -0.1976
 2646SOL    HW219575   3.859   4.231   7.160  0.4529  0.9007 -0.5364
 2647SOL     OW19576   2.008   2.194   7.560 -0.0283  0.1803  0.0687
 2647SOL    HW119577   1.952   2.117   7.570  1.7778 -1.2269 -0.6041
 2647SOL    HW219578   2.095   2.154   7.557  0.8755  2.2691 -1.6787
 2648SOL     OW19579   2.243   2.295   6.383 -0.2570 -0.4088  1.0740
 2648SOL    HW119580   2.334   2.324   6.387  0.0961 -1.3835  0.0368
 2648SOL    HW219581   2.236   2.219   6.327  1.2553 -1.2937  2.0747
 2649SOL     OW19582   0.740   2.113  12.091 -0.1914 -0.0482 -0.5182
 2649SOL    HW119583   0.699   2.198  12.105 -1.4415 -0.8926  0.9397
 2649SOL    HW219584   0.832   2.126  12.112 -0.6988  2.1200  0.2968
 2650SOL     OW19585   2.566   2.688   7.613 -1.0307  0.3962 -0.4772
 2650SOL    HW119586   2.594   2.668   7.524 -1.1148 -0.4480 -0.3163
 2650SOL    HW219587   2.636   2.741   7.652 -0.9282  0.4362 -0.7175
 2651SOL     OW19588   1.804   2.131   5.535  0.0967  0.8068  0.6900
 2651SOL    HW119589   1.771   2.220   5.527 -0.4413  0.4796 -0.7247
 2651SOL    HW219590   1.785   2.102   5.446 -0.6668  1.8330  0.5222
 2652SOL     OW19591   0.114   1.880  10.026 -0.0171  0.0282 -0.0302
 2652SOL    HW119592   0.200   1.917  10.005  0.0279 -1.1487 -1.8745
 2652SOL    HW219593   0.070   1.892   9.942  1.1970 -0.2154 -0.7019
 2653SOL     OW19594   3.095   1.084   6.904  0.7210  0.2359 -0.5250
 2653SOL    HW119595   3.025   1.103   6.842 -0.8358  0.8951  1.4393
 2653SOL    HW219596   3.040   1.062   6.979  0.0356 -1.5335 -1.5617
 2654SOL     OW19597   3.165   2.483   7.742  0.0953 -0.3391 -0.0868
 2654SOL    HW119598   3.190   2.574   7.756  0.5277 -0.0563 -2.7119
 2654SOL    HW219599   3.251   2.445   7.759  0.0839 -0.0910  0.5373
 2655SOL     OW19600   0.104   3.203   4.276  0.0798 -0.1370 -0.0231
 2655SOL    HW119601   0.194   3.231   4.258  0.9707 -2.7063  0.4396
 2655SOL    HW219602   0.053   3.284   4.282 -0.1509 -0.4960  2.5336
 2656SOL     OW19603   1.975   0.009   7.551 -0.3798 -0.4740 -0.1130
 2656SOL    HW119604   1.901   0.035   7.605 -0.1131  1.4546 -0.6879
 2656SOL    HW219605   1.935   0.027   7.466  1.6179 -3.1580 -1.6189
 2657SOL     OW19606   1.020   1.509   6.224  0.0835 -0.4817  0.1488
 2657SOL    HW119607   1.103   1.553   6.241  0.2608 -0.8102  0.1499
 2657SOL    HW219608   1.050   1.424   6.191  1.5583 -0.2539  0.9160
 2658SOL     OW19609   0.508   3.902   1.543  0.2879  0.2658  0.6363
 2658SOL    HW119610   0.426   3.944   1.571 -1.4536 -0.8844 -2.8113
 2658SOL    HW219611   0.504   3.811   1.573 -0.1814  0.8670  2.4265
 2659SOL     OW19612   4.077   3.458   4.760 -0.3833  0.3404 -0.3413
 2659SOL    HW119613   4.138   3.516   4.714 -0.8383  1.4333  0.4411
 2659SOL    HW219614   4.034   3.410   4.689  0.4384 -0.2631 -0.4359
 2660SOL     OW19615   1.519   0.083   4.708 -0.1704  0.7257 -0.7629
 2660SOL    HW119616   1.470   0.008   4.742  0.5366  0.9769  0.8309
 2660SOL    HW219617   1.607   0.044   4.712 -0.9141 -0.8030  0.9317
 2661SOL     OW19618   4.589   0.995   5.064 -0.0340 -0.1305 -0.2964
 2661SOL    HW119619   4.654   1.054   5.100  0.3569 -0.1319 -1.0115
 2661SOL    HW219620   4.560   0.943   5.139  0.5423 -0.0401 -0.0181
 2662SOL     OW19621   3.063   2.433   5.975 -0.8933  0.2431  0.9556
 2662SOL    HW119622   3.090   2.524   5.963  0.1208 -0.1109  0.6000
 2662SOL    HW219623   3.101   2.390   5.899  0.6980 -3.1794  3.6894
 2663SOL     OW19624   0.048   1.893  13.249 -0.0775  0.0232 -0.3479
 2663SOL    HW119625   0.126   1.847  13.218 -0.0817  0.8016 -1.5285
 2663SOL    HW219626   0.060   1.971  13.194  0.1563 -0.0159 -0.3562
 2664SOL     OW19627   2.552   2.084   9.587 -0.2697 -0.4695 -0.0845
 2664SOL    HW119628   2.591   2.056   9.671  0.5979 -0.2694 -0.4162
 2664SOL    HW219629   2.594   2.170   9.580 -0.4359 -0.5104 -1.4898
 2665SOL     OW19630   0.804   1.058   2.213 -0.6791  0.4346 -0.4530
 2665SOL    HW119631   0.753   1.051   2.294  1.6539 -0.0715  0.9625
 2665SOL    HW219632   0.790   0.969   2.181 -0.8040  0.7117 -1.1765
 2666SOL     OW19633   1.634   3.024  14.740  0.4790 -0.1838 -0.1764
 2666SOL    HW119634   1.697   2.971  14.691 -1.3238 -2.1898 -0.2798
 2666SOL    HW219635   1.560   2.964  14.745 -0.4395  1.1395  2.1065
 2667SOL     OW19636   3.824   4.216  13.350  0.1914 -0.0596  0.0707
 2667SOL    HW119637   3.808   4.153  13.280  0.6943  1.0632 -1.0695
 2667SOL    HW219638   3.900   4.267  13.321 -1.0939  1.4604 -0.6417
 2668SOL     OW19639   2.750   1.423   1.089  0.4897  0.2067  0.2691
 2668SOL    HW119640   2.718   1.429   1.179  2.7456 -2.6823  1.2592
 2668SOL    HW219641   2.715   1.338   1.063  0.1024 -0.0628  1.6247
 2669SOL     OW19642   3.794   1.056   2.069 -0.3224 -0.5894 -0.1042
 2669SOL    HW119643   3.823   1.147   2.061 -1.5890 -0.3995 -2.4731
 2669SOL    HW219644   3.875   1.005   2.071  0.2601  0.3841  1.2462
 2670SOL     OW19645   4.638   0.083  15.411  0.1003  0.3629  0.0262
 2670SOL    HW119646   4.652   0.177  15.403 -1.2185  0.3678 -2.4343
 2670SOL    HW219647   4.562   0.100  15.468  0.8547  0.5743  0.9605
 2671SOL     OW19648   2.546   3.188   1.509 -0.0899  0.3195  0.4190
 2671SOL    HW119649   2.594   3.151   1.435 -0.3720  0.3118  0.2430
 2671SOL    HW219650   2.605   3.173   1.584 -0.3510 -0.5787  0.4391
 2672SOL     OW19651   1.191   3.161  12.180  0.1682 -0.0326  0.3235
 2672SOL    HW119652   1.135   3.238  12.180 -0.1130 -0.2360  0.5820
 2672SOL    HW219653   1.138   3.096  12.134 -0.1183 -1.0686  2.1165
 2673SOL     OW19654   1.240   2.325   5.368  0.6488 -0.1908  0.0754
 2673SOL    HW119655   1.303   2.259   5.338 -0.0039 -0.7000 -0.1695
 2673SOL    HW219656   1.175   2.265   5.403  1.4061 -1.3756 -0.5480
 2674SOL     OW19657   1.692   1.040  17.509 -0.1885 -0.1177 -0.3671
 2674SOL    HW119658   1.767   1.063  17.453 -0.3817  0.9753 -0.1558
 2674SOL    HW219659   1.672   0.960  17.459  0.5473 -0.1176 -0.6732
 2675SOL     OW19660   0.875   1.116   8.608 -0.7789 -0.2499  0.6849
 2675SOL    HW119661   0.898   1.208   8.598  2.5125 -1.2007 -0.6277
 2675SOL    HW219662   0.782   1.125   8.585 -1.4266 -3.8266  1.8595
 2676SOL     OW19663   0.390   3.018   9.765  0.7074 -0.0863  0.6197
 2676SOL    HW119664   0.478   3.034   9.799  0.1269 -0.8663  2.5065
 2676SOL    HW219665   0.348   3.103   9.778 -1.2003 -1.2577  2.1114
 2677SOL     OW19666   2.203   0.413   6.617  0.4336 -0.3098  0.5405
 2677SOL    HW119667   2.182   0.331   6.661 -2.8139 -0.2396 -0.8378
 2677SOL    HW219668   2.254   0.376   6.545 -0.0341  1.5421 -0.7370
 2678SOL     OW19669   4.711   3.940   5.173  0.4956 -0.1122  0.3553
 2678SOL    HW119670   0.031   3.940   5.094  1.2786  1.6151  0.8903
 2678SOL    HW219671   4.656   3.861   5.170  1.3153 -0.5651 -2.3935
 2679SOL     OW19672   4.009   1.127   5.621  0.4976  0.1408  0.3402
 2679SOL    HW119673   4.019   1.042   5.578  1.6660 -1.1599  3.2239
 2679SOL    HW219674   3.926   1.149   5.579  1.7592  3.4161 -0.4019
 2680SOL     OW19675   0.859   1.545  13.328  0.2122 -0.3073  0.1057
 2680SOL    HW119676   0.886   1.554  13.237 -0.2809  3.5652  0.3589
 2680SOL    HW219677   0.928   1.593  13.374 -0.0782 -0.6479  0.9134
 2681SOL     OW19678   4.601   0.176   6.066 -0.6152 -0.3996 -0.3969
 2681SOL    HW119679   4.657   0.124   6.008 -0.4502 -0.6220 -0.0395
 2681SOL    HW219680   4.578   0.253   6.015 -3.9030  0.1580  1.8982
 2682SOL     OW19681   1.502   4.137   7.695  0.1820 -0.0043  0.4382
 2682SOL    HW119682   1.519   4.200   7.766 -2.2566  0.6497  0.4464
 2682SOL    HW219683   1.512   4.195   7.619  2.8867  0.6123  1.2459
 2683SOL     OW19684   4.349   0.767   9.464  0.1750 -0.2037 -0.4384
 2683SOL    HW119685   4.421   0.749   9.524 -0.7591 -0.2601  0.6514
 2683SOL    HW219686   4.405   0.777   9.386  2.0270  0.4569  0.9749
 2684SOL     OW19687   1.225   1.339  11.876 -0.0559 -0.2715 -0.8065
 2684SOL    HW119688   1.313   1.306  11.857  1.0397  1.8345  0.6330
 2684SOL    HW219689   1.205   1.390  11.798  0.9974 -1.8004 -2.0802
 2685SOL     OW19690   3.412   3.661   1.731 -0.3638 -0.5006  0.5339
 2685SOL    HW119691   3.447   3.655   1.642 -1.7629  0.2822 -0.0731
 2685SOL    HW219692   3.459   3.584   1.762  0.5848 -0.9637 -2.0321
 2686SOL     OW19693   0.832   2.426   8.266  0.0848 -0.0927 -0.5518
 2686SOL    HW119694   0.740   2.406   8.280  0.1565  0.0915  0.1854
 2686SOL    HW219695   0.833   2.515   8.302 -1.6591 -0.6901  0.9669
 2687SOL     OW19696   3.994   4.281   0.167 -0.1755 -0.0190 -0.2934
 2687SOL    HW119697   3.904   4.285   0.134  0.0402 -0.6391 -0.9554
 2687SOL    HW219698   4.033   4.357   0.123  0.2165 -0.6911 -1.1080
 2688SOL     OW19699   0.287   0.377  16.248  0.9407  0.4739 -0.5086
 2688SOL    HW119700   0.301   0.288  16.280 -2.1806 -0.5570 -2.0694
 2688SOL    HW219701   0.253   0.432  16.319  1.7834  0.6192 -0.2168
 2689SOL     OW19702   0.878   3.836  12.858  0.0935  0.1481  0.3308
 2689SOL    HW119703   0.962   3.790  12.863  0.2633  0.3464 -0.5650
 2689SOL    HW219704   0.904   3.927  12.867  0.7007  0.0327 -0.1891
 2690SOL     OW19705   0.948   2.517   3.186 -0.1192  0.0879 -0.0264
 2690SOL    HW119706   1.009   2.559   3.125  1.2307 -0.3359  1.0203
 2690SOL    HW219707   0.971   2.425   3.192 -0.0585  0.1309  0.4170
 2691SOL     OW19708   0.147   1.593   0.503 -0.6077 -0.3057 -0.4610
 2691SOL    HW119709   0.123   1.667   0.559  2.9374  1.0795 -0.7510
 2691SOL    HW219710   0.073   1.533   0.511 -2.7190  2.1495 -1.5260
 2692SOL     OW19711   2.012   1.702  16.331 -0.4283 -0.4005  0.2385
 2692SOL    HW119712   2.075   1.749  16.276  1.3906 -0.8063  1.9959
 2692SOL    HW219713   1.946   1.766  16.356 -0.6894 -0.7896  0.5533
 2693SOL     OW19714   1.794   3.385   3.351  0.1221  0.2977  0.2219
 2693SOL    HW119715   1.850   3.343   3.286 -0.4079  1.3838 -0.9493
 2693SOL    HW219716   1.753   3.452   3.295 -1.5014  0.2155  1.3060
 2694SOL     OW19717   3.694   3.185  16.999  0.0704  1.2221  0.9645
 2694SOL    HW119718   3.649   3.106  17.030  1.7269 -1.1938 -2.7312
 2694SOL    HW219719   3.756   3.144  16.938 -1.3066 -0.0445  0.4379
 2695SOL     OW19720   3.008   4.218   5.775 -0.2702  0.1793  0.4692
 2695SOL    HW119721   3.018   4.220   5.870 -0.0175  0.3605  0.4396
 2695SOL    HW219722   3.069   4.285   5.743 -0.1695  0.2254  0.7639
 2696SOL     OW19723   0.964   2.163   1.372  0.3168 -0.6585  0.4665
 2696SOL    HW119724   0.893   2.182   1.311 -1.2096  1.3101  2.8790
 2696SOL    HW219725   0.969   2.068   1.373 -2.6323 -0.8117 -0.5127
 2697SOL     OW19726   4.204   0.541   9.365  0.4779  0.0254  0.3351
 2697SOL    HW119727   4.240   0.628   9.384 -1.3343  1.0965 -1.1965
 2697SOL    HW219728   4.219   0.557   9.272 -0.1774  0.7480  0.3606
 2698SOL     OW19729   3.002   2.700   5.784 -0.9589  0.2457 -1.0715
 2698SOL    HW119730   2.915   2.708   5.744 -0.5703  2.2449 -1.4897
 2698SOL    HW219731   2.977   2.671   5.872 -1.3015  0.9546 -0.9370
 2699SOL     OW19732   3.764   4.529   4.551  0.7553 -0.0676 -0.1136
 2699SOL    HW119733   3.731   4.569   4.631 -1.3500  1.0796 -1.5513
 2699SOL    HW219734   3.770   4.610   4.500 -0.7391  0.2393  0.1966
 2700SOL     OW19735   3.782   1.266   3.073 -0.0024 -0.3028 -0.0806
 2700SOL    HW119736   3.805   1.359   3.078  0.8516 -0.4413 -1.6675
 2700SOL    HW219737   3.810   1.260   2.982 -0.0728  0.9310 -0.1879
 2701SOL     OW19738   1.435   4.006  15.104 -0.3501  0.1668 -0.0500
 2701SOL    HW119739   1.521   4.047  15.096 -0.1516  0.0353  1.4218
 2701SOL    HW219740   1.450   3.912  15.091 -0.2699  0.2549 -0.5753
 2702SOL     OW19741   4.549   4.528   6.494  0.4415  0.0904 -0.2648
 2702SOL    HW119742   4.561   4.614   6.454  0.2641  0.1982 -0.0892
 2702SOL    HW219743   4.469   4.502   6.448  0.3244  0.4598 -0.2699
 2703SOL     OW19744   4.446   0.688   7.425 -0.0861 -0.5036 -0.4321
 2703SOL    HW119745   4.508   0.761   7.425  0.7544 -1.2231 -0.1162
 2703SOL    HW219746   4.409   0.701   7.338 -0.5050  1.5191  0.0422
 2704SOL     OW19747   1.815   2.215   4.800  0.0778 -0.2697  0.1724
 2704SOL    HW119748   1.801   2.309   4.810  1.6562  0.0019 -0.2223
 2704SOL    HW219749   1.909   2.206   4.788 -0.1622 -0.0761 -1.8936
 2705SOL     OW19750   0.438   4.418   6.467 -0.4801  0.1766  0.1030
 2705SOL    HW119751   0.401   4.399   6.381  0.3172 -0.3501 -0.1225
 2705SOL    HW219752   0.506   4.478   6.435  0.0917 -1.0569 -1.0032
 2706SOL     OW19753   0.507   0.062   0.473  0.0152 -0.2632  0.1373
 2706SOL    HW119754   0.485   4.710   0.437  1.3140 -0.6913  0.3759
 2706SOL    HW219755   0.505   0.114   0.392  0.3943 -1.5415 -0.6956
 2707SOL     OW19756   2.596   3.707   5.296 -0.0757 -0.4618  0.1122
 2707SOL    HW119757   2.634   3.697   5.383  0.9148 -0.4691 -0.3219
 2707SOL    HW219758   2.655   3.643   5.258 -1.4831  0.0276 -2.9360
 2708SOL     OW19759   1.358   2.944   2.517  0.1087 -0.3300 -0.4387
 2708SOL    HW119760   1.443   2.981   2.543  0.9997 -1.5728 -1.5769
 2708SOL    HW219761   1.372   2.850   2.528 -0.5680 -0.4172 -0.3604
 2709SOL     OW19762   3.596   3.790  17.427 -0.7769  0.1118 -0.3510
 2709SOL    HW119763   3.669   3.849  17.409  0.9588 -1.1901  2.4069
 2709SOL    HW219764   3.577   3.751  17.342  0.7633 -1.6161  0.0982
 2710SOL     OW19765   2.794   1.799   7.749 -0.1159  0.2343 -0.1960
 2710SOL    HW119766   2.889   1.796   7.739  0.3765  0.9962  4.0575
 2710SOL    HW219767   2.789   1.876   7.806  2.0105  0.3250 -0.1274
 2711SOL     OW19768   4.025   0.256   7.174 -0.2871 -0.3022 -0.7086
 2711SOL    HW119769   3.987   0.344   7.174 -1.6923 -0.8962  0.6750
 2711SOL    HW219770   4.112   0.275   7.140 -0.6149  0.9610 -0.8352
 2712SOL     OW19771   2.800   1.494  12.775 -0.0105 -0.6135  0.0686
 2712SOL    HW119772   2.818   1.406  12.742  2.5852  0.0645 -0.2806
 2712SOL    HW219773   2.884   1.537  12.762  0.4174 -0.8539  2.0359
 2713SOL     OW19774   1.326   1.732   8.340  0.0190 -0.2181  0.4083
 2713SOL    HW119775   1.256   1.767   8.284 -0.1731 -0.1690  0.6810
 2713SOL    HW219776   1.369   1.808   8.378 -1.4452 -0.8474  3.3446
 2714SOL     OW19777   2.618   4.126  16.705 -0.6824  0.6737 -0.1554
 2714SOL    HW119778   2.618   4.169  16.620 -1.6999  0.6786 -0.1530
 2714SOL    HW219779   2.535   4.081  16.719 -0.5158  0.4148  0.0220
 2715SOL     OW19780   3.949   0.436   4.123  0.3639  0.1392 -0.0156
 2715SOL    HW119781   4.034   0.469   4.097 -0.0593 -0.9199 -2.7060
 2715SOL    HW219782   3.977   0.345   4.138 -1.6360 -0.3242  0.9776
 2716SOL     OW19783   0.379   2.470   9.440  0.4736  0.3788 -0.5010
 2716SOL    HW119784   0.444   2.441   9.503  1.5065 -0.9969 -2.2003
 2716SOL    HW219785   0.432   2.479   9.361  2.3520 -3.5031  0.3498
 2717SOL     OW19786   1.130   3.840  14.974  0.1080 -0.1481  0.0989
 2717SOL    HW119787   1.146   3.824  14.881 -0.8431 -1.3179  0.1366
 2717SOL    HW219788   1.179   3.766  15.011 -1.4517 -1.6532 -0.8804
 2718SOL     OW19789   0.053   2.304  17.658  0.6393 -0.8742 -0.4898
 2718SOL    HW119790   4.699   2.342  17.658  2.1948  2.7695 -1.8495
 2718SOL    HW219791   0.073   2.308  17.564 -0.1898  0.7969 -0.6065
 2719SOL     OW19792   1.714   3.438   0.440 -0.0956  0.0411  0.1263
 2719SOL    HW119793   1.715   3.383   0.362 -0.7370 -0.5685  0.5548
 2719SOL    HW219794   1.635   3.489   0.425 -0.8014 -1.3284 -0.7594
 2720SOL     OW19795   3.970   1.876  14.474 -0.0637  0.3416 -1.0415
 2720SOL    HW119796   3.896   1.891  14.415 -0.0985 -1.4603 -1.4575
 2720SOL    HW219797   3.937   1.890  14.563  0.9821  1.8295 -0.8953
 2721SOL     OW19798   2.144   1.906   8.126  0.1577 -0.1371 -0.1017
 2721SOL    HW119799   2.173   1.841   8.189  1.6659  0.4353 -0.2076
 2721SOL    HW219800   2.203   1.976   8.153 -2.1896  0.8918  2.3597
 2722SOL     OW19801   0.328   1.113   6.834  0.5978  0.3124  0.1203
 2722SOL    HW119802   0.417   1.085   6.812  0.1605  0.8737 -2.3094
 2722SOL    HW219803   0.330   1.105   6.929  0.9853 -2.5068 -0.1338
 2723SOL     OW19804   1.205   3.833  12.736  0.0425  0.1767  0.3588
 2723SOL    HW119805   1.138   3.820  12.669  0.5920 -1.7188  0.1881
 2723SOL    HW219806   1.276   3.874  12.685 -0.0060  1.3995  1.2614
 2724SOL     OW19807   2.570   1.614  16.010 -0.1128 -0.4227  0.2756
 2724SOL    HW119808   2.620   1.534  16.024 -0.6060 -0.0032  4.6201
 2724SOL    HW219809   2.514   1.609  16.088  0.1434 -1.4171  0.3981
 2725SOL     OW19810   0.693   0.624  10.071  0.5595  0.7117  0.0523
 2725SOL    HW119811   0.769   0.642  10.126 -0.1730  1.4699  0.8278
 2725SOL    HW219812   0.723   0.559  10.008 -2.2646  0.0594 -0.6357
 2726SOL     OW19813   2.790   0.200   7.254  0.6435  0.4006 -0.4977
 2726SOL    HW119814   2.740   0.137   7.305 -0.1036  1.7298  0.4163
 2726SOL    HW219815   2.877   0.169   7.282  0.0077  1.2831  2.4610
 2727SOL     OW19816   1.459   3.718   0.431 -0.4893 -0.0017 -0.0389
 2727SOL    HW119817   1.494   3.797   0.391 -0.2440  1.0745  2.2979
 2727SOL    HW219818   1.401   3.762   0.493  1.8329  0.9007  1.4970
 2728SOL     OW19819   2.210   2.490   2.104 -0.2712  0.4662  0.3661
 2728SOL    HW119820   2.269   2.469   2.176  0.6089 -1.2872 -0.8834
 2728SOL    HW219821   2.125   2.468   2.142 -0.6172  1.0739 -0.0533
 2729SOL     OW19822   3.175   0.852   2.674 -0.4709  0.4146  0.3383
 2729SOL    HW119823   3.165   0.933   2.725 -1.5538  0.7637 -0.4334
 2729SOL    HW219824   3.252   0.810   2.712 -0.4082  0.1602 -0.0692
 2730SOL     OW19825   4.225   3.590   8.252 -0.1807  0.1702 -0.1235
 2730SOL    HW119826   4.319   3.571   8.247  0.3702  2.1792  2.6634
 2730SOL    HW219827   4.207   3.631   8.337 -2.3018  2.6255 -1.7502
 2731SOL     OW19828   2.276   0.698  15.516 -0.4966 -0.1378 -0.5738
 2731SOL    HW119829   2.309   0.608  15.525  1.0709  0.6391  1.3655
 2731SOL    HW219830   2.334   0.752  15.570 -0.2152  0.1240 -1.1307
 2732SOL     OW19831   3.176   0.036  16.929 -0.1988  0.6714 -0.8380
 2732SOL    HW119832   3.202   0.121  16.894  1.6033  1.3449  2.1700
 2732SOL    HW219833   3.235   0.033  17.004 -0.4749  3.2630 -0.5109
 2733SOL     OW19834   2.056   3.369   3.708 -0.2169 -0.3340  0.2617
 2733SOL    HW119835   2.109   3.334   3.780 -0.7481  2.4623  1.9933
 2733SOL    HW219836   2.091   3.457   3.696 -1.4583  0.1431  0.2545
 2734SOL     OW19837   1.432   3.213   3.205  0.5021  0.5656  0.0672
 2734SOL    HW119838   1.402   3.123   3.191  0.9743 -0.1118  3.3013
 2734SOL    HW219839   1.403   3.216   3.296 -1.1347 -0.2172 -0.4321
 2735SOL     OW19840   0.672   1.185   7.360 -0.0948  0.3482  0.4076
 2735SOL    HW119841   0.714   1.196   7.446  0.7400 -1.8263  0.2816
 2735SOL    HW219842   0.634   1.099   7.381 -1.8837  0.6931 -1.4637
 2736SOL     OW19843   4.285   4.316   2.164  0.3734  0.8189  0.7198
 2736SOL    HW119844   4.232   4.272   2.230 -0.2853  0.3538 -0.1248
 2736SOL    HW219845   4.230   4.393   2.150 -2.1505 -1.2361 -0.5394
 2737SOL     OW19846   3.980   2.503   0.016 -0.3473 -0.2192 -0.6380
 2737SOL    HW119847   3.924   2.436   0.054  0.7239 -2.0463 -2.3085
 2737SOL    HW219848   3.962   2.489  17.658 -0.2272 -0.7975 -0.5712
 2738SOL     OW19849   2.491   2.568   8.652  0.1333 -0.3147  0.1799
 2738SOL    HW119850   2.502   2.473   8.642  0.2362 -0.4226  1.3350
 2738SOL    HW219851   2.404   2.597   8.623  0.5773  0.1828 -0.6466
 2739SOL     OW19852   3.565   2.500   5.346 -0.0300  0.3289 -0.4394
 2739SOL    HW119853   3.522   2.585   5.358 -1.7883 -0.7505  0.9076
 2739SOL    HW219854   3.492   2.438   5.336  0.5153 -0.4201  0.2488
 2740SOL     OW19855   1.277   0.875   3.547 -0.5546 -0.1617  0.7443
 2740SOL    HW119856   1.194   0.830   3.530  0.4141 -1.6044 -0.1542
 2740SOL    HW219857   1.341   0.805   3.536  0.0119  0.3307  0.9242
 2741SOL     OW19858   4.717   0.091   3.643  0.4914  0.1409 -0.4956
 2741SOL    HW119859   4.719   0.038   3.564 -1.3990 -0.8085  0.1091
 2741SOL    HW219860   0.069   0.133   3.653 -0.8459  2.0567  3.1637
 2742SOL     OW19861   0.777   1.825   7.631 -0.1560  0.2732 -0.0614
 2742SOL    HW119862   0.861   1.783   7.613 -0.1561 -0.2398  1.1634
 2742SOL    HW219863   0.762   1.876   7.551  1.6117  0.6723 -0.1350
 2743SOL     OW19864   2.996   2.128   7.704 -0.8462  0.0881  0.4434
 2743SOL    HW119865   3.033   2.042   7.720  0.0344 -0.0397 -2.4381
 2743SOL    HW219866   3.036   2.178   7.776 -1.4624  0.5799  0.4456
 2744SOL     OW19867   3.717   4.240   7.993  0.0080 -0.5219 -0.4186
 2744SOL    HW119868   3.696   4.226   7.901 -0.3411 -0.6388 -0.3252
 2744SOL    HW219869   3.627   4.248   8.027  0.1741 -0.6871  0.0715
 2745SOL     OW19870   2.830   3.030   2.689  0.3830 -0.6876 -0.3903
 2745SOL    HW119871   2.820   3.015   2.783 -2.4665 -0.2291 -0.6149
 2745SOL    HW219872   2.893   3.100   2.702 -0.4242 -0.0934  0.3595
 2746SOL     OW19873   2.152   0.996  11.910  0.3693  0.0979  0.4018
 2746SOL    HW119874   2.175   1.047  11.987 -0.0915  1.6865 -0.5089
 2746SOL    HW219875   2.149   0.906  11.943 -0.8332  0.3088  0.8889
 2747SOL     OW19876   2.194   2.595   8.581  0.0358 -0.3220 -0.2622
 2747SOL    HW119877   2.159   2.628   8.498 -0.4209 -0.4390 -0.1148
 2747SOL    HW219878   2.126   2.535   8.611 -0.9442  1.8710  1.8423
 2748SOL     OW19879   3.582   0.521   3.956 -0.1564  0.0884 -0.2919
 2748SOL    HW119880   3.588   0.568   4.039  1.0271 -0.1323 -0.2481
 2748SOL    HW219881   3.676   0.509   3.947 -0.1700 -0.0691 -0.2253
 2749SOL     OW19882   3.809   2.408  13.279  0.0023 -0.0835  0.4143
 2749SOL    HW119883   3.866   2.434  13.207  2.4050 -0.6811  2.0675
 2749SOL    HW219884   3.775   2.491  13.311  1.6338  0.6597  0.2391
 2750SOL     OW19885   0.126   0.803  13.274 -0.2553  0.0097 -0.6049
 2750SOL    HW119886   0.159   0.777  13.360  1.9321  3.5036 -0.3768
 2750SOL    HW219887   0.147   0.896  13.271  2.1264 -0.5432 -1.0385
 2751SOL     OW19888   0.334   0.646   4.603  0.0023 -0.0562  0.0127
 2751SOL    HW119889   0.348   0.611   4.691  0.2316  0.6981  0.2792
 2751SOL    HW219890   0.241   0.626   4.587 -0.0834 -0.7350  1.4048
 2752SOL     OW19891   0.669   3.681   9.426  0.4147  0.1427 -0.0473
 2752SOL    HW119892   0.655   3.604   9.480 -1.8275  0.8291  0.3134
 2752SOL    HW219893   0.618   3.746   9.474  1.9908 -0.3530  2.3216
 2753SOL     OW19894   0.437   2.245  17.396 -0.0684 -0.4478  1.4466
 2753SOL    HW119895   0.366   2.181  17.396 -1.8645  1.5559  2.8940
 2753SOL    HW219896   0.466   2.262  17.307 -1.9180 -0.2195  0.9033
 2754SOL     OW19897   3.366   2.312   8.564  0.4122  0.7147  0.3595
 2754SOL    HW119898   3.274   2.338   8.562 -0.0695 -0.8250  2.4538
 2754SOL    HW219899   3.407   2.366   8.496 -0.5730  0.9852 -0.0189
 2755SOL     OW19900   2.530   0.983   3.031  0.2712  0.0285 -0.3234
 2755SOL    HW119901   2.443   1.022   3.022 -0.1843 -1.0846 -0.7053
 2755SOL    HW219902   2.547   0.982   2.937  0.1043 -0.6735 -0.3459
 2756SOL     OW19903   3.907   3.561   0.404  0.3829  0.6926  0.0012
 2756SOL    HW119904   3.929   3.562   0.311  0.5375  1.5100  0.0475
 2756SOL    HW219905   3.905   3.468   0.427  0.5653  0.7521  0.2546
 2757SOL     OW19906   3.916   2.393  10.457 -0.1265  0.0906 -0.2818
 2757SOL    HW119907   3.933   2.359  10.545  2.8895  1.2328 -0.4157
 2757SOL    HW219908   3.830   2.433  10.471  0.9194  2.4856 -0.7216
 2758SOL     OW19909   1.183   2.587   4.593  0.1129  0.4871  0.0013
 2758SOL    HW119910   1.259   2.574   4.648  0.3211 -1.3899 -0.7186
 2758SOL    HW219911   1.173   2.510   4.536 -2.0587  0.9019 -0.2016
 2759SOL     OW19912   3.523   2.133   2.504  1.0450 -0.3692  0.5129
 2759SOL    HW119913   3.607   2.169   2.475 -0.3461  2.3094 -0.2410
 2759SOL    HW219914   3.541   2.064   2.568  0.7067 -0.1382  0.8571
 2760SOL     OW19915   1.836   4.568   3.344  0.5493  0.1951 -0.5129
 2760SOL    HW119916   1.804   4.507   3.410  0.4220 -1.2609 -1.9078
 2760SOL    HW219917   1.913   4.613   3.379  0.1214 -2.3967  3.6673
 2761SOL     OW19918   0.718   2.330   7.966  0.0318 -0.3880 -0.5137
 2761SOL    HW119919   0.660   2.376   7.905  1.2158  2.5704  0.6125
 2761SOL    HW219920   0.804   2.342   7.927 -0.2320  0.6051 -0.7784
 2762SOL     OW19921   1.457   4.217  13.247 -0.8985 -0.1479 -0.7978
 2762SOL    HW119922   1.538   4.266  13.231  1.1248 -3.1213  0.3906
 2762SOL    HW219923   1.384   4.275  13.225 -1.1035 -0.9922 -2.2844
 2763SOL     OW19924   4.594   3.956   9.011 -0.6685  0.4081 -0.6103
 2763SOL    HW119925   4.595   3.882   9.072 -1.2773  0.9171  0.0263
 2763SOL    HW219926   4.664   4.014   9.040 -0.5722  0.6294 -1.2868
 2764SOL     OW19927   3.554   0.021   6.654  0.1341  0.2053 -0.2411
 2764SOL    HW119928   3.493   4.686   6.627 -0.0060  0.3916 -0.3963
 2764SOL    HW219929   3.497   0.059   6.722  0.3351  0.8132 -0.4098
 2765SOL     OW19930   3.452   3.899   5.821 -0.9982  0.2592  0.0497
 2765SOL    HW119931   3.492   3.878   5.906  1.3208  0.1541 -1.0607
 2765SOL    HW219932   3.528   3.935   5.775 -2.0033  0.7044 -1.2559
 2766SOL     OW19933   2.801   2.904   5.414  0.2290 -0.5416  0.0888
 2766SOL    HW119934   2.880   2.948   5.445  0.9188 -3.0056  1.8199
 2766SOL    HW219935   2.786   2.832   5.476 -1.5632  0.3878  0.7360
 2767SOL     OW19936   2.724   2.674   5.669 -0.1310 -0.2567  0.6508
 2767SOL    HW119937   2.671   2.742   5.712 -1.4285 -0.0794 -1.2362
 2767SOL    HW219938   2.652   2.620   5.636  0.6334 -0.6930 -0.2957
 2768SOL     OW19939   3.494   1.021   8.520  0.8143  0.0984 -0.2039
 2768SOL    HW119940   3.429   0.967   8.475 -0.2755  0.3901  1.0137
 2768SOL    HW219941   3.480   1.104   8.474 -0.4777 -0.7847 -1.4245
 2769SOL     OW19942   2.463   0.113   2.824  0.1465  0.2110 -0.0331
 2769SOL    HW119943   2.432   0.036   2.777  3.4217 -0.7528 -0.5624
 2769SOL    HW219944   2.379   0.160   2.831  1.3572  2.5202 -0.8642
 2770SOL     OW19945   1.900   3.337   8.167 -0.2412 -0.2665  0.0274
 2770SOL    HW119946   1.915   3.364   8.076 -0.0498  0.1079  0.1687
 2770SOL    HW219947   1.859   3.253   8.149  0.1840 -0.5565  0.3957
 2771SOL     OW19948   2.784   4.281  15.082 -0.4539  0.0528 -0.7317
 2771SOL    HW119949   2.862   4.284  15.027  0.7127  2.9740  1.0615
 2771SOL    HW219950   2.797   4.361  15.133 -2.1305 -0.2002  0.0835
 2772SOL     OW19951   3.590   0.794  14.063  0.3983  0.1722  0.2993
 2772SOL    HW119952   3.655   0.809  14.131 -0.7337  0.0125  1.4287
 2772SOL    HW219953   3.646   0.798  13.986  0.0235 -0.0709  0.0099
 2773SOL     OW19954   0.705   3.182  13.191  0.1304 -0.2686 -0.3040
 2773SOL    HW119955   0.702   3.087  13.184 -2.0117 -0.2797  0.7321
 2773SOL    HW219956   0.732   3.186  13.282  1.1425  1.5359 -0.6788
 2774SOL     OW19957   2.682   0.763   3.360 -0.0031  0.1464  0.2084
 2774SOL    HW119958   2.630   0.683   3.361 -0.8538  0.6987 -0.0551
 2774SOL    HW219959   2.648   0.824   3.426  2.0255 -0.3049  1.6742
 2775SOL     OW19960   2.750   3.343   3.189 -0.5583 -0.2931 -0.2423
 2775SOL    HW119961   2.780   3.367   3.277 -0.5015  0.3536 -0.4420
 2775SOL    HW219962   2.784   3.402   3.122 -0.8475  0.0985 -0.0416
 2776SOL     OW19963   3.723   4.054  13.183  0.2979 -0.1710 -0.6067
 2776SOL    HW119964   3.691   4.118  13.119  0.5920  1.3826  0.7935
 2776SOL    HW219965   3.695   3.974  13.139  0.8376 -0.8084  0.2212
 2777SOL     OW19966   1.957   4.490   1.873  0.1518 -0.5002  0.3013
 2777SOL    HW119967   1.964   4.556   1.804 -1.2715  1.9330  2.5004
 2777SOL    HW219968   1.979   4.549   1.946 -2.0583  1.0607 -0.2807
 2778SOL     OW19969   2.935   2.006   4.686  0.1608 -0.5001 -0.1836
 2778SOL    HW119970   2.843   2.006   4.714  1.1082 -2.1091  2.9065
 2778SOL    HW219971   2.936   1.932   4.625  0.9572 -0.2391 -0.4849
 2779SOL     OW19972   2.290   4.308   1.162 -0.6270  0.7392 -0.5921
 2779SOL    HW119973   2.364   4.282   1.217 -0.5339 -1.6751 -1.8381
 2779SOL    HW219974   2.212   4.295   1.217  1.1239  0.3469  1.8059
 2780SOL     OW19975   3.094   0.987  15.223 -0.6837 -0.2259  0.3281
 2780SOL    HW119976   3.048   1.050  15.167  0.5085  0.7262  0.4186
 2780SOL    HW219977   3.186   0.994  15.200 -0.5566  1.2068  1.3196
 2781SOL     OW19978   3.224   3.927   2.902 -0.4803 -0.5530  0.0402
 2781SOL    HW119979   3.231   3.840   2.864 -0.8443 -0.2080 -0.8349
 2781SOL    HW219980   3.258   3.925   2.991  0.8340  0.8043 -0.4357
 2782SOL     OW19981   1.228   2.087   4.343 -0.5696 -0.1745  0.4527
 2782SOL    HW119982   1.220   2.045   4.257 -0.7351  1.4234 -0.3111
 2782SOL    HW219983   1.175   2.024   4.391  1.4895 -3.5264 -1.6140
 2783SOL     OW19984   1.851   1.649   5.758  0.0997 -0.0765  0.1218
 2783SOL    HW119985   1.780   1.707   5.730  0.5704 -0.9190 -2.8364
 2783SOL    HW219986   1.899   1.708   5.816 -0.0233  0.2366 -0.0944
 2784SOL     OW19987   4.405   2.408  14.476  0.2141 -0.2761 -0.1469
 2784SOL    HW119988   4.393   2.430  14.569  0.6901 -1.9971  0.3304
 2784SOL    HW219989   4.383   2.491  14.433  1.2464  0.2766  0.3833
 2785SOL     OW19990   0.780   1.600   6.365  0.5199 -0.1112  0.1201
 2785SOL    HW119991   0.704   1.575   6.312  2.2650 -0.6520 -2.1578
 2785SOL    HW219992   0.846   1.597   6.295 -0.7119  2.0672 -1.1531
 2786SOL     OW19993   3.825   0.015   2.669  0.0951  0.2197 -0.1095
 2786SOL    HW119994   3.871   4.709   2.594 -1.6843 -0.4281 -0.8578
 2786SOL    HW219995   3.905   0.062   2.691  1.0779 -1.2062 -0.6120
 2787SOL     OW19996   1.531   0.735   6.166  0.4483  0.0492  0.3439
 2787SOL    HW119997   1.481   0.684   6.102  0.6102  2.2453 -1.5231
 2787SOL    HW219998   1.473   0.724   6.242 -0.8895 -0.7811 -0.7928
 2788SOL     OW19999   4.663   2.189   1.674 -0.0925  0.1938 -0.0735
 2788SOL    HW120000   4.661   2.131   1.599  2.3095  0.0924 -0.0700
 2788SOL    HW220001   4.592   2.148   1.724  0.5469 -0.8855 -0.0663
 2789SOL     OW20002   4.546   0.917  16.213  0.1196 -0.4863  0.2056
 2789SOL    HW120003   4.474   0.970  16.180 -0.8131 -1.7235  0.3020
 2789SOL    HW220004   4.595   0.988  16.256  0.7894  0.1728 -1.6664
 2790SOL     OW20005   3.959   2.711  10.693 -0.0370  0.5189  0.0574
 2790SOL    HW120006   3.912   2.794  10.693  0.5889  0.8672 -4.3033
 2790SOL    HW220007   3.979   2.703  10.600 -1.3983  2.0736 -0.3594
 2791SOL     OW20008   1.965   2.136  16.071  0.3483  0.3461  0.1100
 2791SOL    HW120009   1.909   2.068  16.034 -0.2054  1.3271 -0.8608
 2791SOL    HW220010   2.001   2.081  16.140  0.4162 -0.6861 -0.7539
 2792SOL     OW20011   3.497   2.729  17.729  0.3706 -0.1094  0.3079
 2792SOL    HW120012   3.434   2.797  17.704  0.3569  0.0210  0.6927
 2792SOL    HW220013   3.533   2.700  17.646  0.2374  0.1636  0.1549
 2793SOL     OW20014   1.734   2.315   1.319 -0.1069  0.2966 -0.1305
 2793SOL    HW120015   1.755   2.222   1.313 -3.3367 -0.3664 -1.1802
 2793SOL    HW220016   1.767   2.345   1.234 -0.4073 -2.1331 -1.1169
 2794SOL     OW20017   1.062   1.747  15.837 -0.2801 -0.5726  0.4580
 2794SOL    HW120018   1.053   1.780  15.747 -0.9287 -1.3355  0.2509
 2794SOL    HW220019   0.995   1.807  15.871 -0.5764 -0.8960  0.4397
 2795SOL     OW20020   2.113   0.623   8.800 -0.9381 -0.0892  0.2103
 2795SOL    HW120021   2.085   0.652   8.887 -0.0967 -2.5381  1.2916
 2795SOL    HW220022   2.123   0.528   8.807  2.0113  0.4011  2.6520
 2796SOL     OW20023   3.932   1.841   5.812 -0.3568  0.1828  0.7540
 2796SOL    HW120024   3.987   1.774   5.773  2.1800  3.3628 -1.1412
 2796SOL    HW220025   3.935   1.899   5.736 -0.0193 -1.0243 -0.1558
 2797SOL     OW20026   2.316   4.724   6.608 -0.0151  0.5037 -0.2998
 2797SOL    HW120027   2.278   4.689   6.527 -1.1772  0.7458  0.1518
 2797SOL    HW220028   2.402   4.682   6.607  0.5372  1.6576 -1.6985
 2798SOL     OW20029   3.878   0.843   9.658  0.3067  0.7051  1.1915
 2798SOL    HW120030   3.965   0.851   9.618 -0.5577  0.9403 -0.6816
 2798SOL    HW220031   3.839   0.930   9.645  1.0387  0.7346 -0.9204
 2799SOL     OW20032   4.266   2.047   5.269  0.1616 -0.6658 -0.5426
 2799SOL    HW120033   4.190   1.997   5.241 -0.0366 -1.8138  2.1038
 2799SOL    HW220034   4.231   2.134   5.251  0.0274 -0.4731  0.7093
 2800SOL     OW20035   2.746   4.488   0.575 -0.0977 -0.5360  0.3618
 2800SOL    HW120036   2.733   4.532   0.491  0.2382 -1.6314 -0.2628
 2800SOL    HW220037   2.661   4.490   0.619 -0.0367 -4.1362  0.6346
 2801SOL     OW20038   2.955   3.637   1.694  0.5216  0.4328  0.0939
 2801SOL    HW120039   2.931   3.702   1.628 -0.9857 -0.2118 -0.0057
 2801SOL    HW220040   2.871   3.604   1.726 -0.8125  2.6572 -1.1521
 2802SOL     OW20041   1.517   0.877   4.586 -0.8540  0.3567  0.0056
 2802SOL    HW120042   1.538   0.883   4.679  0.5136 -0.5857 -0.2512
 2802SOL    HW220043   1.603   0.897   4.548 -1.2358 -0.6246 -1.4104
 2803SOL     OW20044   3.578   3.124   2.044  0.2005 -0.1902 -0.0894
 2803SOL    HW120045   3.602   3.153   1.956 -0.2460 -0.4554 -0.2950
 2803SOL    HW220046   3.607   3.205   2.087 -1.2897  0.0546  0.4633
 2804SOL     OW20047   4.442   3.481   4.671  0.0701  0.6095  0.3367
 2804SOL    HW120048   4.431   3.411   4.608  0.3020  1.0677 -0.2139
 2804SOL    HW220049   4.358   3.525   4.655  0.7092  1.8293  0.3018
 2805SOL     OW20050   3.642   0.738  17.721 -0.0568  0.1652  0.1723
 2805SOL    HW120051   3.738   0.740  17.715  0.0194 -1.5405  0.8329
 2805SOL    HW220052   3.631   0.798   0.060  3.8250  1.7261 -0.5163
 2806SOL     OW20053   4.534   1.760  13.232 -0.5909 -0.1427  0.0621
 2806SOL    HW120054   4.599   1.830  13.241  1.2239 -2.0708  2.2062
 2806SOL    HW220055   4.602   1.693  13.239  0.9167  1.4019  0.4519
 2807SOL     OW20056   4.609   0.803   3.344  0.0652 -0.3207  0.2183
 2807SOL    HW120057   4.699   0.837   3.348  0.2413 -0.9694  1.8224
 2807SOL    HW220058   4.587   0.774   3.432 -2.0828 -0.3410 -0.3249
 2808SOL     OW20059   0.554   0.873   8.620 -0.1612 -0.5691  0.0636
 2808SOL    HW120060   0.628   0.890   8.679 -1.4426  1.3814  1.1195
 2808SOL    HW220061   0.573   0.924   8.542 -1.0459 -1.8705 -0.9962
 2809SOL     OW20062   4.490   0.906   4.585 -0.3156 -0.5014 -0.2060
 2809SOL    HW120063   4.493   0.849   4.662  2.4759  1.0574  0.8794
 2809SOL    HW220064   4.417   0.875   4.532 -0.8562  1.0001 -0.3565
 2810SOL     OW20065   1.984   1.408   4.582 -0.3455 -0.0425 -0.1299
 2810SOL    HW120066   2.074   1.440   4.579 -0.0275 -0.9892 -0.8357
 2810SOL    HW220067   1.945   1.495   4.571 -3.6459 -1.2200  2.2706
 2811SOL     OW20068   3.420   0.385   9.809  1.1541  0.3996  0.3602
 2811SOL    HW120069   3.480   0.356   9.739 -0.4924 -0.2427 -0.7939
 2811SOL    HW220070   3.395   0.300   9.845  2.3810 -0.7477 -1.5010
 2812SOL     OW20071   0.958   1.330   7.245 -0.0720 -0.2772  0.3549
 2812SOL    HW120072   1.017   1.378   7.187 -0.8625  0.4512  0.1655
 2812SOL    HW220073   0.918   1.404   7.289  0.5632  0.4214 -0.2511
 2813SOL     OW20074   4.005   3.751   3.655 -0.2070 -0.3514 -0.0033
 2813SOL    HW120075   4.009   3.777   3.747 -0.7911  0.5256 -0.2176
 2813SOL    HW220076   3.981   3.832   3.609 -0.9191 -0.5700 -0.0210
 2814SOL     OW20077   4.216   3.126   4.335 -0.3941 -0.0430  0.5906
 2814SOL    HW120078   4.170   3.091   4.259  0.8183  0.5758 -0.4280
 2814SOL    HW220079   4.194   3.058   4.399  1.4015 -1.4070 -0.2318
 2815SOL     OW20080   1.404   1.783   2.895  0.1308 -0.0361 -0.0892
 2815SOL    HW120081   1.315   1.819   2.907 -0.0246 -0.4283 -0.0570
 2815SOL    HW220082   1.453   1.865   2.887  0.4698 -0.0067  2.2990
 2816SOL     OW20083   0.679   0.088   6.841 -0.2478  0.2595  0.4783
 2816SOL    HW120084   0.584   0.100   6.837 -0.4126 -0.4549  2.2997
 2816SOL    HW220085   0.722   0.101   6.756 -0.1597  0.2783  0.5258
 2817SOL     OW20086   0.875   0.682   5.564 -0.1836  0.0268 -0.4790
 2817SOL    HW120087   0.811   0.749   5.588 -1.3976 -1.6572  0.9484
 2817SOL    HW220088   0.949   0.684   5.625  0.1730  2.8290 -0.9858
 2818SOL     OW20089   0.084   3.576   8.879 -0.3501  0.0252 -0.5545
 2818SOL    HW120090   0.011   3.517   8.862  0.8927 -1.1620 -1.8698
 2818SOL    HW220091   0.148   3.525   8.930 -1.1197 -0.0886  0.2844
 2819SOL     OW20092   4.180   4.035   6.497  0.3303 -0.3211  0.1105
 2819SOL    HW120093   4.144   4.115   6.460  0.1264  0.1885  1.4061
 2819SOL    HW220094   4.262   4.034   6.449  2.0331  1.4516  2.9748
 2820SOL     OW20095   1.225   3.453   6.647  0.0532 -0.7345 -0.3013
 2820SOL    HW120096   1.293   3.484   6.586  0.5740 -0.1099  0.5868
 2820SOL    HW220097   1.246   3.497   6.729 -3.7832  0.5831 -0.0419
 2821SOL     OW20098   4.528   1.168   0.097  0.2553 -0.0055  0.0107
 2821SOL    HW120099   4.618   1.159   0.064  0.1710  0.8270 -0.4453
 2821SOL    HW220100   4.532   1.133   0.186  0.3218 -0.2077 -0.0707
 2822SOL     OW20101   4.599   0.620   4.581  0.4968  0.4057 -0.1175
 2822SOL    HW120102   4.589   0.703   4.535 -1.0473 -0.1336 -0.7595
 2822SOL    HW220103   4.571   0.558   4.514 -0.9834  0.7831  0.1472
 2823SOL     OW20104   1.302   0.703   0.590  0.2478 -0.0673 -0.1344
 2823SOL    HW120105   1.241   0.679   0.660  0.9621  1.3393  0.9689
 2823SOL    HW220106   1.382   0.725   0.638  1.6230  0.4945 -2.6346
 2824SOL     OW20107   2.251   2.409  17.384  0.2319  0.0009 -0.0280
 2824SOL    HW120108   2.228   2.428  17.293  0.0599  1.8592  0.4018
 2824SOL    HW220109   2.305   2.330  17.373 -2.0904 -1.3049 -1.9337
 2825SOL     OW20110   3.342   4.425   7.648  0.6603  0.1034 -0.0614
 2825SOL    HW120111   3.396   4.366   7.595  1.1613  0.5466 -0.0363
 2825SOL    HW220112   3.411   4.480   7.685  0.7422 -0.5108  0.7042
 2826SOL     OW20113   3.217   0.548   4.616  0.2177 -0.2188 -0.9301
 2826SOL    HW120114   3.280   0.608   4.655 -1.8297  0.1595  1.8122
 2826SOL    HW220115   3.138   0.597   4.593  0.8768  0.7702 -1.0478
 2827SOL     OW20116   3.665   4.073   4.701 -0.0090  0.8540  0.4204
 2827SOL    HW120117   3.611   4.150   4.683 -1.3648 -0.4052 -0.8390
 2827SOL    HW220118   3.741   4.086   4.646 -0.2407 -0.1138 -0.1239
 2828SOL     OW20119   4.435   2.080   2.559 -0.0338 -0.0157 -0.1431
 2828SOL    HW120120   4.385   2.113   2.634  1.6144  1.9364  0.0677
 2828SOL    HW220121   4.453   2.165   2.519 -1.2566  0.1713 -0.2967
 2829SOL     OW20122   4.351   2.068  13.288  0.7683 -0.4424 -0.8358
 2829SOL    HW120123   4.310   2.126  13.352 -0.7084 -1.5573 -0.7820
 2829SOL    HW220124   4.443   2.094  13.295  0.5665  1.1878 -4.0519
 2830SOL     OW20125   3.525   2.453  14.510 -0.2456 -0.3440  0.4484
 2830SOL    HW120126   3.503   2.360  14.510 -2.8095  0.2544 -1.3653
 2830SOL    HW220127   3.502   2.477  14.420  0.9339 -0.5593  0.0920
 2831SOL     OW20128   2.725   1.543   6.077  0.4576 -0.5594 -0.0755
 2831SOL    HW120129   2.785   1.470   6.089  1.1331 -0.2262 -1.4458
 2831SOL    HW220130   2.784   1.608   6.038  0.3120 -0.1375  0.4044
 2832SOL     OW20131   4.202   0.142   5.808 -0.5380  0.2232 -0.3108
 2832SOL    HW120132   4.183   0.230   5.841 -0.3923 -0.2390  0.9849
 2832SOL    HW220133   4.112   0.121   5.783  0.2476 -1.5642 -1.6572
 2833SOL     OW20134   0.090   0.506   6.030 -0.6963  0.3056  0.1426
 2833SOL    HW120135   0.016   0.565   6.016 -0.1476  0.6403 -1.3309
 2833SOL    HW220136   0.062   0.471   6.115 -0.3666 -0.5508 -0.1057
 2834SOL     OW20137   2.680   3.934   1.057 -0.2175 -0.7635 -0.9281
 2834SOL    HW120138   2.657   3.965   0.970 -0.2114  0.8380 -0.3666
 2834SOL    HW220139   2.724   4.012   1.091  0.3510 -0.0886 -3.2784
 2835SOL     OW20140   1.502   2.655   2.553  0.4537 -0.1729  0.1596
 2835SOL    HW120141   1.418   2.621   2.584 -0.2848  1.9674  0.4959
 2835SOL    HW220142   1.543   2.673   2.637  1.2178  2.5408 -0.8061
 2836SOL     OW20143   3.737   0.795   4.511  0.6238  0.3861 -0.1323
 2836SOL    HW120144   3.812   0.832   4.558 -0.2292  1.0350  0.7433
 2836SOL    HW220145   3.742   0.701   4.527 -2.8301  0.3598  0.8332
 2837SOL     OW20146   1.999   3.751  10.146  0.2070  0.3382 -0.0175
 2837SOL    HW120147   1.926   3.741  10.208 -2.6157 -0.8194 -3.4889
 2837SOL    HW220148   1.974   3.693  10.074 -0.8649  2.5731 -1.4258
 2838SOL     OW20149   3.943   0.709   8.761 -0.0139 -0.1927 -0.3314
 2838SOL    HW120150   3.939   0.658   8.680  0.1218  1.4118 -1.3455
 2838SOL    HW220151   3.852   0.695   8.786 -0.8121  1.3693 -2.4063
 2839SOL     OW20152   1.372   3.976   7.395  0.6281  0.2555 -0.9487
 2839SOL    HW120153   1.282   3.971   7.425  0.3813 -0.5447 -1.7865
 2839SOL    HW220154   1.358   3.990   7.301 -0.5438 -1.2124 -0.9991
 2840SOL     OW20155   4.466   4.654   5.112 -0.0454  0.1998 -0.2362
 2840SOL    HW120156   4.515   4.733   5.134 -0.9888  1.1887 -1.7132
 2840SOL    HW220157   4.465   4.610   5.197  2.0775  0.7306  0.0464
 2841SOL     OW20158   2.782   2.542   4.776  0.4674 -0.4561 -0.5819
 2841SOL    HW120159   2.727   2.607   4.733 -2.8818  0.1317  4.5261
 2841SOL    HW220160   2.845   2.604   4.816 -0.1349  0.9289 -1.7987
 2842SOL     OW20161   4.628   4.496   9.485 -0.2838  0.0401 -0.0856
 2842SOL    HW120162   4.620   4.561   9.555 -0.2091 -1.7271  1.5711
 2842SOL    HW220163   4.664   4.426   9.540 -1.3378 -0.2356  0.2520
 2843SOL     OW20164   0.389   3.542   5.170 -0.0569 -0.0058  0.4515
 2843SOL    HW120165   0.303   3.579   5.191 -0.2924  0.4833 -1.3185
 2843SOL    HW220166   0.405   3.565   5.078  2.6957  0.4001  1.0563
 2844SOL     OW20167   1.583   3.178   0.641 -0.5592 -0.0087  0.3204
 2844SOL    HW120168   1.493   3.191   0.672 -0.4787 -0.7943  0.8889
 2844SOL    HW220169   1.572   3.125   0.562  0.2720 -0.0773  0.2531
 2845SOL     OW20170   2.384   4.691   4.306  0.0732  0.0662  0.4258
 2845SOL    HW120171   2.450   4.651   4.250  0.8093 -0.3538  1.5833
 2845SOL    HW220172   2.338   0.007   4.239  2.3222 -0.6352 -1.6710
 2846SOL     OW20173   1.314   1.861  14.724  0.2757 -0.2582  0.0446
 2846SOL    HW120174   1.372   1.859  14.800  3.3339 -0.1580 -2.2822
 2846SOL    HW220175   1.279   1.772  14.732  0.2903 -0.2434  0.2959
 2847SOL     OW20176   0.814   4.382   6.464  0.3972  0.2697 -0.1199
 2847SOL    HW120177   0.749   4.330   6.417  0.6900  2.0511 -2.4649
 2847SOL    HW220178   0.766   4.456   6.501  1.8821  0.8295  0.7085
 2848SOL     OW20179   0.131   2.359   9.288  0.2442  0.0807  0.0394
 2848SOL    HW120180   0.200   2.393   9.345  0.1800 -0.8425  0.6502
 2848SOL    HW220181   0.128   2.437   9.232 -0.3789  0.6841  0.9292
 2849SOL     OW20182   1.045   3.880   3.520  0.0757  0.3521  0.8264
 2849SOL    HW120183   1.020   3.852   3.608 -1.9874  0.3094  0.2312
 2849SOL    HW220184   1.113   3.813   3.508  0.2199  0.3664  1.5701
 2850SOL     OW20185   1.801   2.421   1.059 -0.3139 -0.0885  0.5227
 2850SOL    HW120186   1.838   2.487   1.001  1.4094 -0.8985  0.6930
 2850SOL    HW220187   1.717   2.463   1.073 -0.0463  1.2560 -1.9177
 2851SOL     OW20188   4.620   3.696   5.093 -0.2220  0.0093 -0.9145
 2851SOL    HW120189   4.570   3.717   5.014  1.2390  0.8535 -1.6122
 2851SOL    HW220190   4.572   3.615   5.114  0.0621  0.4213  1.3193
 2852SOL     OW20191   2.840   4.081   1.735  0.6179 -0.2122  0.5758
 2852SOL    HW120192   2.814   4.033   1.656 -1.4280  0.7710  0.6617
 2852SOL    HW220193   2.850   4.005   1.792  1.3305 -0.5881 -0.0337
 2853SOL     OW20194   4.485   4.423  10.195  0.3517  0.1886  0.0788
 2853SOL    HW120195   4.561   4.480  10.195 -1.3039  2.3838  1.0322
 2853SOL    HW220196   4.433   4.463  10.124  1.2141  2.7042  0.8766
 2854SOL     OW20197   1.737   0.975   7.387  0.9574 -0.7522  0.2455
 2854SOL    HW120198   1.772   0.893   7.353  0.9386 -0.9843  0.7782
 2854SOL    HW220199   1.724   0.963   7.481 -1.0477  0.9285  0.1965
 2855SOL     OW20200   3.313   3.918   0.536  0.0132  0.2603 -0.6712
 2855SOL    HW120201   3.372   3.907   0.461  1.0436  2.5021 -0.1803
 2855SOL    HW220202   3.346   4.004   0.564  0.1744  0.0605 -0.2519
 2856SOL     OW20203   3.410   3.309   2.919 -0.1001  0.2022  0.4897
 2856SOL    HW120204   3.419   3.339   3.010  0.4551  2.3033 -0.2809
 2856SOL    HW220205   3.455   3.225   2.915 -0.3627  0.1131 -0.5067
 2857SOL     OW20206   4.435   0.124   3.247  0.2633  0.0061 -0.2960
 2857SOL    HW120207   4.508   0.161   3.199 -1.9805  0.9246 -2.9932
 2857SOL    HW220208   4.448   0.177   3.326 -0.0076  0.1475 -0.3459
 2858SOL     OW20209   1.677   2.071   4.600 -0.4404  0.1080 -0.4620
 2858SOL    HW120210   1.752   2.120   4.634  2.0680 -3.1455 -1.2860
 2858SOL    HW220211   1.702   2.045   4.511 -0.0199 -0.5531 -0.1523
 2859SOL     OW20212   0.066   4.537   0.639  0.0316 -0.2915  0.1540
 2859SOL    HW120213   4.716   4.531   0.684  0.0989  1.1192  0.4874
 2859SOL    HW220214   0.114   4.532   0.721  0.6495  0.6915 -0.1424
 2860SOL     OW20215   2.546   0.380   8.710  0.7026  0.5303  0.3139
 2860SOL    HW120216   2.485   0.445   8.747  1.2771  0.8368  0.7189
 2860SOL    HW220217   2.610   0.435   8.666  1.4949  1.2329  2.3528
 2861SOL     OW20218   1.957   2.943   5.705  0.0397  0.4752 -0.4983
 2861SOL    HW120219   1.885   2.888   5.737 -0.9523  0.7381 -2.3015
 2861SOL    HW220220   1.913   3.028   5.707  1.5807  1.2874 -1.1810
 2862SOL     OW20221   2.695   3.041  12.416  0.2174  0.4740  0.2164
 2862SOL    HW120222   2.749   3.096  12.359 -0.7491 -0.4331 -1.5813
 2862SOL    HW220223   2.632   3.109  12.440 -0.1724 -0.1084  0.8338
 2863SOL     OW20224   2.732   2.408   3.782  0.2844 -0.6241 -0.3651
 2863SOL    HW120225   2.795   2.471   3.747 -1.6906  1.4568 -0.2366
 2863SOL    HW220226   2.682   2.389   3.703 -1.0785 -1.2123  0.6275
 2864SOL     OW20227   0.850   4.222   9.160  0.0886 -0.0705  0.2646
 2864SOL    HW120228   0.846   4.138   9.207 -4.0748 -0.2403 -0.4222
 2864SOL    HW220229   0.762   4.246   9.131  0.3664  1.9264  1.0988
 2865SOL     OW20230   2.331   3.188   2.095  0.0658  0.5212 -0.1226
 2865SOL    HW120231   2.393   3.259   2.076  3.0806 -2.2469 -0.6478
 2865SOL    HW220232   2.335   3.186   2.190  0.9523  0.1359 -0.1704
 2866SOL     OW20233   1.471   2.683  14.348 -0.4051  0.6590 -0.4354
 2866SOL    HW120234   1.483   2.728  14.265 -1.9498  1.5401 -0.1756
 2866SOL    HW220235   1.447   2.751  14.411  0.4612  1.0213 -0.5048
 2867SOL     OW20236   1.944   4.717   0.228  0.7405 -0.1900 -0.2447
 2867SOL    HW120237   1.849   4.717   0.236  0.8597 -0.9948  1.2944
 2867SOL    HW220238   1.949   4.654   0.157  1.9048  0.1068 -0.4304
 2868SOL     OW20239   0.475   3.404  15.285 -0.4009  0.0596 -0.4383
 2868SOL    HW120240   0.559   3.419  15.329 -1.3896  0.7396  1.2060
 2868SOL    HW220241   0.446   3.494  15.268  2.1814  0.7755 -1.0209
 2869SOL     OW20242   4.365   4.581   4.245 -0.0330  0.3384  0.5140
 2869SOL    HW120243   4.449   4.538   4.261 -0.1660 -0.1097  0.0265
 2869SOL    HW220244   4.388   4.644   4.177 -0.1522 -0.0333  0.1290
 2870SOL     OW20245   2.333   4.340   9.786 -0.3094 -0.2923 -0.1857
 2870SOL    HW120246   2.253   4.389   9.765  1.1659  2.7411  1.2459
 2870SOL    HW220247   2.339   4.376   9.874 -0.3163  0.0306 -0.3179
 2871SOL     OW20248   3.950   4.336  15.839  0.0791  0.1833 -0.3417
 2871SOL    HW120249   3.855   4.339  15.855  0.2796 -1.8423  1.1560
 2871SOL    HW220250   3.946   4.352  15.745  0.1855  1.2211 -0.1692
 2872SOL     OW20251   0.243   0.388  10.728 -0.7074  0.1142 -0.0911
 2872SOL    HW120252   0.317   0.329  10.711  0.3004  1.6491 -1.0751
 2872SOL    HW220253   0.271   0.411  10.817  1.5327 -0.9065 -0.5114
 2873SOL     OW20254   4.391   0.642   4.217 -0.1698 -0.3098  0.4780
 2873SOL    HW120255   4.459   0.590   4.175 -0.4900  0.3813 -0.8889
 2873SOL    HW220256   4.417   0.730   4.189  0.2895 -0.1538  1.3850
 2874SOL     OW20257   1.120   0.569   3.041 -0.6099 -0.2299  0.6004
 2874SOL    HW120258   1.170   0.625   3.100 -2.1771  2.5019 -0.6513
 2874SOL    HW220259   1.169   0.487   3.042  0.2630  0.2857 -0.5807
 2875SOL     OW20260   1.730   4.264   3.242  0.1328 -0.1763  0.1152
 2875SOL    HW120261   1.689   4.185   3.278 -0.3867  0.8757  1.8375
 2875SOL    HW220262   1.728   4.319   3.320  1.9249 -2.1039  1.4968
 2876SOL     OW20263   2.022   3.256   3.217  0.0084  0.2161 -0.8190
 2876SOL    HW120264   2.050   3.304   3.139 -0.0770 -0.2293 -1.1240
 2876SOL    HW220265   2.103   3.205   3.213  0.2886  0.2426  4.0217
 2877SOL     OW20266   4.644   0.230   8.283  0.1987  0.6482  0.1726
 2877SOL    HW120267   4.652   0.138   8.308  1.0252  0.9615  1.0647
 2877SOL    HW220268   4.659   0.279   8.363 -0.2015  2.6025 -0.9551
 2878SOL     OW20269   1.220   3.592   6.342 -0.1890 -0.2775  0.2171
 2878SOL    HW120270   1.134   3.553   6.327  0.0649 -0.4121 -0.8636
 2878SOL    HW220271   1.223   3.590   6.438 -0.3960 -0.5849  0.2172
 2879SOL     OW20272   1.858   0.378   0.576 -0.0039 -0.3432  0.1690
 2879SOL    HW120273   1.806   0.303   0.545 -2.1672  0.4907  1.7698
 2879SOL    HW220274   1.865   0.359   0.670  0.5670 -2.9539 -0.3978
 2880SOL     OW20275   3.388   3.279   7.606 -0.3602  0.0334 -0.1457
 2880SOL    HW120276   3.382   3.300   7.699 -2.0965  1.5732 -0.6066
 2880SOL    HW220277   3.459   3.215   7.599  0.1015  0.5563 -0.2536
 2881SOL     OW20278   1.388   3.305  12.311  0.6500  0.4196 -0.4171
 2881SOL    HW120279   1.328   3.236  12.284 -0.1571 -0.2553  3.1588
 2881SOL    HW220280   1.317   3.364  12.337  0.4854 -0.5353  1.2607
 2882SOL     OW20281   3.995   3.151   3.707  0.6354 -0.9588 -0.2566
 2882SOL    HW120282   3.978   3.221   3.769  1.6705 -2.4264  1.6779
 2882SOL    HW220283   4.001   3.191   3.620 -1.9573 -1.8234 -0.8336
 2883SOL     OW20284   3.034   3.578   6.436  0.3340  0.1335  0.3579
 2883SOL    HW120285   3.066   3.634   6.365  0.5589 -1.7261 -0.9866
 2883SOL    HW220286   2.955   3.631   6.452  0.4842  0.0587  1.3674
 2884SOL     OW20287   1.315   0.117   2.928  0.6159 -0.0625 -0.8483
 2884SOL    HW120288   1.372   0.041   2.914  0.9884  0.0813 -0.0757
 2884SOL    HW220289   1.292   0.112   3.020 -1.8808  1.0980 -1.4217
 2885SOL     OW20290   1.624   0.603   6.506  0.3863  0.5402  0.2383
 2885SOL    HW120291   1.691   0.620   6.440 -0.4369 -4.4611 -1.8906
 2885SOL    HW220292   1.674   0.549   6.567  0.2612 -0.1415 -0.2723
 2886SOL     OW20293   0.894   2.544   0.523 -0.0665  0.3875  0.0531
 2886SOL    HW120294   0.881   2.475   0.457 -0.8704  1.2633 -0.6965
 2886SOL    HW220295   0.890   2.609   0.454  1.2360  0.7886  0.3551
 2887SOL     OW20296   1.662   4.290   0.316 -0.7821 -0.2835  0.0920
 2887SOL    HW120297   1.715   4.218   0.283 -2.3025 -1.6349  0.5905
 2887SOL    HW220298   1.665   4.345   0.237  0.7850 -1.1495 -0.4578
 2888SOL     OW20299   4.002   1.755   5.436 -0.1475 -0.2427  0.1572
 2888SOL    HW120300   3.990   1.838   5.390 -1.2913 -0.3116  0.3324
 2888SOL    HW220301   4.093   1.739   5.412 -0.9524 -2.4261 -1.5307
 2889SOL     OW20302   3.632   2.491   3.309  0.4680 -0.2948 -0.4236
 2889SOL    HW120303   3.600   2.461   3.223 -1.6650  2.0635 -0.4404
 2889SOL    HW220304   3.566   2.451   3.365 -0.0240 -0.9078 -1.4415
 2890SOL     OW20305   0.890   3.678   6.282 -0.0584 -0.0354 -0.1721
 2890SOL    HW120306   0.855   3.592   6.258  4.2083 -2.1821  1.2242
 2890SOL    HW220307   0.838   3.700   6.359 -1.8592  1.4152 -1.8082
 2891SOL     OW20308   0.714   4.535  15.754  0.2873  0.5604  0.5542
 2891SOL    HW120309   0.725   4.464  15.818  0.7749  0.8991  0.8447
 2891SOL    HW220310   0.764   4.600  15.803  1.5384  0.7407 -1.0038
 2892SOL     OW20311   3.155   0.632  12.920  0.1358  0.2192 -0.4863
 2892SOL    HW120312   3.207   0.659  12.844  0.3185 -0.2268 -0.5176
 2892SOL    HW220313   3.066   0.639  12.886  0.8140 -0.1838 -2.3340
 2893SOL     OW20314   1.535   4.693   3.219 -0.1251 -0.4432 -0.1450
 2893SOL    HW120315   1.470   4.648   3.273  1.1448  1.2430  2.7825
 2893SOL    HW220316   1.567   4.618   3.169 -0.1346 -0.6549  0.1620
 2894SOL     OW20317   2.904   3.069  17.375  0.0908 -0.2382 -0.3679
 2894SOL    HW120318   2.866   3.073  17.287 -0.5450 -0.4564 -0.1021
 2894SOL    HW220319   2.844   3.122  17.427  1.6011  0.8900  0.2424
 2895SOL     OW20320   4.062   2.600   4.875 -0.4233  0.0174  0.5488
 2895SOL    HW120321   4.113   2.551   4.811 -0.4871  0.1259  0.4150
 2895SOL    HW220322   4.085   2.691   4.856 -0.4844  0.2916  1.7647
 2896SOL     OW20323   1.859   2.298  16.293 -0.4473  0.3673  0.0694
 2896SOL    HW120324   1.839   2.387  16.263 -0.2753  0.0054 -1.1449
 2896SOL    HW220325   1.901   2.264  16.214 -0.8394 -0.9298  0.4186
 2897SOL     OW20326   2.802   1.698  15.742 -0.2399 -0.0874  0.5288
 2897SOL    HW120327   2.838   1.671  15.826  0.8156  0.8116  0.3743
 2897SOL    HW220328   2.880   1.730  15.697 -0.1125  0.2671  1.0053
 2898SOL     OW20329   1.172   1.900   2.984 -0.2992 -0.3394 -0.6786
 2898SOL    HW120330   1.112   1.962   3.026  0.8669 -0.8351  1.7096
 2898SOL    HW220331   1.184   1.830   3.047 -1.5431 -1.4161 -1.6413
 2899SOL     OW20332   4.700   0.341   8.515 -0.2569 -0.2476  0.1462
 2899SOL    HW120333   0.043   0.385   8.551  1.9269 -1.4993 -2.9553
 2899SOL    HW220334   4.644   0.327   8.591 -0.4030  1.0208  0.2734
 2900SOL     OW20335   1.307   4.460   2.732 -0.5457 -0.5004  0.3148
 2900SOL    HW120336   1.256   4.465   2.813 -1.0672  1.2542 -0.1015
 2900SOL    HW220337   1.370   4.531   2.747  1.7228 -2.1253 -1.7390
 2901SOL     OW20338   1.208   2.784   5.441 -0.4961 -0.2491 -0.1124
 2901SOL    HW120339   1.234   2.734   5.518 -1.5552  1.5244  1.4060
 2901SOL    HW220340   1.180   2.709   5.388 -0.3438 -0.8166  0.6117
 2902SOL     OW20341   1.090   1.013   5.624 -0.9755 -0.1743  0.2059
 2902SOL    HW120342   1.165   1.041   5.677 -0.7196  1.0171 -0.7930
 2902SOL    HW220343   1.134   1.016   5.539 -3.3223 -0.0731 -0.9996
 2903SOL     OW20344   2.449   4.058   5.485 -0.0023 -0.2257  0.0755
 2903SOL    HW120345   2.506   4.079   5.411 -0.3210  0.4368  0.0188
 2903SOL    HW220346   2.512   4.029   5.550  2.3521  0.6448 -1.8049
 2904SOL     OW20347   3.537   4.332   7.386  0.2678 -0.4291  0.5729
 2904SOL    HW120348   3.570   4.302   7.302 -0.3007  1.5303 -0.3445
 2904SOL    HW220349   3.613   4.381   7.420  0.1000 -1.1383  1.9563
 2905SOL     OW20350   1.905   1.251  14.004 -0.3316 -0.0310  0.1459
 2905SOL    HW120351   1.819   1.285  14.029 -0.1938  0.1646  0.3481
 2905SOL    HW220352   1.918   1.187  14.074 -1.9766 -3.2193 -2.3915
 2906SOL     OW20353   3.608   2.231   5.160 -0.4391  0.0362  0.5428
 2906SOL    HW120354   3.593   2.277   5.077  1.3983 -2.3011 -1.0792
 2906SOL    HW220355   3.522   2.238   5.201 -0.3154 -1.8964  1.1564
 2907SOL     OW20356   1.116   2.073   8.441 -0.5492 -0.5597 -0.5291
 2907SOL    HW120357   1.059   1.996   8.444  0.9480 -1.7464 -2.0933
 2907SOL    HW220358   1.074   2.127   8.373 -1.1987  0.5942  0.7911
 2908SOL     OW20359   3.082   4.216  15.040 -0.0008 -0.1433 -0.9203
 2908SOL    HW120360   3.061   4.156  15.112  0.2526  0.9949  0.1047
 2908SOL    HW220361   3.103   4.292  15.095  0.3189 -0.7623 -0.1830
 2909SOL     OW20362   4.095   1.547   9.179  0.0508 -0.0848 -0.0629
 2909SOL    HW120363   4.176   1.539   9.128 -0.1149  0.4995 -0.4174
 2909SOL    HW220364   4.123   1.510   9.263  1.7442  0.0950 -0.5451
 2910SOL     OW20365   1.437   4.351   8.577 -0.8374 -0.7219 -0.3931
 2910SOL    HW120366   1.485   4.427   8.544 -0.3720 -0.8103  0.0719
 2910SOL    HW220367   1.353   4.368   8.535 -1.8438 -0.3870  1.7792
 2911SOL     OW20368   1.054   2.322   1.590 -0.6714  0.1008  0.1482
 2911SOL    HW120369   1.147   2.341   1.601 -0.6835 -0.6767  1.5470
 2911SOL    HW220370   1.047   2.263   1.514  2.2414 -0.4138  0.2871
 2912SOL     OW20371   1.851   3.673   6.556 -0.3136  0.0787 -0.9851
 2912SOL    HW120372   1.902   3.645   6.479 -2.3551 -1.9985 -1.5606
 2912SOL    HW220373   1.772   3.706   6.514 -0.3001  0.5112 -0.6655
 2913SOL     OW20374   3.045   0.581   6.414 -0.4543  0.4604  0.1686
 2913SOL    HW120375   3.069   0.519   6.345 -0.8349  1.5638 -0.9484
 2913SOL    HW220376   3.099   0.655   6.386  0.7906 -0.6288 -0.3257
 2914SOL     OW20377   1.852   1.997   5.036 -0.1023  0.2112 -0.0280
 2914SOL    HW120378   1.865   2.082   4.995  3.1675 -0.7032 -0.9474
 2914SOL    HW220379   1.881   1.946   4.960  1.4685  0.2413  0.5353
 2915SOL     OW20380   1.950   0.707   0.953 -0.2619 -0.3704  0.5173
 2915SOL    HW120381   1.865   0.721   0.995 -1.0715  2.0239 -1.9193
 2915SOL    HW220382   1.927   0.697   0.860 -0.9960  2.1378  0.4412
 2916SOL     OW20383   0.771   2.684  13.089  0.6035 -0.2252 -0.0178
 2916SOL    HW120384   0.786   2.778  13.103 -3.3745  0.5387 -0.9692
 2916SOL    HW220385   0.677   2.670  13.092  0.3064  1.5594 -0.7251
 2917SOL     OW20386   2.289   1.752   2.818 -0.2912 -0.0025  0.2473
 2917SOL    HW120387   2.338   1.670   2.829 -2.0072 -1.1022 -0.2817
 2917SOL    HW220388   2.350   1.816   2.782  1.2323 -1.5812 -0.0103
 2918SOL     OW20389   4.353   0.979  12.841  0.0822  0.0489 -0.7913
 2918SOL    HW120390   4.325   1.045  12.905  1.6385  1.0406 -1.1437
 2918SOL    HW220391   4.445   1.006  12.838 -0.3362  1.2103 -2.5566
 2919SOL     OW20392   1.220   0.540   4.883 -0.3476 -0.0730  0.1231
 2919SOL    HW120393   1.160   0.475   4.920  0.1046 -1.8734 -2.2889
 2919SOL    HW220394   1.241   0.499   4.799  1.4371  0.2081  0.4443
 2920SOL     OW20395   4.127   3.635   4.015  0.2829 -0.8382 -0.8816
 2920SOL    HW120396   4.172   3.621   4.099 -1.8808  1.3562  0.6458
 2920SOL    HW220397   4.089   3.723   4.019  2.5064  0.0769 -0.0498
 2921SOL     OW20398   0.659   3.887  13.990 -0.1384 -0.0532 -0.2659
 2921SOL    HW120399   0.653   3.955  14.057 -0.3870 -0.6835  0.3493
 2921SOL    HW220400   0.569   3.875  13.961  0.4797 -2.0621 -1.3355
 2922SOL     OW20401   0.613   2.292  10.723 -0.1701  0.4643  0.5477
 2922SOL    HW120402   0.525   2.324  10.702  0.7667  2.5214 -0.2290
 2922SOL    HW220403   0.619   2.212  10.671  0.9300  0.9602 -0.0717
 2923SOL     OW20404   3.698   3.130   8.517 -0.0929 -0.3522 -0.4451
 2923SOL    HW120405   3.668   3.046   8.483 -5.1676  1.6094 -0.8393
 2923SOL    HW220406   3.685   3.183   8.439  0.5297 -1.9610 -1.6545
 2924SOL     OW20407   3.121   0.200   6.368 -0.0208  0.1070  0.4617
 2924SOL    HW120408   3.096   0.175   6.457 -2.0442 -2.7643 -0.8944
 2924SOL    HW220409   3.091   0.128   6.313  1.8506  0.6451 -1.2738
 2925SOL     OW20410   3.148   0.046   7.074 -0.6233 -0.4892 -0.6341
 2925SOL    HW120411   3.197   0.113   7.123 -2.6904  0.0560  0.6810
 2925SOL    HW220412   3.108   0.100   7.006 -0.1390  1.1531  0.3652
 2926SOL     OW20413   1.145   3.857  10.096 -0.0431  0.0841 -0.3674
 2926SOL    HW120414   1.097   3.798  10.039  1.5748 -1.6732  0.0915
 2926SOL    HW220415   1.115   3.832  10.183  0.7755  0.2863 -0.0303
 2927SOL     OW20416   2.336   1.798   7.706  0.2959  0.6107  0.5222
 2927SOL    HW120417   2.422   1.774   7.740  1.1159  2.1882 -0.4526
 2927SOL    HW220418   2.280   1.756   7.772  0.3621 -1.4335 -0.7223
 2928SOL     OW20419   4.175   4.174   6.937  0.1710  0.0165  0.4172
 2928SOL    HW120420   4.257   4.219   6.959 -0.7162  0.9555  1.8628
 2928SOL    HW220421   4.182   4.089   6.979  0.3911  1.2924  2.9722
 2929SOL     OW20422   3.803   1.995   5.030  0.1645  0.3118 -0.1402
 2929SOL    HW120423   3.761   2.078   5.052  0.8467  1.1610 -2.1245
 2929SOL    HW220424   3.743   1.926   5.057 -0.0642  0.3709 -0.4986
 2930SOL     OW20425   1.031   2.822  12.334  0.3175 -0.6828  0.1093
 2930SOL    HW120426   1.060   2.761  12.401  0.5561  1.6955  2.1570
 2930SOL    HW220427   0.944   2.845  12.365  0.6518  0.5882  0.1039
 2931SOL     OW20428   3.905   0.035   5.848  0.0428 -0.0173  0.2909
 2931SOL    HW120429   3.866   4.721   5.774 -0.4297  0.5219  0.1825
 2931SOL    HW220430   3.823   0.065   5.887 -0.7439 -2.7416  0.7282
 2932SOL     OW20431   2.233   1.565   6.781  0.5172 -0.0101  0.6188
 2932SOL    HW120432   2.159   1.595   6.833 -0.5661 -2.5726  0.5566
 2932SOL    HW220433   2.301   1.629   6.804  1.7272 -1.4274  1.0027
 2933SOL     OW20434   4.572   2.622   1.331 -0.3161 -0.1005 -0.5941
 2933SOL    HW120435   4.485   2.660   1.325 -0.3647  0.0614  1.1099
 2933SOL    HW220436   4.567   2.551   1.396  0.0311  0.1435 -0.2968
 2934SOL     OW20437   1.306   3.215  11.929 -0.3384 -0.2090 -0.4191
 2934SOL    HW120438   1.313   3.193  12.022 -1.0690 -1.1101 -0.5789
 2934SOL    HW220439   1.284   3.130  11.891 -1.1416  0.1223 -0.7007
 2935SOL     OW20440   4.284   4.474   9.794 -0.3736 -0.5215 -0.0841
 2935SOL    HW120441   4.234   4.406   9.750 -0.9965 -2.0226  2.8893
 2935SOL    HW220442   4.218   4.531   9.834 -2.2991 -2.9281  0.1975
 2936SOL     OW20443   2.916   4.561   1.430 -0.2997  0.3780 -0.4763
 2936SOL    HW120444   2.843   4.623   1.432 -0.2373  0.6291 -5.6572
 2936SOL    HW220445   2.879   4.482   1.470  0.3506 -0.0275 -0.6786
 2937SOL     OW20446   3.998   2.430   5.456  0.1009  0.4399 -0.0882
 2937SOL    HW120447   4.077   2.478   5.430  1.0174 -0.4169  1.1414
 2937SOL    HW220448   4.035   2.374   5.524  0.5612 -0.4851 -1.0955
 2938SOL     OW20449   3.288   0.063   3.034 -0.0228  0.0848  0.1478
 2938SOL    HW120450   3.247   0.106   2.960 -4.6090 -2.3971  1.2626
 2938SOL    HW220451   3.210   0.023   3.073 -0.9948  1.3984 -0.4489
 2939SOL     OW20452   2.241   2.923   2.773  0.4067  0.3587 -0.1059
 2939SOL    HW120453   2.178   2.861   2.736  0.7923 -1.4091  2.1861
 2939SOL    HW220454   2.277   2.956   2.690 -0.2006 -3.2955 -1.8351
 2940SOL     OW20455   2.482   3.932   7.491 -0.3710  0.1175 -0.5261
 2940SOL    HW120456   2.400   3.884   7.488 -1.0887  1.1634  2.8361
 2940SOL    HW220457   2.505   3.941   7.398  1.3528 -2.4492 -0.3401
 2941SOL     OW20458   3.319   4.563  15.791 -0.1004  0.3445 -0.3131
 2941SOL    HW120459   3.391   4.500  15.794  0.7317  1.3580  0.9058
 2941SOL    HW220460   3.332   4.600  15.878 -1.8984 -2.2980  1.1084
 2942SOL     OW20461   1.770   3.230   2.880  0.4372  0.1010  0.5421
 2942SOL    HW120462   1.838   3.163   2.875  0.8975  0.6751 -0.7135
 2942SOL    HW220463   1.707   3.175   2.834  0.1895  0.6140  0.2773
 2943SOL     OW20464   2.299   1.487  13.170 -0.0883 -0.3665 -0.6102
 2943SOL    HW120465   2.224   1.527  13.214 -1.8094 -3.1457 -1.0021
 2943SOL    HW220466   2.345   1.446  13.244  0.5616  1.9292  0.2468
 2944SOL     OW20467   4.492   0.938   2.557 -0.5392  0.5769  0.0603
 2944SOL    HW120468   4.462   0.927   2.647 -2.6420 -3.2524 -1.1568
 2944SOL    HW220469   4.409   0.974   2.526  0.2419  1.3312 -1.1880
 2945SOL     OW20470   2.197   2.304   1.893  0.2894  0.6675 -0.3537
 2945SOL    HW120471   2.231   2.374   1.948 -1.8582 -0.0697  1.8798
 2945SOL    HW220472   2.222   2.331   1.804  1.5050 -0.4385 -0.3573
 2946SOL     OW20473   2.394   4.725   1.892 -0.0773 -0.0079 -0.1711
 2946SOL    HW120474   2.342   4.656   1.933  2.5167 -1.8456  0.0635
 2946SOL    HW220475   2.411   0.049   1.966 -0.7315 -0.4815  0.3445
 2947SOL     OW20476   3.897   0.274   3.000  0.6018 -0.1072 -0.1674
 2947SOL    HW120477   3.891   0.339   2.930 -0.1811  0.4456  0.4197
 2947SOL    HW220478   3.957   0.209   2.965 -1.1887 -0.5582 -2.4065
 2948SOL     OW20479   3.660   4.011   5.121 -0.8237  0.0620  0.5829
 2948SOL    HW120480   3.630   4.060   5.198 -3.6097 -0.6641 -0.0381
 2948SOL    HW220481   3.707   4.079   5.072 -1.2150 -1.3256 -1.6766
 2949SOL     OW20482   2.792   4.207   5.031  0.2725  0.2516  0.4492
 2949SOL    HW120483   2.832   4.161   5.105 -0.8879 -3.2383 -1.0603
 2949SOL    HW220484   2.724   4.256   5.078  1.4618  1.2521  1.1254
 2950SOL     OW20485   3.803   3.809   8.786 -0.2388 -0.0855 -0.4832
 2950SOL    HW120486   3.836   3.728   8.825 -1.9858  0.0080  1.1822
 2950SOL    HW220487   3.852   3.879   8.831 -1.5698 -0.0586  0.9378
 2951SOL     OW20488   2.772   2.961   7.672 -0.9109  0.4290  0.1401
 2951SOL    HW120489   2.816   2.913   7.742 -1.5527 -1.8492 -1.0087
 2951SOL    HW220490   2.778   2.906   7.595 -1.9447  0.4287  0.0599
 2952SOL     OW20491   3.509   0.168  17.717  0.0815  0.5195  0.5704
 2952SOL    HW120492   3.466   0.240   0.029  1.9238  0.8090  1.8528
 2952SOL    HW220493   3.453   0.092  17.729 -0.4425  0.7509 -0.4285
 2953SOL     OW20494   3.549   0.602  12.945 -0.0838  0.2383 -0.4414
 2953SOL    HW120495   3.591   0.586  13.030  1.3642  1.1776 -0.9867
 2953SOL    HW220496   3.566   0.514  12.910  0.1447 -0.2244  0.8341
 2954SOL     OW20497   0.987   4.346   6.217 -1.0625  0.0560 -0.2150
 2954SOL    HW120498   0.945   4.363   6.301 -0.7590 -1.7883  0.3060
 2954SOL    HW220499   0.995   4.251   6.213  0.9059  0.3152 -2.7628
 2955SOL     OW20500   1.012   2.276   1.884 -0.4157 -0.1103 -0.4694
 2955SOL    HW120501   1.044   2.337   1.818  2.2172 -1.0971 -0.1073
 2955SOL    HW220502   0.960   2.335   1.937  0.6225  1.8204 -1.6088
 2956SOL     OW20503   0.693   0.184   8.435 -0.3340 -0.1767  0.2138
 2956SOL    HW120504   0.614   0.203   8.386  0.3781  0.2225 -0.7688
 2956SOL    HW220505   0.658   0.130   8.506  1.0788 -1.0062  0.2774
 2957SOL     OW20506   3.968   1.570   3.257 -0.2450  0.3852 -0.5632
 2957SOL    HW120507   3.963   1.638   3.190 -0.9665  1.1277  0.2328
 2957SOL    HW220508   3.889   1.596   3.304 -0.5945 -1.3275 -0.1922
 2958SOL     OW20509   1.085   4.421   5.246 -0.1158  0.1213  0.7204
 2958SOL    HW120510   0.999   4.429   5.207 -0.2804 -0.0621  1.0426
 2958SOL    HW220511   1.137   4.475   5.187  0.9066 -0.2753  1.2578
 2959SOL     OW20512   3.794   4.014   2.589  0.1736  0.2829  0.1484
 2959SOL    HW120513   3.715   4.067   2.577 -1.0510 -1.3651  0.9257
 2959SOL    HW220514   3.785   3.995   2.682 -0.7692  2.5455  0.5393
 2960SOL     OW20515   3.923   0.194   8.969  0.4241 -0.2939 -0.2413
 2960SOL    HW120516   3.985   0.263   8.947  1.0143 -0.2551  1.4903
 2960SOL    HW220517   3.885   0.220   9.053  0.3260 -1.4245  0.0611
 2961SOL     OW20518   4.423   4.085   7.206  0.1042 -0.0119  0.2628
 2961SOL    HW120519   4.333   4.055   7.215  0.1047  0.5712  2.1386
 2961SOL    HW220520   4.422   4.149   7.134  2.3918  0.4956  0.6713
 2962SOL     OW20521   3.419   0.745   2.793 -1.0050  0.2181 -0.0053
 2962SOL    HW120522   3.385   0.706   2.873 -1.8303  0.4287 -0.2546
 2962SOL    HW220523   3.501   0.697   2.779 -0.9091 -0.4096  2.8523
 2963SOL     OW20524   2.396   3.260   7.537 -0.3889  0.3289 -0.0622
 2963SOL    HW120525   2.416   3.208   7.616 -0.9729 -0.2491 -0.2875
 2963SOL    HW220526   2.398   3.342   7.586 -3.6607  0.5906 -0.3330
 2964SOL     OW20527   4.584   1.634   2.271 -0.0366 -0.2050  0.1590
 2964SOL    HW120528   4.535   1.560   2.307 -0.1031  0.0866  0.6719
 2964SOL    HW220529   4.557   1.704   2.331  2.0383  0.0023  0.8669
 2965SOL     OW20530   4.311   2.714   4.617 -0.6165  0.5365  0.2391
 2965SOL    HW120531   4.399   2.720   4.581 -0.1241  0.3499  1.4364
 2965SOL    HW220532   4.304   2.620   4.637 -1.6391  0.0587 -2.3326
 2966SOL     OW20533   1.819   4.320   7.027 -0.6580  0.1394  0.2048
 2966SOL    HW120534   1.765   4.280   6.959 -0.2977  0.2350 -0.1353
 2966SOL    HW220535   1.882   4.249   7.037 -0.5970  0.5662  2.8675
 2967SOL     OW20536   3.894   1.305   2.125 -0.6098 -0.6429 -0.4696
 2967SOL    HW120537   3.952   1.378   2.107 -0.0820 -1.1207 -0.7259
 2967SOL    HW220538   3.846   1.335   2.202 -2.5599  2.9688 -3.1110
 2968SOL     OW20539   0.190   2.897   3.628  0.0715  0.0095  0.6115
 2968SOL    HW120540   0.136   2.874   3.703  0.7938 -1.0066  0.8000
 2968SOL    HW220541   0.214   2.989   3.643 -1.6293  0.6195 -0.3441
 2969SOL     OW20542   2.259   2.579   5.446  0.5868 -0.9222 -0.0961
 2969SOL    HW120543   2.218   2.527   5.515 -2.8593 -0.2643 -1.6226
 2969SOL    HW220544   2.197   2.563   5.375 -0.6013  0.0275  0.7385
 2970SOL     OW20545   0.659   2.427  11.948  0.3756 -0.0075 -0.1429
 2970SOL    HW120546   0.662   2.517  11.914 -0.7883  0.0294 -0.1430
 2970SOL    HW220547   0.591   2.386  11.895 -0.0180  2.9180 -1.8964
 2971SOL     OW20548   2.519   4.413   0.707 -0.5578  0.2369 -0.4459
 2971SOL    HW120549   2.457   4.452   0.768 -1.0263 -0.8759 -0.2142
 2971SOL    HW220550   2.471   4.345   0.660  0.8138  0.1365 -1.7059
 2972SOL     OW20551   2.063   0.394   9.678 -0.6178 -0.0468 -0.1312
 2972SOL    HW120552   2.141   0.374   9.626  0.1359  1.1745  0.5274
 2972SOL    HW220553   2.002   0.442   9.623  0.8448  1.1871 -0.6852
 2973SOL     OW20554   3.993   1.636  11.117  0.3485  0.2362 -0.3108
 2973SOL    HW120555   3.924   1.682  11.164 -1.2203 -0.8798 -1.5138
 2973SOL    HW220556   3.953   1.611  11.033  1.6189  1.6493 -1.3475
 2974SOL     OW20557   4.303   4.050   2.779 -0.0725 -0.3620  0.6233
 2974SOL    HW120558   4.214   4.079   2.801 -1.3225 -0.8788 -3.7586
 2974SOL    HW220559   4.302   4.079   2.688  0.1999  2.1744  1.4322
 2975SOL     OW20560   0.379   2.678   2.077  0.1205 -0.5778 -0.2950
 2975SOL    HW120561   0.413   2.757   2.119 -0.7404 -0.6085  0.4631
 2975SOL    HW220562   0.445   2.645   2.016  1.4881  0.7906  0.4546
 2976SOL     OW20563   3.289   0.095   4.433 -0.1210 -0.3655 -0.2828
 2976SOL    HW120564   3.198   0.097   4.403 -0.7643 -1.2326  1.6376
 2976SOL    HW220565   3.337   0.070   4.354  2.2368 -1.9934  1.6606
 2977SOL     OW20566   1.857   4.328   4.713  0.3027 -0.1045  0.0668
 2977SOL    HW120567   1.945   4.302   4.688 -0.2368  0.4872 -2.5137
 2977SOL    HW220568   1.875   4.411   4.757  2.7206 -0.9968  0.7243
 2978SOL     OW20569   3.154   2.723   4.479  0.1559 -0.1953  0.3171
 2978SOL    HW120570   3.205   2.653   4.521  1.3052  0.4305 -0.0413
 2978SOL    HW220571   3.148   2.792   4.545 -0.5638 -0.9064  0.9963
 2979SOL     OW20572   2.237   4.211  12.106 -0.5641  0.3170  0.4199
 2979SOL    HW120573   2.315   4.185  12.155  0.7965  0.3010 -1.7570
 2979SOL    HW220574   2.261   4.176  12.020  0.6876 -0.8658  1.2477
 2980SOL     OW20575   3.487   0.932   6.662  0.4049 -0.7630  0.2631
 2980SOL    HW120576   3.452   0.858   6.612 -0.4516 -0.3469  0.2430
 2980SOL    HW220577   3.435   1.003   6.623 -0.9034 -0.7115  2.0851
 2981SOL     OW20578   1.459   3.425  13.446  0.2960 -0.3861  0.4185
 2981SOL    HW120579   1.522   3.356  13.469  2.2578  1.7153  1.3197
 2981SOL    HW220580   1.438   3.463  13.531 -3.1629  2.0207 -1.5293
 2982SOL     OW20581   4.089   0.008   4.978  0.6137 -0.1630  0.1189
 2982SOL    HW120582   4.025   0.006   5.049  0.2325  3.5742 -0.0756
 2982SOL    HW220583   4.103   4.652   4.948 -2.0618  0.4582 -3.0112
 2983SOL     OW20584   0.220   1.809   8.058  0.7342  0.4774 -0.5119
 2983SOL    HW120585   0.303   1.858   8.052  0.2209  1.5154  0.8992
 2983SOL    HW220586   0.223   1.761   7.975  0.0629  0.1989 -0.3702
 2984SOL     OW20587   3.357   4.338   8.442 -0.2183 -0.0736 -0.2161
 2984SOL    HW120588   3.322   4.419   8.479 -1.8055 -0.6296 -0.4982
 2984SOL    HW220589   3.291   4.275   8.472  0.6834 -1.0051 -0.1455
 2985SOL     OW20590   1.065   3.302   0.837 -0.6225  0.8053 -0.4549
 2985SOL    HW120591   1.154   3.266   0.845  0.6597  3.7334 -1.2405
 2985SOL    HW220592   1.091   3.381   0.789 -0.2452  2.5603  2.6411
 2986SOL     OW20593   4.463   1.798  14.576 -0.7425 -0.2628  0.2248
 2986SOL    HW120594   4.479   1.781  14.483  1.1032 -1.4028  0.7400
 2986SOL    HW220595   4.437   1.890  14.571 -2.3919 -0.6584  1.4970
 2987SOL     OW20596   1.789   0.830   6.171 -0.2548  0.4724 -0.1201
 2987SOL    HW120597   1.703   0.795   6.196 -0.4440  0.6387 -0.5456
 2987SOL    HW220598   1.781   0.838   6.076  0.4044 -1.0244 -0.3009
 2988SOL     OW20599   2.627   1.200  10.901  0.4130  0.0277 -0.9127
 2988SOL    HW120600   2.573   1.130  10.937 -1.7890  1.9872 -0.4000
 2988SOL    HW220601   2.621   1.254  10.979  1.0075  0.0991 -0.9156
 2989SOL     OW20602   4.121   1.874   8.704 -0.6659  0.3133  0.6349
 2989SOL    HW120603   4.146   1.919   8.784  1.2566 -0.3489  0.3960
 2989SOL    HW220604   4.033   1.839   8.720 -0.0268 -1.4536  0.3429
 2990SOL     OW20605   2.617   0.974   1.749 -0.1812 -0.3179  0.6006
 2990SOL    HW120606   2.653   1.049   1.701  1.5671 -0.9111  1.0184
 2990SOL    HW220607   2.625   0.999   1.841 -1.0144  1.0691  0.3043
 2991SOL     OW20608   4.499   2.658   8.380 -0.4063  0.0411  0.4726
 2991SOL    HW120609   4.496   2.708   8.298 -1.0926 -1.6646 -0.5537
 2991SOL    HW220610   4.405   2.647   8.398 -0.5813 -3.3093 -2.4291
 2992SOL     OW20611   1.058   2.743   5.836 -0.0391  0.3852  0.1609
 2992SOL    HW120612   1.134   2.713   5.785  0.9088 -1.6240  2.7702
 2992SOL    HW220613   0.988   2.690   5.798 -0.2988  2.5041 -2.3227
 2993SOL     OW20614   2.325   0.462   5.951  0.5747  0.1948  0.1114
 2993SOL    HW120615   2.329   0.557   5.962  2.3300  0.4062 -2.1047
 2993SOL    HW220616   2.356   0.429   6.035  0.4806  2.1276  0.8969
 2994SOL     OW20617   2.870   3.243   9.312 -0.1455 -0.4445 -0.0950
 2994SOL    HW120618   2.880   3.324   9.361 -0.1158 -0.3416 -0.2687
 2994SOL    HW220619   2.777   3.224   9.315 -0.0953 -0.9096 -1.5266
 2995SOL     OW20620   0.640   3.417  16.344 -0.8196  0.2506 -0.3011
 2995SOL    HW120621   0.730   3.389  16.327 -0.9902  0.8229 -2.1008
 2995SOL    HW220622   0.651   3.511  16.359 -0.8221  0.1197  0.5564
 2996SOL     OW20623   4.496   1.268  11.416  0.5000 -0.2358  0.8733
 2996SOL    HW120624   4.415   1.304  11.380 -0.3572 -2.1163  0.9150
 2996SOL    HW220625   4.516   1.200  11.351  0.4562 -0.0725  0.6894
 2997SOL     OW20626   1.226   1.997   1.213  0.1845  0.0716 -0.3358
 2997SOL    HW120627   1.261   2.040   1.135 -0.5596  2.1492  0.4755
 2997SOL    HW220628   1.236   1.906   1.183  0.3099 -0.6152  1.7695
 2998SOL     OW20629   0.482   3.293   1.770 -0.1223 -0.8508  0.0327
 2998SOL    HW120630   0.417   3.223   1.778 -1.5596  0.4615 -0.2434
 2998SOL    HW220631   0.448   3.318   1.685  0.2241 -2.1094 -0.4730
 2999SOL     OW20632   3.366   1.963   5.278  0.3679 -0.3349  0.4269
 2999SOL    HW120633   3.296   2.020   5.246  0.1962 -0.2836  0.8910
 2999SOL    HW220634   3.338   1.960   5.369  0.9249  0.6659  0.6366
 3000SOL     OW20635   2.530   2.170   7.365  0.2235  0.6123 -0.8845
 3000SOL    HW120636   2.528   2.136   7.455 -0.5004 -1.2645 -1.6137
 3000SOL    HW220637   2.623   2.193   7.353  0.4744 -0.0449 -0.2171
 3001SOL     OW20638   3.583   1.597   5.857  0.0112 -0.4645  0.0178
 3001SOL    HW120639   3.511   1.643   5.815  0.3334 -3.1467 -3.4640
 3001SOL    HW220640   3.624   1.670   5.903 -2.5057  0.0728  1.3807
 3002SOL     OW20641   3.342   2.198   8.112  0.1397  0.2510  0.5830
 3002SOL    HW120642   3.389   2.156   8.185 -2.2571 -2.4998  0.5308
 3002SOL    HW220643   3.254   2.206   8.148  0.9737 -0.0997  2.7172
 3003SOL     OW20644   1.483   2.174   5.392 -0.1969  0.4314 -0.5070
 3003SOL    HW120645   1.560   2.132   5.354  0.8321 -0.7893  2.9438
 3003SOL    HW220646   1.484   2.139   5.481  0.9685 -0.4450 -0.8665
 3004SOL     OW20647   1.474   3.008   5.414  0.7078 -0.2117  0.0746
 3004SOL    HW120648   1.492   3.040   5.326  0.7819  1.5957  0.7411
 3004SOL    HW220649   1.399   2.949   5.411  0.8206 -0.3375 -0.2013
 3005SOL     OW20650   2.590   2.473   7.897 -0.1764 -0.0702  0.6485
 3005SOL    HW120651   2.618   2.552   7.850  0.1015 -0.3042  0.4198
 3005SOL    HW220652   2.570   2.416   7.823 -2.2607  0.5581  0.6990
 3006SOL     OW20653   1.457   4.605   1.746  0.1856  0.0893  0.3728
 3006SOL    HW120654   1.470   4.610   1.651  0.0539 -0.0693  0.3454
 3006SOL    HW220655   1.472   4.510   1.749 -1.4683 -0.2235 -1.5953
 3007SOL     OW20656   3.869   1.630   9.091  0.0518 -0.4094  0.1587
 3007SOL    HW120657   3.950   1.608   9.136 -0.9867 -2.3593  1.1040
 3007SOL    HW220658   3.842   1.542   9.064 -0.6617  0.5030 -2.0535
 3008SOL     OW20659   1.821   0.938   4.521 -0.6596 -0.1244 -0.2136
 3008SOL    HW120660   1.895   0.878   4.517 -0.7313 -0.2416  0.1849
 3008SOL    HW220661   1.822   0.958   4.615  0.5574 -0.2650 -0.2009
 3009SOL     OW20662   3.340   3.322   4.455 -0.0782 -0.1537  0.2439
 3009SOL    HW120663   3.317   3.295   4.366 -0.5113  2.2902 -0.3930
 3009SOL    HW220664   3.361   3.415   4.443  1.2120 -0.0859  2.9163
 3010SOL     OW20665   2.616   2.026   7.148 -0.0087  0.1478 -0.2185
 3010SOL    HW120666   2.583   2.082   7.218  1.6591 -1.3618  1.7516
 3010SOL    HW220667   2.704   2.062   7.132  0.2392 -0.4688 -0.2296
 3011SOL     OW20668   2.246   1.612  13.784  0.0813  0.2011  0.1069
 3011SOL    HW120669   2.215   1.524  13.759 -0.7335  1.4878 -3.5061
 3011SOL    HW220670   2.328   1.620  13.736  1.7036  0.2991  2.9670
 3012SOL     OW20671   3.830   4.029   7.581  0.3852 -0.2792  0.1136
 3012SOL    HW120672   3.751   3.975   7.572  0.0365  0.1670  0.5188
 3012SOL    HW220673   3.874   3.962   7.634  0.2999 -1.1926 -0.9516
 3013SOL     OW20674   4.170   2.332   3.077  0.4295  0.0042  0.0867
 3013SOL    HW120675   4.130   2.383   3.148  0.7590 -0.1386  0.3771
 3013SOL    HW220676   4.124   2.250   3.092 -1.3148  0.6936 -1.4850
 3014SOL     OW20677   1.066   0.273  11.745 -0.0784 -0.1350  0.1198
 3014SOL    HW120678   1.082   0.367  11.758 -0.7024 -0.3855  2.7552
 3014SOL    HW220679   0.971   0.260  11.745 -0.2666  1.1996  1.7438
 3015SOL     OW20680   1.248   4.044   5.915  0.0097  0.1358 -0.4663
 3015SOL    HW120681   1.252   4.139   5.923 -1.4485  0.2901 -1.5274
 3015SOL    HW220682   1.154   4.047   5.896 -0.0950  2.2660  0.4518
 3016SOL     OW20683   3.727   4.493   3.222 -0.4204 -0.2090 -0.0262
 3016SOL    HW120684   3.727   4.406   3.182  2.8831  0.2291 -0.9329
 3016SOL    HW220685   3.741   4.549   3.146 -2.1849 -0.5371 -0.6037
 3017SOL     OW20686   0.594   3.142   2.569  0.2624 -0.4688 -0.5427
 3017SOL    HW120687   0.684   3.111   2.561  0.8848  1.8257 -2.3904
 3017SOL    HW220688   0.548   3.061   2.590  0.5249 -0.8256 -1.3384
 3018SOL     OW20689   0.097   0.342   8.110  0.0623 -0.7921 -0.0303
 3018SOL    HW120690   0.050   0.425   8.100 -0.0721 -0.8963 -0.2722
 3018SOL    HW220691   0.038   0.296   8.170 -0.6914 -1.0636 -0.9736
 3019SOL     OW20692   0.661   2.308  12.445  0.1864  0.0076  0.0861
 3019SOL    HW120693   0.573   2.274  12.424  0.6518 -0.2451 -1.4486
 3019SOL    HW220694   0.684   2.348  12.362  0.0736 -1.3536 -0.6080
 3020SOL     OW20695   1.777   1.742   0.524  0.2690 -0.3397  0.0133
 3020SOL    HW120696   1.798   1.784   0.441  1.0774  0.6206  0.6993
 3020SOL    HW220697   1.803   1.656   0.490  0.5832  1.1681 -3.5694
 3021SOL     OW20698   0.164   0.667   9.409  0.2007 -0.4238  0.3633
 3021SOL    HW120699   0.189   0.585   9.450 -0.9649 -0.0307  1.8675
 3021SOL    HW220700   0.232   0.679   9.343  0.0148 -0.5895  0.1449
 3022SOL     OW20701   0.014   2.762   7.406 -0.2243  0.4445 -0.0002
 3022SOL    HW120702   4.678   2.722   7.355 -1.5092  1.8572  0.6744
 3022SOL    HW220703   0.088   2.710   7.375  0.2050  0.3961  1.0886
 3023SOL     OW20704   2.956   2.895  14.642  0.0339 -0.0787  0.5799
 3023SOL    HW120705   2.879   2.933  14.684  1.3953  2.0386  1.1626
 3023SOL    HW220706   2.997   2.975  14.610  0.1752  0.0203  1.0103
 3024SOL     OW20707   0.907   0.806   0.670 -0.2160  0.4474 -0.0370
 3024SOL    HW120708   0.916   0.888   0.720 -0.9299  0.0642  0.7156
 3024SOL    HW220709   0.835   0.829   0.612 -0.7525  0.9341  0.8139
 3025SOL     OW20710   2.773   4.526  16.865 -0.8576 -0.6892 -0.3295
 3025SOL    HW120711   2.814   4.494  16.945  1.1252  0.6958 -0.7841
 3025SOL    HW220712   2.682   4.517  16.892 -1.1996  1.3642 -0.7913
 3026SOL     OW20713   0.013   1.944   4.858 -0.2670 -0.1355 -0.3179
 3026SOL    HW120714   0.022   2.021   4.914  0.1238  0.4350 -1.1477
 3026SOL    HW220715   4.698   1.881   4.911  0.4691  0.5842  1.2138
 3027SOL     OW20716   1.413   2.200   7.307 -0.0931  0.4686 -1.1685
 3027SOL    HW120717   1.388   2.109   7.321 -0.9532  0.6420 -1.6067
 3027SOL    HW220718   1.497   2.187   7.264  0.0627 -0.2486 -0.6511
 3028SOL     OW20719   1.195   3.137   7.486 -0.6533  0.5671 -0.0963
 3028SOL    HW120720   1.219   3.223   7.521 -0.7205  0.7231 -0.4361
 3028SOL    HW220721   1.252   3.076   7.531 -0.7310  1.5996  1.4136
 3029SOL     OW20722   2.650   2.591   1.641 -0.2617  0.2726 -0.4092
 3029SOL    HW120723   2.706   2.573   1.716  0.4446 -1.9197 -1.4623
 3029SOL    HW220724   2.590   2.660   1.672 -0.2400  0.4345 -0.7200
 3030SOL     OW20725   2.569   3.988   0.515  0.5970  0.5927  0.6686
 3030SOL    HW120726   2.485   3.999   0.559 -0.1934 -2.5279 -0.0706
 3030SOL    HW220727   2.558   4.030   0.430  0.9840  0.4986  0.5731
 3031SOL     OW20728   2.891   4.439   6.343 -0.8288  0.8448 -0.3608
 3031SOL    HW120729   2.834   4.478   6.409 -0.2693 -0.5389  0.9509
 3031SOL    HW220730   2.971   4.490   6.356  0.0382 -0.9591  1.4479
 3032SOL     OW20731   3.600   3.730   6.246 -0.0029 -0.6564 -0.3940
 3032SOL    HW120732   3.616   3.771   6.161 -0.6168 -0.4929 -0.4282
 3032SOL    HW220733   3.506   3.712   6.250  0.1311 -1.0092  1.1325
 3033SOL     OW20734   4.466   0.374  11.440 -0.5067  0.3815 -0.3872
 3033SOL    HW120735   4.464   0.425  11.521 -0.7272  2.6610 -1.8189
 3033SOL    HW220736   4.467   0.450  11.382  0.9911 -0.3169 -1.2786
 3034SOL     OW20737   4.622   2.149   2.866  0.5534 -0.3062  0.5111
 3034SOL    HW120738   4.530   2.174   2.870  0.0309 -1.7473 -2.1486
 3034SOL    HW220739   4.628   2.103   2.950 -2.8044  1.5696  1.7973
 3035SOL     OW20740   4.145   1.649   3.772 -0.1441  0.1666  0.7703
 3035SOL    HW120741   4.142   1.657   3.677  2.9989  1.8610  0.8061
 3035SOL    HW220742   4.146   1.744   3.785  1.3563  0.2349  0.1268
 3036SOL     OW20743   3.559   1.084   5.989 -0.2744 -0.8446  0.1712
 3036SOL    HW120744   3.643   1.073   6.032  0.3324 -1.2639 -1.1146
 3036SOL    HW220745   3.506   1.026   6.043 -3.7515  0.1090 -2.2221
 3037SOL     OW20746   3.609   1.522   6.721 -0.2325  0.4347  0.4653
 3037SOL    HW120747   3.545   1.452   6.731 -0.3917  0.6702  1.0765
 3037SOL    HW220748   3.688   1.479   6.753 -2.1230 -1.9729  1.9101
 3038SOL     OW20749   1.881   3.799   7.901  0.1448 -0.4949 -0.4136
 3038SOL    HW120750   1.935   3.769   7.973  0.0527  0.3286  0.0033
 3038SOL    HW220751   1.840   3.722   7.862  0.4646 -1.3579  0.9551
 3039SOL     OW20752   2.709   1.314  16.184 -0.2239  0.0256 -0.1587
 3039SOL    HW120753   2.659   1.241  16.222  0.4980  0.4287  1.5791
 3039SOL    HW220754   2.754   1.341  16.264  0.0823 -0.4367 -0.1714
 3040SOL     OW20755   2.212   4.047  13.935  0.2353 -0.5603 -0.4804
 3040SOL    HW120756   2.297   4.053  13.890  0.8932 -1.0784  0.7093
 3040SOL    HW220757   2.237   4.008  14.018 -1.0973 -0.9825 -0.2769
 3041SOL     OW20758   1.415   1.018   8.926 -0.2856  0.1123 -0.6064
 3041SOL    HW120759   1.438   0.996   8.836  0.1149  0.5347 -0.6073
 3041SOL    HW220760   1.379   1.107   8.915  0.9893  0.6904 -0.0827
 3042SOL     OW20761   1.420   2.307   5.038  0.2202 -0.3242 -0.5692
 3042SOL    HW120762   1.352   2.266   5.092 -1.5924  0.2185 -2.4493
 3042SOL    HW220763   1.444   2.230   4.986  0.9414 -0.0043 -0.7095
 3043SOL     OW20764   2.647   2.018  13.438  0.3433 -0.1611 -0.0265
 3043SOL    HW120765   2.722   1.988  13.489  0.5698 -1.3325 -1.0561
 3043SOL    HW220766   2.604   2.085  13.491 -0.1622 -2.1732  2.1280
 3044SOL     OW20767   2.027   2.006  16.338  0.3846  0.8642  0.2204
 3044SOL    HW120768   2.122   1.992  16.342  0.2541 -0.2461 -0.4977
 3044SOL    HW220769   1.993   2.000  16.427  0.3389 -2.1084 -0.0069
 3045SOL     OW20770   0.325   0.666   6.400  0.3940 -0.3900 -0.2282
 3045SOL    HW120771   0.251   0.607   6.416  2.2402 -2.2698  1.4805
 3045SOL    HW220772   0.373   0.621   6.330  2.7563 -3.3811  3.2601
 3046SOL     OW20773   2.998   3.282   1.933 -0.6262 -0.4519  0.1819
 3046SOL    HW120774   2.978   3.220   1.863 -1.6367  0.7988 -0.6136
 3046SOL    HW220775   3.038   3.215   1.990 -0.5110 -2.0071 -1.7332
 3047SOL     OW20776   3.932   0.569   0.372 -0.4456 -1.0419 -0.5590
 3047SOL    HW120777   3.901   0.656   0.347 -0.4140 -0.3081  1.9606
 3047SOL    HW220778   4.023   0.583   0.399 -1.1859  2.7251  0.0489
 3048SOL     OW20779   3.385   0.127   9.839 -0.7096 -0.4159 -0.0426
 3048SOL    HW120780   3.338   0.100   9.760  0.1521 -0.5266 -0.5206
 3048SOL    HW220781   3.342   0.080   9.910  1.4810 -2.8615 -0.3396
 3049SOL     OW20782   2.212   4.142   5.529  0.2093 -0.1404 -0.0560
 3049SOL    HW120783   2.194   4.131   5.623 -1.1650  1.2731 -0.1404
 3049SOL    HW220784   2.294   4.094   5.525  0.7026  0.7041 -0.1202
 3050SOL     OW20785   0.217   3.924   4.985  0.0324  0.0194  0.1884
 3050SOL    HW120786   0.201   3.976   4.905  2.0826  0.6998  0.2251
 3050SOL    HW220787   0.294   3.876   4.956 -0.1548 -1.7197  2.6376
 3051SOL     OW20788   2.620   3.102  16.040 -0.0922  0.1961  0.2823
 3051SOL    HW120789   2.711   3.120  16.016 -0.5508  2.3658  0.1384
 3051SOL    HW220790   2.587   3.182  15.999  0.1300  1.0817  1.8179
 3052SOL     OW20791   0.306   1.313   2.732  0.0978 -0.3350 -0.1484
 3052SOL    HW120792   0.220   1.271   2.729 -0.4651  0.7928 -0.0897
 3052SOL    HW220793   0.358   1.263   2.669  2.1459 -0.7249  1.8926
 3053SOL     OW20794   0.560   1.711   5.186 -0.5382 -0.2275 -0.0401
 3053SOL    HW120795   0.523   1.703   5.098 -1.5773 -0.7792  0.4487
 3053SOL    HW220796   0.502   1.781   5.214 -0.8427 -0.2524 -0.6101
 3054SOL     OW20797   4.499   3.278   4.847  0.6160 -0.3040  0.1164
 3054SOL    HW120798   4.509   3.371   4.826 -0.9830  0.2341  1.7253
 3054SOL    HW220799   4.407   3.284   4.871  0.3957 -1.8589 -0.3075
 3055SOL     OW20800   0.463   2.019  12.530  0.2083  0.1249 -0.6925
 3055SOL    HW120801   0.525   1.949  12.507 -0.4150 -0.9206  0.7825
 3055SOL    HW220802   0.458   2.067  12.448  0.9159 -1.9942 -1.9760
 3056SOL     OW20803   4.253   0.476   8.556  0.0573  0.1388  0.6631
 3056SOL    HW120804   4.217   0.520   8.479  0.2384  0.6609  0.8765
 3056SOL    HW220805   4.196   0.399   8.555  1.4310 -0.8592  0.3566
 3057SOL     OW20806   2.102   1.639  15.643 -0.3605  0.8229  0.0672
 3057SOL    HW120807   2.190   1.632  15.604 -0.9759  0.6083 -1.2602
 3057SOL    HW220808   2.127   1.616  15.733 -1.7076 -0.3756  0.1272
 3058SOL     OW20809   3.941   2.963   4.839  0.7780 -0.7685  0.0158
 3058SOL    HW120810   4.033   2.935   4.837  1.6248  1.9024  1.9073
 3058SOL    HW220811   3.925   2.991   4.929  0.5056 -0.5436 -0.1024
 3059SOL     OW20812   3.590   2.464  11.949  0.0350 -0.1413  0.2155
 3059SOL    HW120813   3.564   2.404  12.020 -1.5099 -1.0205 -1.0950
 3059SOL    HW220814   3.684   2.471  11.967  0.6520 -2.3927 -2.0640
 3060SOL     OW20815   0.148   3.648   9.585 -0.4781  0.1080 -0.0362
 3060SOL    HW120816   0.143   3.719   9.650  1.3405  0.7242 -0.5885
 3060SOL    HW220817   0.073   3.593   9.609 -0.9653  1.6839  2.1014
 3061SOL     OW20818   2.578   4.652   4.703  0.1091  0.1877 -0.5175
 3061SOL    HW120819   2.660   4.647   4.654 -0.2033  0.8215 -1.1036
 3061SOL    HW220820   2.603   4.588   4.769  0.2575  1.1523  0.3682
 3062SOL     OW20821   2.556   2.438  14.074 -0.5124 -0.0083  0.2789
 3062SOL    HW120822   2.602   2.440  14.158 -1.4074  1.7891  0.7443
 3062SOL    HW220823   2.472   2.394  14.089  0.7189 -2.2690  0.3609
 3063SOL     OW20824   4.027   4.714   1.775  0.2532  0.5130  0.0715
 3063SOL    HW120825   4.100   4.701   1.835 -0.2044  0.3961  0.6079
 3063SOL    HW220826   3.955   4.651   1.789  0.2493  0.3640 -0.5944
 3064SOL     OW20827   4.328   1.905   7.976  0.7927  0.2117 -0.4423
 3064SOL    HW120828   4.313   1.872   8.065  1.5874  0.2863 -0.2759
 3064SOL    HW220829   4.314   1.826   7.924  1.0467  0.6975 -1.2505
 3065SOL     OW20830   0.249   2.108  16.336 -0.4259 -0.1827 -0.5528
 3065SOL    HW120831   0.282   2.099  16.426  0.8511  2.7001 -0.7532
 3065SOL    HW220832   0.267   2.015  16.318 -0.3346  0.1012 -1.9459
 3066SOL     OW20833   3.034   0.941   8.876 -0.7221 -0.4759 -0.4764
 3066SOL    HW120834   2.963   0.877   8.870  0.1581 -1.5271  0.5991
 3066SOL    HW220835   3.107   0.884   8.899 -0.4182 -0.5061 -1.4918
 3067SOL     OW20836   1.504   0.227  12.545  0.3598 -0.3678 -0.0133
 3067SOL    HW120837   1.559   0.150  12.530 -1.8458 -1.8904 -0.3892
 3067SOL    HW220838   1.485   0.244  12.453 -1.4432 -0.6365  0.3013
 3068SOL     OW20839   2.902   3.020   7.261 -0.6563 -0.0163 -0.0028
 3068SOL    HW120840   2.887   3.093   7.201  1.1621  0.4688  0.1406
 3068SOL    HW220841   2.981   2.975   7.232 -1.3335 -0.9016 -0.5038
 3069SOL     OW20842   3.288   4.308   7.134 -0.0380 -0.6191 -0.0286
 3069SOL    HW120843   3.312   4.259   7.054  0.4510 -1.4987  0.6531
 3069SOL    HW220844   3.348   4.381   7.119 -0.6443 -0.0870  0.1519
 3070SOL     OW20845   3.633   4.430  14.124  0.0500  0.1063  0.4029
 3070SOL    HW120846   3.564   4.488  14.091 -2.2453 -2.1491  1.2114
 3070SOL    HW220847   3.686   4.401  14.049  0.7635 -2.2370  1.8307
 3071SOL     OW20848   1.835   4.396  11.923  0.8087  0.0785 -0.2426
 3071SOL    HW120849   1.828   4.304  11.948  3.2434 -0.0586 -0.0425
 3071SOL    HW220850   1.912   4.433  11.967 -0.0494 -0.2979  1.5691
 3072SOL     OW20851   2.950   3.611  16.825  0.2083 -0.2342  0.2396
 3072SOL    HW120852   3.008   3.668  16.774  0.8827  0.4967  1.8121
 3072SOL    HW220853   2.996   3.608  16.909 -0.0508 -1.4718  0.3247
 3073SOL     OW20854   2.695   2.322   8.896  0.7768 -0.3077  0.1772
 3073SOL    HW120855   2.704   2.418   8.894  0.7407 -0.2900  1.1109
 3073SOL    HW220856   2.632   2.305   8.825  0.2620 -0.9453  0.7823
 3074SOL     OW20857   2.095   0.762   7.309 -0.3651 -0.1619  0.3089
 3074SOL    HW120858   2.005   0.787   7.287 -0.7464 -1.0151  0.8526
 3074SOL    HW220859   2.099   0.667   7.296 -1.2419 -0.4000  1.6840
 3075SOL     OW20860   1.727   4.198   4.923 -0.2396 -0.0962 -0.2085
 3075SOL    HW120861   1.786   4.206   4.998 -1.4689 -0.2990  0.7744
 3075SOL    HW220862   1.782   4.224   4.848  0.2381  0.9679  0.5066
 3076SOL     OW20863   0.005   1.567  13.303 -0.2511  0.0830  0.6847
 3076SOL    HW120864   4.691   1.490  13.270  1.0073 -0.5601  0.3661
 3076SOL    HW220865   0.056   1.590  13.225 -2.2216  3.5583  0.4501
 3077SOL     OW20866   1.190   3.138   5.987  0.5184  0.2130 -0.1134
 3077SOL    HW120867   1.152   3.180   6.064  2.2349 -0.0546  0.8829
 3077SOL    HW220868   1.180   3.044   6.003  0.1428  0.8273  3.2530
 3078SOL     OW20869   3.856   4.527   7.243 -0.4763 -0.1081  0.0284
 3078SOL    HW120870   3.821   4.575   7.169 -3.7163 -0.5236  1.2883
 3078SOL    HW220871   3.930   4.576   7.278 -2.3550  1.5026  1.7601
 3079SOL     OW20872   0.199   4.196   8.106 -0.0748  0.2892 -0.4876
 3079SOL    HW120873   0.147   4.117   8.123 -0.7333  0.0545 -3.7033
 3079SOL    HW220874   0.151   4.233   8.032  2.3927  1.7843 -1.3493
 3080SOL     OW20875   2.297   1.445  12.683  0.1392  0.2912 -0.0157
 3080SOL    HW120876   2.313   1.351  12.671  0.4245  0.6154 -2.3201
 3080SOL    HW220877   2.265   1.470  12.596 -1.7580  0.8828  0.8540
 3081SOL     OW20878   4.300   0.279   9.061 -0.2915 -0.4126 -0.4108
 3081SOL    HW120879   4.277   0.266   9.153 -1.4585  1.6866 -0.3925
 3081SOL    HW220880   4.396   0.273   9.062 -0.2362  0.3378 -1.6895
 3082SOL     OW20881   1.350   3.928   5.068  0.7608 -0.1058 -0.8591
 3082SOL    HW120882   1.410   3.996   5.099 -0.4107  1.3772 -1.8708
 3082SOL    HW220883   1.376   3.859   5.129 -1.9019  1.6819  2.2956
 3083SOL     OW20884   0.705   2.278   5.882  0.0585 -0.8257  0.8483
 3083SOL    HW120885   0.617   2.283   5.843  1.0234  0.1174 -1.2093
 3083SOL    HW220886   0.764   2.313   5.816  0.8919 -0.3505  1.8476
 3084SOL     OW20887   1.801   1.409   7.164  0.4590 -0.3828 -0.7387
 3084SOL    HW120888   1.816   1.315   7.174 -0.2741 -0.2087  2.2502
 3084SOL    HW220889   1.807   1.418   7.069  3.4703  2.7259 -0.2535
 3085SOL     OW20890   2.496   0.702   3.797 -0.2498  0.4040  0.1517
 3085SOL    HW120891   2.515   0.698   3.890  1.8396 -0.5873 -0.3161
 3085SOL    HW220892   2.444   0.625   3.772  0.7282 -0.2101  0.0455
 3086SOL     OW20893   1.481   0.777   2.131  0.2460  0.4293 -0.2412
 3086SOL    HW120894   1.488   0.682   2.121 -1.3562  0.3283 -0.4027
 3086SOL    HW220895   1.436   0.804   2.051  0.3266  0.9728 -0.1032
 3087SOL     OW20896   3.551   4.404  15.708 -0.4083  0.8412  0.4030
 3087SOL    HW120897   3.603   4.424  15.630 -0.8413  0.7711  0.0968
 3087SOL    HW220898   3.609   4.439  15.776 -0.8207 -1.3057  1.8693
 3088SOL     OW20899   1.246   0.596   2.374 -0.0758 -0.5381 -0.1164
 3088SOL    HW120900   1.305   0.664   2.406 -0.8897  0.7145 -1.2622
 3088SOL    HW220901   1.258   0.529   2.442 -1.2107  0.9224  1.5307
 3089SOL     OW20902   1.644   0.830  11.140  0.0568  0.8244  0.9609
 3089SOL    HW120903   1.703   0.777  11.086 -1.8825  0.1478 -0.4794
 3089SOL    HW220904   1.575   0.764  11.140  1.2554 -0.4539  2.8514
 3090SOL     OW20905   4.437   1.753  15.872  0.3034 -0.3617  0.1523
 3090SOL    HW120906   4.469   1.744  15.782  0.2587 -3.0775  0.4284
 3090SOL    HW220907   4.390   1.837  15.874  1.8884  0.4861  1.3634
 3091SOL     OW20908   1.280   3.324  16.347 -0.2503  0.1937  0.4841
 3091SOL    HW120909   1.194   3.284  16.352  0.9627 -2.4461  0.3531
 3091SOL    HW220910   1.320   3.284  16.270 -1.9361 -1.2985  0.4145
 3092SOL     OW20911   1.632   1.919   8.967 -0.6556  0.0402  0.4085
 3092SOL    HW120912   1.710   1.867   8.948 -0.9471  0.5219 -2.0389
 3092SOL    HW220913   1.584   1.853   9.017  0.7711 -1.7427 -0.6258
 3093SOL     OW20914   3.455   3.921   4.780  0.0728  0.1413 -0.3850
 3093SOL    HW120915   3.543   3.946   4.752 -0.1599  1.4695  0.0976
 3093SOL    HW220916   3.478   3.885   4.866 -0.2451  0.5123 -0.1506
 3094SOL     OW20917   3.948   0.285  14.832  0.1164 -0.0468  0.8532
 3094SOL    HW120918   3.952   0.204  14.884 -0.8751 -1.1227 -0.7667
 3094SOL    HW220919   3.859   0.287  14.796  0.5958 -0.6336 -0.3369
 3095SOL     OW20920   2.722   1.938  17.064  0.2855  0.3660  0.1389
 3095SOL    HW120921   2.688   1.918  17.151 -0.5256  0.5132 -0.1407
 3095SOL    HW220922   2.709   2.033  17.066  1.1220  0.4851 -0.2581
 3096SOL     OW20923   2.959   1.634  16.369  0.4554  0.5412 -0.6144
 3096SOL    HW120924   2.873   1.603  16.397  1.2888 -1.3871 -0.1914
 3096SOL    HW220925   2.993   1.546  16.351 -2.5774 -0.8228  0.2812
 3097SOL     OW20926   4.676   0.107   4.737 -0.0297 -0.0819  0.3673
 3097SOL    HW120927   4.653   0.056   4.659  2.1240 -0.5243  0.0161
 3097SOL    HW220928   0.031   0.080   4.760  0.6503  1.6337 -0.2194
 3098SOL     OW20929   3.331   3.527  14.047  0.0726  0.3706 -0.0226
 3098SOL    HW120930   3.302   3.448  14.092 -2.8756  1.4838  0.0257
 3098SOL    HW220931   3.256   3.583  14.027 -1.0835 -1.0491  0.3087
 3099SOL     OW20932   3.585   0.786  11.684  0.0461  0.6037  0.1308
 3099SOL    HW120933   3.534   0.795  11.765 -1.0950  1.9686 -0.7434
 3099SOL    HW220934   3.642   0.862  11.688  1.4623 -0.5291  1.5602
 3100SOL     OW20935   0.761   4.149  10.025 -0.2359  0.1301 -0.0419
 3100SOL    HW120936   0.774   4.233   9.980  0.5561 -0.3260 -0.6710
 3100SOL    HW220937   0.848   4.125  10.059  0.0046  1.3238  0.2049
 3101SOL     OW20938   0.648   2.640   1.913  0.4934  1.0016 -0.0616
 3101SOL    HW120939   0.692   2.558   1.888 -0.3511  0.4544  0.2630
 3101SOL    HW220940   0.673   2.657   2.004  0.2013 -2.3296  0.6706
 3102SOL     OW20941   3.410   3.421  17.024  0.3275  0.1504  0.2430
 3102SOL    HW120942   3.417   3.331  16.991  0.0243 -1.1692  3.7193
 3102SOL    HW220943   3.360   3.389  17.100  0.5211 -0.5417  0.0863
 3103SOL     OW20944   3.947   0.694  12.700  0.2236 -0.9564  0.1811
 3103SOL    HW120945   4.042   0.689  12.689  0.0028  0.2215 -2.2624
 3103SOL    HW220946   3.928   0.629  12.768  2.3976 -1.0932  0.6481
 3104SOL     OW20947   0.805   0.224   1.441  0.1591 -0.1472  0.4287
 3104SOL    HW120948   0.721   0.241   1.484  0.2139  0.2815  0.3734
 3104SOL    HW220949   0.779   0.253   1.354 -0.9835 -1.6482  0.2908
 3105SOL     OW20950   4.275   0.710  10.312 -0.0631 -0.2022 -0.2051
 3105SOL    HW120951   4.185   0.718  10.343  0.0108  1.8878 -0.5244
 3105SOL    HW220952   4.258   0.668  10.227  0.2799 -1.1161  0.1751
 3106SOL     OW20953   0.181   0.275   3.122 -0.0483 -0.0032 -0.1894
 3106SOL    HW120954   0.105   0.260   3.179 -2.3590 -1.1810 -3.5489
 3106SOL    HW220955   0.227   0.196   3.149 -1.6393 -0.8003  0.1881
 3107SOL     OW20956   0.217   4.563   6.529  0.5154 -0.3865  0.2201
 3107SOL    HW120957   0.291   4.504   6.512 -0.7693 -1.6380 -0.9437
 3107SOL    HW220958   0.233   4.604   6.614 -0.0515  0.8050 -0.2472
 3108SOL     OW20959   0.138   3.825   8.976  0.1609  0.4963  0.1140
 3108SOL    HW120960   0.115   3.744   8.929 -2.3966  1.9659 -1.1967
 3108SOL    HW220961   0.113   3.889   8.909 -0.8506  1.2247  1.1931
 3109SOL     OW20962   0.391   4.413  14.030  0.3161 -0.0572 -0.3108
 3109SOL    HW120963   0.329   4.342  14.013  2.1155 -1.8839  0.5803
 3109SOL    HW220964   0.476   4.373  14.008 -0.7210 -2.5873  0.2184
 3110SOL     OW20965   0.913   0.769   3.892  0.8995  0.2238 -0.1457
 3110SOL    HW120966   0.819   0.772   3.907  1.6422  0.5723  4.4287
 3110SOL    HW220967   0.914   0.688   3.841 -4.2871  0.5505 -0.7544
 3111SOL     OW20968   0.825   0.904   7.472 -0.0635 -0.4154  0.7848
 3111SOL    HW120969   0.868   0.842   7.413 -2.7314  0.2209 -1.8109
 3111SOL    HW220970   0.858   0.878   7.558 -1.1436 -0.9088  1.0530
 3112SOL     OW20971   3.081   2.494   1.367 -0.2947  0.3506  0.0308
 3112SOL    HW120972   3.132   2.429   1.318 -1.4713 -1.2008  0.8896
 3112SOL    HW220973   3.001   2.492   1.313 -0.1266  0.3466 -0.2208
 3113SOL     OW20974   3.856   3.746  11.346 -0.1771 -0.5105 -0.7060
 3113SOL    HW120975   3.780   3.797  11.372 -0.2672  1.1306 -4.1977
 3113SOL    HW220976   3.848   3.755  11.251  0.9563  0.3777 -0.7164
 3114SOL     OW20977   0.376   0.004   5.589  0.2245 -0.6086 -0.3071
 3114SOL    HW120978   0.308   4.682   5.551  0.8052 -0.3840 -1.6558
 3114SOL    HW220979   0.320   0.062   5.639 -1.4350 -0.5531 -2.2494
 3115SOL     OW20980   1.141   2.129   2.783 -0.2575 -0.3542  0.3988
 3115SOL    HW120981   1.153   2.089   2.868  1.1863  0.3841  0.5426
 3115SOL    HW220982   1.118   2.049   2.735  0.6792 -0.8574  0.7948
 3116SOL     OW20983   2.575   2.131   6.531  0.4918 -0.4875  0.3301
 3116SOL    HW120984   2.527   2.067   6.480 -1.7839  1.6744 -0.2227
 3116SOL    HW220985   2.549   2.103   6.619 -1.4219  1.0308  0.2524
 3117SOL     OW20986   1.569   4.447  11.935 -0.3615 -0.2519  0.5378
 3117SOL    HW120987   1.664   4.439  11.940 -0.2198  2.7315  2.6952
 3117SOL    HW220988   1.558   4.502  11.857 -1.6740  0.5118  1.2562
 3118SOL     OW20989   3.333   4.252   2.152  0.2416 -0.2335 -0.0552
 3118SOL    HW120990   3.308   4.231   2.062  1.0012  0.2342 -0.3735
 3118SOL    HW220991   3.283   4.333   2.150  0.0767 -0.3433 -0.3249
 3119SOL     OW20992   1.804   1.798   2.504  0.1760  0.1885  0.0225
 3119SOL    HW120993   1.851   1.717   2.486 -0.5309 -0.4793  1.2047
 3119SOL    HW220994   1.879   1.857   2.516  0.3381  0.1948 -1.0267
 3120SOL     OW20995   4.651   1.337   3.808  0.6680 -0.3380 -0.1632
 3120SOL    HW120996   4.556   1.324   3.814  0.7233 -0.9417 -0.5901
 3120SOL    HW220997   4.681   1.337   3.899  1.5870 -1.4223 -0.4762
 3121SOL     OW20998   0.445   1.062   0.548 -0.4722  0.4163  0.0121
 3121SOL    HW120999   0.438   0.966   0.554  0.3902  0.1409 -3.4433
 3121SOL    HW221000   0.397   1.082   0.629 -1.1272 -1.6137  0.1424
 3122SOL     OW21001   0.273   1.303   9.952  0.0686 -0.2674 -0.3065
 3122SOL    HW121002   0.281   1.377   9.892 -0.2121 -0.1081 -0.1494
 3122SOL    HW221003   0.364   1.275   9.942  0.3660  0.4236  0.4965
 3123SOL     OW21004   0.131   3.167   3.169  0.0368 -0.3787  0.0920
 3123SOL    HW121005   0.067   3.165   3.240 -2.3656  0.1582 -2.0472
 3123SOL    HW221006   0.210   3.213   3.200  1.1308 -3.4199  1.8520
 3124SOL     OW21007   3.956   1.186   5.931  0.5085 -0.3127 -0.3913
 3124SOL    HW121008   3.962   1.090   5.931  2.3690 -0.2197  2.8240
 3124SOL    HW221009   3.952   1.197   5.836  0.2848 -0.5735 -0.4090
 3125SOL     OW21010   3.299   0.487   3.335 -0.0386 -0.7186 -0.0455
 3125SOL    HW121011   3.234   0.541   3.380 -1.0682 -1.0109 -1.1847
 3125SOL    HW221012   3.340   0.548   3.274 -1.2694  1.3879  1.2476
 3126SOL     OW21013   4.068   1.405   6.059 -0.2180 -0.3405  0.4743
 3126SOL    HW121014   4.031   1.321   6.032  0.0988 -0.4538  0.3954
 3126SOL    HW221015   3.996   1.468   6.046  0.2606 -0.0701 -0.8559
 3127SOL     OW21016   4.025   2.623   6.796 -0.6908 -0.1690  0.0387
 3127SOL    HW121017   4.044   2.702   6.745  0.0347 -0.4006 -0.0470
 3127SOL    HW221018   4.099   2.563   6.780  0.1076  1.6345 -2.9450
 3128SOL     OW21019   3.984   3.891   4.608  0.2828 -0.0166 -0.2625
 3128SOL    HW121020   4.034   3.864   4.685 -1.6047  0.4362  1.1212
 3128SOL    HW221021   3.983   3.987   4.612  1.6190 -0.1896  3.3574
 3129SOL     OW21022   3.427   0.611   8.650  0.4967 -0.1605 -0.0636
 3129SOL    HW121023   3.405   0.518   8.643  0.1549 -0.1236  0.5757
 3129SOL    HW221024   3.350   0.656   8.615 -0.3259 -1.5624 -0.0435
 3130SOL     OW21025   2.083   2.772   6.045  1.0997  0.3327 -0.1796
 3130SOL    HW121026   2.036   2.855   6.055  1.3544  0.6704 -1.8690
 3130SOL    HW221027   2.149   2.771   6.115 -0.6735  1.4269  1.5257
 3131SOL     OW21028   4.011   2.882  15.729  0.5297  0.2211 -1.0038
 3131SOL    HW121029   3.982   2.923  15.811  1.1843  0.4880 -0.9014
 3131SOL    HW221030   4.074   2.947  15.696  1.1262 -0.4695 -1.2212
 3132SOL     OW21031   2.346   2.463   7.108 -0.0676  0.0865  0.3205
 3132SOL    HW121032   2.261   2.438   7.072 -0.5859  0.3630  1.3557
 3132SOL    HW221033   2.329   2.495   7.197 -0.6755 -1.0552  0.6177
 3133SOL     OW21034   3.107   3.062   2.986  1.1912  0.1463 -0.2684
 3133SOL    HW121035   3.136   2.991   3.043  0.2579  0.4743  0.6199
 3133SOL    HW221036   3.166   3.054   2.911  0.6070  2.1069 -0.9472
 3134SOL     OW21037   2.211   4.590   5.935  0.1732  0.1471  0.0552
 3134SOL    HW121038   2.119   4.581   5.959  0.2614  0.7942  0.6382
 3134SOL    HW221039   2.211   4.681   5.906  1.6899  0.3133  0.5971
 3135SOL     OW21040   4.474   3.274   6.068 -0.6524  0.0168  0.5238
 3135SOL    HW121041   4.436   3.360   6.086  0.6393  0.7125 -0.0321
 3135SOL    HW221042   4.397   3.218   6.059 -1.1629  0.5936  1.3796
 3136SOL     OW21043   4.616   2.035   7.224 -0.0466 -0.2195 -0.2834
 3136SOL    HW121044   4.708   2.016   7.241 -0.1899  1.7342  2.6216
 3136SOL    HW221045   4.625   2.034   7.128 -1.1572  2.4677 -0.3955
 3137SOL     OW21046   4.300   0.944   3.714  0.8504  0.6049 -0.8486
 3137SOL    HW121047   4.329   0.993   3.791  1.2733  1.8501 -1.8114
 3137SOL    HW221048   4.238   0.887   3.760  1.0132  0.2340 -1.0832
 3138SOL     OW21049   3.289   1.953   3.283  0.9242  0.1086  0.8344
 3138SOL    HW121050   3.273   1.946   3.378 -3.1593 -1.0719  0.0722
 3138SOL    HW221051   3.249   2.038   3.265  0.7150 -0.3260 -0.7008
 3139SOL     OW21052   3.054   3.050   9.364 -0.1199 -0.0197  0.1298
 3139SOL    HW121053   3.080   3.086   9.449 -0.5180  0.2293  0.1454
 3139SOL    HW221054   2.992   3.117   9.335 -0.2218  0.9375  2.5731
 3140SOL     OW21055   3.301   0.252  14.564  0.1836 -0.2088  0.0866
 3140SOL    HW121056   3.308   0.263  14.470 -0.8840  0.5509  0.0983
 3140SOL    HW221057   3.293   0.340  14.601  1.4108  0.0147 -0.1797
 3141SOL     OW21058   4.429   2.572   7.541 -0.1891  0.3283  0.4286
 3141SOL    HW121059   4.416   2.491   7.591  1.0858 -0.2967 -0.2838
 3141SOL    HW221060   4.368   2.547   7.472  0.0373  2.1728 -0.4212
 3142SOL     OW21061   0.696   3.241   8.876  0.1200 -0.1750  0.0056
 3142SOL    HW121062   0.751   3.224   8.953  0.2277  2.1436  0.4416
 3142SOL    HW221063   0.657   3.154   8.875 -1.3566  0.4915 -0.5627
 3143SOL     OW21064   3.840   2.704   3.377 -0.4380 -0.0488  0.2065
 3143SOL    HW121065   3.752   2.738   3.388  0.3704  1.8334  0.8562
 3143SOL    HW221066   3.809   2.618   3.349  1.7285 -0.9123  0.4249
 3144SOL     OW21067   3.347   3.496   3.827  0.1534 -0.0323  0.0321
 3144SOL    HW121068   3.315   3.405   3.826 -1.3353  0.4830  1.3332
 3144SOL    HW221069   3.281   3.537   3.882  0.2966 -2.4649  2.0318
 3145SOL     OW21070   1.032   4.116  10.049  0.1398  0.2086  0.0268
 3145SOL    HW121071   1.097   4.175  10.086  0.4152 -0.9050  1.3420
 3145SOL    HW221072   1.068   4.028  10.059 -1.2145 -0.2176  1.1999
 3146SOL     OW21073   0.572   4.167   1.921  0.0475 -0.2846  0.5975
 3146SOL    HW121074   0.613   4.093   1.877  0.8234  1.4729 -1.6529
 3146SOL    HW221075   0.482   4.138   1.936 -0.0683 -0.6725 -0.8935
 3147SOL     OW21076   4.365   1.017   3.976 -0.0074  0.2995 -0.1849
 3147SOL    HW121077   4.415   0.952   4.025 -0.3717 -0.0138 -0.2336
 3147SOL    HW221078   4.286   1.033   4.027 -1.5573 -1.8517 -1.9551
 3148SOL     OW21079   0.264   0.218   5.753  0.0070  0.2132 -0.5249
 3148SOL    HW121080   0.357   0.198   5.754 -0.6195 -2.6742  0.3494
 3148SOL    HW221081   0.271   0.307   5.788 -0.2038 -0.3027  0.8441
 3149SOL     OW21082   0.888   1.967  14.257 -0.5761  0.8137 -0.6305
 3149SOL    HW121083   0.879   1.901  14.188  3.1903 -2.3171  1.8761
 3149SOL    HW221084   0.870   2.045  14.204 -0.5293  1.6484  0.5735
 3150SOL     OW21085   4.102   2.226   6.246 -0.2408 -0.1913 -0.1122
 3150SOL    HW121086   4.185   2.178   6.244 -0.0522  0.0931  1.0791
 3150SOL    HW221087   4.089   2.251   6.154  0.7990 -1.5599 -0.6441
 3151SOL     OW21088   2.189   2.940   5.555  0.1555 -0.0577  0.0692
 3151SOL    HW121089   2.125   2.869   5.560 -0.8671  0.8181 -0.5011
 3151SOL    HW221090   2.153   3.000   5.621  2.0712  1.8774 -0.6234
 3152SOL     OW21091   2.515   0.081   6.037 -0.2511  0.0801  0.0624
 3152SOL    HW121092   2.523   0.110   5.946 -1.2987 -3.5214 -1.1653
 3152SOL    HW221093   2.500   0.172   6.063 -1.6648 -0.5425  1.4233
 3153SOL     OW21094   4.048   1.948   7.052  0.3765 -0.1254  0.7476
 3153SOL    HW121095   4.031   1.900   6.972 -2.8950  0.5379  1.0699
 3153SOL    HW221096   4.032   2.038   7.024  0.2524 -0.6650 -0.9233
 3154SOL     OW21097   2.930   4.631  11.510  0.3234 -0.2043 -0.8990
 3154SOL    HW121098   2.868   4.647  11.439  0.0556 -1.3974 -0.9280
 3154SOL    HW221099   2.937   4.537  11.525 -1.4267 -0.5283 -2.1766
 3155SOL     OW21100   4.051   3.729  14.202 -0.0953 -0.5523  0.7080
 3155SOL    HW121101   3.957   3.721  14.216 -0.0010 -2.0255  0.5623
 3155SOL    HW221102   4.084   3.659  14.259  0.8453 -0.6159  0.0792
 3156SOL     OW21103   2.649   4.725  14.000  0.2329  0.4371 -0.3673
 3156SOL    HW121104   2.617   4.726  13.909  0.7007  1.0685 -0.5208
 3156SOL    HW221105   2.572   4.698  14.050 -0.6699 -0.2150 -2.0828
 3157SOL     OW21106   3.396   4.577   7.354  0.2748 -0.8518  0.2211
 3157SOL    HW121107   3.419   4.643   7.419 -0.7771 -0.0384 -0.2536
 3157SOL    HW221108   3.461   4.509   7.374 -0.1607 -1.4413 -0.3451
 3158SOL     OW21109   3.537   1.969   2.722 -0.4389  0.2994  0.5276
 3158SOL    HW121110   3.501   1.885   2.750 -1.4160  0.7568  0.6230
 3158SOL    HW221111   3.628   1.944   2.703 -0.0705  0.8855  1.5336
 3159SOL     OW21112   2.705   0.303  11.475  0.8497 -0.2409 -0.8081
 3159SOL    HW121113   2.791   0.344  11.464  1.0520 -0.4337  0.0701
 3159SOL    HW221114   2.716   0.256  11.558 -0.5904  0.5246 -0.1785
 3160SOL     OW21115   1.611   0.326   3.930 -0.4710 -0.1454 -0.2718
 3160SOL    HW121116   1.667   0.305   3.856 -0.0347  2.2071 -0.6138
 3160SOL    HW221117   1.594   0.420   3.917 -0.6925 -0.0794  0.4696
 3161SOL     OW21118   3.035   4.562   8.361  0.4139  0.1851  0.1723
 3161SOL    HW121119   2.943   4.538   8.348  0.4032 -0.2123  0.9729
 3161SOL    HW221120   3.040   4.538   8.454 -0.4188  1.0765  0.4432
 3162SOL     OW21121   4.697   3.847   2.735  0.1466 -0.4837  0.3024
 3162SOL    HW121122   4.670   3.917   2.675  0.3675 -0.0453  0.7181
 3162SOL    HW221123   4.624   3.856   2.796 -0.7943 -0.6485 -0.8098
 3163SOL     OW21124   3.467   2.368   3.490  0.3516  0.3873 -0.3167
 3163SOL    HW121125   3.396   2.305   3.477 -1.2782  1.8268  1.5549
 3163SOL    HW221126   3.486   2.354   3.583  0.5475 -1.7016 -0.6738
 3164SOL     OW21127   1.290   0.881   6.982  0.0611  0.2243  0.2483
 3164SOL    HW121128   1.233   0.859   6.909  0.3143  0.7642 -0.1089
 3164SOL    HW221129   1.241   0.921   7.053  1.9971  2.6088  0.2585
 3165SOL     OW21130   0.501   2.712   1.679  0.1657 -0.0908 -0.2817
 3165SOL    HW121131   0.540   2.696   1.764  0.6408 -0.3791 -0.5522
 3165SOL    HW221132   0.504   2.807   1.670 -2.6141  0.1274  1.2592
 3166SOL     OW21133   2.073   3.824  15.290 -0.1986 -0.0984  0.5020
 3166SOL    HW121134   2.165   3.846  15.301  0.5987 -3.3729  0.5737
 3166SOL    HW221135   2.064   3.734  15.323  0.5346  0.0424  1.0676
 3167SOL     OW21136   3.111   0.079  11.015  0.2884  0.6792 -0.5973
 3167SOL    HW121137   3.203   0.058  10.999  0.4524  1.6130 -0.8890
 3167SOL    HW221138   3.121   0.120  11.101  2.1536  1.5187 -1.2079
 3168SOL     OW21139   3.979   3.759   9.123 -0.3926  0.0493 -0.5621
 3168SOL    HW121140   3.949   3.688   9.066 -0.5963 -0.1301 -0.2317
 3168SOL    HW221141   4.072   3.770   9.103 -0.8736  1.6260 -1.9792
 3169SOL     OW21142   2.560   3.731   8.927 -0.4181 -0.2394 -0.2490
 3169SOL    HW121143   2.548   3.746   8.834 -0.1836 -2.5256 -0.6457
 3169SOL    HW221144   2.478   3.768   8.960 -0.9094  1.0481 -2.9943
 3170SOL     OW21145   1.977   4.610   7.818  0.3538 -0.2197 -0.4352
 3170SOL    HW121146   2.022   4.691   7.794 -0.1860  1.0608  2.9611
 3170SOL    HW221147   2.038   4.577   7.884 -1.0394 -1.7332  0.1125
 3171SOL     OW21148   2.564   0.581  11.935  0.2190  0.0030  0.0998
 3171SOL    HW121149   2.650   0.542  11.954  0.1922  0.4841  1.2168
 3171SOL    HW221150   2.525   0.504  11.893 -0.6732  0.4551  0.1029
 3172SOL     OW21151   3.545   1.885   2.342 -0.2854  0.0049  0.1054
 3172SOL    HW121152   3.475   1.847   2.394  0.7476 -1.3453  0.5114
 3172SOL    HW221153   3.520   1.978   2.346 -1.6724 -0.4293  1.2833
 3173SOL     OW21154   0.265   3.064   0.341  0.2335 -0.0425 -0.3356
 3173SOL    HW121155   0.345   3.019   0.369  0.1226  0.8343  1.3653
 3173SOL    HW221156   0.228   3.004   0.276  1.1468 -2.1888  1.1248
 3174SOL     OW21157   4.380   1.234   5.147  0.1364  0.2538  0.7018
 3174SOL    HW121158   4.464   1.245   5.101 -0.6355  0.0014 -0.7507
 3174SOL    HW221159   4.408   1.184   5.224  1.3394 -3.3297 -2.0755
 3175SOL     OW21160   1.943   2.867   8.870 -0.0372 -0.1121  0.1151
 3175SOL    HW121161   1.944   2.885   8.776 -0.5568  0.9767  0.3201
 3175SOL    HW221162   1.952   2.772   8.867  0.0793 -0.2180  3.5787
 3176SOL     OW21163   1.211   3.806   7.860 -0.3194 -0.2002 -0.0251
 3176SOL    HW121164   1.236   3.738   7.798  2.5145  0.9399 -0.1017
 3176SOL    HW221165   1.222   3.879   7.800 -1.0190 -0.3145 -0.2898
 3177SOL     OW21166   1.816   3.290  12.330 -0.0657  0.2711 -0.1446
 3177SOL    HW121167   1.740   3.288  12.389 -0.0426 -1.1335 -0.1688
 3177SOL    HW221168   1.830   3.385  12.329 -1.0607  0.4092 -1.4403
 3178SOL     OW21169   1.790   3.297   5.243  0.0958  0.1308  0.2303
 3178SOL    HW121170   1.780   3.307   5.148  1.8614 -1.2460 -0.1104
 3178SOL    HW221171   1.845   3.219   5.231  1.0437  0.7259  0.6532
 3179SOL     OW21172   4.690   1.621  15.879 -0.5105 -0.1794  0.0634
 3179SOL    HW121173   4.729   1.686  15.937  0.0083  0.2787 -0.8047
 3179SOL    HW221174   4.602   1.659  15.876  0.3914  1.6976 -2.5479
 3180SOL     OW21175   0.572   3.421   6.894  0.0378 -0.2020 -0.0291
 3180SOL    HW121176   0.485   3.449   6.924 -0.0733 -0.6045  0.0257
 3180SOL    HW221177   0.562   3.331   6.925 -0.2943 -0.2783 -0.3502
 3181SOL     OW21178   1.336   1.032   3.770 -0.0229  0.2998 -0.0031
 3181SOL    HW121179   1.296   1.118   3.758 -1.4896 -0.4840 -0.7003
 3181SOL    HW221180   1.309   0.985   3.691 -0.2385  1.0009 -0.3424
 3182SOL     OW21181   0.472   3.223   5.653 -0.2019 -0.3291 -0.7331
 3182SOL    HW121182   0.519   3.300   5.685 -0.2991  0.0248 -1.4487
 3182SOL    HW221183   0.410   3.260   5.590  2.2613  1.5871 -2.0398
 3183SOL     OW21184   2.436   0.310   0.495 -0.0866 -0.0599  0.1866
 3183SOL    HW121185   2.440   0.300   0.400 -1.9843 -1.1378  0.2183
 3183SOL    HW221186   2.353   0.272   0.523  0.2814 -0.2194  1.0572
 3184SOL     OW21187   1.200   3.847  11.868 -0.1962  0.0046 -0.0346
 3184SOL    HW121188   1.208   3.764  11.822 -0.9393  0.3204 -0.7382
 3184SOL    HW221189   1.290   3.860  11.898 -0.5103 -3.4818  2.3891
 3185SOL     OW21190   4.017   0.428   3.691  0.4494  0.4341 -0.3023
 3185SOL    HW121191   3.941   0.432   3.748  0.1897  0.8579 -0.6844
 3185SOL    HW221192   4.079   0.378   3.745  0.4187  0.4722 -0.2315
 3186SOL     OW21193   1.242   4.411   3.210  0.4307 -0.1208 -0.0451
 3186SOL    HW121194   1.202   4.411   3.124 -2.5746  4.6823  1.3437
 3186SOL    HW221195   1.289   4.329   3.200  1.8004  0.4238  1.7789
 3187SOL     OW21196   3.382   1.296   5.658 -0.2951 -0.7200  0.1765
 3187SOL    HW121197   3.355   1.385   5.634  0.3901 -0.5447  0.0418
 3187SOL    HW221198   3.357   1.297   5.750 -0.0323 -1.6173  0.2538
 3188SOL     OW21199   4.281   0.665  16.898 -0.2306  0.5359 -0.0307
 3188SOL    HW121200   4.375   0.664  16.880 -0.5917  1.0062 -1.9037
 3188SOL    HW221201   4.281   0.595  16.963  2.0574 -0.4841 -1.1078
 3189SOL     OW21202   4.420   3.514   5.758  0.2116  0.1245 -0.0001
 3189SOL    HW121203   4.331   3.485   5.736 -0.0668  0.8073  0.2267
 3189SOL    HW221204   4.473   3.457   5.702 -1.3168 -1.7891  0.4906
 3190SOL     OW21205   1.542   3.120   6.527  0.6738  0.5102 -0.0958
 3190SOL    HW121206   1.490   3.160   6.597 -1.5829 -2.2092 -0.2102
 3190SOL    HW221207   1.595   3.063   6.583  0.4967  1.0482  0.6283
 3191SOL     OW21208   4.670   3.854   5.961  0.2167 -0.1416  0.5416
 3191SOL    HW121209   4.698   3.764   5.977  2.2774  0.4970  0.4326
 3191SOL    HW221210   4.583   3.839   5.922 -0.7069  3.3731  1.2445
 3192SOL     OW21211   2.071   2.278   5.544  0.1520 -0.3327  0.4407
 3192SOL    HW121212   1.982   2.265   5.511 -0.4638  0.6154  1.6898
 3192SOL    HW221213   2.066   2.223   5.623 -3.5647  1.6155  1.5718
 3193SOL     OW21214   1.147   0.987   1.073 -0.0207  0.5950 -0.0033
 3193SOL    HW121215   1.182   0.959   0.988  1.0690  4.0279 -0.6820
 3193SOL    HW221216   1.122   1.077   1.051 -1.8087 -0.1493 -1.0580
 3194SOL     OW21217   4.710   1.389  17.653 -0.2139  0.1199 -0.3446
 3194SOL    HW121218   0.053   1.389  17.710 -0.2879 -2.9773 -0.2308
 3194SOL    HW221219   0.001   1.440  17.576 -0.8820  1.4444  0.2994
 3195SOL     OW21220   3.566   3.304  17.710 -0.3127  0.0151  0.0685
 3195SOL    HW121221   3.598   3.344   0.056  0.1091  0.3295 -0.2555
 3195SOL    HW221222   3.559   3.378  17.649 -3.9172 -0.4322 -0.0878
 3196SOL     OW21223   1.538   2.042   2.523  0.0014  0.3488 -0.3330
 3196SOL    HW121224   1.523   2.080   2.609  0.6346  0.3068 -0.2035
 3196SOL    HW221225   1.524   2.124   2.476  0.9623  1.1517  0.7768
 3197SOL     OW21226   2.493   0.322   2.548  0.5557  0.0921 -0.6437
 3197SOL    HW121227   2.485   0.246   2.490 -1.0138 -0.8154  0.7479
 3197SOL    HW221228   2.406   0.329   2.587  0.0379 -0.4444 -1.7215
 3198SOL     OW21229   0.053   4.262   1.341 -0.2286  0.0364 -0.0206
 3198SOL    HW121230   4.716   4.238   1.281  0.7221 -0.5199 -0.9151
 3198SOL    HW221231   0.025   4.346   1.378  3.1598  1.0373  0.2509
 3199SOL     OW21232   3.872   4.039   1.973 -0.3775 -0.4722 -0.0727
 3199SOL    HW121233   3.853   3.973   1.907 -0.3955  1.7383 -2.2754
 3199SOL    HW221234   3.932   3.985   2.025 -1.6690 -0.6560  1.2540
 3200SOL     OW21235   0.361   3.358   2.605  0.4222 -0.5424 -0.0934
 3200SOL    HW121236   0.421   3.299   2.560  1.9104 -0.8656  2.3237
 3200SOL    HW221237   0.309   3.298   2.659  0.5054 -0.3303  0.2213
 3201SOL     OW21238   2.624   0.451  13.505 -0.1571  0.5054 -0.4266
 3201SOL    HW121239   2.538   0.460  13.465 -0.2777  2.0016  0.1679
 3201SOL    HW221240   2.628   0.359  13.531 -1.7479 -0.0230 -2.0454
 3202SOL     OW21241   1.589   4.060   1.854  0.1025  0.2897 -0.2821
 3202SOL    HW121242   1.556   4.091   1.769 -3.3404 -1.2756  0.4672
 3202SOL    HW221243   1.658   4.011   1.810  0.0608 -0.9503  1.0241
 3203SOL     OW21244   4.602   3.674   9.125 -0.5320  0.0876  0.7782
 3203SOL    HW121245   4.677   3.702   9.177  1.4077 -0.9870 -1.4660
 3203SOL    HW221246   4.601   3.579   9.137  1.1187 -0.0278 -0.1016
 3204SOL     OW21247   3.570   3.731   0.659  0.5088  0.0393 -0.0875
 3204SOL    HW121248   3.634   3.735   0.588 -0.1566 -0.0399 -0.6854
 3204SOL    HW221249   3.583   3.819   0.694  0.2457  0.1933 -0.3858
 3205SOL     OW21250   1.432   1.501  14.676 -0.1717  0.8328 -0.9727
 3205SOL    HW121251   1.381   1.451  14.611  1.2161 -2.2083  0.2630
 3205SOL    HW221252   1.378   1.578  14.693  1.2549  1.2408  1.6349
 3206SOL     OW21253   1.594   2.628   8.790  0.5043  0.0354  0.0162
 3206SOL    HW121254   1.552   2.553   8.748 -0.3094 -0.9564  2.6184
 3206SOL    HW221255   1.541   2.650   8.866  0.9979 -0.2332  0.4445
 3207SOL     OW21256   3.293   4.241  17.116  0.2469 -0.2201  0.1854
 3207SOL    HW121257   3.324   4.318  17.163 -1.3311  1.6142 -1.7060
 3207SOL    HW221258   3.294   4.283  17.029  0.4899 -0.5804  0.0167
 3208SOL     OW21259   0.007   0.102   7.096 -0.1855 -0.3769 -0.8938
 3208SOL    HW121260   4.671   0.165   7.079  0.9446  0.6431 -1.6939
 3208SOL    HW221261   0.004   0.086   7.191 -1.3998 -0.4807 -0.9473
 3209SOL     OW21262   2.855   1.953   6.312 -0.3296  0.3951  0.1949
 3209SOL    HW121263   2.834   1.875   6.363  2.0615 -1.5035 -1.7162
 3209SOL    HW221264   2.904   2.000   6.379  0.0087 -2.2884  1.8402
 3210SOL     OW21265   2.722   4.022   2.546  0.0115 -0.1850  0.3210
 3210SOL    HW121266   2.733   4.117   2.555  2.2179 -0.7212  3.0569
 3210SOL    HW221267   2.631   4.008   2.519  0.3805 -2.1781  0.1532
 3211SOL     OW21268   1.763   1.411   6.348  0.6568 -0.1216 -0.2382
 3211SOL    HW121269   1.816   1.369   6.416  1.6213  1.8910  0.2364
 3211SOL    HW221270   1.832   1.433   6.286  1.5745 -0.9319  0.4890
 3212SOL     OW21271   3.240   1.191  16.111 -0.3727  0.2323 -0.3408
 3212SOL    HW121272   3.148   1.170  16.129  0.2842 -1.6962  0.8216
 3212SOL    HW221273   3.248   1.241  16.030 -2.3153  1.6335  0.3308
 3213SOL     OW21274   0.852   3.908  15.046 -0.6734  0.0735 -0.8721
 3213SOL    HW121275   0.867   3.994  15.086 -0.3454 -0.6670  0.5993
 3213SOL    HW221276   0.939   3.881  15.016 -1.0404 -0.9051 -1.0655
 3214SOL     OW21277   2.903   4.058   5.227 -0.3423  0.6229 -0.0537
 3214SOL    HW121278   2.960   3.992   5.188  0.2373  0.5004  0.9894
 3214SOL    HW221279   2.961   4.076   5.301  3.5340 -3.0748 -2.2372
 3215SOL     OW21280   1.982   3.527   5.766  0.1543 -0.0986  0.3278
 3215SOL    HW121281   2.060   3.563   5.724  0.3863 -0.1673  0.7018
 3215SOL    HW221282   1.914   3.578   5.720  1.6133 -0.6209 -2.3733
 3216SOL     OW21283   4.054   0.561   4.439 -0.3920 -0.1139 -0.2187
 3216SOL    HW121284   3.993   0.624   4.401 -0.8394 -0.7412 -0.5626
 3216SOL    HW221285   4.011   0.478   4.462 -3.1360  0.4562 -3.1918
 3217SOL     OW21286   2.496   0.214   8.227  0.2095  0.3596  0.1684
 3217SOL    HW121287   2.586   0.202   8.259  1.4791  2.3768 -2.7220
 3217SOL    HW221288   2.474   0.129   8.188  1.3445  0.7653 -1.3653
 3218SOL     OW21289   1.030   0.089   0.801 -0.6377  0.4056  0.1122
 3218SOL    HW121290   1.114   0.121   0.834 -0.3582 -1.4434  1.2212
 3218SOL    HW221291   1.021   0.149   0.728  0.5893  1.0156  0.4641
 3219SOL     OW21292   3.381   0.251   5.926  0.1631 -0.1129  0.1367
 3219SOL    HW121293   3.366   0.236   6.019  0.4530 -0.6665  0.0940
 3219SOL    HW221294   3.412   0.342   5.922  0.8674 -0.4153 -1.3465
 3220SOL     OW21295   2.493   1.708  13.000  0.4069 -0.8602  0.8164
 3220SOL    HW121296   2.464   1.796  13.025 -0.2418 -1.1351  1.0377
 3220SOL    HW221297   2.409   1.666  13.018  0.2554 -0.4540  1.0467
 3221SOL     OW21298   4.263   4.050   3.837 -0.2260  0.0648  0.2761
 3221SOL    HW121299   4.286   4.078   3.748 -0.6563 -2.6438 -0.6955
 3221SOL    HW221300   4.306   4.127   3.873 -0.2246 -0.5239  1.5273
 3222SOL     OW21301   1.006   2.089   9.044 -0.2926 -0.1422 -0.4321
 3222SOL    HW121302   1.096   2.082   9.075 -0.6321 -1.5502  0.2652
 3222SOL    HW221303   0.981   1.997   9.052  0.2414 -0.1031  1.7234
 3223SOL     OW21304   3.599   4.597  13.854  0.1474 -0.1396  0.2075
 3223SOL    HW121305   3.510   4.621  13.880 -0.8909 -1.0559 -2.5349
 3223SOL    HW221306   3.583   4.549  13.773  0.8847 -0.4127  0.2192
 3224SOL     OW21307   1.413   2.828   8.311  0.0611  0.6421  0.2932
 3224SOL    HW121308   1.416   2.923   8.316  2.7814  0.6475 -1.6614
 3224SOL    HW221309   1.338   2.803   8.366  0.6276 -0.9066  0.3753
 3225SOL     OW21310   3.044   3.147   7.557 -0.3970 -0.2205 -0.4905
 3225SOL    HW121311   2.958   3.176   7.589 -1.6860 -2.6285 -1.7556
 3225SOL    HW221312   3.062   3.214   7.491  2.0119 -0.8082 -0.4144
 3226SOL     OW21313   1.919   4.637   6.765 -0.1480 -0.4748  0.6512
 3226SOL    HW121314   1.946   4.683   6.686 -3.5441  0.7108  0.1546
 3226SOL    HW221315   1.824   4.650   6.768 -0.2019 -0.9844  1.2278
 3227SOL     OW21316   4.607   1.098   1.011  0.4971  0.5077  0.6873
 3227SOL    HW121317   4.568   1.153   0.944  0.2570 -1.4846 -0.7841
 3227SOL    HW221318   4.584   1.009   0.985  0.2512  0.6387  0.4615
 3228SOL     OW21319   2.369   1.954   2.316  0.2201 -0.2257  0.1988
 3228SOL    HW121320   2.333   2.039   2.290 -2.3885 -1.3405  0.1071
 3228SOL    HW221321   2.451   1.976   2.359  0.7147  1.0014 -1.3862
 3229SOL     OW21322   2.295   0.878   8.915 -0.0032  0.5029 -0.7695
 3229SOL    HW121323   2.251   0.932   8.849 -1.2495  1.4371  0.8458
 3229SOL    HW221324   2.387   0.895   8.893  1.0107 -1.5059  1.9529
 3230SOL     OW21325   3.958   0.248  17.142  0.2238 -0.2452 -0.6766
 3230SOL    HW121326   4.005   0.324  17.176 -0.6355  0.0115 -0.0804
 3230SOL    HW221327   3.975   0.182  17.209  0.2905  1.1654  0.7038
 3231SOL     OW21328   1.508   1.456   9.417 -0.3464 -0.6604  0.3384
 3231SOL    HW121329   1.512   1.413   9.332  1.3559 -1.1195  0.6480
 3231SOL    HW221330   1.436   1.409   9.459 -0.8235 -1.0994 -0.9856
 3232SOL     OW21331   0.471   0.082   5.102  0.1189 -0.5455 -0.5146
 3232SOL    HW121332   0.438   0.002   5.062  1.5066 -0.9922 -0.7664
 3232SOL    HW221333   0.397   0.141   5.092  0.5955 -0.3982 -3.1121
 3233SOL     OW21334   0.748   2.294   3.971 -0.2150 -0.5788  0.2218
 3233SOL    HW121335   0.788   2.249   3.896 -0.1363  1.8627 -1.2017
 3233SOL    HW221336   0.663   2.254   3.990 -1.1814  1.6567  0.5746
 3234SOL     OW21337   4.723   4.195  15.023 -0.0488  0.2000  0.3287
 3234SOL    HW121338   4.726   4.243  15.106  0.3728  0.8983 -0.0826
 3234SOL    HW221339   4.701   4.265  14.961 -1.8254  0.3126  1.0728
 3235SOL     OW21340   2.099   4.297   6.032  0.3785 -0.0489  0.4002
 3235SOL    HW121341   2.158   4.264   5.965  0.8074 -0.7060  1.0998
 3235SOL    HW221342   2.016   4.272   5.991 -0.6469  2.2625  1.0339
 3236SOL     OW21343   3.750   4.643   6.450 -0.8994 -0.6522  0.6347
 3236SOL    HW121344   3.671   4.696   6.453  0.4482  1.3466  0.7658
 3236SOL    HW221345   3.759   4.612   6.360  1.6108 -2.2193  1.4278
 3237SOL     OW21346   1.367   2.250  12.149 -0.4968  0.1709 -0.2604
 3237SOL    HW121347   1.434   2.187  12.175  0.7277  1.2270 -0.8913
 3237SOL    HW221348   1.322   2.284  12.226 -1.0213 -0.0470 -0.4664
 3238SOL     OW21349   0.498   3.576   1.832  0.0086 -0.0705 -0.4049
 3238SOL    HW121350   0.492   3.482   1.814 -0.9087 -0.4073  1.7435
 3238SOL    HW221351   0.593   3.590   1.839 -0.1119  1.4777 -2.0182
 3239SOL     OW21352   1.977   1.643   0.219  0.2574  0.5183  0.1183
 3239SOL    HW121353   1.992   1.582   0.291  0.5052 -0.0558 -0.4197
 3239SOL    HW221354   1.968   1.575   0.152  0.4782 -0.2495  0.8671
 3240SOL     OW21355   4.497   4.272   7.647 -0.3425  0.7751 -0.0306
 3240SOL    HW121356   4.497   4.197   7.707  0.3213 -0.2143 -1.2614
 3240SOL    HW221357   4.591   4.290   7.641 -0.0420 -0.4543  0.8922
 3241SOL     OW21358   3.487   1.057   7.412 -0.0384 -0.2932  0.0492
 3241SOL    HW121359   3.517   0.975   7.450  0.8776 -0.1291 -0.3080
 3241SOL    HW221360   3.564   1.110   7.390 -1.1289  2.4771  2.8106
 3242SOL     OW21361   0.274   1.284   8.600  0.0536 -0.3645 -0.1277
 3242SOL    HW121362   0.368   1.301   8.596  0.5357 -2.8305  0.4383
 3242SOL    HW221363   0.267   1.188   8.607 -0.5946 -0.4948 -2.3889
 3243SOL     OW21364   4.693   3.230   8.747 -0.3893 -0.2459  0.0098
 3243SOL    HW121365   4.625   3.193   8.690 -0.3159 -0.1611 -0.1339
 3243SOL    HW221366   4.643   3.277   8.813 -0.3549 -0.7698  0.4152
 3244SOL     OW21367   1.022   2.413  11.795  0.0622  0.2326 -0.7607
 3244SOL    HW121368   0.962   2.488  11.792 -0.4328 -0.1284  0.1395
 3244SOL    HW221369   1.095   2.436  11.853  0.7125 -0.2315 -1.3962
 3245SOL     OW21370   1.727   1.321  14.742  0.3755  0.3722 -0.0994
 3245SOL    HW121371   1.799   1.364  14.697 -0.2650 -0.3789 -1.8482
 3245SOL    HW221372   1.652   1.353  14.692  1.1467  1.9735 -0.2179
 3246SOL     OW21373   0.754   2.163   6.796  0.2620 -0.0148  0.2812
 3246SOL    HW121374   0.729   2.113   6.718 -1.2764  1.8924 -0.4549
 3246SOL    HW221375   0.843   2.131   6.804  0.1077  0.3339  3.4899
 3247SOL     OW21376   2.970   3.553   9.071 -0.7204  0.4298  0.1020
 3247SOL    HW121377   3.026   3.492   9.119 -0.4624  1.6702  1.3695
 3247SOL    HW221378   3.018   3.632   9.093  1.3042 -1.0270  0.9629
 3248SOL     OW21379   0.879   2.897  12.529 -0.2071 -0.3334 -0.1465
 3248SOL    HW121380   0.894   2.849  12.611  0.0952 -0.9274 -0.5505
 3248SOL    HW221381   0.885   2.986  12.563 -1.5486 -0.2658 -0.0758
 3249SOL     OW21382   2.078   0.637   2.468  0.3860 -0.4966 -0.7697
 3249SOL    HW121383   2.089   0.629   2.563 -1.8062  0.8637 -0.3758
 3249SOL    HW221384   1.983   0.628   2.458  0.1994 -1.0528  1.4558
 3250SOL     OW21385   0.717   2.923  14.239  0.4098  0.2259 -0.4596
 3250SOL    HW121386   0.790   2.879  14.197  1.2171  0.5087  0.6480
 3250SOL    HW221387   0.644   2.876  14.200  0.3680  0.6446 -0.8896
 3251SOL     OW21388   0.087   4.281   7.653 -0.3168 -0.3662  0.6387
 3251SOL    HW121389   0.094   4.286   7.557  1.6789  0.1468  0.8299
 3251SOL    HW221390   0.090   4.185   7.652  1.1095 -0.3383  2.7408
 3252SOL     OW21391   2.836   3.723   8.825  0.0950 -0.0302 -0.4014
 3252SOL    HW121392   2.854   3.630   8.835 -2.7744 -0.5774 -0.2560
 3252SOL    HW221393   2.773   3.752   8.891  0.6725 -2.1346  1.0677
 3253SOL     OW21394   1.088   1.809   9.243 -0.5073 -0.4190 -0.0579
 3253SOL    HW121395   1.114   1.721   9.272 -1.0128 -0.7438 -0.6032
 3253SOL    HW221396   1.040   1.793   9.162 -1.1172  2.0640 -0.1788
 3254SOL     OW21397   2.407   3.525   7.648 -0.5586  0.2708 -0.4154
 3254SOL    HW121398   2.479   3.558   7.702  0.4102 -0.4336 -1.2485
 3254SOL    HW221399   2.329   3.559   7.691 -0.5893 -1.3652  0.8329
 3255SOL     OW21400   2.600   2.888   2.888 -0.2190  0.3592  0.0699
 3255SOL    HW121401   2.668   2.955   2.892  0.1979 -0.0561 -0.0206
 3255SOL    HW221402   2.612   2.845   2.973 -0.0486  1.3274  0.5337
 3256SOL     OW21403   0.846   2.777  13.611 -0.4929 -1.0253 -0.2757
 3256SOL    HW121404   0.889   2.725  13.543  3.2032 -0.8996  1.9231
 3256SOL    HW221405   0.924   2.811  13.655  0.0267  1.0095 -2.7939
 3257SOL     OW21406   0.332   1.184   2.479  0.2436  0.3735  0.2641
 3257SOL    HW121407   0.367   1.129   2.408  0.2074  2.4708 -1.4006
 3257SOL    HW221408   0.244   1.148   2.487 -0.5191  2.0302 -0.6079
 3258SOL     OW21409   2.403   2.663   4.105  0.1024 -0.3124  0.2888
 3258SOL    HW121410   2.476   2.635   4.049  0.6649 -1.0632  1.3970
 3258SOL    HW221411   2.357   2.732   4.059  0.3887  1.1580  2.2169
 3259SOL     OW21412   1.838   1.039   0.314 -0.3591  0.4280  0.3367
 3259SOL    HW121413   1.884   1.066   0.234  0.6894  1.5321  1.3007
 3259SOL    HW221414   1.783   0.968   0.281  0.6737  0.0786 -0.6237
 3260SOL     OW21415   1.500   1.750   1.824  0.6330 -0.3812 -0.8184
 3260SOL    HW121416   1.458   1.805   1.890  0.0303  0.2015 -1.6983
 3260SOL    HW221417   1.480   1.787   1.738 -0.8565 -0.5087 -0.5197
 3261SOL     OW21418   2.433   0.486   2.805 -0.3079 -0.0109  0.3506
 3261SOL    HW121419   2.460   0.474   2.714 -0.7220  0.3008  0.1857
 3261SOL    HW221420   2.481   0.569   2.811 -1.0560  0.4074  0.5901
 3262SOL     OW21421   0.368   3.417   8.956 -0.4033 -1.0326  0.5115
 3262SOL    HW121422   0.301   3.351   8.939 -2.8565  1.7815 -0.6132
 3262SOL    HW221423   0.429   3.374   8.896  0.8149 -0.3538  1.2568
 3263SOL     OW21424   3.461   3.799   7.013 -0.4649  0.4348 -0.1357
 3263SOL    HW121425   3.492   3.797   6.922 -0.6854 -0.7354 -0.1917
 3263SOL    HW221426   3.544   3.791   7.060  0.1908  1.7261 -1.0999
 3264SOL     OW21427   0.100   2.035   6.015  0.4595  0.2208  0.2761
 3264SOL    HW121428   0.077   2.108   6.073  0.9066 -1.0272  2.0133
 3264SOL    HW221429   0.030   1.975   6.040  0.8801 -0.2394  0.3511
 3265SOL     OW21430   2.083   1.076   8.215  0.2148  0.0933 -1.0300
 3265SOL    HW121431   2.146   1.148   8.222 -0.9469  1.1228 -1.0756
 3265SOL    HW221432   2.143   1.018   8.168  0.3761 -0.1492 -0.5158
 3266SOL     OW21433   3.166   3.765   2.358 -0.3275 -0.6890  0.3730
 3266SOL    HW121434   3.227   3.808   2.298 -0.8825 -0.6882 -0.1872
 3266SOL    HW221435   3.110   3.718   2.296 -0.3358 -1.6794  1.1378
 3267SOL     OW21436   1.669   4.401   9.169  0.0207 -0.2139 -0.2023
 3267SOL    HW121437   1.596   4.445   9.126  0.0673 -0.4629 -0.5394
 3267SOL    HW221438   1.632   4.362   9.248  2.1196  1.7552  1.7636
 3268SOL     OW21439   0.268   2.157   5.319  0.5125  0.2758 -0.4376
 3268SOL    HW121440   0.211   2.130   5.247 -0.7130 -0.4015  0.7642
 3268SOL    HW221441   0.276   2.252   5.311  1.0860  0.0948 -1.9121
 3269SOL     OW21442   2.012   3.085   2.558  0.4153  0.3338  0.0178
 3269SOL    HW121443   1.947   3.153   2.538 -1.1116 -1.0165  0.3572
 3269SOL    HW221444   2.054   3.118   2.637 -0.4707 -0.1775  0.6930
 3270SOL     OW21445   4.065   0.323   6.201 -0.0631 -0.4110  0.2366
 3270SOL    HW121446   4.156   0.351   6.186 -0.5017 -0.3162 -2.1059
 3270SOL    HW221447   4.070   0.278   6.286 -0.9850 -2.1153 -0.6185
 3271SOL     OW21448   1.595   3.726   5.197 -0.3318 -0.1646  0.1474
 3271SOL    HW121449   1.507   3.726   5.234 -0.0648  0.3211  0.7611
 3271SOL    HW221450   1.646   3.769   5.264 -0.9129 -0.2392  0.6382
 3272SOL     OW21451   2.499   1.012  11.018 -0.1263 -0.2311 -0.0946
 3272SOL    HW121452   2.470   0.921  11.026 -0.5082  0.1345  2.7217
 3272SOL    HW221453   2.414   1.057  11.012  0.2179  0.0678 -2.8179
 3273SOL     OW21454   2.299   1.301   7.527 -0.4328 -0.3497  0.6734
 3273SOL    HW121455   2.318   1.307   7.434 -1.8825  1.8033  0.5025
 3273SOL    HW221456   2.321   1.209   7.536  2.8093  0.6461  2.9813
 3274SOL     OW21457   3.449   3.097  17.579 -0.2171 -0.3102 -0.0337
 3274SOL    HW121458   3.523   3.036  17.583  1.3925  1.6281  0.1205
 3274SOL    HW221459   3.498   3.173  17.611  0.0803 -1.1203  1.4159
 3275SOL     OW21460   2.500   1.908   7.517  0.0937  0.0576  0.2420
 3275SOL    HW121461   2.445   1.885   7.442  1.0679 -0.4197 -0.3242
 3275SOL    HW221462   2.432   1.937   7.577  1.0124 -0.1735  1.3865
 3276SOL     OW21463   0.193   1.597  10.700  0.6285  0.3786 -0.1293
 3276SOL    HW121464   0.244   1.560  10.628  1.4443  4.4951 -1.6857
 3276SOL    HW221465   0.202   1.528  10.765  3.0255 -1.2147 -2.1746
 3277SOL     OW21466   3.055   4.186  14.242  0.4615 -0.1862  0.4380
 3277SOL    HW121467   2.972   4.220  14.274  0.1071  1.5186 -2.3388
 3277SOL    HW221468   3.115   4.226  14.305 -0.5947  3.2355 -0.7324
 3278SOL     OW21469   4.041   0.134   2.805 -0.3751 -0.0386  0.1449
 3278SOL    HW121470   4.100   0.058   2.803 -0.5236 -0.0971 -1.5775
 3278SOL    HW221471   4.089   0.213   2.781 -0.1610  0.5075  2.3640
 3279SOL     OW21472   2.941   3.919  17.364  0.1457  0.1984  0.5299
 3279SOL    HW121473   2.958   3.963  17.281  2.4491 -0.9539  0.3797
 3279SOL    HW221474   2.848   3.904  17.352 -0.5166  3.1976  1.8082
 3280SOL     OW21475   0.165   0.623   2.815  0.9269  0.9031  0.6061
 3280SOL    HW121476   0.074   0.654   2.812  0.1532 -1.4193  0.1310
 3280SOL    HW221477   0.169   0.565   2.891 -1.7340 -2.2255 -1.6272
 3281SOL     OW21478   1.470   4.162   1.046  0.2982  0.6354  0.3392
 3281SOL    HW121479   1.458   4.246   1.002 -0.8487  0.2727 -0.0306
 3281SOL    HW221480   1.560   4.140   1.022 -0.3945  1.0997 -2.6041
 3282SOL     OW21481   3.720   4.728   8.124 -0.0159  0.4560 -0.4864
 3282SOL    HW121482   3.629   4.700   8.135  0.8368 -1.1586  2.5659
 3282SOL    HW221483   3.719   0.052   8.201 -2.5527  2.7044 -2.2211
 3283SOL     OW21484   2.472   2.682   0.671 -0.0013  0.4161 -0.0263
 3283SOL    HW121485   2.414   2.757   0.659 -1.3452 -0.7997 -1.1105
 3283SOL    HW221486   2.555   2.714   0.635  0.2650 -1.5965 -1.2239
 3284SOL     OW21487   3.767   2.535  10.807  0.9111 -0.0349 -0.2310
 3284SOL    HW121488   3.673   2.545  10.792  1.1171 -1.3321 -2.3437
 3284SOL    HW221489   3.802   2.621  10.785  2.6575 -1.4648 -2.9925
 3285SOL     OW21490   1.963   2.454   7.458 -0.6859  0.0548 -0.1932
 3285SOL    HW121491   1.872   2.478   7.444 -0.0601  2.2348 -0.5017
 3285SOL    HW221492   1.951   2.365   7.490  1.1169  0.4028  1.4779
 3286SOL     OW21493   4.487   3.224   5.762  0.8762 -0.4600  0.2736
 3286SOL    HW121494   4.524   3.230   5.850  1.5140 -0.2354  0.0000
 3286SOL    HW221495   4.556   3.191   5.704 -0.5943 -0.9221 -1.2255
 3287SOL     OW21496   4.152   0.319  10.975  0.0922  0.0889  0.7347
 3287SOL    HW121497   4.227   0.374  10.951 -0.5699  0.3958 -0.6150
 3287SOL    HW221498   4.186   0.230  10.964  2.1470  0.9990 -0.4246
 3288SOL     OW21499   3.792   4.610   9.126  0.3553  0.2920  0.2838
 3288SOL    HW121500   3.861   4.576   9.183  1.3738 -2.4242 -2.5303
 3288SOL    HW221501   3.835   4.598   9.041  3.4551  0.6871  1.7725
 3289SOL     OW21502   1.548   3.180  16.844  0.1011 -0.1214 -0.4343
 3289SOL    HW121503   1.458   3.148  16.855  0.4732 -1.6558 -1.8694
 3289SOL    HW221504   1.533   3.265  16.801  2.3311  0.9394  0.8881
 3290SOL     OW21505   0.091   3.252   3.979 -0.0570  0.3807 -0.1935
 3290SOL    HW121506   0.133   3.322   4.029 -2.5367  1.6915  0.0703
 3290SOL    HW221507   0.062   3.187   4.043 -0.0156 -0.0161 -0.5706
 3291SOL     OW21508   1.918   0.982   3.696  0.2902  0.3024 -0.1165
 3291SOL    HW121509   1.990   1.035   3.661  1.4011  0.0049  1.7542
 3291SOL    HW221510   1.846   1.046   3.696  0.6652  0.7276  1.8935
 3292SOL     OW21511   2.442   3.370  12.080  0.1873 -0.0162 -0.1087
 3292SOL    HW121512   2.411   3.288  12.119 -1.0319 -1.1369 -3.4052
 3292SOL    HW221513   2.394   3.376  11.998  0.2522 -1.9498 -0.2877
 3293SOL     OW21514   4.050   4.577   5.339 -0.0655 -0.0398 -0.0365
 3293SOL    HW121515   4.071   4.658   5.385 -0.5232  0.3707 -0.5425
 3293SOL    HW221516   3.991   4.602   5.267  0.8298  2.2018  0.0081
 3294SOL     OW21517   1.556   0.814   4.934  0.2492 -0.1661  0.3332
 3294SOL    HW121518   1.496   0.767   4.991 -1.3178  0.4133 -0.8447
 3294SOL    HW221519   1.579   0.738   4.881 -0.2988 -0.9883  1.2791
 3295SOL     OW21520   2.595   0.549  14.712  0.0176  0.1562 -0.0144
 3295SOL    HW121521   2.521   0.501  14.674 -0.1873  0.8606 -0.5171
 3295SOL    HW221522   2.607   0.607  14.636 -1.1756 -0.6821 -0.8385
 3296SOL     OW21523   3.454   0.799   4.507 -0.1597 -0.2882  0.9521
 3296SOL    HW121524   3.419   0.772   4.592  0.4954  0.3604  1.4200
 3296SOL    HW221525   3.546   0.802   4.532 -0.6965  2.4599  2.5939
 3297SOL     OW21526   2.470   2.864   4.303  0.0688 -0.3834 -0.1850
 3297SOL    HW121527   2.477   2.781   4.256 -1.3652  0.1840 -1.4115
 3297SOL    HW221528   2.557   2.882   4.338  0.2932 -0.5946 -0.6426
 3298SOL     OW21529   3.249   2.097   6.333  0.0583  0.5018  0.0473
 3298SOL    HW121530   3.321   2.156   6.354  0.5553 -0.1012  0.0294
 3298SOL    HW221531   3.286   2.070   6.249 -1.0348  2.2280 -1.0117
 3299SOL     OW21532   4.286   0.701   4.494  0.3342 -0.6062 -0.0801
 3299SOL    HW121533   4.202   0.656   4.496  0.1580 -0.3706 -2.5424
 3299SOL    HW221534   4.325   0.664   4.416 -0.9989  1.1202 -1.5798
 3300SOL     OW21535   4.388   1.289   3.886  0.6314  0.2007  0.4773
 3300SOL    HW121536   4.356   1.320   3.970  0.4941  0.3257  0.3778
 3300SOL    HW221537   4.385   1.195   3.906 -1.1972  0.4396  1.3385
 3301SOL     OW21538   2.417   0.740   5.972 -0.0712  0.0091  0.3005
 3301SOL    HW121539   2.439   0.759   6.063 -0.9622  1.2958  0.2447
 3301SOL    HW221540   2.340   0.793   5.952 -0.1587 -0.9154 -1.7731
 3302SOL     OW21541   4.598   3.032   6.345 -0.7280 -0.6428  0.0947
 3302SOL    HW121542   4.503   3.023   6.339 -0.9663 -0.6238  3.4669
 3302SOL    HW221543   4.618   2.966   6.279  2.4890  0.2072  0.2206
 3303SOL     OW21544   3.529   0.908  12.057  0.0576  0.0669 -0.4496
 3303SOL    HW121545   3.505   0.994  12.090  1.7248 -0.0939  1.2224
 3303SOL    HW221546   3.606   0.904  12.114 -1.4828 -0.4504  1.5870
 3304SOL     OW21547   1.068   1.538   5.846  0.8442  0.1863 -0.3806
 3304SOL    HW121548   0.988   1.576   5.884  1.7113 -0.8421  2.4425
 3304SOL    HW221549   1.050   1.444   5.848  2.7539 -0.1644  0.2319
 3305SOL     OW21550   3.907   3.534  15.481  0.3576 -0.0668  0.2255
 3305SOL    HW121551   3.877   3.548  15.391  0.4577 -0.9565  0.0574
 3305SOL    HW221552   3.922   3.624  15.511 -0.3005 -0.0225  0.4322
 3306SOL     OW21553   0.076   2.483   8.841  0.1941  0.2346  0.0950
 3306SOL    HW121554   0.030   2.564   8.818  0.0577  0.4050  0.9853
 3306SOL    HW221555   0.058   2.427   8.766  0.7140  0.5989 -0.3033
 3307SOL     OW21556   0.122   4.010   5.866 -0.3301  0.1935  0.0405
 3307SOL    HW121557   0.192   3.946   5.877 -1.8493 -1.3165  1.2120
 3307SOL    HW221558   0.043   3.959   5.888 -2.0807  2.2015 -1.6383
 3308SOL     OW21559   1.424   0.608  10.393  0.1683  0.2102  0.8047
 3308SOL    HW121560   1.334   0.616  10.422 -0.1266 -1.3740  0.3186
 3308SOL    HW221561   1.466   0.572  10.471  0.9093  0.6273  0.6046
 3309SOL     OW21562   4.688   2.573   2.390 -0.3467 -0.0234  0.3448
 3309SOL    HW121563   4.728   2.604   2.309  0.1489  0.3992  0.7511
 3309SOL    HW221564   4.594   2.579   2.374 -0.1124  2.7541 -0.0601
 3310SOL     OW21565   3.105   1.952   7.978  0.0855 -0.0126 -0.4488
 3310SOL    HW121566   3.014   1.939   8.006  0.1229  0.0431 -0.2998
 3310SOL    HW221567   3.162   1.952   8.054 -1.9526  0.9530  1.0682
 3311SOL     OW21568   2.174   1.867  13.372  0.3248  0.6193 -0.2727
 3311SOL    HW121569   2.269   1.854  13.366  0.0270 -1.3828 -0.8326
 3311SOL    HW221570   2.162   1.959  13.348 -0.4422  0.2442 -1.3284
 3312SOL     OW21571   0.048   2.502   4.038  0.1012  0.1799  0.0080
 3312SOL    HW121572   0.130   2.548   4.057 -0.6937  1.6525 -0.1711
 3312SOL    HW221573   0.020   2.469   4.123 -0.1386 -0.1941 -0.2126
 3313SOL     OW21574   0.378   3.673   1.335 -0.1269  0.0323 -0.1654
 3313SOL    HW121575   0.357   3.656   1.243  0.8364  3.1082 -0.9630
 3313SOL    HW221576   0.365   3.768   1.329 -0.7404  0.0799  1.7189
 3314SOL     OW21577   4.079   2.455  13.593  0.4742  0.2712 -0.2534
 3314SOL    HW121578   4.096   2.549  13.599 -1.9009  0.5676  1.8521
 3314SOL    HW221579   4.134   2.422  13.664 -0.3583  1.0357  0.7511
 3315SOL     OW21580   4.335   0.103   6.156 -0.1098 -0.1620  0.2636
 3315SOL    HW121581   4.426   0.115   6.128 -0.1101  2.3296  1.3536
 3315SOL    HW221582   4.317   0.197   6.165  0.9234  0.2230 -1.6257
 3316SOL     OW21583   0.331   1.815   4.414 -0.4212  0.7940  0.1853
 3316SOL    HW121584   0.422   1.820   4.443 -0.4702 -0.3703  0.5601
 3316SOL    HW221585   0.307   1.906   4.398 -0.9649  0.7298  0.6577
 3317SOL     OW21586   0.878   4.454   3.443 -0.1960 -0.0981 -0.6012
 3317SOL    HW121587   0.942   4.507   3.490 -1.8592 -0.0865  1.6579
 3317SOL    HW221588   0.869   4.511   3.368  1.0425  1.3527  0.3550
 3318SOL     OW21589   1.706   0.831   5.895  0.4014 -0.0135  0.7867
 3318SOL    HW121590   1.615   0.807   5.876  1.1829 -3.1861  1.0920
 3318SOL    HW221591   1.733   0.873   5.813 -2.4896 -2.5493 -1.4644
 3319SOL     OW21592   3.154   4.420   0.939  0.2080  0.9403 -0.2602
 3319SOL    HW121593   3.081   4.418   0.878 -1.2216 -0.4072  1.4744
 3319SOL    HW221594   3.225   4.367   0.903 -0.1187  0.3228 -0.0065
 3320SOL     OW21595   2.982   1.147  16.159 -0.1443 -0.3533  0.0064
 3320SOL    HW121596   2.954   1.091  16.231  1.6445 -0.2823  0.7465
 3320SOL    HW221597   2.898   1.179  16.125 -0.6740  0.0589  1.7353
 3321SOL     OW21598   0.948   2.047   0.023  0.5140 -0.3095 -0.4336
 3321SOL    HW121599   0.989   2.087  17.681  0.9673  3.3020  1.6917
 3321SOL    HW221600   0.974   1.955   0.010 -0.9087 -0.9510  1.3253
 3322SOL     OW21601   3.673   4.711   3.694 -1.2255  0.0650  0.7669
 3322SOL    HW121602   3.631   4.667   3.620  1.0599  0.6627 -0.8820
 3322SOL    HW221603   3.750   4.659   3.716 -0.0778  0.9053 -1.2951
 3323SOL     OW21604   2.691   3.677   4.710  0.2311  0.2559 -0.0695
 3323SOL    HW121605   2.647   3.749   4.666 -0.2723  0.3123  0.5243
 3323SOL    HW221606   2.725   3.728   4.784 -3.3329  0.8977  1.1108
 3324SOL     OW21607   0.825   4.013   0.309  0.5084  1.2284 -0.2180
 3324SOL    HW121608   0.877   3.948   0.358 -2.6325 -2.5418 -1.8832
 3324SOL    HW221609   0.834   4.080   0.376 -0.2675  1.6717 -0.5561
 3325SOL     OW21610   4.001   4.221   7.511  0.3519  0.4607 -0.1274
 3325SOL    HW121611   3.960   4.233   7.425  0.1796 -1.1833 -0.2579
 3325SOL    HW221612   3.943   4.161   7.557 -0.6308  1.9195  0.5723
 3326SOL     OW21613   0.133   3.476   2.100  0.4851  0.0619  0.7339
 3326SOL    HW121614   0.065   3.435   2.153  0.0380  0.5456  0.5239
 3326SOL    HW221615   0.206   3.414   2.094  0.3265  0.0333 -0.8077
 3327SOL     OW21616   2.497   1.080   7.647 -0.2165  0.4740 -0.6401
 3327SOL    HW121617   2.572   1.024   7.627 -0.3372 -0.0807  0.4862
 3327SOL    HW221618   2.425   1.019   7.629  0.5448 -0.7696  0.5007
 3328SOL     OW21619   4.497   3.707   4.078  0.2489  0.2293 -0.4380
 3328SOL    HW121620   4.551   3.675   4.005 -0.7134 -0.3483 -0.8956
 3328SOL    HW221621   4.422   3.745   4.031  0.3076  1.2423  0.2933
 3329SOL     OW21622   3.931   1.657   1.521 -0.0078 -0.0441  0.2777
 3329SOL    HW121623   4.001   1.607   1.481 -0.0823 -1.4289  1.9122
 3329SOL    HW221624   3.859   1.595   1.510  0.4654 -0.5755  0.2015
 3330SOL     OW21625   4.000   4.246   8.483 -0.1161 -0.1092  0.3590
 3330SOL    HW121626   4.004   4.322   8.540  0.4407  0.0454  0.1133
 3330SOL    HW221627   3.933   4.202   8.536 -0.8453  1.6837  0.9341
 3331SOL     OW21628   4.376   1.558   7.500 -0.2587  0.4296  0.2653
 3331SOL    HW121629   4.391   1.464   7.506  2.2204  0.7363 -1.1161
 3331SOL    HW221630   4.444   1.603   7.550 -1.0757 -0.0039  1.7538
 3332SOL     OW21631   2.977   0.010   5.596  0.1925 -0.2960  0.5944
 3332SOL    HW121632   2.948   4.704   5.514 -0.8151  0.8167  0.4115
 3332SOL    HW221633   2.920   4.695   5.656  0.3513 -0.3687  0.6884
 3333SOL     OW21634   4.527   1.646   6.916 -0.0604 -0.0335 -0.2170
 3333SOL    HW121635   4.482   1.713   6.865  0.0363 -0.5299 -0.9498
 3333SOL    HW221636   4.463   1.575   6.912 -0.3830  0.3983 -2.8513
 3334SOL     OW21637   2.268   1.439   0.928  0.1860  0.6190  0.2545
 3334SOL    HW121638   2.213   1.394   0.864 -0.1302 -1.0179  1.6669
 3334SOL    HW221639   2.209   1.510   0.952 -0.4009 -0.5974  2.4556
 3335SOL     OW21640   0.659   1.493   3.477 -0.2725  0.4247  0.1632
 3335SOL    HW121641   0.714   1.537   3.412  0.3730 -0.9434 -0.2116
 3335SOL    HW221642   0.652   1.552   3.553  2.1771 -0.0587  0.7723
 3336SOL     OW21643   2.992   2.767   1.773 -0.0630  0.0080  0.4315
 3336SOL    HW121644   3.029   2.688   1.734  0.0902 -0.7912  2.2085
 3336SOL    HW221645   2.979   2.821   1.694  0.9769 -0.0718  0.2002
 3337SOL     OW21646   1.344   1.983  16.005  0.0582  0.1747 -0.8938
 3337SOL    HW121647   1.404   2.025  15.944  2.7511 -0.8436  1.0865
 3337SOL    HW221648   1.275   2.050  16.009 -1.0733 -1.0913  0.7337
 3338SOL     OW21649   0.804   0.483  11.823  0.4854 -0.3277 -0.0365
 3338SOL    HW121650   0.897   0.496  11.804  0.1603  3.3537  0.8105
 3338SOL    HW221651   0.772   0.556  11.769  0.7242  0.0457  0.3241
 3339SOL     OW21652   0.739   1.843   2.096  0.3170 -0.1050 -0.1482
 3339SOL    HW121653   0.764   1.754   2.122 -0.2255 -0.0090  0.6694
 3339SOL    HW221654   0.673   1.829   2.028  1.4514  0.5962 -1.4095
 3340SOL     OW21655   4.377   4.628  15.250  0.0879  0.3075 -0.7318
 3340SOL    HW121656   4.357   4.704  15.305 -0.5894  0.4458 -1.1666
 3340SOL    HW221657   4.296   4.638  15.200 -0.3824  3.0861  0.6076
 3341SOL     OW21658   0.602   0.996   8.386  0.2757  0.3113  0.4465
 3341SOL    HW121659   0.678   1.019   8.332  1.3803 -0.9968  1.4191
 3341SOL    HW221660   0.531   1.026   8.329  1.3178 -0.3558 -1.2125
 3342SOL     OW21661   2.728   1.463   9.096  0.0052 -0.1336 -0.4341
 3342SOL    HW121662   2.780   1.393   9.057 -1.1172  0.2812 -2.6870
 3342SOL    HW221663   2.641   1.426   9.107  0.2477 -0.0550  1.6655
 3343SOL     OW21664   0.424   3.937   7.668  0.3127 -0.2188  0.0550
 3343SOL    HW121665   0.356   4.003   7.658 -1.0264 -1.4474  0.9501
 3343SOL    HW221666   0.494   3.997   7.693  0.3331  0.0669 -0.6820
 3344SOL     OW21667   2.453   4.023  13.820 -0.0800 -0.3063 -0.2849
 3344SOL    HW121668   2.483   3.933  13.836 -0.9834 -0.6460 -0.4654
 3344SOL    HW221669   2.520   4.063  13.765  0.3282 -0.1788  0.3175
 3345SOL     OW21670   2.349   3.942   6.506  0.0694 -0.3556 -0.0953
 3345SOL    HW121671   2.401   3.955   6.586  0.8089 -1.3841 -0.4128
 3345SOL    HW221672   2.315   3.855   6.525  0.5417 -0.2952  1.0267
 3346SOL     OW21673   2.796   1.662   6.958 -0.3295  0.0142 -0.5410
 3346SOL    HW121674   2.745   1.741   6.940  2.4881  2.0141  0.2417
 3346SOL    HW221675   2.733   1.612   7.010 -1.2489  1.0416 -0.6675
 3347SOL     OW21676   4.074   3.021   4.128 -0.2062  0.2071 -0.1388
 3347SOL    HW121677   3.983   3.007   4.155 -0.4342 -1.2100 -1.6378
 3347SOL    HW221678   4.114   2.936   4.147  0.1004  0.4066  0.1103
 3348SOL     OW21679   4.047   3.897  12.116  1.1101  0.4252  0.1229
 3348SOL    HW121680   3.968   3.845  12.129  2.1748 -1.7315 -1.7503
 3348SOL    HW221681   4.012   3.981  12.089  0.9514  0.8670  1.7229
 3349SOL     OW21682   1.452   3.694   7.342  0.2723  0.2632  0.0841
 3349SOL    HW121683   1.367   3.658   7.365 -0.4937  1.3981 -0.9631
 3349SOL    HW221684   1.496   3.729   7.420  3.5671  1.7565 -2.4222
 3350SOL     OW21685   1.936   3.249  11.347  0.5614  0.4245  0.2787
 3350SOL    HW121686   1.901   3.197  11.275  0.0856  1.1364 -0.0053
 3350SOL    HW221687   2.018   3.202  11.361 -0.4661 -0.9172  1.7924
 3351SOL     OW21688   3.626   0.968   0.215  0.7399  0.2532  0.5384
 3351SOL    HW121689   3.536   0.956   0.184  1.1220  1.5545 -1.0388
 3351SOL    HW221690   3.677   0.996   0.140 -1.8392 -1.5564 -1.8921
 3352SOL     OW21691   2.466   3.486   1.759 -0.1270 -0.4330 -0.2063
 3352SOL    HW121692   2.415   3.407   1.738 -0.4364 -0.1391 -0.5578
 3352SOL    HW221693   2.415   3.560   1.725 -0.2468 -1.5526 -2.4804
 3353SOL     OW21694   2.308   1.233   8.277 -0.0861 -0.5435  0.0381
 3353SOL    HW121695   2.393   1.264   8.248  0.3195 -1.7599 -0.0703
 3353SOL    HW221696   2.279   1.284   8.353 -0.2610 -0.6125  0.0180
 3354SOL     OW21697   4.152   4.654  15.849  0.2266  0.0522 -0.5362
 3354SOL    HW121698   4.238   4.685  15.820  0.4992 -1.2934 -1.1604
 3354SOL    HW221699   4.175   4.562  15.834  1.6196  0.2861  0.1560
 3355SOL     OW21700   1.104   4.303  16.638  0.4049 -0.1894 -0.1474
 3355SOL    HW121701   1.026   4.357  16.634  2.1103  2.2126 -0.4727
 3355SOL    HW221702   1.176   4.354  16.601  0.3907 -0.1635 -0.1387
 3356SOL     OW21703   1.657   0.568  13.039 -0.7025 -0.0032 -0.7548
 3356SOL    HW121704   1.646   0.607  12.953 -0.1549 -0.4499 -1.0331
 3356SOL    HW221705   1.608   0.628  13.095  0.2355  0.6397 -0.6151
 3357SOL     OW21706   1.332   0.551   9.343 -0.1600 -0.6326 -0.0043
 3357SOL    HW121707   1.255   0.507   9.308 -1.5819  1.9993 -0.2055
 3357SOL    HW221708   1.392   0.528   9.272  1.5699 -0.0011  1.2580
 3358SOL     OW21709   3.459   3.962   2.535  0.6125  0.2979 -0.1354
 3358SOL    HW121710   3.365   3.981   2.533  0.2603 -1.5581 -0.5806
 3358SOL    HW221711   3.482   4.036   2.479 -0.5068 -1.1059 -2.4575
 3359SOL     OW21712   1.833   0.301   0.869  0.1529  0.5583 -0.2765
 3359SOL    HW121713   1.819   0.392   0.897  1.2575  0.8777 -0.7797
 3359SOL    HW221714   1.887   0.264   0.939 -0.7167 -0.5401 -0.1928
 3360SOL     OW21715   1.907   4.543   9.253  0.0704  0.2742 -0.5610
 3360SOL    HW121716   1.932   4.568   9.164  0.1606  1.0701 -0.3085
 3360SOL    HW221717   1.822   4.501   9.236 -0.4771 -0.2613  3.4254
 3361SOL     OW21718   4.508   1.562  10.019  0.1700  0.0623  0.1792
 3361SOL    HW121719   4.445   1.555   9.947 -0.1392 -1.0711  0.5534
 3361SOL    HW221720   4.464   1.632  10.068  0.4732 -0.2106  0.8427
 3362SOL     OW21721   2.674   0.448   2.377  0.3303  0.1140 -0.6156
 3362SOL    HW121722   2.634   0.534   2.372 -1.1640 -0.5345  0.0943
 3362SOL    HW221723   2.610   0.398   2.428 -2.6914  2.9424 -1.6995
 3363SOL     OW21724   3.338   0.929  13.625  0.6277 -0.6721  0.6235
 3363SOL    HW121725   3.372   0.888  13.704 -0.4271 -2.3852  0.1709
 3363SOL    HW221726   3.262   0.877  13.599  1.0751 -0.8052 -0.3777
 3364SOL     OW21727   3.213   1.678   3.198  0.2974 -0.2563  0.3806
 3364SOL    HW121728   3.193   1.604   3.256 -0.2151 -1.1001 -0.8779
 3364SOL    HW221729   3.157   1.751   3.223 -0.5245 -0.1583 -1.7226
 3365SOL     OW21730   2.725   3.814   4.332  0.2056  0.0505 -0.2433
 3365SOL    HW121731   2.774   3.762   4.268 -1.1492 -0.2090 -1.0610
 3365SOL    HW221732   2.778   3.797   4.410 -0.8936  1.9175  0.9088
 3366SOL     OW21733   3.818   1.027   7.655  0.4952 -0.3134  0.0118
 3366SOL    HW121734   3.789   1.001   7.567 -0.5912 -0.6619  0.4671
 3366SOL    HW221735   3.878   0.956   7.677  1.5861  0.6937  0.2456
 3367SOL     OW21736   0.641   2.875  15.683  0.1568 -0.4590  0.3875
 3367SOL    HW121737   0.700   2.925  15.739  0.1124 -1.1091  1.0193
 3367SOL    HW221738   0.646   2.905  15.593  1.8388 -1.2750  0.2075
 3368SOL     OW21739   2.717   3.440   3.703  0.3397  0.0867 -0.0145
 3368SOL    HW121740   2.661   3.372   3.742  0.4428  0.2414  0.3963
 3368SOL    HW221741   2.664   3.519   3.710 -0.5085 -0.3597 -1.3005
 3369SOL     OW21742   3.262   1.479   7.269 -0.0127 -0.2152 -0.3586
 3369SOL    HW121743   3.245   1.424   7.346  0.2404  0.2328  0.0198
 3369SOL    HW221744   3.217   1.427   7.202  1.8850 -0.6085 -1.3134
 3370SOL     OW21745   2.267   2.785  15.287  0.1322 -0.0221 -0.7115
 3370SOL    HW121746   2.361   2.799  15.280  0.1855 -1.4409 -2.7873
 3370SOL    HW221747   2.237   2.796  15.197  1.3959  0.2123 -1.0977
 3371SOL     OW21748   0.131   1.630   5.316  0.2376  0.0040 -0.3254
 3371SOL    HW121749   0.208   1.683   5.338  0.0847 -1.3519  3.3555
 3371SOL    HW221750   0.077   1.690   5.265 -0.0336 -0.0905 -0.1462
 3372SOL     OW21751   4.293   1.074   9.696 -0.2630  0.9466  0.6908
 3372SOL    HW121752   4.239   1.086   9.774  1.6672  0.3067  2.1330
 3372SOL    HW221753   4.274   0.984   9.669  0.1137  0.7924  0.9403
 3373SOL     OW21754   2.176   2.636   7.391  0.0929 -0.2739 -0.2465
 3373SOL    HW121755   2.239   2.585   7.443 -0.1873 -0.7668 -0.3908
 3373SOL    HW221756   2.097   2.588   7.414 -1.2179  2.9193  1.9128
 3374SOL     OW21757   3.595   1.955   3.612 -0.0195 -0.1809 -0.1019
 3374SOL    HW121758   3.536   1.939   3.686  1.7405  0.9097  1.5039
 3374SOL    HW221759   3.567   1.886   3.552  1.5794  0.8015 -1.9753
 3375SOL     OW21760   1.646   2.390   5.604 -0.0108  0.0373 -0.6081
 3375SOL    HW121761   1.573   2.446   5.581  1.2452  1.8089 -0.2933
 3375SOL    HW221762   1.602   2.308   5.626  0.9442 -0.4681 -0.5448
 3376SOL     OW21763   3.004   2.266   4.574  0.2643 -0.1838  0.4398
 3376SOL    HW121764   2.919   2.306   4.552  0.5720  1.5413  2.4030
 3376SOL    HW221765   2.980   2.178   4.604 -2.4036  0.4283  0.1299
 3377SOL     OW21766   0.881   1.600  11.533 -0.5435  0.3767 -0.0887
 3377SOL    HW121767   0.933   1.521  11.517  1.0144  1.3741  0.1680
 3377SOL    HW221768   0.921   1.653  11.464 -0.7949 -0.3353 -0.7915
 3378SOL     OW21769   2.290   0.959   1.157  0.4117 -0.3671 -0.5266
 3378SOL    HW121770   2.276   1.048   1.189 -2.1024 -0.3500 -1.6010
 3378SOL    HW221771   2.243   0.911   1.225  0.9882  1.2028  0.9579
 3379SOL     OW21772   2.522   2.784  15.144  0.3986 -0.1305 -0.1017
 3379SOL    HW121773   2.501   2.800  15.052 -0.2946 -1.2288 -0.1301
 3379SOL    HW221774   2.602   2.734  15.131  0.4138 -0.3400  0.7922
 3380SOL     OW21775   1.530   1.626   3.878  0.2995  0.0965 -0.1069
 3380SOL    HW121776   1.540   1.566   3.804  0.1501 -0.5224  0.3725
 3380SOL    HW221777   1.527   1.563   3.951  0.8634  1.6034  1.2086
 3381SOL     OW21778   0.519   2.558   2.681  0.0977  0.1088 -0.1115
 3381SOL    HW121779   0.450   2.592   2.738  1.7367  1.5551  1.0215
 3381SOL    HW221780   0.464   2.485   2.652  0.5599 -0.9410  1.6169
 3382SOL     OW21781   0.155   3.948   3.015 -0.8363 -0.4922 -0.0308
 3382SOL    HW121782   0.069   3.988   3.023 -0.6317 -0.1603  0.5272
 3382SOL    HW221783   0.144   3.902   3.099 -0.3513  1.8381  1.2944
 3383SOL     OW21784   3.982   2.657  11.074 -0.2193  0.0169 -0.1227
 3383SOL    HW121785   4.050   2.723  11.069 -0.4184  0.3017  1.0408
 3383SOL    HW221786   3.973   2.637  11.167 -0.7829  0.8150 -0.0084
 3384SOL     OW21787   3.753   3.573   1.817  0.5080  0.2064  0.1793
 3384SOL    HW121788   3.842   3.546   1.836 -0.2094 -1.3241  1.3762
 3384SOL    HW221789   3.758   3.566   1.722  0.1726 -2.6990  0.3818
 3385SOL     OW21790   0.481   1.535   7.589  0.1115 -0.3525  0.2464
 3385SOL    HW121791   0.485   1.629   7.609  0.3821  0.2419 -2.5314
 3385SOL    HW221792   0.554   1.530   7.527 -0.5267 -0.4580 -0.4938
 3386SOL     OW21793   2.372   4.486   0.964  0.1498  0.1521  0.2429
 3386SOL    HW121794   2.318   4.565   0.966  2.3737  1.6218  2.3367
 3386SOL    HW221795   2.322   4.420   1.012 -1.4937  0.8428 -0.5031
 3387SOL     OW21796   2.588   1.710   4.463  0.3546  0.3351 -0.2699
 3387SOL    HW121797   2.497   1.741   4.459  0.7127  1.6822  1.7946
 3387SOL    HW221798   2.576   1.615   4.460  0.7389  0.3247 -1.2087
 3388SOL     OW21799   1.134   3.366  12.462 -0.3505  0.3500  0.7218
 3388SOL    HW121800   1.097   3.388  12.376  0.1024  1.7990  0.9022
 3388SOL    HW221801   1.059   3.373  12.520 -0.6958 -1.2065  0.4853
 3389SOL     OW21802   2.408   3.589   1.374  0.5451 -0.7521 -0.7094
 3389SOL    HW121803   2.385   3.608   1.465 -0.2401  0.9162 -1.2640
 3389SOL    HW221804   2.485   3.534   1.385  2.1817  1.7127  0.0053
 3390SOL     OW21805   2.956   4.025   4.017  0.0888  0.1700 -0.6399
 3390SOL    HW121806   3.038   4.022   4.065 -0.0394  1.2665 -0.3450
 3390SOL    HW221807   2.929   3.934   4.032  0.6900  0.4379  1.9346
 3391SOL     OW21808   4.689   2.578   7.627 -0.3442 -0.6431 -0.2347
 3391SOL    HW121809   0.010   2.633   7.570 -1.8634 -0.8458 -1.8940
 3391SOL    HW221810   4.599   2.581   7.595 -0.9456 -1.7783  1.3715
 3392SOL     OW21811   2.544   1.306   8.453 -0.2617 -0.1322  0.2795
 3392SOL    HW121812   2.556   1.313   8.358 -0.1747  0.1803  0.3143
 3392SOL    HW221813   2.617   1.364   8.473  0.9284 -1.2706 -0.7864
 3393SOL     OW21814   3.444   2.939  17.292  0.2560  0.3756 -0.0231
 3393SOL    HW121815   3.502   2.958  17.366 -2.5716 -0.3634  2.3559
 3393SOL    HW221816   3.377   3.006  17.300  0.1596  0.1375  1.1201
 3394SOL     OW21817   1.146   3.285   7.103 -0.2554  0.0824  0.1377
 3394SOL    HW121818   1.179   3.196   7.102 -2.7082 -0.8278  0.8035
 3394SOL    HW221819   1.224   3.340   7.108 -0.6244  0.3561  2.4805
 3395SOL     OW21820   1.881   3.721   4.196 -0.4459 -0.1814  0.1491
 3395SOL    HW121821   1.962   3.761   4.228  0.3065 -1.0121 -0.7350
 3395SOL    HW221822   1.918   3.641   4.159 -0.1513 -0.7455  1.6627
 3396SOL     OW21823   0.738   4.490  15.498 -0.6443  0.1174  0.7739
 3396SOL    HW121824   0.729   4.506  15.592 -1.5564  2.9791  0.1978
 3396SOL    HW221825   0.790   4.566  15.471  0.0137 -0.2592  0.9839
 3397SOL     OW21826   3.424   1.434  16.421  0.8603 -0.1375  0.3196
 3397SOL    HW121827   3.519   1.444  16.423  0.8063  0.3428  0.5251
 3397SOL    HW221828   3.402   1.506  16.361 -2.9790 -1.6727 -0.0986
 3398SOL     OW21829   0.835   0.141  14.364  0.2056 -0.8599  0.2129
 3398SOL    HW121830   0.863   0.232  14.368 -2.8604  0.0892 -0.2553
 3398SOL    HW221831   0.888   0.099  14.297  0.7232 -1.4038  0.9532
 3399SOL     OW21832   4.386   1.743   5.640 -0.2431 -0.1983 -0.2910
 3399SOL    HW121833   4.321   1.799   5.598  1.2705  1.1508 -0.7894
 3399SOL    HW221834   4.467   1.778   5.604  1.1185 -2.6839  0.3428
 3400SOL     OW21835   3.968   2.569   8.801  0.5111  0.2641 -0.4437
 3400SOL    HW121836   3.899   2.625   8.836  0.3320  0.3328 -0.9022
 3400SOL    HW221837   4.028   2.634   8.766  1.1083 -0.0385  0.0180
 3401SOL     OW21838   4.565   1.148   6.583  0.6986  0.1082 -0.2525
 3401SOL    HW121839   4.560   1.053   6.592  1.3085  0.1716  0.6981
 3401SOL    HW221840   4.628   1.178   6.649 -0.4308 -1.0983  1.3730
 3402SOL     OW21841   4.284   2.598   1.344  0.9291 -0.1368  0.1420
 3402SOL    HW121842   4.208   2.650   1.371  0.7434  1.5448 -3.5298
 3402SOL    HW221843   4.238   2.517   1.322  1.9370 -0.3992 -0.9913
 3403SOL     OW21844   4.447   3.772   5.842 -0.5060  0.7939 -0.1911
 3403SOL    HW121845   4.397   3.822   5.779 -1.0081 -1.2444 -1.4157
 3403SOL    HW221846   4.443   3.683   5.808  0.8986  1.1045 -1.1951
 3404SOL     OW21847   2.979   3.012   3.394  0.5223  0.2471 -0.1578
 3404SOL    HW121848   3.002   2.968   3.313  1.3670  1.2801 -0.4888
 3404SOL    HW221849   2.884   3.004   3.407  0.8004 -0.6311  1.2974
 3405SOL     OW21850   3.488   3.986  10.869  0.2842 -0.5401 -0.0796
 3405SOL    HW121851   3.563   4.010  10.923 -0.6003  1.6629  0.1580
 3405SOL    HW221852   3.522   3.911  10.821 -2.3221  0.2811 -3.1931
 3406SOL     OW21853   0.914   0.850   5.115 -0.3049  0.6067 -0.0886
 3406SOL    HW121854   0.843   0.814   5.168  1.2503 -0.1415  1.4936
 3406SOL    HW221855   0.881   0.836   5.026 -0.0276  0.5349 -0.1798
 3407SOL     OW21856   0.583   1.829   2.452 -0.0306  0.4098 -0.0233
 3407SOL    HW121857   0.543   1.906   2.411  0.6223  0.2763 -0.9043
 3407SOL    HW221858   0.513   1.772   2.485  1.5625 -0.3946  1.9811
 3408SOL     OW21859   2.611   0.933  14.158  0.2503  0.3531 -0.0836
 3408SOL    HW121860   2.577   1.022  14.173  2.4357  0.9150  1.5055
 3408SOL    HW221861   2.595   0.900  14.247 -0.7080  2.2562  0.4564
 3409SOL     OW21862   2.005   4.211   3.123 -0.3242 -0.0097  0.1302
 3409SOL    HW121863   1.913   4.235   3.136  0.0196 -1.2127  4.7711
 3409SOL    HW221864   2.019   4.142   3.188  1.0415  1.3711  1.2957
 3410SOL     OW21865   1.269   1.712   4.357 -0.4312 -0.4081  0.5427
 3410SOL    HW121866   1.318   1.638   4.391  0.4590  1.0100  2.3828
 3410SOL    HW221867   1.181   1.700   4.395 -0.1475  1.2091  1.7115
 3411SOL     OW21868   2.489   3.871   1.589  0.1168  0.7717 -0.2608
 3411SOL    HW121869   2.400   3.837   1.601 -0.6335  3.1813  0.9944
 3411SOL    HW221870   2.494   3.947   1.647 -3.0892  0.6531  0.1757
 3412SOL     OW21871   2.402   4.298   0.443 -0.2148  0.5263 -0.4988
 3412SOL    HW121872   2.335   4.278   0.508  1.8756 -2.0131  0.9045
 3412SOL    HW221873   2.384   4.392   0.439  0.1363  0.4750 -2.9445
 3413SOL     OW21874   3.667   0.315   7.456  0.7408 -0.0619 -0.2078
 3413SOL    HW121875   3.717   0.254   7.402 -0.2190  0.1065 -1.2908
 3413SOL    HW221876   3.697   0.272   7.536 -0.0009  0.4712  0.3523
 3414SOL     OW21877   0.902   1.854   7.336  0.1244  0.5282 -0.6838
 3414SOL    HW121878   0.864   1.939   7.314  1.3913  1.3026  0.1188
 3414SOL    HW221879   0.996   1.870   7.324 -0.1356  1.8732 -0.9618
 3415SOL     OW21880   2.094   4.454   0.371  0.2156 -0.4572  0.3875
 3415SOL    HW121881   2.103   4.549   0.377 -1.1050 -0.1945 -1.7608
 3415SOL    HW221882   2.163   4.431   0.308 -1.1301 -0.7978 -0.9537
 3416SOL     OW21883   0.669   1.530   5.373 -0.5212  0.5295 -0.1153
 3416SOL    HW121884   0.600   1.464   5.374 -0.9470  0.9819  0.8091
 3416SOL    HW221885   0.633   1.599   5.318 -1.8733  0.2352  0.4069
 3417SOL     OW21886   2.098   2.828   7.570  0.1480  0.0332  0.1339
 3417SOL    HW121887   2.020   2.848   7.518  0.6969  0.4564 -0.5378
 3417SOL    HW221888   2.139   2.756   7.522  0.9316 -0.5420  1.6633
 3418SOL     OW21889   1.395   3.054   7.242 -0.2468 -0.5913 -0.1163
 3418SOL    HW121890   1.377   3.125   7.304  0.7263 -0.9026  0.5149
 3418SOL    HW221891   1.445   3.107   7.180  0.6907 -0.3972  0.8124
 3419SOL     OW21892   4.320   1.651  13.113 -0.2472 -0.0747 -0.4432
 3419SOL    HW121893   4.411   1.670  13.134  0.6394 -0.6071 -3.8859
 3419SOL    HW221894   4.289   1.739  13.136 -0.8805 -1.3030  3.3779
 3420SOL     OW21895   1.045   1.495   9.069 -0.4988 -0.2918 -0.2792
 3420SOL    HW121896   1.037   1.531   8.981  0.3092 -1.6997 -0.9315
 3420SOL    HW221897   1.017   1.404   9.056 -1.7526 -0.0771  0.8642
 3421SOL     OW21898   2.173   2.608   9.183  0.0928 -0.2382  0.3256
 3421SOL    HW121899   2.150   2.685   9.131  0.0693  0.7335  1.7933
 3421SOL    HW221900   2.088   2.566   9.191  0.3141 -0.2252  2.5911
 3422SOL     OW21901   4.038   4.387   2.821  0.1699  0.4840  0.3031
 3422SOL    HW121902   4.031   4.292   2.811  0.1660  0.2821  2.3029
 3422SOL    HW221903   3.943   4.401   2.829 -0.0678 -0.4612 -0.8013
 3423SOL     OW21904   3.936   2.846  15.074 -0.0402  0.1698  0.5828
 3423SOL    HW121905   3.960   2.762  15.034 -1.2902  0.1482 -0.1008
 3423SOL    HW221906   3.958   2.822  15.165  2.9625 -1.6068 -0.6043
 3424SOL     OW21907   3.290   1.440   3.770 -0.0812  1.2219  0.1233
 3424SOL    HW121908   3.218   1.488   3.811 -2.9166 -0.7619 -2.4185
 3424SOL    HW221909   3.312   1.383   3.844  0.1175 -0.4944 -1.2444
 3425SOL     OW21910   0.690   3.161   4.542 -0.2559 -0.8054 -0.8165
 3425SOL    HW121911   0.768   3.143   4.593 -0.0854  0.9013 -0.4681
 3425SOL    HW221912   0.721   3.181   4.454 -2.7617 -1.8638 -1.9464
 3426SOL     OW21913   4.046   1.798  15.908 -0.6022  0.5692  0.0182
 3426SOL    HW121914   4.028   1.704  15.910  1.1723  0.2118 -1.2399
 3426SOL    HW221915   3.956   1.828  15.889 -0.8809  0.5543  1.3018
 3427SOL     OW21916   3.100   3.487   6.683  0.8632  0.7840 -0.6404
 3427SOL    HW121917   3.088   3.514   6.592 -1.0250 -1.9217 -1.2198
 3427SOL    HW221918   3.032   3.529   6.736  2.1375 -1.4777  2.7700
 3428SOL     OW21919   3.159   4.671  12.205 -0.3053  0.5123  0.5639
 3428SOL    HW121920   3.194   0.017  12.165  0.5201 -0.9549 -1.6520
 3428SOL    HW221921   3.113   4.644  12.126  1.1915  2.3286 -0.9178
 3429SOL     OW21922   4.104   3.549  10.874 -0.1291  0.3682  0.0088
 3429SOL    HW121923   4.118   3.459  10.901 -0.5707 -0.2712 -1.8454
 3429SOL    HW221924   4.192   3.575  10.846  0.2104  0.8296  1.4889
 3430SOL     OW21925   4.367   2.287   1.675 -0.0655 -0.3925  0.4074
 3430SOL    HW121926   4.404   2.230   1.743  0.7193 -2.5067 -1.8018
 3430SOL    HW221927   4.278   2.311   1.702  0.7431 -0.4914  3.2540
 3431SOL     OW21928   2.578   1.275  12.362 -0.1396 -0.0597 -0.1486
 3431SOL    HW121929   2.527   1.314  12.291 -0.0716 -1.7161 -1.1167
 3431SOL    HW221930   2.542   1.187  12.350 -1.2273  0.3060  0.4470
 3432SOL     OW21931   1.939   1.699   4.942  0.2503 -0.2056  0.3926
 3432SOL    HW121932   1.950   1.700   5.037  0.8039 -1.5675  0.3521
 3432SOL    HW221933   1.937   1.605   4.924  2.1560  0.2335 -2.1661
 3433SOL     OW21934   4.527   0.605   7.073  0.6870  0.0717  0.1851
 3433SOL    HW121935   4.535   0.654   6.990 -0.4090 -0.5222 -0.2690
 3433SOL    HW221936   4.462   0.652   7.125 -1.2855 -2.2988 -0.1376
 3434SOL     OW21937   3.560   2.525  12.371 -0.0078  0.4015  0.0591
 3434SOL    HW121938   3.623   2.579  12.323 -0.1237 -0.6081 -1.2234
 3434SOL    HW221939   3.498   2.509  12.300 -0.3540 -0.8240  0.6420
 3435SOL     OW21940   3.678   2.196   7.250 -0.0978 -0.3189 -0.2026
 3435SOL    HW121941   3.671   2.142   7.170  1.5249 -1.3603  0.3519
 3435SOL    HW221942   3.639   2.276   7.216 -0.4383 -1.1229 -1.7061
 3436SOL     OW21943   2.370   3.048   3.371 -0.0342  0.2741 -0.0767
 3436SOL    HW121944   2.432   3.112   3.404  0.9921 -0.0288 -1.4271
 3436SOL    HW221945   2.299   3.092   3.324  1.3092  0.0826 -2.2936
 3437SOL     OW21946   3.443   4.507  11.326  0.1099  0.4564 -0.4189
 3437SOL    HW121947   3.426   4.441  11.393  0.4076 -4.0725 -4.7760
 3437SOL    HW221948   3.368   4.566  11.336 -0.1666 -0.0135  0.3288
 3438SOL     OW21949   1.857   0.657   0.713 -0.0150 -0.7918  0.6182
 3438SOL    HW121950   1.810   0.694   0.639 -0.9695 -2.1918  0.5077
 3438SOL    HW221951   1.907   0.586   0.673 -1.9771 -2.5085  1.1469
 3439SOL     OW21952   0.634   1.843  12.968 -0.2414  0.2044  0.1509
 3439SOL    HW121953   0.571   1.823  12.899  0.8197  1.8313 -1.2772
 3439SOL    HW221954   0.610   1.777  13.034 -0.4298  1.5493  1.4258
 3440SOL     OW21955   2.444   3.134   6.956  0.4439  0.9372  0.2911
 3440SOL    HW121956   2.351   3.149   6.938  0.5375  1.2409  0.0591
 3440SOL    HW221957   2.469   3.217   6.998  1.9668 -0.9621  3.1569
 3441SOL     OW21958   1.464   1.677   5.548  0.9298 -0.0373 -0.1682
 3441SOL    HW121959   1.439   1.768   5.531 -1.5918 -0.5918  0.5093
 3441SOL    HW221960   1.480   1.673   5.642  2.8159 -1.8194 -0.5636
 3442SOL     OW21961   4.319   3.010   6.386  0.1039 -0.4795  0.5702
 3442SOL    HW121962   4.249   3.050   6.335  0.4459 -0.9339 -0.2462
 3442SOL    HW221963   4.289   2.919   6.390  0.7782 -0.7370 -0.4145
 3443SOL     OW21964   3.385   2.570   2.760 -0.1666 -0.2199  0.0205
 3443SOL    HW121965   3.316   2.550   2.697 -0.1108  0.8105 -0.3576
 3443SOL    HW221966   3.437   2.490   2.774  0.6761  0.5100  1.1141
 3444SOL     OW21967   0.074   2.036   2.705 -0.4166 -0.2586  0.0693
 3444SOL    HW121968   0.046   2.070   2.621  0.0612  0.2158  0.1034
 3444SOL    HW221969   0.011   2.069   2.769  0.6180  1.1289  0.3597
 3445SOL     OW21970   0.081   0.664  11.685  0.1712 -0.2868  0.0094
 3445SOL    HW121971   0.061   0.685  11.777  0.6796  2.1150 -0.4354
 3445SOL    HW221972   0.176   0.663  11.681  0.1625 -0.8399 -0.0529
 3446SOL     OW21973   0.962   0.855  16.917 -0.0554 -0.1957 -0.3279
 3446SOL    HW121974   1.026   0.853  16.988 -0.0794 -0.5177 -0.3135
 3446SOL    HW221975   1.030   0.864  16.850  1.3899 -0.2197  1.1502
 3447SOL     OW21976   2.714   2.906   3.728 -0.3224 -0.2596 -0.2204
 3447SOL    HW121977   2.628   2.935   3.759  1.2574  2.6555  1.5139
 3447SOL    HW221978   2.715   2.936   3.637  1.5809  1.6669  0.4229
 3448SOL     OW21979   2.390   3.784   7.208 -0.7695  0.5410 -0.1964
 3448SOL    HW121980   2.364   3.748   7.292  3.4751  0.6147  1.1571
 3448SOL    HW221981   2.485   3.798   7.215 -0.5141 -0.6211 -1.2725
 3449SOL     OW21982   4.726   1.125  17.590  0.2703 -0.5110 -0.5065
 3449SOL    HW121983   4.701   1.216  17.606 -0.6888 -1.3769  2.7448
 3449SOL    HW221984   0.081   1.146  17.560  0.1662 -0.2823 -0.6512
 3450SOL     OW21985   4.105   2.435   4.491  0.4651 -0.2525  0.6170
 3450SOL    HW121986   4.137   2.354   4.451  0.1655  0.2391 -0.6200
 3450SOL    HW221987   4.131   2.415   4.581  0.8234  3.2912  1.3064
 3451SOL     OW21988   3.383   3.756   7.574  0.1609  0.5278 -0.4834
 3451SOL    HW121989   3.314   3.690   7.582  0.0878  0.9281  2.2103
 3451SOL    HW221990   3.401   3.759   7.480 -0.8946 -0.5379 -0.7197
 3452SOL     OW21991   2.536   2.709  11.371 -0.1492  0.0348 -0.3634
 3452SOL    HW121992   2.538   2.632  11.315  2.2926  0.2767 -0.6059
 3452SOL    HW221993   2.576   2.671  11.449  0.4250 -2.6148 -1.9480
 3453SOL     OW21994   1.413   3.770   8.838 -0.6871  0.0722 -0.4379
 3453SOL    HW121995   1.322   3.784   8.865 -0.6477 -1.2978  0.4788
 3453SOL    HW221996   1.466   3.803   8.911  0.0959 -1.9693 -0.0691
 3454SOL     OW21997   1.274   1.650   6.878  0.2950  0.0530 -0.4416
 3454SOL    HW121998   1.272   1.684   6.789  0.6269 -2.4955 -1.4237
 3454SOL    HW221999   1.350   1.592   6.885  1.2345  1.0902 -2.0978
 3455SOL     OW22000   0.823   4.693   9.953  0.3857 -0.1280 -0.1708
 3455SOL    HW122001   0.728   4.695   9.943  0.2264 -1.0082  1.1357
 3455SOL    HW222002   0.836   0.038  10.006  0.7154 -3.0655  4.1149
 3456SOL     OW22003   1.126   4.469   2.961 -0.5451  0.5543  0.0026
 3456SOL    HW122004   1.057   4.434   2.905 -0.4606 -0.2035  0.3832
 3456SOL    HW222005   1.090   4.550   2.998  0.5518  2.4882 -3.1603
 3457SOL     OW22006   3.946   2.430  15.589  0.5843 -0.2836 -0.2691
 3457SOL    HW122007   3.946   2.343  15.551 -0.1621 -0.7043  0.7017
 3457SOL    HW222008   3.852   2.444  15.578  0.2230 -1.3970  1.4924
 3458SOL     OW22009   1.066   4.353   7.747  0.0508 -0.1211  0.1779
 3458SOL    HW122010   0.999   4.399   7.697  0.6658  1.2313  0.6129
 3458SOL    HW222011   1.139   4.339   7.686  0.0138 -0.4912  0.2203
 3459SOL     OW22012   0.540   1.588   6.224  0.3877 -0.3453  0.1462
 3459SOL    HW122013   0.494   1.603   6.141  0.8279  1.2919  0.1951
 3459SOL    HW222014   0.480   1.633   6.284  1.2817  0.6945  0.2407
 3460SOL     OW22015   1.658   4.453   4.143 -0.1210  0.5954 -0.0637
 3460SOL    HW122016   1.746   4.419   4.158  0.0227  0.7916 -0.4585
 3460SOL    HW222017   1.671   4.535   4.095  0.2529  1.6001  1.7940
 3461SOL     OW22018   0.094   2.929   3.025  0.3769  0.7541  0.2487
 3461SOL    HW122019   0.099   3.009   3.077  0.1302  1.5882 -1.0116
 3461SOL    HW222020   0.133   2.954   2.941  0.3467  1.8980  0.5684
 3462SOL     OW22021   2.896   0.905   3.493 -0.0897  0.0890 -0.0842
 3462SOL    HW122022   2.916   0.972   3.427 -1.7371  1.8497  1.2053
 3462SOL    HW222023   2.870   0.830   3.439 -0.8815 -0.1702  0.6547
 3463SOL     OW22024   1.793   0.196   8.653 -0.1920 -0.1316 -0.0310
 3463SOL    HW122025   1.779   0.240   8.569  2.2404  1.9223  0.6396
 3463SOL    HW222026   1.876   0.150   8.636 -1.3501 -1.9776 -0.6888
 3464SOL     OW22027   1.954   2.804   4.634  0.2817  0.0285 -0.3130
 3464SOL    HW122028   1.913   2.826   4.718 -3.0107  0.3730 -2.0212
 3464SOL    HW222029   1.933   2.880   4.581 -1.2979  1.0600  1.7967
 3465SOL     OW22030   4.114   1.586   7.643  0.2099 -0.3764  0.0126
 3465SOL    HW122031   4.063   1.505   7.645  2.1970 -1.6825 -1.9977
 3465SOL    HW222032   4.195   1.557   7.601  0.8544  1.2788  0.1092
 3466SOL     OW22033   3.768   4.628   1.146  0.4332  0.6431  0.2204
 3466SOL    HW122034   3.825   4.613   1.221  1.9661 -0.2160 -1.0924
 3466SOL    HW222035   3.752   4.537   1.120  1.3719  1.6868 -3.9796
 3467SOL     OW22036   4.254   0.781  16.495 -0.3093  0.1740 -0.3348
 3467SOL    HW122037   4.178   0.836  16.475 -0.3987 -0.0918 -0.7367
 3467SOL    HW222038   4.306   0.851  16.534 -0.5310 -0.2077  0.6353
 3468SOL     OW22039   2.542   1.523   3.702 -0.4169 -0.5179  0.0147
 3468SOL    HW122040   2.511   1.603   3.744 -2.1632 -0.7900 -0.7658
 3468SOL    HW222041   2.485   1.456   3.743  1.1930  0.4158  3.8045
 3469SOL     OW22042   4.183   0.682   0.439 -0.2529  0.5540 -0.3505
 3469SOL    HW122043   4.191   0.733   0.358 -0.1553 -1.6831 -1.7520
 3469SOL    HW222044   4.262   0.718   0.479 -0.7855  0.1249  1.1008
 3470SOL     OW22045   2.362   1.677  16.182  0.3457  0.5836 -0.1443
 3470SOL    HW122046   2.280   1.661  16.135 -0.4676  1.0447  1.1425
 3470SOL    HW222047   2.384   1.763  16.146  1.3029 -0.4615 -2.0513
 3471SOL     OW22048   1.498   0.202   6.839  0.2819 -0.0667 -0.3425
 3471SOL    HW122049   1.405   0.215   6.855  0.1069  0.3277 -1.6173
 3471SOL    HW222050   1.511   0.112   6.868 -2.6398  0.3121  2.1251
 3472SOL     OW22051   4.323   1.930   9.413 -0.6391 -0.2949  0.3944
 3472SOL    HW122052   4.317   2.024   9.396  1.6392  0.3094  3.0783
 3472SOL    HW222053   4.394   1.933   9.476 -0.5666  0.5553  0.2704
 3473SOL     OW22054   4.151   1.724   9.483  0.3062 -0.0096 -0.7305
 3473SOL    HW122055   4.108   1.767   9.557  2.5039  0.5496  0.1945
 3473SOL    HW222056   4.228   1.777   9.466 -0.4189  0.8415 -1.3529
 3474SOL     OW22057   1.298   2.959   2.832  0.8071  0.1906  0.1145
 3474SOL    HW122058   1.223   2.902   2.813  1.0758  0.0877 -0.6073
 3474SOL    HW222059   1.276   3.034   2.777  0.1604 -0.8903 -1.0865
 3475SOL     OW22060   2.815   0.591  14.483 -0.6108 -0.3195 -0.0220
 3475SOL    HW122061   2.801   0.500  14.507 -0.8675 -0.2875 -0.0566
 3475SOL    HW222062   2.769   0.593  14.399 -1.0424 -1.3851  0.1927
 3476SOL     OW22063   2.609   4.404   2.677  0.2652  0.0298  0.5098
 3476SOL    HW122064   2.537   4.360   2.723  1.5545 -0.9851  1.5266
 3476SOL    HW222065   2.671   4.334   2.657  0.5707  0.5026 -0.1827
 3477SOL     OW22066   3.801   2.606   5.188  0.0125 -0.1893  0.2098
 3477SOL    HW122067   3.807   2.616   5.283 -0.3839  0.4732  0.1659
 3477SOL    HW222068   3.707   2.599   5.175  0.2087 -1.9963 -0.1754
 3478SOL     OW22069   2.793   0.914   5.079  0.4592  0.0856 -0.4871
 3478SOL    HW122070   2.819   0.885   4.992 -0.8616 -2.5713 -0.0100
 3478SOL    HW222071   2.712   0.956   5.051  1.0785  1.7824  0.2597
 3479SOL     OW22072   1.519   1.600   2.073  0.2404  0.4868  0.2810
 3479SOL    HW122073   1.521   1.641   1.987  0.0991 -0.2929 -0.0948
 3479SOL    HW222074   1.608   1.620   2.102  0.2089 -0.7561  1.2594
 3480SOL     OW22075   1.968   1.018  14.798 -0.0013  0.9173 -0.7055
 3480SOL    HW122076   2.007   0.955  14.859 -0.6126 -0.4460 -1.7056
 3480SOL    HW222077   2.030   1.090  14.800  0.8982  0.0640  4.1162
 3481SOL     OW22078   4.541   0.412   4.424  0.7869  0.8998 -0.5443
 3481SOL    HW122079   4.529   0.318   4.439 -0.6512  1.2344  0.3851
 3481SOL    HW222080   4.544   0.407   4.328  0.0049 -3.5877 -0.3220
 3482SOL     OW22081   2.956   4.436   2.080  0.2633 -0.2871 -0.6759
 3482SOL    HW122082   2.942   4.394   1.995 -0.3386 -1.1473 -0.1410
 3482SOL    HW222083   2.865   4.457   2.099  0.8393 -0.1510  1.8620
 3483SOL     OW22084   1.761   3.742  10.322 -0.7754 -0.5072 -1.0022
 3483SOL    HW122085   1.682   3.767  10.275  0.2142  0.9800 -1.8546
 3483SOL    HW222086   1.730   3.656  10.352 -0.5831  0.1757  1.1886
 3484SOL     OW22087   4.648   0.866   7.941 -0.3061  0.2655  0.4743
 3484SOL    HW122088   4.678   0.791   7.890 -0.1903  0.5188  0.1723
 3484SOL    HW222089   4.672   0.941   7.886  0.4009 -1.2117 -1.2097
 3485SOL     OW22090   3.836   2.412   4.524  0.3907  0.2819 -0.0726
 3485SOL    HW122091   3.865   2.322   4.536 -2.4099 -0.6065 -0.0925
 3485SOL    HW222092   3.904   2.443   4.464 -1.4192  0.8923 -1.7886
 3486SOL     OW22093   0.838   1.436  15.337  0.1623 -0.1428  0.6216
 3486SOL    HW122094   0.909   1.492  15.306  0.3965 -0.3050  0.8630
 3486SOL    HW222095   0.798   1.492  15.404  1.4914 -0.3869  1.6252
 3487SOL     OW22096   0.802   0.575   0.784  0.0645 -0.0921  0.0637
 3487SOL    HW122097   0.709   0.597   0.792  0.0299  0.5575 -2.3137
 3487SOL    HW222098   0.841   0.660   0.803 -2.3297  1.7414 -3.3407
 3488SOL     OW22099   2.659   4.212  13.703 -0.0297  0.4798  0.3509
 3488SOL    HW122100   2.734   4.153  13.710 -0.1692  0.0667 -1.6501
 3488SOL    HW222101   2.695   4.297  13.730  2.5187 -0.7589  0.8442
 3489SOL     OW22102   2.559   1.426   1.611  0.5667 -0.7620  0.1210
 3489SOL    HW122103   2.539   1.517   1.587 -0.1985 -1.0200 -0.1908
 3489SOL    HW222104   2.492   1.401   1.674 -0.1665  1.8356  0.3731
 3490SOL     OW22105   0.417   2.316   3.381  0.2370 -0.0254  0.0361
 3490SOL    HW122106   0.492   2.320   3.440  0.5625 -3.6462 -0.1717
 3490SOL    HW222107   0.349   2.364   3.429  1.8312  0.1368  2.1392
 3491SOL     OW22108   1.233   4.087  14.911 -0.3744 -0.3809  0.5377
 3491SOL    HW122109   1.159   4.036  14.944 -1.1196  1.5108  1.8247
 3491SOL    HW222110   1.308   4.054  14.962 -0.1851  1.2476  1.3300
 3492SOL     OW22111   0.973   3.027  17.317  0.0376  0.0459 -0.3681
 3492SOL    HW122112   0.880   3.049  17.317 -0.2329 -1.1087 -0.2182
 3492SOL    HW222113   0.979   2.953  17.377  0.1883  0.7827  0.5362
 3493SOL     OW22114   3.654   4.625   4.780  0.3000  0.1421 -0.7358
 3493SOL    HW122115   3.659   4.677   4.860  1.4272  0.8980 -1.2890
 3493SOL    HW222116   3.559   4.615   4.777  0.0342  2.1588  0.6793
 3494SOL     OW22117   3.130   1.191   7.858 -0.0786 -0.0371 -0.5128
 3494SOL    HW122118   3.092   1.253   7.796  0.2278  0.9571  0.2994
 3494SOL    HW222119   3.198   1.245   7.898  1.7088 -2.6125 -0.0743
 3495SOL     OW22120   3.992   2.410   8.273  0.2638 -0.2042 -0.1661
 3495SOL    HW122121   3.913   2.383   8.226  1.3790 -0.3009 -1.9747
 3495SOL    HW222122   3.960   2.401   8.363  0.5121 -1.1311 -0.1743
 3496SOL     OW22123   4.411   3.950   1.550 -0.2978 -1.0635 -0.5130
 3496SOL    HW122124   4.397   3.976   1.641  0.9874  0.4166 -0.7361
 3496SOL    HW222125   4.468   3.876   1.569  1.5426  0.3005 -0.7531
 3497SOL     OW22126   1.351   0.300   8.058 -0.2410  0.0347 -0.8646
 3497SOL    HW122127   1.267   0.269   8.090 -0.4655 -0.5881 -2.0299
 3497SOL    HW222128   1.360   0.382   8.106  1.0403  0.5778 -2.0017
 3498SOL     OW22129   4.192   4.561   6.962  0.5719  0.5812 -0.2670
 3498SOL    HW122130   4.153   4.591   7.044  0.1854  0.0928 -0.2753
 3498SOL    HW222131   4.127   4.493   6.946  2.0408 -0.7590 -0.5386
 3499SOL     OW22132   2.239   3.613  12.170 -0.0069 -0.1673 -0.2858
 3499SOL    HW122133   2.172   3.615  12.102 -0.2062  0.1060 -0.0821
 3499SOL    HW222134   2.196   3.554  12.233  0.6187  1.1404  1.3761
 3500SOL     OW22135   1.960   1.581   6.312  0.0165 -0.2099 -0.1358
 3500SOL    HW122136   1.956   1.676   6.319  1.2107 -0.1010 -1.0769
 3500SOL    HW222137   2.020   1.560   6.384  1.2439  1.5636 -0.6452
 3501SOL     OW22138   2.062   1.822   5.831 -0.0566  0.2057  0.0693
 3501SOL    HW122139   2.071   1.904   5.783 -0.4856  0.0370 -0.3025
 3501SOL    HW222140   2.092   1.846   5.919 -0.9880 -1.6447  0.8923
 3502SOL     OW22141   3.660   2.220   3.806 -0.2050  0.1581  0.2565
 3502SOL    HW122142   3.646   2.125   3.807 -0.1037  0.1423  0.1061
 3502SOL    HW222143   3.691   2.233   3.716  2.9031  0.2066  1.3577
 3503SOL     OW22144   0.907   2.719   0.312  0.0469  0.1092  0.8479
 3503SOL    HW122145   0.816   2.740   0.291  0.7641 -0.1213 -2.6111
 3503SOL    HW222146   0.956   2.761   0.241  0.5974 -0.1014  1.1000
 3504SOL     OW22147   0.028   1.385   6.627 -0.5101 -0.2728  0.0114
 3504SOL    HW122148   4.725   1.422   6.546 -3.0517 -0.4931  1.0664
 3504SOL    HW222149   0.060   1.297   6.607 -0.7412 -0.1352 -0.9685
 3505SOL     OW22150   1.645   4.601   6.244 -0.0342  0.1590  0.2298
 3505SOL    HW122151   1.658   4.537   6.175 -0.2066 -0.4175  0.7311
 3505SOL    HW222152   1.587   4.664   6.202  1.2793  1.8441  0.9270
 3506SOL     OW22153   3.874   2.451   4.260  0.1104  0.1063 -0.5597
 3506SOL    HW122154   3.909   2.409   4.182  2.5810 -0.7485  1.0196
 3506SOL    HW222155   3.785   2.416   4.267  1.1467 -2.4142  0.1228
 3507SOL     OW22156   0.936   0.705   7.236  0.1254 -0.1578 -0.0840
 3507SOL    HW122157   0.919   0.673   7.148 -2.5232  0.1610  0.3151
 3507SOL    HW222158   1.011   0.763   7.224 -1.7090  2.0398 -0.8495
 3508SOL     OW22159   1.916   0.808  13.926  0.0333 -0.2416  0.0092
 3508SOL    HW122160   1.899   0.789  14.019 -0.1639  2.8077  0.5926
 3508SOL    HW222161   1.907   0.718  13.894  2.2430  0.6369 -3.0586
 3509SOL     OW22162   0.748   2.043   9.973 -0.0360 -0.5092 -0.4916
 3509SOL    HW122163   0.776   1.968  10.025  0.3309  0.2330  0.3993
 3509SOL    HW222164   0.732   2.010   9.885 -0.4845  1.7009 -1.2384
 3510SOL     OW22165   3.347   2.213   4.872  0.1789  0.0753  0.5082
 3510SOL    HW122166   3.362   2.284   4.935  1.8662 -1.6379  2.0358
 3510SOL    HW222167   3.252   2.203   4.873  0.0149  1.6850  0.9633
 3511SOL     OW22168   2.800   2.097   3.998  0.2083  0.1174 -0.7523
 3511SOL    HW122169   2.752   2.021   4.031  0.2099  0.0329 -0.9447
 3511SOL    HW222170   2.748   2.164   4.041 -0.2543 -1.0244  0.4825
 3512SOL     OW22171   3.698   3.536   6.026  0.4742 -0.4019  0.3064
 3512SOL    HW122172   3.603   3.528   6.029  0.6190 -1.5767  1.5877
 3512SOL    HW222173   3.709   3.597   6.099 -1.1276  0.3554 -0.0987
 3513SOL     OW22174   3.479   2.275  12.478  0.4162  0.1219 -0.0246
 3513SOL    HW122175   3.477   2.362  12.437  0.7639  0.0705 -0.1492
 3513SOL    HW222176   3.464   2.224  12.398 -1.2453 -0.9817  0.9875
 3514SOL     OW22177   0.605   2.452   5.244  0.3629 -0.6873  0.3348
 3514SOL    HW122178   0.618   2.364   5.281  0.6015 -0.4593  0.7950
 3514SOL    HW222179   0.694   2.487   5.234  0.2597 -0.0391  1.7057
 3515SOL     OW22180   1.128   2.241  17.124 -0.2356 -0.4348 -0.3359
 3515SOL    HW122181   1.053   2.272  17.175 -0.2669  0.9666 -1.2235
 3515SOL    HW222182   1.117   2.146  17.119 -1.0577 -0.4377  1.4402
 3516SOL     OW22183   4.340   3.176   8.987  0.6367  0.4306 -0.3809
 3516SOL    HW122184   4.379   3.129   8.914  1.4939 -0.1820  0.4784
 3516SOL    HW222185   4.266   3.219   8.944  0.4421 -0.8636 -1.3172
 3517SOL     OW22186   3.038   2.796  16.423 -0.0853 -0.2843  0.2222
 3517SOL    HW122187   2.957   2.837  16.453  0.3713  2.1028 -1.7857
 3517SOL    HW222188   3.098   2.869  16.409 -0.8870  0.3313 -0.0058
 3518SOL     OW22189   1.483   1.487   4.369 -0.5195  0.4816 -0.2336
 3518SOL    HW122190   1.432   1.422   4.321  0.2466 -0.1172 -0.2226
 3518SOL    HW222191   1.495   1.451   4.456  2.0572  0.9198 -0.3916
 3519SOL     OW22192   3.948   0.904   4.625 -0.0274 -0.0954  0.0742
 3519SOL    HW122193   3.964   0.832   4.686  0.8432 -0.8403 -1.0343
 3519SOL    HW222194   3.953   0.967   4.697  1.8568  0.5218 -0.5992
 3520SOL     OW22195   3.309   0.844  17.616 -0.1798  0.1179 -0.4984
 3520SOL    HW122196   3.252   0.918  17.594 -1.8313 -1.7076 -2.4241
 3520SOL    HW222197   3.264   0.782  17.558  0.4722 -1.5724  0.8015
 3521SOL     OW22198   1.540   0.139   8.166  0.0514  0.9743 -0.0265
 3521SOL    HW122199   1.506   0.198   8.099  1.2847  0.5320 -1.0436
 3521SOL    HW222200   1.459   0.108   8.205 -0.6833  1.5264 -1.1255
 3522SOL     OW22201   0.353   0.264  12.285  0.0442 -0.2470 -0.0538
 3522SOL    HW122202   0.392   0.297  12.366 -0.4788  0.1000  0.0514
 3522SOL    HW222203   0.324   0.344  12.241  0.4731  0.2895  0.6236
 3523SOL     OW22204   2.220   1.881   6.076 -0.3552 -0.4062  0.6333
 3523SOL    HW122205   2.264   1.833   6.147 -1.9532 -0.4192  1.6034
 3523SOL    HW222206   2.254   1.969   6.089 -0.3369 -0.0352 -1.9446
 3524SOL     OW22207   0.002   3.447   3.540  0.2395 -0.1681  0.1115
 3524SOL    HW122208   0.024   3.355   3.524  3.6208  0.6795 -0.1744
 3524SOL    HW222209   4.696   3.438   3.626  3.2315 -2.2172  1.2894
 3525SOL     OW22210   2.795   1.340  12.486 -0.1366 -0.5779  0.0839
 3525SOL    HW122211   2.722   1.298  12.442  1.9096 -1.7161 -2.2155
 3525SOL    HW222212   2.782   1.336  12.581 -0.9959 -1.6530 -0.0858
 3526SOL     OW22213   3.565   1.265   6.408 -0.0513 -0.5149 -0.3042
 3526SOL    HW122214   3.605   1.251   6.493 -0.7488 -1.5247 -0.1383
 3526SOL    HW222215   3.635   1.262   6.343 -0.3280 -0.3989 -0.6130
 3527SOL     OW22216   3.534   0.470   7.930 -0.7227  0.3827 -0.1192
 3527SOL    HW122217   3.551   0.546   7.985 -0.0148  0.0033  0.1813
 3527SOL    HW222218   3.621   0.447   7.897 -1.0776 -1.8323  0.4825
 3528SOL     OW22219   2.424   0.785  12.118 -0.3260  0.0116  0.5234
 3528SOL    HW122220   2.492   0.782  12.051 -0.7855  0.8256  0.0118
 3528SOL    HW222221   2.350   0.770  12.058 -2.3003 -1.2834  3.2823
 3529SOL     OW22222   0.260   2.582   7.954 -0.1283  0.1139  0.2255
 3529SOL    HW122223   0.327   2.554   7.891 -0.2204 -0.4363  0.3671
 3529SOL    HW222224   0.213   2.499   7.961  0.4571 -0.1815  0.6500
 3530SOL     OW22225   3.939   1.365   7.622  0.5977 -0.1768  0.4987
 3530SOL    HW122226   3.863   1.311   7.599  0.9575  0.6863 -2.5880
 3530SOL    HW222227   4.015   1.325   7.581  1.3583 -1.1616  2.8533
 3531SOL     OW22228   0.725   3.838   2.847 -0.5950  0.3026  0.1502
 3531SOL    HW122229   0.757   3.898   2.781 -0.3642  0.8139  0.7246
 3531SOL    HW222230   0.811   3.808   2.875 -1.0903 -2.4806 -1.3350
 3532SOL     OW22231   3.915   1.988  10.944 -0.1679  0.2840 -0.3190
 3532SOL    HW122232   3.877   2.069  10.908 -1.8580 -0.8460 -1.0920
 3532SOL    HW222233   3.840   1.944  10.984 -0.3834  0.6146 -0.3535
 3533SOL     OW22234   4.552   4.234   5.441  0.6081  0.1227 -0.3434
 3533SOL    HW122235   4.500   4.155   5.430 -1.7238  1.5156  0.6618
 3533SOL    HW222236   4.589   4.256   5.356  0.2217  0.0805 -0.5201
 3534SOL     OW22237   2.398   4.601   0.443  0.3498 -0.1203 -0.1431
 3534SOL    HW122238   2.434   4.674   0.493 -3.6353  0.7456  1.4600
 3534SOL    HW222239   2.426   4.644   0.362 -2.0068  0.0083 -0.8913
 3535SOL     OW22240   2.196   2.131  16.512  0.1452  0.3063  0.5521
 3535SOL    HW122241   2.238   2.050  16.541 -1.7866 -1.2049 -0.9493
 3535SOL    HW222242   2.241   2.146  16.429 -0.4219  0.9680  0.3649
 3536SOL     OW22243   0.389   0.723   1.005  0.2551 -0.6207 -0.0652
 3536SOL    HW122244   0.405   0.698   1.095  2.6194  1.3892  0.0853
 3536SOL    HW222245   0.305   0.768   1.017  0.0760 -1.2050  0.8382
 3537SOL     OW22246   0.777   0.721   4.395  0.3073 -0.1319  0.0179
 3537SOL    HW122247   0.780   0.816   4.382  2.0632 -0.2169 -0.2072
 3537SOL    HW222248   0.732   0.688   4.318  2.0464 -1.7500 -0.3039
 3538SOL     OW22249   2.555   3.649   3.459 -0.3261  0.1946  0.1218
 3538SOL    HW122250   2.649   3.648   3.444 -0.3782  0.3590 -0.2129
 3538SOL    HW222251   2.526   3.578   3.402 -1.7134  2.0143 -1.4337
 3539SOL     OW22252   1.006   0.088   6.691 -0.2872 -0.0361 -0.2050
 3539SOL    HW122253   1.047   0.173   6.673  2.4150 -1.1048  0.9528
 3539SOL    HW222254   0.921   0.095   6.649 -0.3832  2.7575  0.4311
 3540SOL     OW22255   2.718   0.219  11.784  0.3374 -0.6598 -0.3957
 3540SOL    HW122256   2.796   0.167  11.764  0.1534 -0.9179 -0.4315
 3540SOL    HW222257   2.756   0.288  11.839  0.7981 -1.8542  0.7881
 3541SOL     OW22258   1.717   4.338   9.656 -0.3032  0.2337 -0.1844
 3541SOL    HW122259   1.669   4.360   9.576  2.5639  0.4200 -1.8569
 3541SOL    HW222260   1.781   4.270   9.634 -1.1500 -0.8236  0.6470
 3542SOL     OW22261   2.395   1.832   8.911 -0.1339  0.3451 -0.7568
 3542SOL    HW122262   2.373   1.832   9.004 -0.5142 -0.3949 -0.8406
 3542SOL    HW222263   2.318   1.862   8.863  0.4498  2.2014 -0.5155
 3543SOL     OW22264   2.777   2.720   7.819 -0.0096 -0.0761  0.4306
 3543SOL    HW122265   2.826   2.639   7.833 -1.2314 -0.5235  2.1543
 3543SOL    HW222266   2.764   2.749   7.909 -0.7370  2.3450 -0.4669
 3544SOL     OW22267   1.649   2.248  10.665  0.3207 -0.4144 -0.0629
 3544SOL    HW122268   1.673   2.296  10.744 -0.7040 -0.3175  0.1997
 3544SOL    HW222269   1.631   2.163  10.703 -1.8537 -0.0273 -0.2228
 3545SOL     OW22270   4.714   2.718   5.455  0.1838 -0.1044  0.1470
 3545SOL    HW122271   0.037   2.697   5.381  1.0388 -0.3052  0.8674
 3545SOL    HW222272   4.645   2.756   5.401 -1.4711  0.7911  2.8673
 3546SOL     OW22273   3.279   3.248   4.209 -0.1242  0.5988 -0.0989
 3546SOL    HW122274   3.210   3.220   4.149 -0.6661  1.0992  0.2962
 3546SOL    HW222275   3.344   3.178   4.197  0.1739  0.7899  0.3811
 3547SOL     OW22276   3.696   2.029   7.962  0.4840 -0.0745  0.0443
 3547SOL    HW122277   3.649   2.012   7.880  1.1555 -1.8263  0.0163
 3547SOL    HW222278   3.755   1.954   7.954  1.9032  0.9809  0.6797
 3548SOL     OW22279   4.651   0.986  10.068 -0.2247 -0.2269 -0.4478
 3548SOL    HW122280   4.684   1.017  10.152 -1.2099  0.2762 -0.2456
 3548SOL    HW222281   4.598   0.915  10.105 -0.0998 -0.6609 -1.1018
 3549SOL     OW22282   3.153   3.739   8.819  0.7091  0.3042 -0.1175
 3549SOL    HW122283   3.064   3.767   8.837  0.9761  1.5085 -0.6846
 3549SOL    HW222284   3.175   3.792   8.742 -1.3816  0.4489 -0.6192
 3550SOL     OW22285   1.963   3.515   0.035  0.6259  0.0500  0.3876
 3550SOL    HW122286   1.945   3.608   0.048 -0.2852  0.0522 -0.8648
 3550SOL    HW222287   2.034   3.502   0.098  0.3738 -0.2582  0.6106
 3551SOL     OW22288   1.317   2.664  11.254 -0.3316  0.1673  0.0631
 3551SOL    HW122289   1.399   2.626  11.287 -2.0283 -3.2876  0.3075
 3551SOL    HW222290   1.335   2.670  11.160 -1.8521  2.0649 -0.0934
 3552SOL     OW22291   4.137   2.763   8.715 -0.1771  0.2055 -0.4985
 3552SOL    HW122292   4.188   2.811   8.651  1.2910 -0.6278  0.0396
 3552SOL    HW222293   4.198   2.774   8.788 -2.8703  3.0228  1.3189
 3553SOL     OW22294   1.889   1.773  14.265 -0.7599  0.2963 -0.1313
 3553SOL    HW122295   1.803   1.810  14.245 -0.6722  0.5316 -0.0681
 3553SOL    HW222296   1.944   1.846  14.293 -0.8161  0.3817 -0.2445
 3554SOL     OW22297   2.700   1.769   3.246  0.4104  0.2002  0.0060
 3554SOL    HW122298   2.699   1.837   3.178 -1.1710  1.0228  0.8565
 3554SOL    HW222299   2.641   1.698   3.221  0.3195  0.5253 -0.7162
 3555SOL     OW22300   2.321   1.893  16.889  0.4524  0.1589 -0.2046
 3555SOL    HW122301   2.387   1.840  16.845 -0.4583 -0.6214 -0.6351
 3555SOL    HW222302   2.365   1.977  16.900 -0.7585  0.4879  2.0789
 3556SOL     OW22303   0.307   1.442   4.605  0.1010  0.0286 -0.1208
 3556SOL    HW122304   0.372   1.505   4.571 -1.5820  1.2222 -1.1257
 3556SOL    HW222305   0.248   1.446   4.530 -0.1056  0.3062  0.0575
 3557SOL     OW22306   0.374   1.666  13.450  0.1765 -0.3743  0.2371
 3557SOL    HW122307   0.341   1.662  13.361  2.7228 -0.6344 -0.6978
 3557SOL    HW222308   0.413   1.754  13.454 -0.2545 -0.2143  0.9491
 3558SOL     OW22309   1.348   1.904   2.028  0.0356 -0.8041 -0.2813
 3558SOL    HW122310   1.264   1.943   2.008 -0.0814 -0.5071  0.7772
 3558SOL    HW222311   1.408   1.975   2.051  0.1181 -1.4017  1.3548
 3559SOL     OW22312   3.063   3.376   7.390  0.2394 -0.3997 -0.2095
 3559SOL    HW122313   3.141   3.415   7.430  0.4676  0.9600 -1.9807
 3559SOL    HW222314   3.025   3.449   7.341  2.3813  0.0465 -1.2311
 3560SOL     OW22315   3.424   1.771   2.997  0.0196 -0.0132  0.3117
 3560SOL    HW122316   3.454   1.849   3.044  1.6207 -0.3058 -0.1993
 3560SOL    HW222317   3.336   1.765   3.034 -0.1756 -0.4244 -0.2218
 3561SOL     OW22318   3.783   1.192   4.138 -0.1479 -0.0815  0.2061
 3561SOL    HW122319   3.717   1.261   4.145 -0.2296 -0.0320 -1.0874
 3561SOL    HW222320   3.718   1.131   4.103 -0.9677  0.1161  1.4044
 3562SOL     OW22321   3.459   4.626   8.270 -0.2706 -0.0055 -0.3023
 3562SOL    HW122322   3.370   4.661   8.278  0.3587  1.6314 -0.3100
 3562SOL    HW222323   3.497   4.634   8.358 -0.3366 -0.1614 -0.2600
 3563SOL     OW22324   0.015   2.089  16.588  0.8393  0.0291  0.1841
 3563SOL    HW122325   0.010   2.059  16.497 -2.3841  1.1201  0.0118
 3563SOL    HW222326   0.106   2.094  16.618  1.4755 -1.0253 -1.5727
 3564SOL     OW22327   1.124   0.629   0.807  0.0688  0.0634  0.7194
 3564SOL    HW122328   1.051   0.680   0.773  1.7212  0.8758 -1.6399
 3564SOL    HW222329   1.108   0.646   0.900 -2.2466 -2.3423  0.7390
 3565SOL     OW22330   3.474   2.059  12.263  0.7298  0.1280  0.3429
 3565SOL    HW122331   3.380   2.056  12.246  0.8125  0.9521 -0.2289
 3565SOL    HW222332   3.509   1.988  12.209  0.6357 -0.6829  1.3290
 3566SOL     OW22333   1.513   1.061   8.643 -0.5154  0.0289 -0.6451
 3566SOL    HW122334   1.592   1.019   8.608  0.7045 -0.4825  2.7297
 3566SOL    HW222335   1.508   1.134   8.582 -1.1240 -0.7829 -1.5653
 3567SOL     OW22336   3.225   0.129   8.534  0.1397  0.7535 -0.0820
 3567SOL    HW122337   3.197   0.161   8.448 -0.1309  2.3540  0.6071
 3567SOL    HW222338   3.292   0.068   8.503  0.7541  0.9739  0.8152
 3568SOL     OW22339   1.764   2.211   3.029  0.9605  0.6051 -0.2299
 3568SOL    HW122340   1.819   2.184   2.956  0.8838  0.3696 -0.1982
 3568SOL    HW222341   1.830   2.184   3.092  0.2621 -1.0404 -0.2214
 3569SOL     OW22342   3.596   4.157   9.158 -0.1537  0.3749 -0.3972
 3569SOL    HW122343   3.642   4.172   9.075  0.2137 -1.1205 -0.4561
 3569SOL    HW222344   3.667   4.147   9.222  0.0180 -1.9151 -0.9490
 3570SOL     OW22345   2.130   0.729   8.556 -0.3056 -0.1752  0.5509
 3570SOL    HW122346   2.103   0.819   8.569  0.0358  0.2195 -1.4011
 3570SOL    HW222347   2.121   0.698   8.646 -1.5863 -0.5928  0.2736
 3571SOL     OW22348   3.603   4.617   2.097 -0.6522  0.3158 -0.0407
 3571SOL    HW122349   3.627   4.529   2.067 -0.7960  1.0592 -2.3630
 3571SOL    HW222350   3.645   4.665   2.026 -0.1713  0.6181  0.4505
 3572SOL     OW22351   1.557   0.489   7.487  0.2768  0.3034 -0.1733
 3572SOL    HW122352   1.593   0.401   7.488 -0.6601 -0.0309  2.0224
 3572SOL    HW222353   1.608   0.523   7.412  1.0825 -0.5974 -0.0257
 3573SOL     OW22354   4.658   3.488   8.435  0.2934 -0.0314 -0.0012
 3573SOL    HW122355   0.016   3.491   8.410 -0.4547  3.4186 -2.5154
 3573SOL    HW222356   4.683   3.461   8.523 -0.0044  0.6289  0.2886
 3574SOL     OW22357   3.121   0.755   6.719  0.4096  0.1018  0.4675
 3574SOL    HW122358   3.033   0.717   6.712  0.3540  0.3926 -0.4759
 3574SOL    HW222359   3.107   0.806   6.799 -2.7739  0.8873 -0.5543
 3575SOL     OW22360   0.825   1.012   4.727 -0.5904 -0.6200 -0.2959
 3575SOL    HW122361   0.868   0.927   4.720  0.3210 -0.3260  1.7747
 3575SOL    HW222362   0.883   1.063   4.670 -0.7190 -0.4225 -0.2529
 3576SOL     OW22363   1.159   3.027   8.278 -0.3486  0.3007 -0.3047
 3576SOL    HW122364   1.253   3.049   8.278  0.1402 -1.7919 -4.0572
 3576SOL    HW222365   1.138   3.024   8.372 -0.5542 -1.8835 -0.4255
 3577SOL     OW22366   1.724   2.932   6.266  0.2032  0.3610 -0.4466
 3577SOL    HW122367   1.789   3.001   6.281 -0.9933  1.3864  0.0438
 3577SOL    HW222368   1.702   2.948   6.174  0.8779  0.0849 -0.6498
 3578SOL     OW22369   4.369   3.042   3.021 -0.2521 -0.0548  0.6836
 3578SOL    HW122370   4.423   3.019   2.945 -1.5435  0.9759 -0.5349
 3578SOL    HW222371   4.358   3.131   2.987 -2.3909 -0.1417  1.1591
 3579SOL     OW22372   1.414   0.569   8.054  0.1541 -0.0640  0.2827
 3579SOL    HW122373   1.445   0.631   7.988 -1.6247  0.4551 -0.0729
 3579SOL    HW222374   1.482   0.573   8.121 -0.9748  0.0096  1.4298
 3580SOL     OW22375   2.175   0.237   4.437 -0.0165  0.1755  0.4461
 3580SOL    HW122376   2.213   0.164   4.486  0.9658  0.5310  0.1990
 3580SOL    HW222377   2.126   0.195   4.367  0.5487  1.5856 -0.7840
 3581SOL     OW22378   1.166   1.777   0.314 -0.7318 -0.0600  0.0423
 3581SOL    HW122379   1.181   1.757   0.221 -0.3865  0.5636 -0.0405
 3581SOL    HW222380   1.101   1.709   0.334  0.1423 -0.3071  2.0197
 3582SOL     OW22381   0.635   0.217  11.682 -0.3480 -1.0917 -0.0593
 3582SOL    HW122382   0.605   0.142  11.733  0.4488 -0.3633  1.5049
 3582SOL    HW222383   0.652   0.287  11.745 -2.7324 -0.2230 -0.3722
 3583SOL     OW22384   0.972   2.634   2.313 -0.5422 -0.3782 -0.3759
 3583SOL    HW122385   1.068   2.644   2.311 -0.7510  1.7435  0.1538
 3583SOL    HW222386   0.989   2.572   2.385  0.0317 -2.3694 -2.2201
 3584SOL     OW22387   3.075   1.147   6.280 -0.3220  0.3551  0.1294
 3584SOL    HW122388   3.000   1.198   6.309 -1.3326 -0.3918 -1.1535
 3584SOL    HW222389   3.134   1.138   6.355 -1.6519  0.1853  1.1338
 3585SOL     OW22390   0.374   0.866   1.512  0.2673 -0.3936  0.0327
 3585SOL    HW122391   0.396   0.884   1.603  0.4414 -0.8768  0.0829
 3585SOL    HW222392   0.331   0.950   1.496  0.3893 -0.8273 -2.5414
 3586SOL     OW22393   0.381   1.632   3.230  0.5718 -0.3160 -0.6902
 3586SOL    HW122394   0.312   1.567   3.230  1.7294 -1.5489 -1.2902
 3586SOL    HW222395   0.410   1.611   3.319  0.6886  1.8959 -0.2088
 3587SOL     OW22396   1.262   1.000   1.317 -0.1530  0.1951 -1.1864
 3587SOL    HW122397   1.314   1.081   1.316 -0.4652  0.4277  1.0819
 3587SOL    HW222398   1.250   0.993   1.222  0.9502 -0.9058 -1.2429
 3588SOL     OW22399   2.619   3.223   4.447 -0.1125 -0.2132 -0.0045
 3588SOL    HW122400   2.711   3.198   4.437 -0.2488  0.2766 -2.5022
 3588SOL    HW222401   2.596   3.172   4.525  1.3342  1.6029  1.5992
 3589SOL     OW22402   1.117   0.939   7.176 -0.5125  0.0761 -0.1658
 3589SOL    HW122403   1.041   0.970   7.126 -0.9865 -0.1484  0.4078
 3589SOL    HW222404   1.118   0.998   7.251 -2.3837 -0.4197  0.2581
 3590SOL     OW22405   4.386   2.651  14.401 -0.0380 -0.0420 -0.2117
 3590SOL    HW122406   4.380   2.730  14.455  1.6043 -1.4932  2.1094
 3590SOL    HW222407   4.475   2.655  14.365 -0.1079  0.8620 -0.2963
 3591SOL     OW22408   2.993   0.741   4.547  0.0528 -0.6249  0.0945
 3591SOL    HW122409   3.033   0.821   4.515  1.6238 -2.3972 -2.2997
 3591SOL    HW222410   2.902   0.772   4.546  0.1481 -0.3826 -1.0936
 3592SOL     OW22411   3.686   1.384   8.002 -0.3814 -0.0418 -0.2219
 3592SOL    HW122412   3.659   1.474   7.984  1.0758 -0.1483 -2.9773
 3592SOL    HW222413   3.689   1.336   7.919  2.4186  1.4877 -0.9990
 3593SOL     OW22414   1.752   1.103   0.954  0.2728  0.1273 -0.3359
 3593SOL    HW122415   1.838   1.117   0.995  0.4164 -1.7339  0.0152
 3593SOL    HW222416   1.721   1.019   0.988 -0.5088  0.7295  0.4418
 3594SOL     OW22417   0.797   2.233   2.816 -0.3891 -0.4242  0.4466
 3594SOL    HW122418   0.865   2.166   2.818 -1.0491 -1.1479 -1.3905
 3594SOL    HW222419   0.732   2.195   2.874  1.1423 -1.0263  1.7591
 3595SOL     OW22420   2.510   0.756   4.248 -0.0798  0.0750 -0.2912
 3595SOL    HW122421   2.523   0.675   4.198  1.3644 -0.5419  1.0692
 3595SOL    HW222422   2.495   0.718   4.335  1.7971  0.4266  0.1851
 3596SOL     OW22423   3.594   0.041   9.024 -0.0893 -0.2677 -0.5231
 3596SOL    HW122424   3.641   4.707   9.072 -2.3896 -0.9417  0.7264
 3596SOL    HW222425   3.636   0.121   9.057 -0.7981  0.0905 -0.4971
 3597SOL     OW22426   2.660   1.522   5.514  0.3002  0.0630 -0.0186
 3597SOL    HW122427   2.567   1.530   5.493  0.1701 -0.6402  0.2790
 3597SOL    HW222428   2.643   1.514   5.608 -0.6632  1.0152 -0.1155
 3598SOL     OW22429   1.507   0.142   5.213 -0.0628 -0.1390 -0.6546
 3598SOL    HW122430   1.535   0.056   5.245 -0.3679  0.4642  1.2170
 3598SOL    HW222431   1.575   0.174   5.153  1.3295  0.2765  1.1212
 3599SOL     OW22432   4.359   3.251   6.529  0.2556 -0.5130 -0.1199
 3599SOL    HW122433   4.450   3.253   6.556  0.1561 -0.4035  0.2054
 3599SOL    HW222434   4.362   3.171   6.477 -1.1851 -0.1172 -0.8363
 3600SOL     OW22435   0.176   3.518   4.811  0.0587 -0.5306  0.0126
 3600SOL    HW122436   0.221   3.460   4.749 -0.8537 -1.3922  0.1441
 3600SOL    HW222437   0.093   3.523   4.763 -0.3777  1.0105  0.9251
 3601SOL     OW22438   4.366   2.486   1.037 -0.7772  0.5225  0.0280
 3601SOL    HW122439   4.454   2.456   1.060 -1.1282 -1.1106 -0.8250
 3601SOL    HW222440   4.320   2.427   1.096  0.5184 -1.6998 -1.1820
 3602SOL     OW22441   3.953   3.494  16.935  0.5389  0.1998 -0.0961
 3602SOL    HW122442   4.047   3.504  16.921  0.7263 -1.1339  0.1219
 3602SOL    HW222443   3.921   3.582  16.921 -1.5756 -0.4037  1.0155
 3603SOL     OW22444   2.371   4.430  13.329  0.3013  0.6692 -0.0913
 3603SOL    HW122445   2.413   4.375  13.395 -0.1802 -0.7468 -0.9671
 3603SOL    HW222446   2.299   4.374  13.300  2.4558 -1.0129 -2.1342
 3604SOL     OW22447   3.343   0.851   5.815  0.0730 -0.2700 -0.6161
 3604SOL    HW122448   3.400   0.907   5.764  0.7283 -0.5797 -0.2235
 3604SOL    HW222449   3.288   0.918   5.855  0.2469 -0.5349  0.0733
 3605SOL     OW22450   0.570   2.668   4.333  0.0825  0.2940 -0.0516
 3605SOL    HW122451   0.625   2.698   4.260  1.1494 -0.2903  0.5216
 3605SOL    HW222452   0.591   2.741   4.392 -1.5685  1.1023 -0.4442
 3606SOL     OW22453   4.019   2.572  15.819 -0.3931 -0.2128 -0.0317
 3606SOL    HW122454   3.980   2.658  15.804 -1.0892 -0.4980  0.1467
 3606SOL    HW222455   3.986   2.521  15.745  0.7273  0.1985 -0.8138
 3607SOL     OW22456   2.565   3.931   9.168 -0.0006  0.4411  0.1825
 3607SOL    HW122457   2.641   3.906   9.221  0.4884 -1.4969 -1.4214
 3607SOL    HW222458   2.500   3.869   9.204 -1.2934  1.2567 -0.7602
 3608SOL     OW22459   2.173   1.215   1.313  0.8638 -0.3134  0.2700
 3608SOL    HW122460   2.156   1.165   1.393 -0.0947  0.8826  0.8008
 3608SOL    HW222461   2.208   1.296   1.348 -2.1370  1.1728 -0.1864
 3609SOL     OW22462   0.342   2.382  12.107  0.1242 -0.2811 -0.2218
 3609SOL    HW122463   0.251   2.362  12.084  0.3533 -0.3812 -1.0465
 3609SOL    HW222464   0.386   2.379  12.022 -2.4062 -0.2717 -1.5571
 3610SOL     OW22465   4.194   4.351   5.417  0.0926  0.1283 -0.0168
 3610SOL    HW122466   4.232   4.310   5.339  0.0693 -0.4456  0.2717
 3610SOL    HW222467   4.124   4.407   5.384  0.4071  0.2563 -0.4672
 3611SOL     OW22468   2.220   4.535  14.684 -0.3215  0.4689  0.1077
 3611SOL    HW122469   2.287   4.512  14.748 -0.4219  3.4982  1.3121
 3611SOL    HW222470   2.210   4.629  14.700 -0.6886  0.8637 -2.3442
 3612SOL     OW22471   2.866   4.271   2.638 -0.3700  0.1086  0.3646
 3612SOL    HW122472   2.907   4.351   2.671 -0.2654  1.3791 -2.7728
 3612SOL    HW222473   2.899   4.279   2.548  0.7253  0.7051  0.8215
 3613SOL     OW22474   2.362   1.549   8.106  0.6362  0.2330 -0.0571
 3613SOL    HW122475   2.391   1.491   8.036 -0.7032  0.0099 -0.4225
 3613SOL    HW222476   2.272   1.521   8.122  0.6646  0.1153 -0.1050
 3614SOL     OW22477   1.671   1.005  15.590 -0.0319  0.4028 -0.0641
 3614SOL    HW122478   1.637   1.078  15.643  0.4383  0.5024  0.1010
 3614SOL    HW222479   1.586   0.968  15.564 -0.7029  0.7726  1.5978
 3615SOL     OW22480   0.737   4.488  11.342  0.4119  0.4291  0.9315
 3615SOL    HW122481   0.690   4.443  11.272  1.3404  0.1292  0.5129
 3615SOL    HW222482   0.761   4.568  11.296  0.6765  0.3128  0.8686
 3616SOL     OW22483   2.085   1.246   2.962  0.4846  0.3448  0.0726
 3616SOL    HW122484   2.119   1.311   2.900  0.9174 -1.6705 -1.7895
 3616SOL    HW222485   2.034   1.191   2.903  0.6697  0.9006 -0.6203
 3617SOL     OW22486   4.431   3.930  15.370  0.1962 -0.0399 -0.2228
 3617SOL    HW122487   4.424   3.956  15.278  2.4681 -3.7425 -1.4333
 3617SOL    HW222488   4.445   4.016  15.409 -0.4410  0.8172 -1.8753
 3618SOL     OW22489   3.689   2.054   4.155  0.2156  0.0752  0.7030
 3618SOL    HW122490   3.612   2.110   4.146 -1.4503 -2.1180  1.4704
 3618SOL    HW222491   3.743   2.102   4.092  0.9207  1.2171  2.1750
 3619SOL     OW22492   2.528   4.470   1.834 -0.5553  0.2885  0.6711
 3619SOL    HW122493   2.553   4.489   1.743  0.3568  0.8396  1.0395
 3619SOL    HW222494   2.508   4.557   1.870  0.8560  1.7638 -2.1195
 3620SOL     OW22495   0.499   1.198  13.871  0.1253 -0.1850 -0.0276
 3620SOL    HW122496   0.582   1.243  13.855  0.4505 -0.3864  1.0754
 3620SOL    HW222497   0.441   1.271  13.895 -1.9579 -2.0443  0.5628
 3621SOL     OW22498   2.694   4.361   2.250 -0.3646 -0.0362 -0.1443
 3621SOL    HW122499   2.639   4.300   2.200 -0.4026  0.0814 -0.2476
 3621SOL    HW222500   2.684   4.434   2.190 -1.7124 -0.4734 -0.4527
 3622SOL     OW22501   3.316   0.800   3.787 -0.1755 -0.2206 -0.1101
 3622SOL    HW122502   3.331   0.763   3.874  1.5052 -0.6790 -0.5951
 3622SOL    HW222503   3.356   0.729   3.737 -4.2241 -2.0690 -0.7202
 3623SOL     OW22504   1.628   3.692   1.238 -0.4108  0.5333  0.2218
 3623SOL    HW122505   1.704   3.736   1.200 -0.3836  1.3745  1.2372
 3623SOL    HW222506   1.580   3.765   1.277 -1.0341  0.3377 -0.1885
 3624SOL     OW22507   3.871   2.837   3.729  0.3429 -1.1618  0.1068
 3624SOL    HW122508   3.799   2.776   3.738 -1.1796  0.3458 -1.8509
 3624SOL    HW222509   3.881   2.873   3.817  2.6137  0.2902 -0.7142
 3625SOL     OW22510   3.164   3.442  15.102 -0.4738  0.3007  0.8282
 3625SOL    HW122511   3.178   3.494  15.023  0.0265 -1.5449 -0.2955
 3625SOL    HW222512   3.249   3.398  15.111  0.0583  1.1182 -0.1352
 3626SOL     OW22513   2.509   4.013   2.844 -0.2517 -0.0158  0.1661
 3626SOL    HW122514   2.491   3.948   2.912  0.1722 -0.2409  0.0588
 3626SOL    HW222515   2.555   4.083   2.891 -0.4191 -0.4973  1.0457
 3627SOL     OW22516   3.390   0.076   9.257 -0.0142 -0.3657  0.1572
 3627SOL    HW122517   3.481   0.085   9.230 -0.2316  0.0151 -0.4407
 3627SOL    HW222518   3.391   0.066   9.352  2.2749  1.2422  0.2984
 3628SOL     OW22519   4.361   4.007  15.106  0.1897 -0.1847 -0.1683
 3628SOL    HW122520   4.417   3.991  15.030 -0.8218  0.1336 -0.9885
 3628SOL    HW222521   4.329   4.096  15.095 -0.6305 -0.7351 -2.2373
 3629SOL     OW22522   1.032   4.487   7.103  0.2381 -0.0932  0.4311
 3629SOL    HW122523   0.950   4.489   7.152  1.4816 -0.6842  2.5352
 3629SOL    HW222524   0.995   4.508   7.017 -1.5134 -0.9206  0.9855
 3630SOL     OW22525   4.385   1.113   5.388 -0.7877  0.0029  0.2641
 3630SOL    HW122526   4.385   1.141   5.480 -1.1980 -0.2164  0.3296
 3630SOL    HW222527   4.344   1.026   5.395  0.7273 -0.7479 -0.1154
 3631SOL     OW22528   2.936   3.461  17.410  0.1275  0.4805  0.3570
 3631SOL    HW122529   2.941   3.497  17.322  0.9532 -1.0492 -0.2038
 3631SOL    HW222530   2.943   3.538  17.468  2.3474  2.4030 -2.4477
 3632SOL     OW22531   2.392   1.598   5.851 -0.1585 -0.0137  0.0360
 3632SOL    HW122532   2.398   1.685   5.812  0.6976  0.2683  0.7773
 3632SOL    HW222533   2.298   1.580   5.849 -0.8914  4.0359 -2.0470
 3633SOL     OW22534   2.060   3.774   9.764  0.2569 -0.3215 -0.0196
 3633SOL    HW122535   1.986   3.718   9.788 -0.0242 -0.5193 -1.3476
 3633SOL    HW222536   2.043   3.861   9.798 -0.2618  0.8213 -3.1714
 3634SOL     OW22537   1.232   1.339   7.606  0.1542 -0.0398 -0.5504
 3634SOL    HW122538   1.257   1.272   7.670  1.3236  1.9843  1.1272
 3634SOL    HW222539   1.214   1.291   7.525 -0.9028  0.6505 -0.7187
 3635SOL     OW22540   0.954   2.736  14.934  0.0672 -0.2075  0.0297
 3635SOL    HW122541   0.860   2.725  14.948 -0.2952  1.3212 -1.1317
 3635SOL    HW222542   0.975   2.723  15.026  0.1693 -2.3186 -0.2897
 3636SOL     OW22543   2.701   4.015  12.188 -0.1402 -0.0171  0.0948
 3636SOL    HW122544   2.718   3.925  12.160  1.3951  0.5877 -0.8881
 3636SOL    HW222545   2.779   4.043  12.236  0.2375 -0.4520 -0.2574
 3637SOL     OW22546   3.249   3.933   7.152 -0.3207 -0.7063 -0.0739
 3637SOL    HW122547   3.309   3.867   7.118 -0.6479 -1.2243  0.3459
 3637SOL    HW222548   3.276   4.012   7.106  0.9397 -1.7930 -1.1958
 3638SOL     OW22549   0.398   4.300  10.465  0.3422  0.1137  0.7783
 3638SOL    HW122550   0.326   4.358  10.486 -0.0643  0.3288 -1.2173
 3638SOL    HW222551   0.380   4.282  10.373 -1.7785 -3.3261  1.8855
 3639SOL     OW22552   2.114   3.730   4.567  0.3984  0.3448 -0.2242
 3639SOL    HW122553   2.099   3.636   4.560  1.6004  0.0936  0.5678
 3639SOL    HW222554   2.206   3.736   4.592  0.6335  1.1983 -1.3123
 3640SOL     OW22555   3.226   0.025   8.269  0.0453 -0.1378  0.4992
 3640SOL    HW122556   3.173   0.094   8.229  1.9933  0.6054 -0.8412
 3640SOL    HW222557   3.158   4.697   8.294  0.0327 -0.4895 -0.4169
 3641SOL     OW22558   4.570   1.133   9.175 -0.3721 -0.6304  0.4213
 3641SOL    HW122559   4.637   1.093   9.230 -0.3521 -1.0007  0.1227
 3641SOL    HW222560   4.594   1.225   9.189  0.5639 -0.6824 -0.8528
 3642SOL     OW22561   3.495   2.619   9.152  0.1704 -0.4817  0.2435
 3642SOL    HW122562   3.490   2.542   9.208  1.6501  0.9345  2.3121
 3642SOL    HW222563   3.403   2.646   9.145  0.3430  1.0172  3.5158
 3643SOL     OW22564   1.993   3.340   4.001  0.2593  0.1954  0.0900
 3643SOL    HW122565   1.957   3.253   4.015 -0.7907  0.2564 -2.2219
 3643SOL    HW222566   1.994   3.370   4.092 -0.7513  0.0438  0.1539
 3644SOL     OW22567   1.591   4.560   0.736  0.4607 -0.0016 -0.4333
 3644SOL    HW122568   1.507   4.591   0.703 -0.5525 -0.7569  1.4937
 3644SOL    HW222569   1.599   4.501   0.661  2.7121 -1.8737  1.3069
 3645SOL     OW22570   4.004   0.519   9.529  0.0845  0.4236  0.3131
 3645SOL    HW122571   4.078   0.533   9.469 -0.3537  0.1131 -0.3022
 3645SOL    HW222572   3.924   0.546   9.485 -0.6905 -3.1707 -0.4961
 3646SOL     OW22573   0.082   1.724  16.366  0.2334 -0.2003 -0.1992
 3646SOL    HW122574   4.721   1.717  16.369  0.3168 -1.3241 -0.3518
 3646SOL    HW222575   0.104   1.647  16.417  0.7181 -0.1863 -0.3866
 3647SOL     OW22576   0.727   4.450  10.891  0.6587 -0.2741 -0.0056
 3647SOL    HW122577   0.736   4.393  10.815  0.7523 -0.1166 -0.1115
 3647SOL    HW222578   0.635   4.475  10.885  0.8441  0.3446 -0.2250
 3648SOL     OW22579   1.074   3.423  12.193 -0.0495 -0.1381  0.6008
 3648SOL    HW122580   0.980   3.430  12.177  0.4495  0.4181 -2.2256
 3648SOL    HW222581   1.107   3.510  12.167 -1.2165  0.6149  1.6259
 3649SOL     OW22582   4.265   2.646   7.760 -0.2677  0.2884 -0.1002
 3649SOL    HW122583   4.312   2.649   7.677 -0.3114  1.0047 -0.0983
 3649SOL    HW222584   4.296   2.723   7.808  0.7065  1.1894 -2.1680
 3650SOL     OW22585   1.063   0.669  11.502  0.1206 -0.3060  0.1220
 3650SOL    HW122586   1.023   0.643  11.418  2.0133 -0.5302 -0.7163
 3650SOL    HW222587   1.137   0.720  11.470  0.6648 -1.5387 -0.6170
 3651SOL     OW22588   1.631   0.797  17.326 -0.5162  0.4137 -0.4921
 3651SOL    HW122589   1.708   0.793  17.269 -0.4428  0.3742 -0.3901
 3651SOL    HW222590   1.644   0.719  17.380  1.6352  1.0922 -0.0187
 3652SOL     OW22591   1.882   4.302  10.528  0.1894 -0.8276 -0.1460
 3652SOL    HW122592   1.961   4.318  10.477 -1.3473 -0.8293 -2.5412
 3652SOL    HW222593   1.898   4.354  10.607 -4.1166  1.2556 -0.6383
 3653SOL     OW22594   3.938   2.751   8.235  0.8379  0.0348 -0.4777
 3653SOL    HW122595   4.032   2.733   8.233  0.8942  0.1750  1.4306
 3653SOL    HW222596   3.916   2.729   8.144  1.7820  0.8852 -0.9055
 3654SOL     OW22597   4.132   4.341   6.383  0.5049  0.5472 -0.4036
 3654SOL    HW122598   4.109   4.431   6.406 -1.4779 -0.3060  0.9813
 3654SOL    HW222599   4.103   4.350   6.292  1.8435  1.0031 -0.7737
 3655SOL     OW22600   3.792   2.647   1.899  0.4075 -0.1760 -0.1858
 3655SOL    HW122601   3.748   2.695   1.969  0.3434 -0.8928  0.2632
 3655SOL    HW222602   3.802   2.567   1.949  2.5579  0.4919  0.4521
 3656SOL     OW22603   2.431   0.367  17.137  0.6241  0.3690 -0.4253
 3656SOL    HW122604   2.428   0.416  17.219  2.6502 -0.5938  0.2275
 3656SOL    HW222605   2.401   0.438  17.080  0.6108  0.3705 -0.4166
 3657SOL     OW22606   1.366   1.504   1.718  0.9887 -0.2195 -0.1977
 3657SOL    HW122607   1.355   1.589   1.759  1.4041  0.5589 -1.6863
 3657SOL    HW222608   1.308   1.521   1.643 -0.6215 -0.0149  1.0984
 3658SOL     OW22609   0.772   1.172  15.241 -0.3595 -0.2910 -0.2420
 3658SOL    HW122610   0.716   1.122  15.301  0.2093 -0.4448  0.1605
 3658SOL    HW222611   0.815   1.237  15.297  1.7200 -0.1347 -2.0379
 3659SOL     OW22612   0.826   0.695   9.511 -0.1437  0.2888 -0.4071
 3659SOL    HW122613   0.830   0.782   9.553  0.8242  0.6521 -1.2509
 3659SOL    HW222614   0.906   0.659   9.551 -0.4806  0.5194  0.4839
 3660SOL     OW22615   3.341   0.692   7.275 -0.0867  0.2911  0.0567
 3660SOL    HW122616   3.389   0.610   7.263  3.8123  2.1474  3.1561
 3660SOL    HW222617   3.251   0.669   7.252 -0.0738 -0.1154  0.4049
 3661SOL     OW22618   3.243   0.946   8.427 -0.3443  0.7951 -0.8450
 3661SOL    HW122619   3.178   0.887   8.387  0.2147  0.3808 -1.1408
 3661SOL    HW222620   3.179   0.981   8.489 -0.5807  0.5495 -0.9465
 3662SOL     OW22621   4.069   1.603   4.533 -0.5045 -0.2817  0.3345
 3662SOL    HW122622   4.029   1.642   4.611  0.7518  1.4669  0.1201
 3662SOL    HW222623   3.996   1.623   4.475  0.5618 -0.0177 -0.9053
 3663SOL     OW22624   1.681   1.832  16.526 -0.4687  0.0661  0.2324
 3663SOL    HW122625   1.774   1.852  16.529 -0.5141  0.5858 -2.0184
 3663SOL    HW222626   1.654   1.923  16.512 -0.6182  0.3717  2.4609
 3664SOL     OW22627   3.754   1.495  11.678  0.1873 -0.4054 -0.1087
 3664SOL    HW122628   3.707   1.451  11.748 -2.1425 -0.2139 -1.5449
 3664SOL    HW222629   3.844   1.475  11.703  0.0746 -0.3929  0.2970
 3665SOL     OW22630   4.150   0.382   2.690  0.5435  0.2228  0.3189
 3665SOL    HW122631   4.093   0.458   2.680  0.8199  0.4051  0.1127
 3665SOL    HW222632   4.202   0.394   2.610  0.0915  1.4960  0.2131
 3666SOL     OW22633   4.490   3.983   6.617  0.0157  0.1615  0.1513
 3666SOL    HW122634   4.570   4.032   6.596  0.6083 -0.9333 -0.1655
 3666SOL    HW222635   4.467   3.933   6.539 -1.5501  2.3599 -0.7963
 3667SOL     OW22636   1.749   0.151  16.845 -0.4668 -0.3150  0.1805
 3667SOL    HW122637   1.783   0.063  16.862 -0.0705 -0.0398  0.8099
 3667SOL    HW222638   1.751   0.145  16.749  0.1764 -1.4079  0.2617
 3668SOL     OW22639   0.563   3.929   2.573 -0.2023  0.1230  0.5012
 3668SOL    HW122640   0.573   3.834   2.586  0.5835  0.1153 -0.1359
 3668SOL    HW222641   0.491   3.941   2.634 -1.0267  1.0598 -0.6520
 3669SOL     OW22642   2.994   2.525   2.367  0.0838  0.2334  0.5751
 3669SOL    HW122643   2.982   2.605   2.419 -2.1867  2.2760 -3.0709
 3669SOL    HW222644   3.018   2.561   2.282 -1.5782  0.6176  0.2533
 3670SOL     OW22645   1.987   0.932   3.377  0.6532 -0.5071 -0.6904
 3670SOL    HW122646   1.915   0.875   3.349  0.2836 -0.9426  1.1740
 3670SOL    HW222647   2.075   0.901   3.354  0.9721 -1.2544  1.5862
 3671SOL     OW22648   3.532   1.332   6.930  0.0554 -1.0529  0.0731
 3671SOL    HW122649   3.565   1.304   7.015 -1.4721  1.1334  1.3722
 3671SOL    HW222650   3.513   1.245   6.894  1.6053 -1.5584  0.4583
 3672SOL     OW22651   1.552   2.739  14.046 -0.2326 -0.4172 -0.3027
 3672SOL    HW122652   1.495   2.792  13.991  0.2100  0.0328 -0.3183
 3672SOL    HW222653   1.637   2.749  14.004 -0.2785 -0.2078 -0.3442
 3673SOL     OW22654   0.606   2.059  17.695  0.1471 -0.9869 -0.3087
 3673SOL    HW122655   0.681   2.000  17.702  0.7112 -0.2027  0.3118
 3673SOL    HW222656   0.544   1.993  17.665  0.2156 -1.1157 -0.1609
 3674SOL     OW22657   4.208   0.302   4.364  0.7244 -0.5591 -0.2026
 3674SOL    HW122658   4.176   0.392   4.352  2.8618  0.3522  0.9710
 3674SOL    HW222659   4.158   0.284   4.444  0.3346 -0.8365 -0.5079
 3675SOL     OW22660   2.020   1.641   2.074  0.8131  0.3541  0.8832
 3675SOL    HW122661   2.029   1.736   2.065 -0.0391  0.5748  2.4085
 3675SOL    HW222662   2.088   1.631   2.140  2.2291 -0.7332 -0.7421
 3676SOL     OW22663   1.596   0.691   9.626 -0.0904 -0.1147  0.0425
 3676SOL    HW122664   1.683   0.664   9.655 -0.7277 -0.6978  1.4426
 3676SOL    HW222665   1.564   0.718   9.712  0.1740  1.5517 -0.3766
 3677SOL     OW22666   3.837   0.816  13.040  0.5770  0.3033 -0.6924
 3677SOL    HW122667   3.801   0.729  13.057  1.1350  0.1940 -0.0617
 3677SOL    HW222668   3.928   0.797  13.063  0.5964  0.1751 -0.8745
 3678SOL     OW22669   4.115   2.812   6.625 -0.0150 -0.1087  0.0368
 3678SOL    HW122670   4.210   2.801   6.638  0.1760  0.1174 -1.1829
 3678SOL    HW222671   4.120   2.828   6.531 -0.1438 -1.4730 -0.1978
 3679SOL     OW22672   2.448   4.068   3.858  0.2936  0.2560  0.1176
 3679SOL    HW122673   2.448   4.164   3.861 -0.4971  0.2438  0.4724
 3679SOL    HW222674   2.541   4.047   3.846  0.9214  2.8794  0.2259
 3680SOL     OW22675   0.591   4.312   2.794  0.3978 -0.2342  0.0341
 3680SOL    HW122676   0.529   4.360   2.849 -0.2357 -1.8716  0.7430
 3680SOL    HW222677   0.537   4.278   2.723  0.4875  1.0465 -0.6440
 3681SOL     OW22678   2.677   1.440  13.006  0.2726 -0.0805 -0.1219
 3681SOL    HW122679   2.592   1.401  12.987 -0.3743  0.9126  0.7814
 3681SOL    HW222680   2.710   1.482  12.927 -2.4153 -3.1922 -2.8988
 3682SOL     OW22681   2.233   1.306   9.272  0.3165 -0.2841 -0.0877
 3682SOL    HW122682   2.239   1.220   9.231  0.7945 -1.0834  1.6513
 3682SOL    HW222683   2.293   1.347   9.210 -0.1521 -1.7786 -1.5347
 3683SOL     OW22684   3.159   4.181   8.495 -0.1216 -0.6578  0.1550
 3683SOL    HW122685   3.066   4.181   8.473 -0.2590  2.7150  0.7233
 3683SOL    HW222686   3.151   4.151   8.586  0.5890 -0.1302  0.3911
 3684SOL     OW22687   3.554   4.113   6.529  0.1282 -0.5458 -0.1620
 3684SOL    HW122688   3.609   4.088   6.454 -1.4095  0.9899 -1.8029
 3684SOL    HW222689   3.585   4.203   6.542  1.9815 -1.4414  1.6224
 3685SOL     OW22690   1.285   2.226   1.407  0.0883 -0.5116  0.0015
 3685SOL    HW122691   1.253   2.161   1.345 -1.0653 -1.3996  1.5364
 3685SOL    HW222692   1.343   2.174   1.461 -0.3882 -1.0657 -0.0152
 3686SOL     OW22693   1.813   0.168   9.043  0.2757 -0.0460 -0.7321
 3686SOL    HW122694   1.862   0.098   9.000  2.8288  0.8235  0.7789
 3686SOL    HW222695   1.768   0.204   8.967 -0.2689 -1.1370 -0.9244
 3687SOL     OW22696   1.287   4.240   2.227  0.1477 -0.5070  0.3910
 3687SOL    HW122697   1.341   4.211   2.154 -0.3382 -1.4398  0.3888
 3687SOL    HW222698   1.269   4.331   2.203  0.0861 -0.3822  0.9050
 3688SOL     OW22699   1.948   4.039  17.714  0.1491  0.4742 -0.2512
 3688SOL    HW122700   2.020   4.018   0.040  0.1053  0.4625 -0.2032
 3688SOL    HW222701   1.985   3.997  17.636  1.2444  1.1310 -0.0809
 3689SOL     OW22702   2.723   0.785   4.458  0.4237  0.5677 -0.2827
 3689SOL    HW122703   2.747   0.811   4.369  0.1677 -2.2349 -1.1720
 3689SOL    HW222704   2.716   0.690   4.452  1.9798  0.4453 -0.3493
 3690SOL     OW22705   4.557   3.294   8.212  0.3197  0.3643  0.9997
 3690SOL    HW122706   4.552   3.300   8.116 -1.9321  1.9173  1.2196
 3690SOL    HW222707   4.511   3.377   8.224  0.3496  0.8786 -2.3598
 3691SOL     OW22708   2.755   0.271   2.940  0.0287 -0.3883 -0.6616
 3691SOL    HW122709   2.802   0.260   3.023  0.6350  2.5359 -0.6239
 3691SOL    HW222710   2.674   0.313   2.970 -1.1075 -0.8602 -3.0903
 3692SOL     OW22711   0.726   2.296   1.187 -0.2553 -0.7239 -0.2498
 3692SOL    HW122712   0.666   2.323   1.118  1.0600 -0.6381 -1.3668
 3692SOL    HW222713   0.677   2.287   1.269  0.2526 -0.4577  0.0813
 3693SOL     OW22714   2.179   4.202  17.289  0.0867 -0.2334  0.3480
 3693SOL    HW122715   2.094   4.170  17.319  0.8176 -1.8002  0.7682
 3693SOL    HW222716   2.188   4.146  17.213  2.1384 -0.9561  1.1370
 3694SOL     OW22717   1.864   1.219  11.706  0.3414  0.0436 -0.7251
 3694SOL    HW122718   1.813   1.254  11.779 -1.7349  0.6552 -2.4474
 3694SOL    HW222719   1.790   1.190  11.652  1.1596  0.7009 -2.1877
 3695SOL     OW22720   2.291   0.526   5.668 -0.0729  0.2631  0.4441
 3695SOL    HW122721   2.249   0.612   5.678 -1.1349 -0.1054 -0.7729
 3695SOL    HW222722   2.265   0.479   5.747  0.0546 -0.7584 -0.1162
 3696SOL     OW22723   2.984   0.655  14.150 -0.1326 -0.9585 -0.3675
 3696SOL    HW122724   2.983   0.575  14.097  1.7656 -1.4528  0.3220
 3696SOL    HW222725   2.973   0.612  14.234 -0.6964  0.8540  0.4859
 3697SOL     OW22726   3.996   4.013   4.243 -0.4212  0.3702 -0.1161
 3697SOL    HW122727   3.911   3.994   4.283 -1.5069  1.2875 -1.9961
 3697SOL    HW222728   3.983   3.990   4.151 -1.1885  0.5721 -0.0602
 3698SOL     OW22729   3.955   1.463   3.766  0.5781  0.5374  0.0412
 3698SOL    HW122730   3.974   1.397   3.833  0.8717 -0.0589 -0.6266
 3698SOL    HW222731   4.031   1.519   3.784 -0.5243  1.6424  1.2757
 3699SOL     OW22732   0.908   3.442   9.003  0.3552 -0.0342 -0.9547
 3699SOL    HW122733   0.881   3.466   8.914 -0.3997 -0.9589 -0.9741
 3699SOL    HW222734   0.983   3.389   8.975 -0.7809 -1.8908 -0.4549
 3700SOL     OW22735   2.926   4.175   5.522 -0.2231  0.1645 -0.0700
 3700SOL    HW122736   2.935   4.191   5.616  1.0699  0.9814 -0.3385
 3700SOL    HW222737   2.958   4.254   5.478 -1.4583  0.3455 -0.6421
 3701SOL     OW22738   1.728   4.698   5.491  0.1981 -0.2417 -0.4723
 3701SOL    HW122739   1.662   4.701   5.561 -0.4426  0.8439 -1.1259
 3701SOL    HW222740   1.790   0.036   5.508  1.4826 -1.8450  1.7107
 3702SOL     OW22741   2.496   0.827  13.918 -0.2676  0.2323  0.3181
 3702SOL    HW122742   2.564   0.857  13.979 -0.4253 -0.6777  0.9328
 3702SOL    HW222743   2.451   0.911  13.903 -0.4958 -0.0238 -0.4564
 3703SOL     OW22744   2.923   0.419   4.658  0.0309  0.2568  0.3533
 3703SOL    HW122745   2.894   0.478   4.589 -2.7203 -0.3649  0.9925
 3703SOL    HW222746   2.870   0.340   4.646  0.8582 -0.8158  3.6970
 3704SOL     OW22747   1.740   2.617  10.666  0.7372  0.5144 -0.0704
 3704SOL    HW122748   1.741   2.590  10.574 -0.7995 -2.1972  0.7256
 3704SOL    HW222749   1.832   2.634  10.685  1.2446 -3.1775  0.6902
 3705SOL     OW22750   1.138   0.262  11.468  0.4490 -0.0140 -0.5834
 3705SOL    HW122751   1.205   0.195  11.474  0.6500  0.4734  2.7385
 3705SOL    HW222752   1.098   0.260  11.555  1.0214 -0.5823 -0.3335
 3706SOL     OW22753   3.493   2.431   2.513  0.9983  0.4268 -0.2421
 3706SOL    HW122754   3.509   2.506   2.456  1.1339  1.2753  0.9221
 3706SOL    HW222755   3.475   2.368   2.443 -0.4329  0.1683  0.3596
 3707SOL     OW22756   1.247   3.937   9.028  0.0736  0.3879 -0.7662
 3707SOL    HW122757   1.341   3.953   9.030 -0.2527  2.0274  1.8802
 3707SOL    HW222758   1.247   3.844   9.052  0.7038  0.2253 -1.4012
 3708SOL     OW22759   0.674   2.718   5.085 -0.3699  0.0632 -0.3526
 3708SOL    HW122760   0.755   2.767   5.073 -1.0764  0.3972 -3.5850
 3708SOL    HW222761   0.708   2.641   5.130 -2.2438 -0.0245  0.9306
 3709SOL     OW22762   2.474   3.965   2.413  0.0463  0.4614  0.1388
 3709SOL    HW122763   2.483   3.996   2.322  1.4474 -2.9181 -0.8809
 3709SOL    HW222764   2.450   3.873   2.401 -1.2819  1.0108 -1.4475
 3710SOL     OW22765   3.124   2.996   4.352 -0.1882  0.4237 -0.5078
 3710SOL    HW122766   3.087   3.054   4.287  0.5098  2.6659  1.0890
 3710SOL    HW222767   3.054   2.931   4.342  1.3490 -1.4759  0.9708
 3711SOL     OW22768   1.588   3.419   4.411  0.4002 -0.4393  0.0930
 3711SOL    HW122769   1.543   3.335   4.423 -0.5804  0.0331 -0.2716
 3711SOL    HW222770   1.536   3.462   4.343  0.5513  2.3637  1.7785
 3712SOL     OW22771   4.499   2.578   4.066  0.3113  0.5060  0.3452
 3712SOL    HW122772   4.452   2.546   4.143 -4.0168 -0.3281 -2.6270
 3712SOL    HW222773   4.586   2.538   4.070  0.1724 -0.0213 -1.8188
 3713SOL     OW22774   3.092   1.781   9.743  0.0735 -0.2860 -0.2581
 3713SOL    HW122775   3.049   1.695   9.744  0.9995 -0.7571 -0.3089
 3713SOL    HW222776   3.017   1.839   9.730 -1.6666 -2.7892 -1.4275
 3714SOL     OW22777   3.270   0.885  14.378 -0.4693 -0.0943  0.2424
 3714SOL    HW122778   3.338   0.949  14.357 -1.8219  0.9971 -0.8033
 3714SOL    HW222779   3.299   0.859  14.466 -2.1509 -1.0816  0.5091
 3715SOL     OW22780   3.568   4.237  16.821  0.4276  0.3262  0.3766
 3715SOL    HW122781   3.527   4.323  16.827  0.6840  0.4464  0.3596
 3715SOL    HW222782   3.624   4.249  16.897 -0.4811  1.8740  0.7967
 3716SOL     OW22783   4.479   3.873   2.901 -0.4910 -0.2192 -0.4525
 3716SOL    HW122784   4.421   3.802   2.874 -0.0939 -1.1995  1.2674
 3716SOL    HW222785   4.420   3.949   2.897 -2.0416 -1.4740 -1.2028
 3717SOL     OW22786   0.841   3.425   8.715 -0.0768 -0.4722  0.2447
 3717SOL    HW122787   0.788   3.350   8.743  0.1818 -0.6584  0.2365
 3717SOL    HW222788   0.814   3.440   8.624  0.7050  2.1439  0.4559
 3718SOL     OW22789   0.839   2.954   2.614  0.1906 -0.0187 -0.1093
 3718SOL    HW122790   0.805   2.866   2.597 -1.4389  0.3736  1.2076
 3718SOL    HW222791   0.932   2.933   2.628  0.8648  0.4617 -3.7943
 3719SOL     OW22792   3.748   3.567   4.297  0.0379  0.0899 -0.4716
 3719SOL    HW122793   3.840   3.556   4.276  0.8016  1.2784  2.2938
 3719SOL    HW222794   3.719   3.481   4.266  1.6353  0.0656 -1.8885
 3720SOL     OW22795   2.516   1.350   4.983  0.5793  0.3059  0.3166
 3720SOL    HW122796   2.435   1.401   4.974 -0.3205 -0.7480  2.3995
 3720SOL    HW222797   2.538   1.369   5.074  4.0242 -0.0351 -0.4404
 3721SOL     OW22798   1.502   0.636   5.728  0.1409 -0.7109 -0.0097
 3721SOL    HW122799   1.454   0.710   5.691  0.6836  0.2583  1.2079
 3721SOL    HW222800   1.499   0.574   5.655 -1.7708 -1.4171  0.6626
 3722SOL     OW22801   1.040   1.841  15.588  0.5427 -0.2688 -0.1293
 3722SOL    HW122802   1.110   1.886  15.541  1.3516 -1.9929 -0.5705
 3722SOL    HW222803   0.960   1.891  15.570 -0.7310 -2.0918  0.4785
 3723SOL     OW22804   1.394   3.225  16.127  0.1919  0.2123 -0.2997
 3723SOL    HW122805   1.379   3.141  16.083  2.3981 -0.5561  0.4538
 3723SOL    HW222806   1.487   3.220  16.149  0.2441  1.7414 -0.1934
 3724SOL     OW22807   4.311   1.655   5.856 -0.3146 -0.0939 -0.8029
 3724SOL    HW122808   4.225   1.626   5.824 -0.3793 -0.0686 -0.6515
 3724SOL    HW222809   4.356   1.674   5.774  3.7849 -4.6528  0.3718
 3725SOL     OW22810   2.959   2.595   5.243  0.0848 -0.1698 -1.0378
 3725SOL    HW122811   2.989   2.669   5.296 -1.5523  0.0823 -0.4873
 3725SOL    HW222812   3.029   2.590   5.178  1.7387  1.1516  0.6342
 3726SOL     OW22813   2.672   3.007   8.286  0.1805 -0.2631 -0.3712
 3726SOL    HW122814   2.732   2.978   8.355 -1.6528 -1.4940  0.6866
 3726SOL    HW222815   2.597   3.028   8.341 -0.1685  0.8700 -1.2787
 3727SOL     OW22816   3.715   4.186   8.881 -0.0790 -0.2028  0.3927
 3727SOL    HW122817   3.795   4.135   8.891  0.0665  0.1348  0.9345
 3727SOL    HW222818   3.692   4.167   8.790  2.3592 -1.0663 -0.0268
 3728SOL     OW22819   1.686   0.969   1.567 -0.5858  0.7027  0.4527
 3728SOL    HW122820   1.765   1.023   1.557 -1.0864  1.2950 -0.2437
 3728SOL    HW222821   1.726   0.882   1.563 -2.2806 -0.1291  1.8685
 3729SOL     OW22822   1.912   1.268   6.541 -0.1328  0.6631 -0.4761
 3729SOL    HW122823   1.974   1.235   6.606 -2.3090  1.3078  1.9463
 3729SOL    HW222824   1.828   1.233   6.572 -0.0695 -0.2334 -1.3242
 3730SOL     OW22825   2.859   4.334   9.256  1.0046 -0.2330  0.1000
 3730SOL    HW122826   2.951   4.312   9.241  0.8280 -1.0199  0.1894
 3730SOL    HW222827   2.864   4.353   9.349 -1.9393  1.2369 -0.0445
 3731SOL     OW22828   2.552   1.246  14.838  0.2565 -0.3492  0.1018
 3731SOL    HW122829   2.599   1.213  14.762  0.9827  1.6076 -0.2891
 3731SOL    HW222830   2.474   1.277  14.793  0.5054 -1.0839 -0.8347
 3732SOL     OW22831   4.133   1.198   9.381 -0.1297 -0.2365 -0.3200
 3732SOL    HW122832   4.147   1.292   9.387 -0.6476 -0.2942  2.0185
 3732SOL    HW222833   4.106   1.177   9.471 -1.6736  1.2031 -0.4488
 3733SOL     OW22834   3.341   3.657   0.213 -0.2363 -0.4018  0.0188
 3733SOL    HW122835   3.315   3.569   0.187 -2.6310 -0.3283  2.1902
 3733SOL    HW222836   3.301   3.645   0.299 -0.4148 -0.0625 -0.0150
 3734SOL     OW22837   3.713   4.410  15.484 -0.1188 -0.4055 -0.3000
 3734SOL    HW122838   3.706   4.351  15.409  0.4506 -1.2822  0.3217
 3734SOL    HW222839   3.769   4.348  15.532  1.9299  1.4356 -0.3358
 3735SOL     OW22840   1.931   2.621   7.721 -0.6473 -0.4995  0.4101
 3735SOL    HW122841   1.984   2.566   7.662  0.8496  1.2908  0.0851
 3735SOL    HW222842   2.011   2.664   7.753  0.0627 -0.4570 -1.4451
 3736SOL     OW22843   4.403   1.325   0.594  0.3896  0.0814  0.5706
 3736SOL    HW122844   4.424   1.272   0.670  1.0352 -2.6770 -1.5144
 3736SOL    HW222845   4.341   1.265   0.553  0.5865 -1.2457  2.2582
 3737SOL     OW22846   3.856   3.620   2.538  0.4843 -0.5075  0.3797
 3737SOL    HW122847   3.894   3.638   2.624  1.3257  3.5427 -0.8455
 3737SOL    HW222848   3.768   3.655   2.550  0.1612 -0.6487 -1.6210
 3738SOL     OW22849   1.653   2.751  13.749  0.5748  0.3265 -0.1585
 3738SOL    HW122850   1.639   2.657  13.737 -0.3315  0.2173  1.6688
 3738SOL    HW222851   1.562   2.778  13.761  0.0861 -1.1717 -0.4948
 3739SOL     OW22852   4.379   0.045   4.035  0.0678 -0.0728  0.1515
 3739SOL    HW122853   4.455   0.041   3.977  0.9349  0.2874  1.2591
 3739SOL    HW222854   4.351   0.136   4.043 -3.5215 -1.2894  1.5946
 3740SOL     OW22855   2.262   1.091  12.200 -0.5380  0.2928  0.4745
 3740SOL    HW122856   2.346   1.070  12.240  0.0660  0.2105 -0.8291
 3740SOL    HW222857   2.236   1.160  12.261  1.3001  0.0090  1.5637
 3741SOL     OW22858   2.498   2.719  13.658  0.6032  0.2234 -0.3206
 3741SOL    HW122859   2.434   2.658  13.623 -0.8335  0.0507  2.5594
 3741SOL    HW222860   2.471   2.729  13.750  0.4496  0.9836 -0.4454
 3742SOL     OW22861   4.310   1.344   4.868  0.2011  0.3264 -0.1904
 3742SOL    HW122862   4.352   1.297   4.796  0.9379  0.6641  0.0149
 3742SOL    HW222863   4.373   1.325   4.939 -0.2490  0.5664  0.2760
 3743SOL     OW22864   1.966   4.372   7.430 -0.9121  0.0663 -0.0565
 3743SOL    HW122865   1.968   4.291   7.481  1.6505  0.3690  0.3522
 3743SOL    HW222866   1.986   4.345   7.340  0.1322 -1.2632  0.5751
 3744SOL     OW22867   1.091   1.255   7.933 -0.4923  0.2374  0.8097
 3744SOL    HW122868   1.099   1.257   8.028 -1.8094  0.4416  0.9256
 3744SOL    HW222869   1.170   1.216   7.896  0.3051  2.5896  0.0028
 3745SOL     OW22870   0.137   2.161   6.714 -0.3323 -0.1855 -0.1115
 3745SOL    HW122871   0.081   2.207   6.776 -0.3285  0.4571 -0.5825
 3745SOL    HW222872   0.222   2.203   6.728  0.6997 -1.9713 -1.0216
 3746SOL     OW22873   0.046   2.359   1.350  0.4395  0.3312 -0.0232
 3746SOL    HW122874   0.066   2.272   1.317 -0.9671  0.4728 -1.2731
 3746SOL    HW222875   0.134   2.396   1.351 -0.2695  2.0620  0.1096
 3747SOL     OW22876   2.724   1.364   0.409  0.0858  0.4571 -1.1514
 3747SOL    HW122877   2.766   1.305   0.472  0.1022  0.9110 -0.7374
 3747SOL    HW222878   2.630   1.353   0.427  0.0907  0.8019 -0.9099
 3748SOL     OW22879   0.774   0.065   6.558 -0.4759  0.4094  0.2547
 3748SOL    HW122880   0.733   4.714   6.543 -0.9971  0.6779  0.1627
 3748SOL    HW222881   0.781   0.099   6.469  2.5565  1.5674  0.9291
 3749SOL     OW22882   0.459   1.177   3.151  0.1805  0.2557  0.0502
 3749SOL    HW122883   0.543   1.193   3.108  0.4928  2.4352  1.4843
 3749SOL    HW222884   0.483   1.207   3.238 -0.5868  1.9955 -0.3422
 3750SOL     OW22885   1.615   2.383   8.108 -0.2839  0.2587  0.1201
 3750SOL    HW122886   1.577   2.468   8.132  0.0941  0.8770 -1.4571
 3750SOL    HW222887   1.684   2.399   8.044 -0.6752 -0.7376 -0.5453
 3751SOL     OW22888   0.908   1.447   1.725  0.3607  0.1216 -0.0723
 3751SOL    HW122889   0.968   1.406   1.662 -0.3757  2.7064 -2.4461
 3751SOL    HW222890   0.967   1.499   1.780  2.7020 -2.3872 -0.2311
 3752SOL     OW22891   2.532   0.999   2.759 -0.3720  0.4787 -0.3751
 3752SOL    HW122892   2.509   0.994   2.667 -1.0743  2.5772 -0.3169
 3752SOL    HW222893   2.625   0.978   2.753 -1.4065 -3.7421 -1.2626
 3753SOL     OW22894   4.662   4.108   2.587 -0.7475  0.0660  0.3477
 3753SOL    HW122895   4.598   4.094   2.517 -1.5516  3.4354  0.4031
 3753SOL    HW222896   0.004   4.064   2.550 -0.4946 -0.0259  0.9716
 3754SOL     OW22897   4.250   3.748   8.487  0.0979  0.3133  0.3258
 3754SOL    HW122898   4.184   3.816   8.500 -0.0776  0.5651 -1.9993
 3754SOL    HW222899   4.330   3.801   8.477 -0.2760  0.7471 -0.3443
 3755SOL     OW22900   1.304   1.899   7.649 -0.2512 -0.6989 -0.5814
 3755SOL    HW122901   1.318   1.899   7.554  0.0269  2.8163 -0.5241
 3755SOL    HW222902   1.324   1.991   7.667  4.5529 -1.2365 -3.3618
 3756SOL     OW22903   3.263   0.260  16.343  0.3219 -0.2522 -0.3016
 3756SOL    HW122904   3.233   0.242  16.254  0.1750  1.1140 -0.5333
 3756SOL    HW222905   3.312   0.340  16.323 -1.3540  1.2711  1.7170
 3757SOL     OW22906   0.356   0.596   4.251 -0.8958  0.3714 -0.5943
 3757SOL    HW122907   0.338   0.545   4.172  1.3317  0.3329 -1.0832
 3757SOL    HW222908   0.301   0.551   4.314 -0.0394  1.1475  0.6952
 3758SOL     OW22909   2.089   1.473  14.032  0.0684 -0.5590  0.5364
 3758SOL    HW122910   2.122   1.454  13.944 -1.4951  0.3972 -0.2544
 3758SOL    HW222911   2.028   1.402  14.054  0.5387 -1.1547 -0.0555
 3759SOL     OW22912   0.150   0.007   6.321 -0.1345 -1.0928  0.1902
 3759SOL    HW122913   0.151   4.687   6.242 -3.7846  0.4720 -0.9139
 3759SOL    HW222914   0.154   4.674   6.390 -0.0584 -0.5347  0.7341
 3760SOL     OW22915   1.684   1.765  16.053 -0.5214  0.1862 -0.3088
 3760SOL    HW122916   1.627   1.692  16.028 -1.1271  1.6647 -3.2654
 3760SOL    HW222917   1.629   1.814  16.114  0.7665 -0.5345  1.4664
 3761SOL     OW22918   3.185   1.793   2.765  0.3079 -0.0803  0.1956
 3761SOL    HW122919   3.167   1.787   2.859 -0.8029  0.8249  0.0437
 3761SOL    HW222920   3.205   1.700   2.752 -0.7099 -0.4644  1.3238
 3762SOL     OW22921   1.356   1.153  11.560 -0.2219  0.0591 -0.5534
 3762SOL    HW122922   1.415   1.087  11.522 -2.2268 -1.5137 -0.9501
 3762SOL    HW222923   1.415   1.187  11.628 -0.5810 -0.6023  0.0915
 3763SOL     OW22924   0.310   2.091  14.721 -0.4721  0.3573  0.4062
 3763SOL    HW122925   0.247   2.048  14.780  0.1188  0.5506  1.1743
 3763SOL    HW222926   0.373   2.123  14.785 -0.0452  1.7274 -0.7055
 3764SOL     OW22927   0.968   2.357   4.161  0.3835  0.6225  0.3830
 3764SOL    HW122928   1.038   2.405   4.116  0.2782  0.8767  0.4935
 3764SOL    HW222929   0.907   2.344   4.088 -2.4285  4.4056  2.0506
 3765SOL     OW22930   1.755   4.498   5.137  0.5052 -0.7719  0.1247
 3765SOL    HW122931   1.700   4.547   5.198  1.4258  0.1286  0.2405
 3765SOL    HW222932   1.754   4.406   5.162  0.9677  0.0611  3.2748
 3766SOL     OW22933   2.591   3.785  11.563 -0.7775  0.0338  0.2726
 3766SOL    HW122934   2.566   3.780  11.471 -2.1188  1.1041  0.5841
 3766SOL    HW222935   2.613   3.696  11.589 -0.5024 -0.2327 -0.8922
 3767SOL     OW22936   1.327   0.461   1.171  0.2697  0.0293  0.1338
 3767SOL    HW122937   1.345   0.549   1.139 -1.1174 -0.0464 -0.8559
 3767SOL    HW222938   1.234   0.454   1.149  0.0736 -2.3030  1.6709
 3768SOL     OW22939   2.914   0.469   6.964  0.7639  0.1611 -0.1181
 3768SOL    HW122940   2.953   0.381   6.965 -0.3002 -0.3156 -0.3810
 3768SOL    HW222941   2.824   0.437   6.976  0.4965  0.5140 -1.1289
 3769SOL     OW22942   2.350   4.032   8.094  0.0506  0.1927  0.2459
 3769SOL    HW122943   2.358   3.995   8.006 -1.3689  2.9699 -1.0406
 3769SOL    HW222944   2.302   3.957   8.129 -0.6769 -0.2241 -1.6292
 3770SOL     OW22945   3.055   4.024   9.496  0.0489  0.6233 -0.1043
 3770SOL    HW122946   3.089   4.047   9.410 -1.2276 -0.2320 -0.8383
 3770SOL    HW222947   3.110   4.065   9.563  2.0886 -0.0778 -1.3372
 3771SOL     OW22948   3.976   3.471   7.542  0.5043 -0.2468 -0.5418
 3771SOL    HW122949   4.024   3.528   7.601 -1.2035 -0.2936  0.8825
 3771SOL    HW222950   3.994   3.517   7.460 -1.6567  0.9756 -0.3199
 3772SOL     OW22951   3.650   1.609   2.909  0.2252  0.0257  0.4547
 3772SOL    HW122952   3.726   1.666   2.923  0.6252 -1.0409  2.6296
 3772SOL    HW222953   3.569   1.659   2.919 -3.0312 -5.0493 -0.5777
 3773SOL     OW22954   2.127   3.209  14.120  0.5539  0.0965  0.1237
 3773SOL    HW122955   2.177   3.242  14.195  1.5865 -0.3766 -0.3621
 3773SOL    HW222956   2.045   3.207  14.170  0.2810  3.1803 -0.2257
 3774SOL     OW22957   0.179   2.409   9.661  0.1080 -0.4001  0.4511
 3774SOL    HW122958   0.123   2.484   9.680 -0.9076 -1.0674  0.1283
 3774SOL    HW222959   0.231   2.457   9.597 -0.4593  0.2762  0.4977
 3775SOL     OW22960   4.584   0.265  10.187  0.0145  0.0062  0.0747
 3775SOL    HW122961   4.561   0.358  10.190 -1.3405 -0.3072 -0.8278
 3775SOL    HW222962   4.502   0.218  10.175  0.0231 -0.7383  2.8634
 3776SOL     OW22963   0.353   4.493   6.206 -0.2154  0.5112 -0.1310
 3776SOL    HW122964   0.397   4.425   6.156  1.4616  2.3545 -1.1468
 3776SOL    HW222965   0.260   4.489   6.183 -0.1646 -0.5982 -0.1315
 3777SOL     OW22966   1.542   0.493   6.864 -0.2300 -0.0778 -0.5613
 3777SOL    HW122967   1.492   0.533   6.935  1.4235  1.2213 -0.1355
 3777SOL    HW222968   1.545   0.397   6.869 -0.3948 -0.0390  0.3138
 3778SOL     OW22969   3.737   1.289  13.170  0.2831 -0.0166  0.1389
 3778SOL    HW122970   3.659   1.325  13.211  0.3178  2.1470 -1.6612
 3778SOL    HW222971   3.706   1.200  13.152  1.8218 -0.9353  1.9993
 3779SOL     OW22972   3.216   3.091   9.591 -0.2956 -0.1567  0.6795
 3779SOL    HW122973   3.276   3.133   9.653  0.6691 -0.1852 -0.2311
 3779SOL    HW222974   3.129   3.117   9.621 -0.6149 -0.8944  0.3869
 3780SOL     OW22975   1.017   3.941   8.568  0.6896  0.0402 -0.4114
 3780SOL    HW122976   1.009   3.965   8.476  3.0625  0.4586 -0.5184
 3780SOL    HW222977   0.931   3.968   8.599  1.8430  0.0431  2.7839
 3781SOL     OW22978   0.536   3.409   6.615 -0.0042 -0.1498  0.1952
 3781SOL    HW122979   0.558   3.431   6.706  2.3040  0.0490 -0.4357
 3781SOL    HW222980   0.503   3.492   6.579 -2.6707 -0.5687  1.6159
 3782SOL     OW22981   1.923   2.964  12.438  0.3691  0.0690  0.0390
 3782SOL    HW122982   1.943   2.882  12.482 -0.3863 -0.6961 -1.0357
 3782SOL    HW222983   1.863   3.008  12.498  0.8528 -0.4343  0.8852
 3783SOL     OW22984   3.263   4.420   1.892  0.3363 -0.5502 -0.1979
 3783SOL    HW122985   3.259   4.442   1.799  2.9760  2.0675  0.3312
 3783SOL    HW222986   3.225   4.331   1.887 -0.0639 -0.4026  0.2406
 3784SOL     OW22987   0.306   1.439   6.520  0.1515 -0.4787 -0.0421
 3784SOL    HW122988   0.280   1.364   6.574 -1.4281  0.2508  0.2022
 3784SOL    HW222989   0.396   1.411   6.503  0.9040  1.5147  0.6485
 3785SOL     OW22990   4.618   1.428   7.218 -0.3393  0.1665  0.1891
 3785SOL    HW122991   4.539   1.483   7.218 -0.7135 -0.3903 -2.5307
 3785SOL    HW222992   4.679   1.495   7.249  0.6348  0.0324 -1.4724
 3786SOL     OW22993   1.108   2.376   7.219 -0.1576 -0.3925 -0.1874
 3786SOL    HW122994   1.094   2.289   7.257 -1.8579  0.5626  1.3697
 3786SOL    HW222995   1.053   2.374   7.141 -0.1259 -1.9119 -0.1745
 3787SOL     OW22996   3.479   0.077  13.188  0.1164  1.1004 -0.4743
 3787SOL    HW122997   3.426   0.017  13.240 -1.7186  2.1354 -1.1429
 3787SOL    HW222998   3.509   0.021  13.116  2.6741  0.0199  1.4362
 3788SOL     OW22999   0.276   0.056   3.252  0.2948  0.6704  0.0191
 3788SOL    HW123000   0.259   4.707   3.206 -1.5273  1.0249  0.0437
 3788SOL    HW223001   0.281   0.022   3.341  0.6126 -0.5812 -0.4670
 3789SOL     OW23002   2.408   3.870   6.779 -0.0472  0.3602  0.4958
 3789SOL    HW123003   2.338   3.820   6.820 -0.3416  1.4587  1.3375
 3789SOL    HW223004   2.389   3.961   6.802  2.0964  0.3184  2.5189
 3790SOL     OW23005   3.821   4.106   9.297  0.1661  0.2735  0.8605
 3790SOL    HW123006   3.916   4.119   9.284  0.0387  1.6796  1.2973
 3790SOL    HW223007   3.819   4.015   9.326  0.3774  0.9886  3.0675
 3791SOL     OW23008   4.279   1.019   3.461 -0.0439 -0.1283 -0.3374
 3791SOL    HW123009   4.232   1.103   3.462  1.1415  0.5664 -2.2399
 3791SOL    HW223010   4.283   0.993   3.553  0.4923  1.1786  0.0164
 3792SOL     OW23011   2.769   2.012  17.488 -0.2212  0.7082  0.0823
 3792SOL    HW123012   2.844   2.069  17.501  0.6203 -0.7179  1.5673
 3792SOL    HW223013   2.706   2.049  17.550  0.1145 -1.5936  1.8060
 3793SOL     OW23014   1.727   2.223  16.919  0.1197 -0.1597  0.4349
 3793SOL    HW123015   1.760   2.289  16.858  1.2692 -0.4461  0.7614
 3793SOL    HW223016   1.647   2.203  16.870  1.3796  0.0800 -1.7358
 3794SOL     OW23017   3.853   4.218   4.544  0.1203 -0.4332  0.1890
 3794SOL    HW123018   3.927   4.261   4.586  0.5997 -2.1793  1.1212
 3794SOL    HW223019   3.863   4.228   4.449 -2.1278 -1.9441 -0.2237
 3795SOL     OW23020   3.867   1.877   3.493 -0.3214 -0.2894  0.0724
 3795SOL    HW123021   3.842   1.871   3.401  0.6389 -3.1158  0.0083
 3795SOL    HW223022   3.781   1.856   3.529  0.3101 -1.0052  1.1526
 3796SOL     OW23023   3.809   3.625   0.872 -0.1405  0.2387 -0.2440
 3796SOL    HW123024   3.717   3.610   0.849  0.2802 -0.6307 -1.3867
 3796SOL    HW223025   3.803   3.714   0.907 -0.3076  0.4010 -0.6815
 3797SOL     OW23026   0.811   1.991   4.136  0.6595 -0.3569  0.0165
 3797SOL    HW123027   0.723   2.022   4.155  0.2092 -3.5677  3.3297
 3797SOL    HW223028   0.824   1.924   4.203  2.6811  1.9088  1.9059
 3798SOL     OW23029   2.674   2.169   6.803  0.0741  0.1252  0.4995
 3798SOL    HW123030   2.748   2.217   6.766 -0.7489  1.1685  0.1711
 3798SOL    HW223031   2.620   2.227   6.858 -0.3591  0.9093 -0.7367
 3799SOL     OW23032   0.731   2.624  13.808 -0.5223 -0.4075 -0.0213
 3799SOL    HW123033   0.645   2.606  13.769 -1.2998 -1.2725  2.0817
 3799SOL    HW223034   0.766   2.687  13.745  0.8767 -0.1050  1.0537
 3800SOL     OW23035   1.546   2.954   2.972  0.0922  0.0609  0.1435
 3800SOL    HW123036   1.470   2.921   2.925  1.4094 -3.2503  0.3167
 3800SOL    HW223037   1.499   3.016   3.027  1.7789  0.1412  1.4856
 3801SOL     OW23038   2.083   0.569   1.131 -0.2205  0.5720 -0.2899
 3801SOL    HW123039   2.044   0.617   1.058 -1.5653 -1.0894 -0.6458
 3801SOL    HW223040   2.009   0.563   1.192 -0.5256  3.9630 -0.3040
 3802SOL     OW23041   4.432   1.178  13.676  0.5034  0.3187 -0.0051
 3802SOL    HW123042   4.337   1.189  13.671  0.2579 -0.8575  2.2296
 3802SOL    HW223043   4.460   1.209  13.762  1.0775  0.8966 -0.4010
 3803SOL     OW23044   1.495   1.334   6.251 -0.5256  0.4753 -0.1215
 3803SOL    HW123045   1.579   1.378   6.262 -0.4563  0.0832  0.9298
 3803SOL    HW223046   1.535   1.261   6.203 -0.7106  0.3525 -0.0885
 3804SOL     OW23047   2.354   0.747  13.708  0.0699 -0.0849 -0.3044
 3804SOL    HW123048   2.395   0.763  13.793  1.7816  1.8172 -1.4908
 3804SOL    HW223049   2.262   0.767  13.722  0.7277  0.8006  2.6648
 3805SOL     OW23050   4.554   4.321  13.987  0.3039  0.0448  0.0609
 3805SOL    HW123051   4.509   4.399  14.019 -1.7225 -0.6496 -1.1252
 3805SOL    HW223052   4.548   4.257  14.059  0.5272 -0.7302 -0.6104
 3806SOL     OW23053   4.013   2.586  15.049  0.4274  0.2126  0.8173
 3806SOL    HW123054   4.026   2.506  14.997  0.0887  0.3481  0.5332
 3806SOL    HW223055   4.090   2.579  15.106  2.5486 -2.0768 -2.2987
 3807SOL     OW23056   4.732   4.284   8.909 -0.0301 -0.5875 -1.4412
 3807SOL    HW123057   4.702   4.266   8.998 -1.8503  0.8324 -1.7660
 3807SOL    HW223058   0.071   4.343   8.925  1.1061 -1.6969 -2.5000
 3808SOL     OW23059   1.437   0.148   3.744 -0.5301  0.3881  0.3638
 3808SOL    HW123060   1.503   0.198   3.792  1.0981 -0.8167 -0.5740
 3808SOL    HW223061   1.466   0.131   3.654  1.7651  1.8003  0.8497
 3809SOL     OW23062   1.155   3.306   8.496  0.2642 -0.5683  0.7216
 3809SOL    HW123063   1.186   3.353   8.419  3.3795  0.8584  2.8723
 3809SOL    HW223064   1.130   3.377   8.554  0.1880  1.0463 -1.2871
 3810SOL     OW23065   1.500   0.721   2.998 -0.2755 -0.4279  0.9003
 3810SOL    HW123066   1.451   0.723   2.915 -1.6941 -1.0759  1.7102
 3810SOL    HW223067   1.525   0.629   3.011 -0.2167 -0.7258 -1.2895
 3811SOL     OW23068   4.691   3.056  14.292  0.1778 -0.2227 -0.2776
 3811SOL    HW123069   4.695   3.035  14.199  4.0106 -0.7461 -0.0004
 3811SOL    HW223070   0.041   3.025  14.326  0.7650  0.9176 -0.7088
 3812SOL     OW23071   4.387   0.485   9.976  0.2785  0.6610  1.0435
 3812SOL    HW123072   4.305   0.531   9.994 -1.3309 -1.3076 -1.2006
 3812SOL    HW223073   4.416   0.465  10.065 -0.7495  0.3495  1.3091
 3813SOL     OW23074   3.114   0.981   4.162 -1.0944  0.3236 -0.4917
 3813SOL    HW123075   3.155   0.903   4.199 -0.7543  0.8440  0.2313
 3813SOL    HW223076   3.112   0.956   4.069 -1.9190 -2.8340  0.3822
 3814SOL     OW23077   3.532   3.402   1.874  0.3870 -0.8551 -1.0379
 3814SOL    HW123078   3.614   3.451   1.871 -0.5391  0.6455 -1.8134
 3814SOL    HW223079   3.549   3.332   1.810  0.2754 -0.1105 -1.8840
 3815SOL     OW23080   1.097   2.866  13.732 -0.3678 -0.1824  0.4886
 3815SOL    HW123081   1.086   2.820  13.816 -0.4250 -0.2422  0.4485
 3815SOL    HW223082   1.092   2.959  13.756 -1.9981 -0.2670  0.4938
 3816SOL     OW23083   2.534   1.068   9.863  0.3927  0.2040  0.6385
 3816SOL    HW123084   2.487   1.044   9.783  0.4338  0.4157  0.5518
 3816SOL    HW223085   2.627   1.068   9.842 -0.2023  1.0719 -1.9403
 3817SOL     OW23086   1.240   1.280   3.379 -0.1973 -0.3602  0.1398
 3817SOL    HW123087   1.200   1.327   3.306  2.2648  0.1159 -0.9056
 3817SOL    HW223088   1.233   1.347   3.448 -1.7608 -2.0427  1.6252
 3818SOL     OW23089   3.216   1.889   2.259  0.1092  0.0380  0.1213
 3818SOL    HW123090   3.283   1.883   2.326  0.0825 -1.3698  0.0210
 3818SOL    HW223091   3.175   1.804   2.277  0.9528 -0.2928  0.4683
 3819SOL     OW23092   1.254   2.609   9.383 -0.2033 -0.0166 -0.1928
 3819SOL    HW123093   1.306   2.529   9.376 -0.0094  0.0978 -0.0592
 3819SOL    HW223094   1.326   2.662   9.417  0.4090 -1.5909  1.0024
 3820SOL     OW23095   1.676   4.095  11.757 -0.0878  0.4733 -0.2104
 3820SOL    HW123096   1.607   4.161  11.743 -1.5968 -0.7652  1.3224
 3820SOL    HW223097   1.652   4.029  11.692 -1.4646  2.3654 -1.6067
 3821SOL     OW23098   4.672   2.278   7.314 -0.5181 -0.3542  0.1171
 3821SOL    HW123099   4.636   2.193   7.288 -1.4424 -0.0077  0.2958
 3821SOL    HW223100   4.689   2.277   7.408 -2.2596 -1.6626  0.4192
 3822SOL     OW23101   2.360   3.852   5.663  0.0944 -0.0485  0.4240
 3822SOL    HW123102   2.427   3.874   5.728  2.5769 -0.4418 -1.9814
 3822SOL    HW223103   2.399   3.886   5.582  0.9461 -0.9843  0.4361
 3823SOL     OW23104   2.452   3.377   6.344  0.6620 -0.5751 -0.3276
 3823SOL    HW123105   2.414   3.414   6.424  0.0068  1.5846 -1.6125
 3823SOL    HW223106   2.381   3.331   6.298 -0.9836  2.4689 -0.8268
 3824SOL     OW23107   2.676   4.411   6.801 -0.3089 -0.5204 -0.1699
 3824SOL    HW123108   2.732   4.378   6.872 -0.9226  1.1547  1.0874
 3824SOL    HW223109   2.645   4.332   6.757 -0.5149  1.1326 -3.0268
 3825SOL     OW23110   4.457   0.701   8.209 -0.0315  0.1077 -0.2471
 3825SOL    HW123111   4.386   0.651   8.169 -0.5392  0.0531  0.7429
 3825SOL    HW223112   4.467   0.647   8.287 -1.2628 -0.0036 -0.1808
 3826SOL     OW23113   2.029   2.835   2.489 -0.4240  0.0162  0.0874
 3826SOL    HW123114   2.102   2.848   2.429  1.3693  0.9928  2.5078
 3826SOL    HW223115   2.009   2.927   2.507  0.5819  0.5840 -1.7044
 3827SOL     OW23116   1.729   4.052  12.150  0.1731  0.0982  0.1238
 3827SOL    HW123117   1.658   4.088  12.098 -0.4419 -0.2157  0.7410
 3827SOL    HW223118   1.763   4.128  12.198 -1.5681  0.0889  1.3467
 3828SOL     OW23119   3.454   1.372   5.932  0.5032  0.2328 -0.0226
 3828SOL    HW123120   3.519   1.316   5.973 -0.8878 -0.7076  0.8729
 3828SOL    HW223121   3.506   1.452   5.927  1.5701 -0.3728  1.6320
 3829SOL     OW23122   3.170   0.627   0.174 -0.0185 -0.1693  0.0014
 3829SOL    HW123123   3.263   0.608   0.174 -0.1846 -0.9698  0.0759
 3829SOL    HW223124   3.161   0.715   0.137  2.0980 -0.2405 -0.6531
 3830SOL     OW23125   3.393   3.916   4.145 -0.7093  0.4451 -0.1856
 3830SOL    HW123126   3.453   3.929   4.218 -0.6947  0.9354 -0.2899
 3830SOL    HW223127   3.442   3.855   4.090 -0.5516 -1.4816  2.0532
 3831SOL     OW23128   0.133   1.454   6.278 -0.4515  0.3151 -0.2370
 3831SOL    HW123129   0.043   1.458   6.311 -0.5680  0.1744 -0.5364
 3831SOL    HW223130   0.182   1.407   6.345 -0.2006  0.2769 -0.4442
 3832SOL     OW23131   2.523   2.736  10.446  0.4068  0.1613  0.1318
 3832SOL    HW123132   2.480   2.822  10.452  1.4448  0.4946  2.5825
 3832SOL    HW223133   2.453   2.684  10.485  0.6716  0.6950  1.3249
 3833SOL     OW23134   3.729   3.447   3.353  0.0948 -0.0724 -0.1534
 3833SOL    HW123135   3.756   3.474   3.440  0.5566 -2.7725  0.5372
 3833SOL    HW223136   3.645   3.411   3.380  0.7769 -2.5720 -1.3222
 3834SOL     OW23137   2.379   3.098   5.166  0.2850  0.4122 -0.2737
 3834SOL    HW123138   2.316   3.129   5.230  0.4688 -1.5932  0.9015
 3834SOL    HW223139   2.461   3.082   5.213  0.3400  0.7012 -0.2759
 3835SOL     OW23140   1.275   1.249   6.880 -0.0438 -0.2385 -0.2306
 3835SOL    HW123141   1.184   1.273   6.864  0.0081  0.3183  0.3264
 3835SOL    HW223142   1.324   1.326   6.851  0.1767 -0.3909 -0.2713
 3836SOL     OW23143   3.024   4.503   2.662  0.2404 -0.4762 -0.3847
 3836SOL    HW123144   3.030   4.549   2.578  1.0482  1.1878  0.5787
 3836SOL    HW223145   3.111   4.530   2.693  0.3851  0.4256 -1.5841
 3837SOL     OW23146   1.715   3.394   0.048 -0.1820  0.3929  0.0968
 3837SOL    HW123147   1.751   3.337   0.116 -1.5668 -0.3198  0.2263
 3837SOL    HW223148   1.798   3.439   0.030 -1.0468  1.4511 -1.1908
 3838SOL     OW23149   3.979   3.467   1.972 -0.1101 -0.1067  0.3781
 3838SOL    HW123150   4.061   3.451   1.926  0.6359 -1.0614  2.0363
 3838SOL    HW223151   3.998   3.545   2.023 -0.3893  0.8793 -1.0257
 3839SOL     OW23152   3.492   2.100  16.578 -0.5426 -0.2193 -0.0752
 3839SOL    HW123153   3.553   2.031  16.549  0.1587  1.6245 -2.9748
 3839SOL    HW223154   3.451   2.123  16.494  0.1719  1.3238  0.0031
 3840SOL     OW23155   2.533   3.244   3.779 -0.0624 -0.7650  0.4173
 3840SOL    HW123156   2.463   3.302   3.810  1.1427  1.4343 -1.0042
 3840SOL    HW223157   2.503   3.164   3.823 -0.9365 -1.8738 -2.2116
 3841SOL     OW23158   2.828   4.429  17.138  0.4633 -0.0697 -0.0839
 3841SOL    HW123159   2.915   4.417  17.177  0.7009  1.0743 -0.2489
 3841SOL    HW223160   2.778   4.370  17.194 -0.1497  1.0850  0.5826
 3842SOL     OW23161   4.318   3.131   3.421  0.1430 -0.3746  0.3529
 3842SOL    HW123162   4.315   3.181   3.502  0.0946 -2.3667  1.5853
 3842SOL    HW223163   4.224   3.114   3.412  0.1975  0.6293 -2.0717
 3843SOL     OW23164   0.614   4.332   7.129 -0.6404  0.0508 -0.0340
 3843SOL    HW123165   0.637   4.376   7.048 -2.4658  2.1973  0.6300
 3843SOL    HW223166   0.522   4.357   7.141 -0.4564  0.1689  1.1339
 3844SOL     OW23167   0.036   4.228  10.527  0.0845 -0.4796 -0.1237
 3844SOL    HW123168   0.085   4.303  10.492  0.9293  0.3558  2.8637
 3844SOL    HW223169   0.092   4.157  10.496  0.6918  1.9033 -4.5006
 3845SOL     OW23170   1.690   3.871   5.572 -0.0992  0.1893 -0.1503
 3845SOL    HW123171   1.710   3.783   5.605  0.7134  0.9979  1.5091
 3845SOL    HW223172   1.613   3.899   5.622  1.5915  0.5208  2.2428
 3846SOL     OW23173   3.488   3.983   8.126 -0.0506  0.4270 -0.0527
 3846SOL    HW123174   3.404   3.977   8.171  1.5160 -0.9321  2.7200
 3846SOL    HW223175   3.494   4.078   8.120 -1.7173  0.7419  3.7023
 3847SOL     OW23176   2.404   1.289   3.813 -0.0704 -0.1035 -0.6510
 3847SOL    HW123177   2.459   1.217   3.784  0.1683 -0.2091  0.0636
 3847SOL    HW223178   2.343   1.236   3.864  0.5739  0.9566  1.2206
 3848SOL     OW23179   2.752   4.531   7.654 -0.2969 -0.3635  0.3641
 3848SOL    HW123180   2.772   4.621   7.681  2.4096 -0.3741 -1.6118
 3848SOL    HW223181   2.799   4.487   7.725 -1.2701 -1.2752  0.4316
 3849SOL     OW23182   2.186   1.570   8.715 -0.1556 -0.2886  0.0323
 3849SOL    HW123183   2.263   1.602   8.669  0.3756 -1.5689  0.0137
 3849SOL    HW223184   2.195   1.629   8.789  0.4561 -1.4190  0.8537
 3850SOL     OW23185   0.555   3.327   3.935  0.3812  0.4965 -0.0404
 3850SOL    HW123186   0.642   3.323   3.976  0.6137  0.5914 -0.5262
 3850SOL    HW223187   0.582   3.344   3.845 -0.0511  0.1176 -0.2367
 3851SOL     OW23188   0.191   0.122   9.543 -0.0316  0.4076  0.3141
 3851SOL    HW123189   0.271   0.157   9.503 -1.6179 -1.2261 -4.2193
 3851SOL    HW223190   0.223   0.077   9.622  0.7919 -0.2022 -0.3768
 3852SOL     OW23191   1.935   4.633   5.755 -0.7899 -0.5743  0.3318
 3852SOL    HW123192   1.920   4.541   5.736  0.4471 -0.8443  0.6174
 3852SOL    HW223193   1.903   4.636   5.845 -0.9365 -2.6112  0.3428
 3853SOL     OW23194   0.701   0.885   2.933  0.1729 -0.7340 -0.3078
 3853SOL    HW123195   0.750   0.892   3.015  0.4641 -1.9327 -0.3732
 3853SOL    HW223196   0.680   0.975   2.910 -0.8845 -0.9010 -0.0024
 3854SOL     OW23197   0.104   2.870   8.885 -0.4595 -0.0079 -0.6020
 3854SOL    HW123198   0.182   2.925   8.874 -1.1606  0.9861 -0.6045
 3854SOL    HW223199   0.153   2.788   8.888 -0.5357 -0.0190  0.3181
 3855SOL     OW23200   2.423   0.498   2.160 -0.2584  0.3295 -0.6314
 3855SOL    HW123201   2.482   0.537   2.224 -0.8340  1.8898 -1.0412
 3855SOL    HW223202   2.363   0.452   2.218  1.5292 -0.8345  0.2924
 3856SOL     OW23203   3.331   0.448  12.054 -0.0831 -0.5104  0.1814
 3856SOL    HW123204   3.418   0.423  12.084 -0.8583 -1.7425  1.4052
 3856SOL    HW223205   3.297   0.470  12.141 -2.8836  1.4577 -1.4450
 3857SOL     OW23206   3.456   1.513   4.894 -0.1561  0.3957 -0.2625
 3857SOL    HW123207   3.470   1.470   4.978  0.5034  1.1887  0.0413
 3857SOL    HW223208   3.400   1.585   4.922  1.4894  1.9205 -0.8953
 3858SOL     OW23209   3.544   1.146   4.434 -0.0234  0.2144 -0.7907
 3858SOL    HW123210   3.460   1.132   4.477  0.2733 -0.3258 -0.3862
 3858SOL    HW223211   3.528   1.219   4.374 -2.8065  1.9579  2.0889
 3859SOL     OW23212   1.111   1.762   5.231 -0.2953  0.3246  0.0644
 3859SOL    HW123213   1.031   1.712   5.248  0.1491 -0.6596 -0.7469
 3859SOL    HW223214   1.090   1.807   5.149  0.0441  0.7825  0.2269
 3860SOL     OW23215   0.569   0.433   9.354 -0.0463  0.5103  0.0841
 3860SOL    HW123216   0.577   0.466   9.444 -0.3569 -0.4769  0.4781
 3860SOL    HW223217   0.605   0.502   9.299  0.9457  1.0435  1.3939
 3861SOL     OW23218   0.774   1.522  12.837 -0.0762 -0.7915  0.2005
 3861SOL    HW123219   0.762   1.614  12.813 -1.2030 -1.3222 -1.3070
 3861SOL    HW223220   0.731   1.484  12.761 -1.4936  0.8173  0.1919
 3862SOL     OW23221   1.484   0.041   6.086 -0.1599  0.5019  0.2593
 3862SOL    HW123222   1.519   0.126   6.059  0.5301  0.6655  1.6715
 3862SOL    HW223223   1.443   0.015   6.003 -2.8258  0.7249  1.5149
 3863SOL     OW23224   2.130   4.014   8.351  0.1486  0.3077  0.3739
 3863SOL    HW123225   2.162   3.987   8.265 -2.9434  1.2251 -1.0369
 3863SOL    HW223226   2.035   4.015   8.350  0.1401  1.3306  1.3824
 3864SOL     OW23227   0.931   1.077  15.832 -0.1456 -0.2990 -0.2353
 3864SOL    HW123228   0.973   0.991  15.828  0.8627  0.2453 -1.4480
 3864SOL    HW223229   0.924   1.106  15.741  0.1757  2.0668  0.5090
 3865SOL     OW23230   1.790   2.038   4.332 -0.2244 -0.3545  0.3866
 3865SOL    HW123231   1.832   1.976   4.272 -1.2581 -3.1923  2.5672
 3865SOL    HW223232   1.702   2.048   4.294  0.1369  0.6094 -0.2115
 3866SOL     OW23233   2.595   1.518  15.688 -0.1453 -0.1750  0.0490
 3866SOL    HW123234   2.588   1.452  15.757  0.5002 -1.0691 -0.7461
 3866SOL    HW223235   2.677   1.557  15.719 -1.5210  1.7067  1.3388
 3867SOL     OW23236   2.173   2.849   1.583 -0.2132  0.3413  0.0753
 3867SOL    HW123237   2.098   2.884   1.632 -1.2920 -1.6736 -0.1026
 3867SOL    HW223238   2.198   2.925   1.531  0.4476 -0.0078 -0.1067
 3868SOL     OW23239   2.159   1.397  13.553  0.7973 -0.5717 -0.1391
 3868SOL    HW123240   2.119   1.460  13.493  1.5811  0.5282  0.5062
 3868SOL    HW223241   2.245   1.375  13.516  0.1504 -0.1547 -1.8904
 3869SOL     OW23242   4.211   0.363  14.921 -0.2788  0.0717  0.0866
 3869SOL    HW123243   4.195   0.458  14.921 -0.8496 -0.0298 -1.0826
 3869SOL    HW223244   4.126   0.326  14.898 -0.8441  1.3881  0.0456
 3870SOL     OW23245   0.484   3.390  11.200  0.0000  0.0032  0.7098
 3870SOL    HW123246   0.395   3.423  11.210 -1.5053 -4.4047  1.7228
 3870SOL    HW223247   0.536   3.463  11.235  0.4343  0.1903 -0.3079
 3871SOL     OW23248   2.171   0.249  17.159 -0.1828 -0.0187 -0.3114
 3871SOL    HW123249   2.257   0.290  17.163 -0.6017  0.9016 -0.9441
 3871SOL    HW223250   2.205   0.162  17.138  0.7558  0.5906 -1.3227
 3872SOL     OW23251   2.027   1.626  10.991  1.1060 -0.0295  0.2538
 3872SOL    HW123252   2.086   1.659  10.924 -0.6900  2.3534 -0.1995
 3872SOL    HW223253   2.034   1.697  11.055 -1.5150  0.9194 -0.5037
 3873SOL     OW23254   3.514   1.474  10.667  0.2050  0.3691  0.6574
 3873SOL    HW123255   3.459   1.546  10.698  0.7342  1.3849 -0.7300
 3873SOL    HW223256   3.450   1.405  10.656 -0.4425  0.8163  1.6992
 3874SOL     OW23257   3.329   0.322   8.000 -0.1017 -0.1682  0.7909
 3874SOL    HW123258   3.401   0.374   7.964 -0.0145  0.6998  2.2442
 3874SOL    HW223259   3.366   0.302   8.086 -3.2882 -1.8675  1.7400
 3875SOL     OW23260   1.875   4.630   6.027 -0.3638  0.0316 -0.3862
 3875SOL    HW123261   1.870   4.614   6.121  0.2243 -1.4976 -0.6016
 3875SOL    HW223262   1.896   4.723   6.027  0.5262 -0.1744 -0.4014
 3876SOL     OW23263   3.472   0.715   6.139 -0.7781 -0.7503 -0.3379
 3876SOL    HW123264   3.471   0.806   6.168  2.5823 -1.5398  2.2058
 3876SOL    HW223265   3.388   0.700   6.095 -0.3730  0.1499 -1.4157
 3877SOL     OW23266   4.535   4.120   0.865 -0.3965  0.1468  0.5599
 3877SOL    HW123267   4.570   4.033   0.844 -3.9365 -0.9352 -0.8645
 3877SOL    HW223268   4.494   4.138   0.781  3.2858  0.8285 -1.1239
 3878SOL     OW23269   0.203   0.241   7.481  0.3550  0.4218  0.0001
 3878SOL    HW123270   0.125   0.251   7.426  2.2805 -0.9934 -2.9838
 3878SOL    HW223271   0.167   0.198   7.559 -0.6269 -1.3769 -1.4415
 3879SOL     OW23272   0.021   2.721   6.782 -0.4859  0.1025 -0.3778
 3879SOL    HW123273   0.009   2.736   6.688  0.6650  3.0133 -0.0724
 3879SOL    HW223274   0.088   2.782   6.813 -0.8440  0.6285 -0.6256
 3880SOL     OW23275   3.555   4.566   4.113 -0.2296  0.2028  0.6782
 3880SOL    HW123276   3.594   4.484   4.082 -1.3982 -0.3403  0.6403
 3880SOL    HW223277   3.512   4.584   4.029  1.2013 -0.9352 -0.3028
 3881SOL     OW23278   0.050   1.912   9.708  0.2245  0.0731  0.0567
 3881SOL    HW123279   0.060   2.007   9.703  1.0293  0.1234  2.9158
 3881SOL    HW223280   0.124   1.897   9.650 -1.6858 -3.4276 -1.4363
 3882SOL     OW23281   2.101   4.103   2.452 -0.7811 -0.0654 -0.3851
 3882SOL    HW123282   2.122   4.038   2.520 -1.6923 -1.1201 -1.0959
 3882SOL    HW223283   2.185   4.147   2.445 -0.1708 -1.2679 -0.6222
 3883SOL     OW23284   3.622   3.760   4.115 -0.5022 -0.3763 -1.2823
 3883SOL    HW123285   3.641   3.796   4.028  1.0586  1.9065  0.0075
 3883SOL    HW223286   3.708   3.753   4.157 -0.7119  2.6764 -0.3593
 3884SOL     OW23287   4.083   3.097   6.262 -0.3826  0.0982 -0.0354
 3884SOL    HW123288   4.019   3.037   6.224  1.1655 -0.1395 -2.2616
 3884SOL    HW223289   4.047   3.183   6.241  0.1212 -0.2264 -2.2655
 3885SOL     OW23290   3.914   1.975   2.381  0.1576 -0.6161  0.2323
 3885SOL    HW123291   3.899   1.952   2.290  3.2410  1.0354 -0.6883
 3885SOL    HW223292   3.986   2.037   2.370  1.3111 -1.7586  1.4576
 3886SOL     OW23293   1.083   1.499   3.519  0.3477  0.5784 -0.9103
 3886SOL    HW123294   1.020   1.568   3.501 -0.1542 -0.4285 -2.9805
 3886SOL    HW223295   1.144   1.546   3.576 -1.1163  2.3605 -0.8111
 3887SOL     OW23296   0.892   1.306   2.096  0.2740 -0.3613  0.1467
 3887SOL    HW123297   0.828   1.237   2.114 -1.0782  0.8547  0.0849
 3887SOL    HW223298   0.966   1.264   2.140  0.9973  0.6244 -0.1214
 3888SOL     OW23299   0.338   0.946   3.935  0.1302 -0.1106 -0.1084
 3888SOL    HW123300   0.374   0.895   3.862  2.8575 -0.5472  1.5609
 3888SOL    HW223301   0.244   0.927   3.930  0.6112 -2.9574  1.7995
 3889SOL     OW23302   4.270   1.199   0.991  0.4008 -0.8488  0.4786
 3889SOL    HW123303   4.348   1.145   1.007  0.8016 -0.1791  0.7819
 3889SOL    HW223304   4.239   1.146   0.917 -2.0423  0.2449  0.7139
 3890SOL     OW23305   1.214   2.129   5.134 -0.2443 -0.5277 -0.2200
 3890SOL    HW123306   1.136   2.074   5.131 -0.0869 -0.7568 -0.0848
 3890SOL    HW223307   1.241   2.119   5.042  1.8622 -0.9258  0.4442
 3891SOL     OW23308   1.203   2.540  13.243 -0.0755 -0.5120 -0.2930
 3891SOL    HW123309   1.111   2.519  13.228 -0.2791  0.3852 -0.3288
 3891SOL    HW223310   1.236   2.502  13.162 -0.3067 -2.4557  0.5259
 3892SOL     OW23311   3.921   0.677   1.794 -0.2806 -0.0393  0.8610
 3892SOL    HW123312   3.983   0.628   1.739  0.7571  3.5440 -1.2286
 3892SOL    HW223313   3.976   0.694   1.870 -1.5423  0.9035  1.5576
 3893SOL     OW23314   4.413   4.231  17.402  0.9468  0.1370  0.1925
 3893SOL    HW123315   4.382   4.155  17.353 -0.7441  0.9393  0.0068
 3893SOL    HW223316   4.499   4.252  17.368 -0.0379  1.2311 -1.6135
 3894SOL     OW23317   1.329   3.902   1.925 -0.4778 -0.0139  0.4916
 3894SOL    HW123318   1.388   3.895   2.000  0.3458 -1.8155 -0.3169
 3894SOL    HW223319   1.360   3.987   1.894  2.0611  0.3865  4.1965
 3895SOL     OW23320   0.586   0.015   8.620  0.0185  0.4239 -0.2811
 3895SOL    HW123321   0.502   0.047   8.589 -0.9824 -1.0156  0.9364
 3895SOL    HW223322   0.589   0.061   8.704 -0.6987 -0.4090  0.2055
 3896SOL     OW23323   4.664   3.734   1.532 -0.1778  0.0784 -0.2695
 3896SOL    HW123324   4.704   3.819   1.515 -0.8769  0.1199 -1.7480
 3896SOL    HW223325   0.009   3.679   1.535  0.2857  0.7948  0.5413
 3897SOL     OW23326   1.397   2.351   9.334  0.3608 -0.7132 -0.1123
 3897SOL    HW123327   1.436   2.365   9.248  1.3340  1.4024  0.6604
 3897SOL    HW223328   1.453   2.282   9.370 -0.5337 -0.5524  1.6127
 3898SOL     OW23329   4.369   3.543   8.655  0.1772  0.1525 -0.1942
 3898SOL    HW123330   4.395   3.576   8.741  2.8576 -0.4916 -0.7557
 3898SOL    HW223331   4.349   3.619   8.601  1.9767 -1.0367 -2.5631
 3899SOL     OW23332   2.683   3.419   5.970 -0.4347  0.5622 -0.3313
 3899SOL    HW123333   2.663   3.510   5.950  1.1024  1.2838  1.4512
 3899SOL    HW223334   2.600   3.381   5.940 -0.7710  0.9109  0.1670
 3900SOL     OW23335   3.089   2.755   7.175 -1.0750  0.5579 -0.5533
 3900SOL    HW123336   3.060   2.771   7.265 -0.7806  1.2431 -0.5772
 3900SOL    HW223337   3.107   2.661   7.179 -2.1302  0.3627 -0.4025
 3901SOL     OW23338   1.819   2.800  14.635 -0.1370  0.0005 -0.1020
 3901SOL    HW123339   1.800   2.710  14.660 -0.7589 -0.0344 -0.7057
 3901SOL    HW223340   1.850   2.799  14.544 -0.9749  0.2280 -0.3896
 3902SOL     OW23341   3.727   2.700  12.261 -0.0146 -0.4879  0.3827
 3902SOL    HW123342   3.812   2.728  12.227 -0.7908  0.3521 -0.8588
 3902SOL    HW223343   3.672   2.715  12.184  1.2352  0.6018 -0.2910
 3903SOL     OW23344   2.990   4.461   0.731 -0.3577  0.4654  0.0693
 3903SOL    HW123345   3.035   4.414   0.661 -0.3997 -0.0433  0.3881
 3903SOL    HW223346   2.905   4.470   0.688  0.6009 -1.0656 -2.1210
 3904SOL     OW23347   0.859   1.849   8.735  0.1836 -0.2817  0.3183
 3904SOL    HW123348   0.766   1.859   8.718  0.2524 -1.4063 -0.7275
 3904SOL    HW223349   0.898   1.861   8.648 -0.9444  0.1822 -0.1171
 3905SOL     OW23350   0.058   2.307   7.584  0.2815 -0.6002 -0.1279
 3905SOL    HW123351   0.114   2.383   7.571 -1.0846  0.0628 -2.1536
 3905SOL    HW223352   4.712   2.348   7.618 -0.0352 -3.0633  2.1281
 3906SOL     OW23353   4.486   2.227  17.415  0.3591 -0.0143  0.2620
 3906SOL    HW123354   4.392   2.241  17.403  0.2148 -0.7861  0.4838
 3906SOL    HW223355   4.505   2.271  17.497 -0.4410 -0.8864  0.9198
 3907SOL     OW23356   0.683   3.667   6.786 -0.0711 -0.6374 -0.4186
 3907SOL    HW123357   0.641   3.596   6.835  2.4099 -1.8870 -0.1177
 3907SOL    HW223358   0.676   3.746   6.839  1.9981 -1.4939  1.0951
 3908SOL     OW23359   2.266   3.175   5.421  0.1492 -0.5874 -0.8824
 3908SOL    HW123360   2.258   3.087   5.456 -0.8315 -0.1813 -0.0679
 3908SOL    HW223361   2.178   3.203   5.448  0.4132  1.3749 -2.0203
 3909SOL     OW23362   2.081   0.259   7.607 -0.0401  0.1107  1.0747
 3909SOL    HW123363   2.084   0.245   7.513 -0.4937  0.6114  0.9870
 3909SOL    HW223364   2.173   0.273   7.633  0.0245  1.9530 -0.1882
 3910SOL     OW23365   0.869   2.077   2.174 -0.3931 -1.0198 -0.1908
 3910SOL    HW123366   0.824   1.999   2.141 -0.4722 -0.4144 -1.5052
 3910SOL    HW223367   0.818   2.155   2.153 -3.2331 -2.6683  0.5164
 3911SOL     OW23368   4.394   3.134   7.760 -0.1695 -0.5403 -0.1110
 3911SOL    HW123369   4.418   3.125   7.668  1.8028  0.4725  0.2909
 3911SOL    HW223370   4.299   3.143   7.761  0.1252  2.6626  0.2666
 3912SOL     OW23371   1.354   4.613   4.800  0.0947 -0.1552 -0.6807
 3912SOL    HW123372   1.361   4.518   4.798  2.3899 -0.0334  1.0097
 3912SOL    HW223373   1.264   4.633   4.775  0.0136  1.2341  0.7429
 3913SOL     OW23374   4.727   2.955   4.462  0.4960  0.2600 -0.2531
 3913SOL    HW123375   4.679   2.986   4.539 -1.9075 -3.1341 -0.3818
 3913SOL    HW223376   0.009   3.038   4.416  2.3259 -0.0209 -0.1269
 3914SOL     OW23377   1.787   2.790   3.440  0.2380 -0.0991 -0.1705
 3914SOL    HW123378   1.793   2.884   3.420  2.0760 -0.0752  0.4719
 3914SOL    HW223379   1.740   2.801   3.523  2.6502 -0.5618  1.2564
 3915SOL     OW23380   2.318   2.382   2.342  0.2751  0.6944  0.2819
 3915SOL    HW123381   2.408   2.372   2.312 -0.8092  0.1470 -2.8466
 3915SOL    HW223382   2.321   2.471   2.375 -1.9325 -0.0530  2.5220
 3916SOL     OW23383   3.294   0.878   3.516 -0.3890  0.0908 -0.1337
 3916SOL    HW123384   3.369   0.819   3.515 -1.4246 -1.2554  0.7231
 3916SOL    HW223385   3.276   0.877   3.611  3.3716  0.9245  0.5738
 3917SOL     OW23386   0.883   2.182   7.424 -0.1365  0.5521 -0.2300
 3917SOL    HW123387   0.916   2.254   7.477 -3.4780  2.2557 -0.4686
 3917SOL    HW223388   0.962   2.133   7.401  0.2328  0.1550  1.9127
 3918SOL     OW23389   3.896   1.278   4.370 -0.0381  0.0165  0.3308
 3918SOL    HW123390   3.842   1.245   4.298  1.8410 -0.7616 -0.7312
 3918SOL    HW223391   3.819   1.312   4.415 -0.6189  1.1172 -1.5040
 3919SOL     OW23392   0.186   3.603  12.346 -0.2997  0.6464  0.8651
 3919SOL    HW123393   0.264   3.608  12.401  1.0775  0.3111 -1.0219
 3919SOL    HW223394   0.217   3.565  12.263 -2.4642  0.9741 -0.0950
 3920SOL     OW23395   4.434   0.294   0.718  0.7072  0.2807 -0.2376
 3920SOL    HW123396   4.389   0.310   0.635 -0.5852  0.6231  0.5429
 3920SOL    HW223397   4.361   0.302   0.778  1.2526  1.2511  0.3012
 3921SOL     OW23398   4.570   3.762   9.757  0.1214  0.0495 -0.4177
 3921SOL    HW123399   4.613   3.696   9.702  1.9491  0.0196  1.0552
 3921SOL    HW223400   4.642   3.809   9.799 -0.2963  0.6217 -0.3459
 3922SOL     OW23401   2.232   3.792   8.160 -0.3390  0.6450 -0.3478
 3922SOL    HW123402   2.283   3.711   8.150 -1.1039  0.3870 -2.2669
 3922SOL    HW223403   2.144   3.755   8.171  0.3880 -1.5396 -1.8035
 3923SOL     OW23404   3.449   4.137   9.404 -0.0609 -0.1448  0.2637
 3923SOL    HW123405   3.481   4.165   9.318 -1.1272 -1.9595 -0.7318
 3923SOL    HW223406   3.398   4.059   9.383  0.3211 -0.0991 -0.8395
 3924SOL     OW23407   1.921   0.553  13.081 -0.0025 -0.1762  0.3752
 3924SOL    HW123408   1.831   0.523  13.069  0.4850 -1.1042 -0.8557
 3924SOL    HW223409   1.914   0.648  13.070  1.2816  0.1776  2.6198
 3925SOL     OW23410   0.744   0.462  13.523 -0.1159  0.2021  0.4105
 3925SOL    HW123411   0.769   0.407  13.449  0.0943  2.9657 -1.5832
 3925SOL    HW223412   0.829   0.501  13.541 -0.1814 -0.5108  2.1721
 3926SOL     OW23413   3.903   0.846   5.625 -0.0816  0.0119  0.1189
 3926SOL    HW123414   3.810   0.823   5.628 -0.5730  1.7987 -1.7022
 3926SOL    HW223415   3.909   0.873   5.717 -1.7797 -1.7202  0.7454
 3927SOL     OW23416   4.508   2.358  10.943  0.0118 -1.0877 -0.0199
 3927SOL    HW123417   4.593   2.343  10.903  0.1735 -0.5619  0.1273
 3927SOL    HW223418   4.519   2.313  11.027 -1.4209 -0.3059  0.5941
 3928SOL     OW23419   4.353   1.629   4.848 -0.0238  0.8103 -0.0040
 3928SOL    HW123420   4.338   1.537   4.866  1.7799  0.0543 -2.3698
 3928SOL    HW223421   4.435   1.635   4.798 -0.4819 -2.6610 -1.1440
 3929SOL     OW23422   4.610   2.983  14.013  0.0096  0.2183 -0.3365
 3929SOL    HW123423   4.690   3.010  13.968 -0.7596 -0.3953 -2.0723
 3929SOL    HW223424   4.562   2.978  13.930 -1.1539  1.1275  0.2817
 3930SOL     OW23425   3.186   3.767  17.109 -0.3268  0.5995  0.0983
 3930SOL    HW123426   3.194   3.781  17.015 -1.9096 -1.0879 -0.2855
 3930SOL    HW223427   3.218   3.847  17.151  1.5568 -0.4961  0.7325
 3931SOL     OW23428   4.000   3.258   9.814  0.0904 -0.9129 -0.0194
 3931SOL    HW123429   3.999   3.352   9.832 -0.2976 -1.5114  3.1844
 3931SOL    HW223430   4.080   3.237   9.861 -0.3809 -1.7403  0.4295
 3932SOL     OW23431   0.617   2.427   3.048  0.1029  0.1775  0.4885
 3932SOL    HW123432   0.647   2.454   2.961 -0.9034 -3.2506 -0.9327
 3932SOL    HW223433   0.562   2.501   3.074  0.6979  0.8050 -0.0431
 3933SOL     OW23434   0.647   3.846   5.804 -0.2412  0.2828 -0.5024
 3933SOL    HW123435   0.655   3.931   5.847 -0.2032  0.1415 -0.2292
 3933SOL    HW223436   0.716   3.858   5.738  0.8379  0.9152  0.7453
 3934SOL     OW23437   4.591   2.751   3.310  0.1602 -0.6681  0.0671
 3934SOL    HW123438   4.612   2.826   3.254 -1.3580 -1.4117 -1.4926
 3934SOL    HW223439   4.505   2.780   3.341  0.4700  0.2133  0.0918
 3935SOL     OW23440   3.920   3.882   9.374  0.5022 -0.0783  0.2721
 3935SOL    HW123441   3.999   3.896   9.426  0.8484  2.6387 -0.9945
 3935SOL    HW223442   3.953   3.821   9.307 -1.3084  0.9842 -1.5689
 3936SOL     OW23443   1.534   0.035   3.512 -0.0779  0.0580  0.1915
 3936SOL    HW123444   1.482   4.715   3.451 -0.4466  1.4900 -0.7535
 3936SOL    HW223445   1.603   0.068   3.454 -0.2885 -2.4599 -1.5165
 3937SOL     OW23446   0.034   2.818  13.624  0.1502  0.1689 -0.2190
 3937SOL    HW123447   4.728   2.876  13.559 -2.6753 -1.8653 -0.2613
 3937SOL    HW223448   0.071   2.897  13.663  2.5033 -0.3635 -1.3500
 3938SOL     OW23449   0.593   1.745   6.560 -0.1610 -1.1405  0.1259
 3938SOL    HW123450   0.576   1.681   6.629  1.6870 -2.1155 -0.3381
 3938SOL    HW223451   0.676   1.710   6.530 -0.1081 -0.1642 -0.8867
 3939SOL     OW23452   2.174   2.857   7.201 -0.4134  0.1150  0.1497
 3939SOL    HW123453   2.197   2.928   7.261  0.7696 -1.0228  1.0309
 3939SOL    HW223454   2.193   2.786   7.262 -0.9252  0.4737  0.7215
 3940SOL     OW23455   0.742   0.063  16.615  0.5286 -0.5806  0.2356
 3940SOL    HW123456   0.673   0.063  16.682  1.3909 -0.8424  1.1230
 3940SOL    HW223457   0.814   0.103  16.664 -0.7355  0.3367  1.3408
 3941SOL     OW23458   1.308   4.534   4.447  0.7010  0.1406 -1.1505
 3941SOL    HW123459   1.388   4.585   4.461 -0.3931  1.0605  1.6865
 3941SOL    HW223460   1.352   4.450   4.463  0.4967  0.2763  0.0727
 3942SOL     OW23461   2.531   1.001   8.848  0.3250 -0.1174  0.0406
 3942SOL    HW123462   2.516   1.096   8.849  0.8053 -0.0425  0.2149
 3942SOL    HW223463   2.588   0.992   8.771 -1.5815 -3.3565 -0.9857
 3943SOL     OW23464   3.950   0.938   4.188 -0.6186 -0.1206  0.2455
 3943SOL    HW123465   3.939   0.849   4.221 -1.1790 -1.0856 -2.5540
 3943SOL    HW223466   3.866   0.976   4.216 -1.0703  0.2943 -1.6889
 3944SOL     OW23467   3.961   1.647   7.222  0.2993  0.0474  0.0345
 3944SOL    HW123468   3.976   1.700   7.300 -0.0366 -2.3561  1.7167
 3944SOL    HW223469   3.953   1.727   7.171  2.2215  1.2622  1.6477
 3945SOL     OW23470   2.226   0.845   7.057 -0.8415 -0.0835  0.3352
 3945SOL    HW123471   2.220   0.797   6.975  1.2906  0.7755 -0.3284
 3945SOL    HW223472   2.200   0.779   7.121 -0.2536  1.3687  2.0786
 3946SOL     OW23473   2.652   1.183   6.343  0.2532  0.0713  0.5809
 3946SOL    HW123474   2.581   1.194   6.280  2.0643  2.6293 -0.9778
 3946SOL    HW223475   2.667   1.091   6.321  0.2779  0.5441 -1.4180
 3947SOL     OW23476   0.544   2.188   5.347  0.5990 -0.2002 -0.0612
 3947SOL    HW123477   0.574   2.147   5.428 -0.6201 -0.8708  0.0521
 3947SOL    HW223478   0.454   2.157   5.341  0.1034  1.3382 -0.5324
 3948SOL     OW23479   3.101   4.222   6.035 -1.2582 -0.0338  0.6829
 3948SOL    HW123480   3.075   4.313   6.022  0.4988  0.4072  0.2605
 3948SOL    HW223481   3.107   4.220   6.130 -0.7441  2.5824  0.7034
 3949SOL     OW23482   2.321   4.527   4.035  0.5226  0.3365  0.0475
 3949SOL    HW123483   2.309   4.461   3.966  0.6884  0.2906  0.0620
 3949SOL    HW223484   2.291   4.480   4.113 -0.6793 -0.3425 -0.8339
 3950SOL     OW23485   1.168   2.080  15.539  0.2126  0.4322  0.3544
 3950SOL    HW123486   1.125   2.162  15.515  1.8625  1.6244  1.4602
 3950SOL    HW223487   1.220   2.111  15.613  0.5494  1.0820 -0.1441
 3951SOL     OW23488   2.317   4.340   7.305 -0.3283 -0.5985 -0.0231
 3951SOL    HW123489   2.266   4.267   7.269 -1.2955 -0.7219  1.5725
 3951SOL    HW223490   2.312   4.314   7.397 -0.6891  1.5975  0.5797
 3952SOL     OW23491   2.169   0.832   2.275 -0.0381  0.1129  0.2183
 3952SOL    HW123492   2.116   0.904   2.309  1.2039  1.6441 -1.1136
 3952SOL    HW223493   2.159   0.768   2.346  0.3881  1.0061  1.0975
 3953SOL     OW23494   0.323   2.148   9.194 -0.0591 -0.1500 -0.4339
 3953SOL    HW123495   0.284   2.115   9.113 -0.1029 -0.3513 -0.3302
 3953SOL    HW223496   0.272   2.228   9.211  0.8442  0.0920  1.2085
 3954SOL     OW23497   3.411   3.649  10.385  0.4343 -0.1475  0.2596
 3954SOL    HW123498   3.447   3.724  10.433 -0.0785  2.1849 -2.9905
 3954SOL    HW223499   3.320   3.657  10.414  0.4993  1.1955  0.1268
 3955SOL     OW23500   4.546   0.775  10.220 -0.3175  0.5048  0.0133
 3955SOL    HW123501   4.472   0.740  10.270 -0.4377  0.0996 -0.4476
 3955SOL    HW223502   4.622   0.726  10.251  0.6437  1.8022 -0.3074
 3956SOL     OW23503   1.906   2.403  14.528  0.1009 -0.0256 -0.7354
 3956SOL    HW123504   1.896   2.449  14.611  0.5651 -0.3643 -0.4914
 3956SOL    HW223505   1.820   2.429  14.494 -0.2258  0.4672  0.4678
 3957SOL     OW23506   0.433   2.711  10.184  0.1842  0.2865 -0.1722
 3957SOL    HW123507   0.341   2.733  10.169 -0.6353 -2.0132  1.6467
 3957SOL    HW223508   0.462   2.728  10.094 -2.1476  1.3444 -0.7209
 3958SOL     OW23509   0.834   3.576   2.394  0.0059  0.0867  0.3003
 3958SOL    HW123510   0.805   3.512   2.459  2.2657 -2.2143 -0.9526
 3958SOL    HW223511   0.902   3.626   2.440 -0.6625 -0.6189  2.0167
 3959SOL     OW23512   3.904   2.691   5.688  0.3908  0.0259  0.3881
 3959SOL    HW123513   3.941   2.636   5.620  1.7110  1.8530 -0.3748
 3959SOL    HW223514   3.946   2.773   5.663  1.2699 -0.0291  1.7268
 3960SOL     OW23515   4.150   1.334   6.703 -0.7165 -0.2029 -0.2384
 3960SOL    HW123516   4.179   1.401   6.764  0.5015 -1.2409  0.3319
 3960SOL    HW223517   4.065   1.365   6.670  0.8223  2.0088 -2.0344
 3961SOL     OW23518   1.150   0.840   2.734  0.4375 -0.0709 -0.1019
 3961SOL    HW123519   1.097   0.882   2.666  0.9335  1.0545  0.2112
 3961SOL    HW223520   1.216   0.909   2.741  0.6489 -0.2410 -0.4064
 3962SOL     OW23521   4.432   2.466   6.423 -0.0920 -0.1781  0.6319
 3962SOL    HW123522   4.501   2.505   6.477  1.0782  0.7273 -1.4796
 3962SOL    HW223523   4.486   2.410   6.367 -1.0989 -0.0480 -0.4786
 3963SOL     OW23524   1.941   1.496   4.204 -0.0413  0.4040  0.3728
 3963SOL    HW123525   1.947   1.503   4.299 -2.7002  2.6089  0.3725
 3963SOL    HW223526   2.003   1.424   4.191 -1.1895  0.0006 -2.9602
 3964SOL     OW23527   2.397   3.801  10.799  0.1570  0.2812  0.4653
 3964SOL    HW123528   2.366   3.891  10.798  0.2193  0.3032  0.6207
 3964SOL    HW223529   2.348   3.777  10.719 -0.5834 -0.1499  1.0419
 3965SOL     OW23530   4.455   3.206  13.510  0.3983 -0.0471 -0.4654
 3965SOL    HW123531   4.382   3.257  13.546  0.8772  0.8967 -0.8274
 3965SOL    HW223532   4.448   3.236  13.419  1.6304  2.7215  0.3721
 3966SOL     OW23533   1.129   0.895   1.530  0.6460  0.2964  0.2614
 3966SOL    HW123534   1.085   0.973   1.565  1.2812  0.2182  1.2323
 3966SOL    HW223535   1.169   0.943   1.458  3.1070 -1.9547  0.1412
 3967SOL     OW23536   3.573   3.314  16.152  0.2654 -0.0497  0.3536
 3967SOL    HW123537   3.641   3.332  16.086 -0.5008  1.6265  0.0225
 3967SOL    HW223538   3.512   3.375  16.111  0.2435 -0.6285 -0.4715
 3968SOL     OW23539   4.425   1.875   8.916  0.1755  0.0872 -0.4934
 3968SOL    HW123540   4.442   1.781   8.922 -1.8557 -0.1676  0.9935
 3968SOL    HW223541   4.364   1.893   8.987 -0.3224 -0.1401 -0.8655
 3969SOL     OW23542   2.638   0.683   2.855  0.1765  0.3554  0.1150
 3969SOL    HW123543   2.653   0.755   2.916 -3.8379  2.0516 -0.8926
 3969SOL    HW223544   2.676   0.716   2.773  2.0390 -0.1035  0.7773
 3970SOL     OW23545   0.457   3.620   6.180 -0.2175  0.0597  0.0317
 3970SOL    HW123546   0.408   3.610   6.098 -1.6027  0.3926  0.8146
 3970SOL    HW223547   0.450   3.529   6.208  2.2002 -0.8006 -2.1580
 3971SOL     OW23548   0.341   0.958   9.990  0.3054  0.2224  0.4247
 3971SOL    HW123549   0.330   1.026  10.057 -1.6785  0.3167  0.0024
 3971SOL    HW223550   0.413   0.909  10.030 -1.8361 -4.1226 -1.0444
 3972SOL     OW23551   3.510   1.475  11.962  0.2867  0.3304  0.1927
 3972SOL    HW123552   3.580   1.422  11.923  0.1743  1.8233 -2.0335
 3972SOL    HW223553   3.436   1.415  11.961  1.2406 -0.8513  0.4794
 3973SOL     OW23554   4.176   3.297   2.230 -0.0457 -0.5819 -0.0517
 3973SOL    HW123555   4.135   3.357   2.292 -0.2539 -0.9506  0.1694
 3973SOL    HW223556   4.098   3.274   2.179 -0.6713 -1.0759  1.1456
 3974SOL     OW23557   1.628   2.067  11.038 -0.2110 -0.3981 -0.3823
 3974SOL    HW123558   1.660   2.156  11.029 -0.9545 -0.0044  0.8048
 3974SOL    HW223559   1.562   2.075  11.107  1.8227 -1.1754  1.6399
 3975SOL     OW23560   3.122   3.601   9.667  0.2139  0.1137 -0.1627
 3975SOL    HW123561   3.218   3.604   9.665  0.2296  0.3259  0.7417
 3975SOL    HW223562   3.097   3.579   9.756 -1.6575  1.4630 -0.3525
 3976SOL     OW23563   1.345   2.099   3.881  0.2165  0.6902  0.1539
 3976SOL    HW123564   1.366   2.152   3.958  2.0215 -1.7491  1.3128
 3976SOL    HW223565   1.313   2.163   3.818 -2.2801 -1.3618 -0.6554
 3977SOL     OW23566   2.777   4.036   9.307 -0.2586  0.4084  0.6367
 3977SOL    HW123567   2.742   4.085   9.382  0.2361  1.0163  0.4712
 3977SOL    HW223568   2.795   4.113   9.254 -0.4864  0.2618  0.3467
 3978SOL     OW23569   1.894   1.444   3.821 -0.1678 -0.4900  0.2117
 3978SOL    HW123570   1.876   1.366   3.873  0.6543 -0.4747  0.5222
 3978SOL    HW223571   1.962   1.407   3.765  0.9319  0.2555  1.0400
 3979SOL     OW23572   3.381   3.817  17.617 -0.0585  0.4799  0.1333
 3979SOL    HW123573   3.381   3.734  17.569  0.9344  0.1844  0.6378
 3979SOL    HW223574   3.450   3.851  17.560  0.1352  0.0392  0.1036
 3980SOL     OW23575   0.321   1.765  13.185  0.2383  0.1731 -0.0147
 3980SOL    HW123576   0.412   1.737  13.195  0.3670  0.7832  0.5102
 3980SOL    HW223577   0.317   1.750  13.091  0.4002  2.3161 -0.3602
 3981SOL     OW23578   4.438   1.041   7.153 -0.3292 -0.3295 -0.1067
 3981SOL    HW123579   4.485   1.058   7.235  1.1035  1.4783 -1.2960
 3981SOL    HW223580   4.449   1.127   7.112 -0.5378  0.5136  1.6389
 3982SOL     OW23581   0.580   0.223  15.411  0.6004  0.1313 -0.1460
 3982SOL    HW123582   0.665   0.266  15.425  0.8637 -0.5139  0.2145
 3982SOL    HW223583   0.572   0.230  15.316  0.3372 -0.7102 -0.1876
 3983SOL     OW23584   0.706   2.529  16.692  0.4124 -0.4236 -0.1493
 3983SOL    HW123585   0.676   2.578  16.768  1.4511  0.6821 -0.4660
 3983SOL    HW223586   0.625   2.514  16.642  1.6036 -0.9922 -1.8865
 3984SOL     OW23587   4.422   4.191   4.220 -0.0469  0.0349  0.0729
 3984SOL    HW123588   4.503   4.144   4.200  1.1452  1.7745  0.8052
 3984SOL    HW223589   4.376   4.122   4.269  0.4654 -0.6610 -0.4295
 3985SOL     OW23590   4.007   0.525  13.123  0.2949  0.0556 -0.1096
 3985SOL    HW123591   4.024   0.507  13.216 -0.4836 -3.6692 -0.6702
 3985SOL    HW223592   4.024   0.437  13.089 -0.0698  0.5449 -1.5386
 3986SOL     OW23593   4.160   2.692  13.185 -0.1491  0.0167 -0.0399
 3986SOL    HW123594   4.235   2.644  13.218 -1.0998  0.7146  3.1404
 3986SOL    HW223595   4.203   2.764  13.139  0.1106  0.3629  0.7369
 3987SOL     OW23596   2.107   4.081   2.147 -0.3960  0.8289  0.2012
 3987SOL    HW123597   2.149   4.124   2.222  0.4889 -0.8967  0.6943
 3987SOL    HW223598   2.017   4.112   2.143  0.0667  2.1267 -0.4775
 3988SOL     OW23599   3.173   3.217   3.429  0.3069  0.2371  0.2889
 3988SOL    HW123600   3.148   3.249   3.343  0.7993 -1.4568 -0.4891
 3988SOL    HW223601   3.112   3.146   3.449  0.4400  0.0168 -0.0848
 3989SOL     OW23602   1.119   0.756  16.447  0.0924  0.3210  0.2968
 3989SOL    HW123603   1.131   0.786  16.537 -0.1715 -1.7231  0.9903
 3989SOL    HW223604   1.097   0.839  16.403  0.0767 -0.8871 -2.0033
 3990SOL     OW23605   4.520   3.614   2.496 -0.4479 -0.1007 -0.5596
 3990SOL    HW123606   4.446   3.657   2.539  0.0409 -0.1856  0.3724
 3990SOL    HW223607   4.555   3.575   2.576  0.1173  3.1066  0.7750
 3991SOL     OW23608   3.604   0.238   5.204  0.1531  0.5070 -0.0807
 3991SOL    HW123609   3.590   0.330   5.227 -1.2746  0.0134  1.0734
 3991SOL    HW223610   3.516   0.203   5.185  0.4797 -0.5473  0.3398
 3992SOL     OW23611   3.075   3.378   8.808 -0.3721 -0.0252 -0.1119
 3992SOL    HW123612   3.167   3.404   8.799 -0.3307 -0.3977 -0.7353
 3992SOL    HW223613   3.057   3.391   8.902  0.3406  0.2847 -0.0157
 3993SOL     OW23614   3.818   3.712  12.150  0.3874 -0.4486  0.7664
 3993SOL    HW123615   3.796   3.631  12.104  0.6851  1.1504 -2.2258
 3993SOL    HW223616   3.726   3.737  12.158  0.1167 -1.7477  1.7299
 3994SOL     OW23617   3.934   4.649   3.769  0.1535 -1.0204 -0.3494
 3994SOL    HW123618   3.983   4.679   3.693 -0.8900  2.0393  0.1931
 3994SOL    HW223619   4.001   4.666   3.835  1.4733 -0.6904 -1.7523
 3995SOL     OW23620   0.780   0.994   3.250  0.1348  0.0703  0.4135
 3995SOL    HW123621   0.780   1.081   3.290  1.0115  1.1017 -1.8476
 3995SOL    HW223622   0.758   1.022   3.162 -0.8445 -2.2947 -0.1017
 3996SOL     OW23623   0.969   4.516   5.987  0.1310  0.7879  0.8551
 3996SOL    HW123624   0.963   4.436   6.038  0.7571 -0.1650 -0.5908
 3996SOL    HW223625   0.905   4.507   5.917  0.5000 -1.3676  0.7992
 3997SOL     OW23626   4.132   0.031   8.856  0.1563 -0.0834  0.0010
 3997SOL    HW123627   4.139   4.691   8.917 -0.0674  0.2303  0.3985
 3997SOL    HW223628   4.057   0.083   8.884  0.3368  0.1046  0.1377
 3998SOL     OW23629   4.473   3.679   4.342 -0.1237 -1.2680 -0.1644
 3998SOL    HW123630   4.381   3.657   4.326 -0.7227  1.0420  0.2311
 3998SOL    HW223631   4.503   3.698   4.253 -0.2985  0.0719  0.0762
 3999SOL     OW23632   0.181   4.576   5.494 -0.2731  0.7581  0.5931
 3999SOL    HW123633   0.184   4.499   5.437 -0.2501  0.7882  0.5541
 3999SOL    HW223634   0.114   4.545   5.556 -0.9635  0.7919 -0.1413
 4000SOL     OW23635   2.806   0.443   8.657  0.4734 -0.7588  0.0874
 4000SOL    HW123636   2.890   0.483   8.634 -1.3262  2.1091 -1.3438
 4000SOL    HW223637   2.832   0.392   8.734  1.3359  0.3567  0.5337
 4001SOL     OW23638   2.168   2.141   2.274  0.1029  0.2552 -0.0858
 4001SOL    HW123639   2.075   2.150   2.254  0.7551  1.3201 -2.6212
 4001SOL    HW223640   2.179   2.222   2.325  1.0928 -0.1563  0.3711
 4002SOL     OW23641   0.675   1.897   5.439  0.0189  0.1037  0.4576
 4002SOL    HW123642   0.643   1.933   5.521 -1.1985  0.8135 -0.3167
 4002SOL    HW223643   0.601   1.848   5.402  1.6752 -3.5979  2.0584
 4003SOL     OW23644   2.437   1.696  13.616 -0.2900 -0.2811  0.7938
 4003SOL    HW123645   2.400   1.737  13.538 -3.0257 -4.0564  0.1141
 4003SOL    HW223646   2.459   1.769  13.674 -1.0131 -0.9296  1.8897
 4004SOL     OW23647   3.508   0.055   7.075  0.1495  0.1385 -0.6966
 4004SOL    HW123648   3.446   0.101   7.131  1.7585 -0.5403  1.6161
 4004SOL    HW223649   3.475   0.079   6.988 -3.2004  0.9954  0.8222
 4005SOL     OW23650   0.172   4.639   2.523 -0.6035 -0.0466  0.1835
 4005SOL    HW123651   0.191   4.552   2.559  1.0334  1.2958  2.5422
 4005SOL    HW223652   0.223   4.640   2.442  0.7707  1.9886  1.1007
 4006SOL     OW23653   0.388   1.179   7.138  0.0855  0.2962  0.2153
 4006SOL    HW123654   0.478   1.209   7.128 -0.5511  1.8047 -1.1280
 4006SOL    HW223655   0.330   1.248   7.105 -0.2870 -0.5070 -0.8057
 4007SOL     OW23656   2.753   2.747   8.333  0.1763 -0.5026 -0.1112
 4007SOL    HW123657   2.817   2.726   8.265  0.5837 -2.8834  0.9887
 4007SOL    HW223658   2.752   2.660   8.374  1.8255 -1.5532 -2.2959
 4008SOL     OW23659   1.147   1.065   7.435 -0.0604 -0.4121 -0.2012
 4008SOL    HW123660   1.130   0.973   7.453  0.9752 -0.2979  1.3239
 4008SOL    HW223661   1.239   1.084   7.450 -0.1174 -0.0231 -0.3448
 4009SOL     OW23662   1.241   3.493   4.528  0.5766  0.2575 -0.2182
 4009SOL    HW123663   1.188   3.454   4.458  0.3730  2.8207 -1.4648
 4009SOL    HW223664   1.250   3.580   4.490  3.0934 -0.3432 -1.0295
 4010SOL     OW23665   4.312   0.195   9.861 -0.5757  0.2832 -0.2574
 4010SOL    HW123666   4.242   0.156   9.809 -1.9046  2.9891 -0.5281
 4010SOL    HW223667   4.313   0.289   9.840  0.8693  0.5408  0.9652
 4011SOL     OW23668   1.349   3.299   0.823  0.1569 -0.1233  0.3688
 4011SOL    HW123669   1.417   3.269   0.884  0.8485  1.9726  0.6360
 4011SOL    HW223670   1.353   3.390   0.855 -1.4836  0.8473 -2.1964
 4012SOL     OW23671   1.949   2.483   8.622 -0.3856 -0.2170  0.4454
 4012SOL    HW123672   1.873   2.491   8.565 -0.4711 -1.2549  0.4106
 4012SOL    HW223673   1.922   2.532   8.700 -0.4698 -0.8293  0.8077
 4013SOL     OW23674   4.531   1.362  16.849 -0.4276  0.1410 -0.2075
 4013SOL    HW123675   4.476   1.293  16.812  2.5840 -2.7106  0.7174
 4013SOL    HW223676   4.525   1.429  16.780  2.6058 -0.8644 -1.4213
 4014SOL     OW23677   4.271   0.158  16.030  0.4264 -0.4260  0.5300
 4014SOL    HW123678   4.241   0.203  16.109  0.1206  1.1151 -0.4567
 4014SOL    HW223679   4.202   0.178  15.966  2.3960 -0.6363 -1.6572
 4015SOL     OW23680   4.161   4.424   3.327 -0.1141  0.4027  0.1127
 4015SOL    HW123681   4.066   4.423   3.318 -0.1136 -0.1029  0.1742
 4015SOL    HW223682   4.173   4.515   3.300  0.3221 -0.3414 -2.1866
 4016SOL     OW23683   3.182   2.562   2.582 -0.5863 -0.3752  0.3239
 4016SOL    HW123684   3.128   2.526   2.511  0.9210 -2.4769  0.2376
 4016SOL    HW223685   3.224   2.639   2.542  0.1016  0.4139  2.5898
 4017SOL     OW23686   1.394   3.179   3.717 -0.6034  0.4630  0.1155
 4017SOL    HW123687   1.336   3.198   3.791 -1.4131  2.4503 -1.0593
 4017SOL    HW223688   1.480   3.197   3.756 -0.2344  1.6205 -1.2424
 4018SOL     OW23689   0.840   1.736   4.445  0.2104 -0.1791  0.5095
 4018SOL    HW123690   0.824   1.684   4.366  1.3472 -0.0242  0.1755
 4018SOL    HW223691   0.761   1.716   4.496  1.9564 -4.5532  1.5719
 4019SOL     OW23692   2.529   3.918   4.739 -0.2483  0.0372 -0.5423
 4019SOL    HW123693   2.553   4.011   4.732  0.5848 -0.4453 -3.8112
 4019SOL    HW223694   2.468   3.922   4.813 -0.8067 -0.5142 -0.9802
 4020SOL     OW23695   1.584   2.657  14.845  0.1143 -0.3021  0.7855
 4020SOL    HW123696   1.546   2.688  14.762 -3.0236  1.7737  3.0032
 4020SOL    HW223697   1.517   2.681  14.909 -1.9853  1.2526 -1.9875
 4021SOL     OW23698   1.703   2.948   3.817 -0.2042 -0.5587 -0.8137
 4021SOL    HW123699   1.647   3.007   3.868  2.3340  2.0567 -1.0849
 4021SOL    HW223700   1.787   2.991   3.801  0.6285 -1.3965  1.2315
 4022SOL     OW23701   2.477   3.360   5.468 -0.2528  0.3647  0.0041
 4022SOL    HW123702   2.419   3.287   5.444 -0.8560  1.1833 -1.0246
 4022SOL    HW223703   2.438   3.386   5.551 -2.3846 -0.8555 -0.5988
 4023SOL     OW23704   3.693   3.417  17.175 -0.3677  0.0163 -0.5646
 4023SOL    HW123705   3.683   3.336  17.127 -0.0980 -0.5028  0.2474
 4023SOL    HW223706   3.789   3.419  17.172 -0.4336  2.9419 -0.9513
 4024SOL     OW23707   3.290   3.413   8.405  0.1365  0.3862  0.3964
 4024SOL    HW123708   3.290   3.445   8.315  0.6104  3.4656  1.4881
 4024SOL    HW223709   3.207   3.366   8.402 -0.9574  2.4236 -0.6615
 4025SOL     OW23710   0.858   1.730   2.834  0.1996  0.0731  0.6193
 4025SOL    HW123711   0.836   1.797   2.899 -0.7605 -0.0700  0.4449
 4025SOL    HW223712   0.841   1.782   2.756  0.5512 -0.1235  0.4092
 4026SOL     OW23713   1.957   4.227   2.678  0.2586  0.1736 -0.1162
 4026SOL    HW123714   1.995   4.197   2.596  1.2231  3.8438 -1.0034
 4026SOL    HW223715   1.988   4.154   2.733 -0.0809  1.1303  1.3345
 4027SOL     OW23716   0.959   2.701   4.507 -0.1691 -0.2699  0.4613
 4027SOL    HW123717   0.917   2.644   4.443 -0.4824  0.3492  0.1154
 4027SOL    HW223718   1.042   2.660   4.529  0.3734  0.4485 -0.2670
 4028SOL     OW23719   2.133   0.086   7.850 -0.2090 -0.6872 -0.2041
 4028SOL    HW123720   2.128   0.112   7.942 -2.1049  2.1094 -1.0851
 4028SOL    HW223721   2.112   0.168   7.804 -1.6576 -0.5472  0.7388
 4029SOL     OW23722   1.719   0.381   2.738 -0.3433 -0.8341  0.5825
 4029SOL    HW123723   1.669   0.456   2.705  0.0549 -0.6965  0.3023
 4029SOL    HW223724   1.805   0.417   2.760 -0.5240 -1.2423  1.9636
 4030SOL     OW23725   3.336   4.080  16.786 -0.2067  0.1678  0.4029
 4030SOL    HW123726   3.424   4.111  16.805  0.3287 -1.5203  0.6628
 4030SOL    HW223727   3.289   4.160  16.762  1.0325  1.1335  1.2007
 4031SOL     OW23728   4.594   1.300   3.336  0.3402 -0.3337 -0.0465
 4031SOL    HW123729   4.559   1.215   3.308 -1.4288 -0.2783  2.0442
 4031SOL    HW223730   4.635   1.280   3.420 -0.6656 -2.0512  0.0510
 4032SOL     OW23731   4.314   4.468   3.040 -0.3542 -0.2521 -0.4791
 4032SOL    HW123732   4.344   4.548   2.997  1.9590 -0.3159  1.0337
 4032SOL    HW223733   4.221   4.492   3.047 -0.8288 -1.8857 -1.2953
 4033SOL     OW23734   4.014   1.954   4.184 -0.0525  0.2953  0.4889
 4033SOL    HW123735   4.106   1.949   4.156  0.3518 -1.2080  2.0878
 4033SOL    HW223736   3.976   2.025   4.133  2.0358  1.6320  0.7893
 4034SOL     OW23737   4.071   0.856   3.972  0.1748 -0.2507  0.1927
 4034SOL    HW123738   4.018   0.903   3.908  0.7717  0.2537  0.0673
 4034SOL    HW223739   4.022   0.890   4.047 -0.6784  0.1356 -0.5572
 4035SOL     OW23740   0.039   3.189   3.480 -0.0307  0.5022  0.0705
 4035SOL    HW123741   4.697   3.153   3.526  0.0078  0.0571 -0.2102
 4035SOL    HW223742   0.088   3.112   3.449 -1.3246  1.0057 -3.1990
 4036SOL     OW23743   4.348   1.397   4.138  0.9101  0.1522 -0.1069
 4036SOL    HW123744   4.361   1.339   4.214 -0.2609  1.5566  1.1740
 4036SOL    HW223745   4.269   1.440   4.169 -0.8516 -2.6477 -0.7650
 4037SOL     OW23746   4.717   0.377   4.981 -0.6217 -0.6354  0.8548
 4037SOL    HW123747   4.731   0.443   4.912 -3.7302  0.2524  1.0488
 4037SOL    HW223748   4.704   0.427   5.062 -0.5543 -2.2211  1.8372
 4038SOL     OW23749   3.461   3.345   3.398 -0.2240  0.4145  0.2459
 4038SOL    HW123750   3.393   3.411   3.412 -0.7015  0.3169 -1.6400
 4038SOL    HW223751   3.444   3.294   3.478  2.6259  2.0358  1.8751
 4039SOL     OW23752   1.232   2.961  11.875 -0.3962  0.7739 -0.2938
 4039SOL    HW123753   1.306   2.906  11.849 -1.3350  0.6222 -2.7357
 4039SOL    HW223754   1.167   2.899  11.908  0.7152  0.5480  1.4452
 4040SOL     OW23755   0.801   1.943   0.245 -0.0527  0.3752 -0.0953
 4040SOL    HW123756   0.728   2.002   0.223 -1.0762 -0.9549 -0.2268
 4040SOL    HW223757   0.873   2.000   0.219  2.5939 -2.0461  1.9965
 4041SOL     OW23758   1.818   0.691   5.384  0.1323  0.4603  0.2521
 4041SOL    HW123759   1.747   0.634   5.356  0.3067 -0.2420  1.2410
 4041SOL    HW223760   1.805   0.767   5.326 -0.5591  0.8155  0.8830
 4042SOL     OW23761   2.699   3.270   1.751  0.4695 -0.1233 -0.1526
 4042SOL    HW123762   2.648   3.207   1.802  1.8566 -1.1146  0.0218
 4042SOL    HW223763   2.766   3.205   1.729 -0.2292 -0.6777 -0.6159
 4043SOL     OW23764   1.043   1.398   4.371 -0.0203  0.1100  0.3351
 4043SOL    HW123765   1.019   1.464   4.306 -0.2425 -0.8437 -0.5444
 4043SOL    HW223766   1.035   1.317   4.320  1.7129  0.3219 -0.2716
 4044SOL     OW23767   0.884   0.218   8.257 -0.1976  0.1812 -0.2359
 4044SOL    HW123768   0.857   0.216   8.349  0.2970 -2.7013 -0.1428
 4044SOL    HW223769   0.809   0.184   8.208 -0.6877 -1.3119  1.5456
 4045SOL     OW23770   0.922   1.214   7.503 -0.6050 -0.4328 -0.4531
 4045SOL    HW123771   0.901   1.244   7.414  2.2972 -0.1625 -1.0597
 4045SOL    HW223772   1.001   1.163   7.483  0.8490  1.1454  1.3094
 4046SOL     OW23773   2.394   3.733   4.175 -0.5553 -1.0663 -0.3185
 4046SOL    HW123774   2.323   3.672   4.197 -1.6029  0.6924  1.2369
 4046SOL    HW223775   2.352   3.778   4.102 -0.7090 -0.1966  0.3056
 4047SOL     OW23776   1.485   2.622   1.353 -0.2178 -0.3785  0.5070
 4047SOL    HW123777   1.391   2.606   1.353 -0.6065  1.9383 -0.5971
 4047SOL    HW223778   1.504   2.553   1.416  0.1393 -0.4190  0.3552
 4048SOL     OW23779   0.157   0.663   3.672 -0.0540 -0.1278 -0.2110
 4048SOL    HW123780   0.172   0.689   3.581  0.1221  3.5250  0.8504
 4048SOL    HW223781   0.118   0.576   3.664 -1.1189  0.2141  1.2891
 4049SOL     OW23782   1.229   4.502   2.096 -0.1970 -0.3507 -0.0330
 4049SOL    HW123783   1.298   4.554   2.056 -0.9138  0.0604 -0.7298
 4049SOL    HW223784   1.148   4.548   2.073 -0.4491  0.2202  1.9614
 4050SOL     OW23785   2.140   3.317  16.220 -0.3060  0.4009 -0.3041
 4050SOL    HW123786   2.150   3.250  16.153 -0.3339 -0.5615  0.6637
 4050SOL    HW223787   2.081   3.380  16.178  2.3164  1.9948 -1.6168
 4051SOL     OW23788   0.465   3.634   4.622 -0.1040 -0.3860  0.0133
 4051SOL    HW123789   0.536   3.586   4.664  0.7359 -0.0937 -1.0627
 4051SOL    HW223790   0.469   3.590   4.537  3.2751 -1.3537  0.6787
 4052SOL     OW23791   1.098   0.256  13.855  0.6326  0.2101  0.2581
 4052SOL    HW123792   1.068   0.293  13.771  1.0110 -0.2582 -0.0858
 4052SOL    HW223793   1.165   0.192  13.832 -1.2159 -2.5791  2.7952
 4053SOL     OW23794   0.061   4.307   3.119  0.6097 -0.4802 -0.0559
 4053SOL    HW123795   4.706   4.331   3.092  1.1452  0.1209 -1.3306
 4053SOL    HW223796   0.072   4.228   3.065 -0.6564  0.3033 -1.4750
 4054SOL     OW23797   3.879   1.744   2.944 -0.2996 -0.8365 -0.5768
 4054SOL    HW123798   3.963   1.761   2.985 -1.3510  1.1220  0.7468
 4054SOL    HW223799   3.837   1.828   2.923  0.1173 -0.6764 -0.7626
 4055SOL     OW23800   4.528   1.685  15.360  0.4470 -0.2092 -0.0738
 4055SOL    HW123801   4.455   1.709  15.303 -0.8278 -0.8688  1.3004
 4055SOL    HW223802   4.589   1.750  15.326  0.1549 -0.6107 -1.3951
 4056SOL     OW23803   1.347   4.606   3.366 -0.0208 -0.7699  0.1531
 4056SOL    HW123804   1.299   4.685   3.344  1.3274 -0.2255 -0.8403
 4056SOL    HW223805   1.299   4.532   3.328 -3.3477  1.1647  0.5682
 4057SOL     OW23806   4.631   2.189   5.420 -0.0657  0.5025  0.3009
 4057SOL    HW123807   4.558   2.136   5.386 -0.2424  1.1841 -0.3880
 4057SOL    HW223808   4.643   2.260   5.357 -0.9792 -0.2243 -0.7053
 4058SOL     OW23809   3.114   0.068  16.489  1.1932 -0.1539 -0.0138
 4058SOL    HW123810   3.128   4.720  16.441  1.7604  0.5745 -1.0889
 4058SOL    HW223811   3.170   0.131  16.444  1.9624 -1.5941 -1.0609
 4059SOL     OW23812   0.790   0.126   5.601  0.7433 -0.5365 -0.3577
 4059SOL    HW123813   0.734   0.156   5.529 -2.5486  1.1799  2.8895
 4059SOL    HW223814   0.822   0.046   5.559 -3.7407 -1.0569 -2.7725
 4060SOL     OW23815   2.960   1.808   3.176  0.2625  0.3993 -0.2664
 4060SOL    HW123816   2.866   1.816   3.189  0.3196 -0.7464  0.8577
 4060SOL    HW223817   2.991   1.898   3.166 -0.1860  0.6861  0.9661
 4061SOL     OW23818   2.945   3.361   0.205  0.4943  0.4876 -0.2185
 4061SOL    HW123819   3.020   3.347   0.262  0.2481  1.4534  0.3359
 4061SOL    HW223820   2.926   3.453   0.223 -1.6063  0.0761 -0.2759
 4062SOL     OW23821   1.300   0.266   1.414 -0.2609  0.5158  0.6393
 4062SOL    HW123822   1.352   0.311   1.480  0.5145  2.0756 -1.0546
 4062SOL    HW223823   1.297   0.332   1.345  0.9120 -0.5618 -0.4505
 4063SOL     OW23824   3.557   4.255   3.115 -0.3012 -0.1719  0.0968
 4063SOL    HW123825   3.479   4.289   3.159 -0.3037  1.3881 -1.0847
 4063SOL    HW223826   3.527   4.261   3.024  0.6989  0.7694 -0.1690
 4064SOL     OW23827   4.094   4.721   7.180  0.0642  0.0300  0.0175
 4064SOL    HW123828   4.027   0.051   7.156  0.0789 -0.2821 -0.8459
 4064SOL    HW223829   4.150   0.038   7.239 -0.1556 -0.9289  1.0693
 4065SOL     OW23830   4.324   4.484  16.163 -0.5625 -0.1639 -0.1321
 4065SOL    HW123831   4.244   4.457  16.117 -0.4435 -0.1310 -0.3598
 4065SOL    HW223832   4.324   4.573  16.126  3.2325  0.4598  1.4443
 4066SOL     OW23833   1.641   1.025   9.134 -0.3974  1.0078  0.5431
 4066SOL    HW123834   1.611   0.936   9.157  0.2315  0.9626  1.2159
 4066SOL    HW223835   1.641   1.019   9.039  0.1591  1.0617  0.5372
 4067SOL     OW23836   2.976   1.279   3.095 -0.1983  0.5637  0.1915
 4067SOL    HW123837   3.070   1.272   3.111  0.1242 -1.2233 -2.3656
 4067SOL    HW223838   2.982   1.372   3.075  0.0776  0.1829 -1.5430
 4068SOL     OW23839   2.176   0.258   7.316 -0.0446  0.2962 -0.3353
 4068SOL    HW123840   2.142   0.210   7.241 -2.2993  0.4961  0.5770
 4068SOL    HW223841   2.268   0.231   7.320 -0.6182 -1.8941 -2.1069
 4069SOL     OW23842   3.453   1.410  13.647  0.0867  0.0976  0.0311
 4069SOL    HW123843   3.488   1.354  13.717  2.1350  1.6728  0.2508
 4069SOL    HW223844   3.386   1.352  13.612 -1.2249  2.0193 -0.6177
 4070SOL     OW23845   4.523   4.283   2.754 -0.5568  0.4324 -0.1756
 4070SOL    HW123846   4.555   4.254   2.669  2.2977  2.7381  0.1459
 4070SOL    HW223847   4.468   4.206   2.772  0.9417 -0.3751  0.9688
 4071SOL     OW23848   0.295   2.111   2.079 -0.2486 -0.3563 -1.0397
 4071SOL    HW123849   0.292   2.016   2.090 -0.3873 -0.2619 -0.2308
 4071SOL    HW223850   0.377   2.129   2.126 -0.6648  0.1800 -0.5248
 4072SOL     OW23851   2.743   0.536   7.353 -0.5106 -0.2597 -0.2282
 4072SOL    HW123852   2.718   0.455   7.398 -0.9067 -0.7213 -1.2671
 4072SOL    HW223853   2.685   0.531   7.276 -1.1540 -2.2335  0.3765
 4073SOL     OW23854   0.812   1.255   3.391  0.6498 -0.0969 -0.2879
 4073SOL    HW123855   0.885   1.206   3.431  0.2352  0.0875  0.6921
 4073SOL    HW223856   0.744   1.248   3.458  2.2443  1.0251  1.4680
 4074SOL     OW23857   2.351   1.635  15.530  0.5500  0.1286  0.2443
 4074SOL    HW123858   2.364   1.574  15.458  2.7535 -1.3677  1.9308
 4074SOL    HW223859   2.396   1.598  15.606  0.4890 -0.8858 -0.2191
 4075SOL     OW23860   2.638   4.409   9.584  0.2145 -0.5625 -0.0931
 4075SOL    HW123861   2.641   4.504   9.589 -0.7083 -0.4056 -2.2986
 4075SOL    HW223862   2.635   4.409   9.680  3.0580  0.4756 -0.0215
 4076SOL     OW23863   1.319   1.198   2.910  0.2262 -0.0209  0.2912
 4076SOL    HW123864   1.397   1.219   2.960  1.5128  0.4644 -1.9196
 4076SOL    HW223865   1.254   1.246   2.962  1.5017 -0.8664  2.6452
 4077SOL     OW23866   1.619   4.161   1.438  0.2038 -0.5621 -0.1451
 4077SOL    HW123867   1.640   4.203   1.521  3.8404  0.3938 -1.5450
 4077SOL    HW223868   1.610   4.235   1.378 -1.3142 -1.3133 -0.8683
 4078SOL     OW23869   0.506   3.870  17.210  0.2399 -0.1570  0.1238
 4078SOL    HW123870   0.567   3.885  17.138 -0.5906 -2.0182 -0.9934
 4078SOL    HW223871   0.437   3.935  17.197 -0.5000 -0.8623  0.5404
 4079SOL     OW23872   2.237   4.508   7.073 -0.7112  0.0877  0.0463
 4079SOL    HW123873   2.329   4.484   7.076 -0.7483 -0.2133 -1.3209
 4079SOL    HW223874   2.204   4.449   7.141 -0.4577  1.2380  1.1738
 4080SOL     OW23875   3.619   2.184  12.699  0.7003 -0.4261 -0.1548
 4080SOL    HW123876   3.630   2.269  12.742 -1.4898 -1.6476  2.8437
 4080SOL    HW223877   3.573   2.209  12.619  2.4650  2.1822 -0.3709
 4081SOL     OW23878   2.741   0.776  11.392 -0.1593  0.3904  0.3944
 4081SOL    HW123879   2.669   0.754  11.450 -0.1561  1.4010  0.7933
 4081SOL    HW223880   2.711   0.743  11.308  2.2015  0.7007 -0.5706
 4082SOL     OW23881   1.661   0.958   2.935  0.3879 -0.2087  0.3056
 4082SOL    HW123882   1.625   1.038   2.973  0.2959  0.3077 -0.8453
 4082SOL    HW223883   1.615   0.892   2.985  0.3531  0.1440  0.7379
 4083SOL     OW23884   0.899   1.716   3.488  0.8284 -0.2773  0.5427
 4083SOL    HW123885   0.820   1.733   3.438  0.7736  0.9353  1.0252
 4083SOL    HW223886   0.907   1.775   3.563  0.0526 -0.2543  0.6100
 4084SOL     OW23887   2.636   3.856   7.237  0.2491 -0.1088 -0.2201
 4084SOL    HW123888   2.717   3.806   7.233  0.8446  0.7527  0.8200
 4084SOL    HW223889   2.677   3.939   7.260 -0.8566 -0.4080  2.7831
 4085SOL     OW23890   2.776   3.476   7.459  1.0131  0.3966  0.1980
 4085SOL    HW123891   2.806   3.474   7.368  3.0056 -1.3052  0.8982
 4085SOL    HW223892   2.742   3.564   7.471 -1.4702 -0.7473  1.6896
 4086SOL     OW23893   1.324   4.263   3.483  0.2505  0.0611  0.3876
 4086SOL    HW123894   1.378   4.237   3.408 -0.6854 -3.5329  0.9877
 4086SOL    HW223895   1.238   4.245   3.445  0.5229 -1.1861  0.3655
 4087SOL     OW23896   1.144   0.685   4.469  0.1559 -0.0780  0.6275
 4087SOL    HW123897   1.103   0.762   4.429 -0.4144  0.7037  2.6782
 4087SOL    HW223898   1.088   0.617   4.433  1.0757 -0.4510 -0.0887
 4088SOL     OW23899   1.568   1.812  11.704 -0.4524 -0.5029 -0.8984
 4088SOL    HW123900   1.566   1.819  11.609 -1.4341  0.7527 -0.7910
 4088SOL    HW223901   1.562   1.717  11.712 -1.6090 -0.4468 -1.1134
 4089SOL     OW23902   0.423   3.344  12.865 -0.4418  0.2253 -0.5455
 4089SOL    HW123903   0.360   3.287  12.820 -1.1218 -0.2415  0.9943
 4089SOL    HW223904   0.375   3.393  12.932 -0.0290  1.3970 -1.1094
 4090SOL     OW23905   1.345   3.285   6.312 -0.1738  0.0802  0.2115
 4090SOL    HW123906   1.321   3.373   6.342 -0.8160  0.3272 -1.0003
 4090SOL    HW223907   1.296   3.234   6.377 -0.3322  0.3480  0.3018
 4091SOL     OW23908   1.640   1.929   2.257  0.2323 -0.0142  0.9348
 4091SOL    HW123909   1.693   1.849   2.245  0.5743  0.0353  2.1420
 4091SOL    HW223910   1.614   1.923   2.349 -1.1778 -1.2417  0.4557
 4092SOL     OW23911   0.570   2.557   8.974 -0.1554  0.3113 -0.0316
 4092SOL    HW123912   0.559   2.488   9.039 -1.4322 -1.2127 -1.8502
 4092SOL    HW223913   0.634   2.518   8.915  0.0711  0.9941 -0.2344
 4093SOL     OW23914   1.076   3.656  13.065 -0.2237  0.2155 -0.8291
 4093SOL    HW123915   0.987   3.623  13.068  0.4686 -1.5496  0.5075
 4093SOL    HW223916   1.104   3.604  12.989 -1.2569  0.4379 -1.3577
 4094SOL     OW23917   0.352   1.294   9.463  0.5788 -0.4085 -0.3057
 4094SOL    HW123918   0.426   1.319   9.518  1.5371 -0.0586 -1.7624
 4094SOL    HW223919   0.294   1.264   9.534  1.7170 -0.3912  0.6266
 4095SOL     OW23920   2.226   2.373  10.391 -0.4543  0.1041  0.4433
 4095SOL    HW123921   2.309   2.335  10.362  0.0561  1.5276  0.0641
 4095SOL    HW223922   2.171   2.297  10.413  1.0442 -1.5631 -1.5662
 4096SOL     OW23923   3.148   4.432   6.715 -0.8031  0.3379 -0.2458
 4096SOL    HW123924   3.147   4.415   6.621 -1.3517 -3.3615  0.4113
 4096SOL    HW223925   3.139   4.342   6.747  3.0707  0.3834  1.0325
 4097SOL     OW23926   1.326   0.712  17.250  0.0685  0.6695  0.6576
 4097SOL    HW123927   1.393   0.760  17.202  0.8067  0.9154  1.9517
 4097SOL    HW223928   1.345   0.619  17.238 -0.6594  1.0443 -3.3198
 4098SOL     OW23929   3.021   3.711  17.540  0.0887 -0.6972 -0.0790
 4098SOL    HW123930   3.037   3.751  17.625  0.2588 -1.3066  0.1728
 4098SOL    HW223931   3.010   3.789  17.485  2.3982  1.6985  2.8459
 4099SOL     OW23932   2.395   1.519   2.866 -0.3435 -0.0521  0.7449
 4099SOL    HW123933   2.487   1.515   2.840 -0.2264 -0.5769  1.2618
 4099SOL    HW223934   2.365   1.430   2.848  0.5533  0.2333 -2.1311
 4100SOL     OW23935   0.831   0.543  11.391 -0.8633  0.0522 -0.4482
 4100SOL    HW123936   0.814   0.556  11.484 -0.8965  0.4918 -0.5189
 4100SOL    HW223937   0.762   0.478  11.374 -1.7525  1.0788 -0.7335
 4101SOL     OW23938   4.353   1.943  15.609 -0.4228  0.0114 -1.2085
 4101SOL    HW123939   4.395   1.933  15.523  0.5919  0.5779 -0.7755
 4101SOL    HW223940   4.437   1.952  15.653 -0.3221  1.3881 -1.6883
 4102SOL     OW23941   2.307   3.752   4.947 -0.0153 -0.2171  0.3186
 4102SOL    HW123942   2.243   3.693   4.907 -0.5035 -0.3720  1.3410
 4102SOL    HW223943   2.270   3.771   5.033  0.1099  1.7751 -0.0690
 4103SOL     OW23944   0.972   2.983   5.567  0.0817  0.4396  0.5139
 4103SOL    HW123945   0.932   2.912   5.617 -0.6647 -1.4721 -2.7831
 4103SOL    HW223946   0.914   2.981   5.491  0.8419  1.8193 -0.1032
 4104SOL     OW23947   2.155   3.490  16.425 -0.3547 -0.0149  0.3584
 4104SOL    HW123948   2.143   3.414  16.368  1.1976  0.1690 -0.2368
 4104SOL    HW223949   2.116   3.455  16.505 -0.2147 -1.1216 -0.0628
 4105SOL     OW23950   0.532   4.727  13.496 -0.0555 -0.6000  0.4746
 4105SOL    HW123951   0.548   4.632  13.492  0.4211 -0.4928 -0.3377
 4105SOL    HW223952   0.587   0.021  13.569 -2.3232  1.1451  1.4962
 4106SOL     OW23953   2.559   4.225   9.202 -0.3835 -0.5737 -0.2611
 4106SOL    HW123954   2.587   4.135   9.185  2.1611  0.0612  0.6078
 4106SOL    HW223955   2.493   4.206   9.269  0.6987 -1.2497  0.6197
 4107SOL     OW23956   2.076   3.992   9.993 -0.0355  0.4166  0.1272
 4107SOL    HW123957   1.982   4.010  10.002  0.1486  1.7234 -0.6476
 4107SOL    HW223958   2.078   3.904  10.031 -0.3625 -0.0868 -1.0120
 4108SOL     OW23959   4.141   2.316   1.820 -0.3109 -0.3103  0.3039
 4108SOL    HW123960   4.056   2.310   1.864  0.0413  2.7256  1.4073
 4108SOL    HW223961   4.187   2.366   1.888  0.3765  0.3076 -0.6051
 4109SOL     OW23962   1.302   1.725   5.958 -0.4863 -0.7697 -0.3533
 4109SOL    HW123963   1.384   1.706   5.912 -0.8676 -1.7977 -0.5943
 4109SOL    HW223964   1.244   1.662   5.916 -0.7394  0.1706 -1.4405
 4110SOL     OW23965   0.321   0.143   8.673  0.8363  0.5774 -0.5444
 4110SOL    HW123966   0.256   0.088   8.717  1.4738  0.0939 -0.1954
 4110SOL    HW223967   0.318   0.219   8.730 -3.3816  0.1147 -0.1702
 4111SOL     OW23968   1.741   3.726   2.475  0.1005  0.3712 -0.0195
 4111SOL    HW123969   1.800   3.780   2.423  0.2758 -2.6111 -2.9107
 4111SOL    HW223970   1.729   3.789   2.546  0.2167 -0.6355  0.8825
 4112SOL     OW23971   1.265   1.924   5.417 -0.1148  0.3901  0.2490
 4112SOL    HW123972   1.302   1.995   5.364 -1.0803  0.6427 -0.0799
 4112SOL    HW223973   1.205   1.886   5.353  0.9791  0.7826 -0.9904
 4113SOL     OW23974   3.460   3.127  14.866  0.0268  0.2882  0.4570
 4113SOL    HW123975   3.448   3.185  14.790 -0.4094  0.0140  0.3200
 4113SOL    HW223976   3.394   3.064  14.837  0.2530  0.8040 -1.1623
 4114SOL     OW23977   0.738   1.187   3.016 -0.3722  0.0179 -0.5057
 4114SOL    HW123978   0.810   1.164   2.958 -1.8407 -2.2146 -1.4488
 4114SOL    HW223979   0.705   1.262   2.965  0.3546  0.3666 -0.4600
 4115SOL     OW23980   4.678   0.282   1.187  0.3108  0.0605  0.4145
 4115SOL    HW123981   0.012   0.275   1.120  3.1185 -1.8290  3.4336
 4115SOL    HW223982   4.613   0.348   1.161  0.8437  1.1661  1.8165
 4116SOL     OW23983   4.495   2.354   9.113  0.3299  0.1295  0.4905
 4116SOL    HW123984   4.449   2.393   9.188  0.6874  0.1000  0.7262
 4116SOL    HW223985   4.570   2.318   9.160  0.6750  1.3677  0.8669
 4117SOL     OW23986   1.907   1.819  15.425 -0.2117 -0.1706 -0.1394
 4117SOL    HW123987   1.842   1.792  15.360 -0.3938  0.0169 -0.0320
 4117SOL    HW223988   1.900   1.914  15.424  1.8488  0.0162  2.5940
 4118SOL     OW23989   0.190   1.593   4.352 -0.2131  0.2934 -0.1782
 4118SOL    HW123990   0.238   1.667   4.389  0.3681  1.1044 -2.5742
 4118SOL    HW223991   0.223   1.594   4.262 -1.1926  0.5333 -0.5303
 4119SOL     OW23992   1.505   1.547  12.964  0.4618  0.1356  0.3535
 4119SOL    HW123993   1.467   1.629  12.932 -2.2819 -1.2981 -0.0908
 4119SOL    HW223994   1.464   1.486  12.903  0.1291  0.6889  0.0210
 4120SOL     OW23995   1.983   2.759  10.498  1.0514  0.3112  0.1226
 4120SOL    HW123996   1.993   2.775  10.592  1.3754  1.1593 -0.0569
 4120SOL    HW223997   1.967   2.844  10.457  1.0895  0.4340  0.3619
 4121SOL     OW23998   1.850   4.312  12.852 -0.0787  0.4353 -0.0318
 4121SOL    HW123999   1.771   4.330  12.801 -0.0228  0.4938 -0.0960
 4121SOL    HW224000   1.819   4.243  12.912 -0.2247  0.5257 -0.0038
 4122SOL     OW24001   0.256   2.355   0.117 -0.7997 -0.0938 -0.0851
 4122SOL    HW124002   0.322   2.331   0.051  0.6223  3.0339  0.2004
 4122SOL    HW224003   0.185   2.346   0.054 -0.9153 -3.8258  0.5767
 4123SOL     OW24004   3.003   0.738   2.998 -0.3405 -0.1670  0.4588
 4123SOL    HW124005   2.982   0.696   2.914  0.2366  0.7066 -0.1223
 4123SOL    HW224006   2.913   0.758   3.024 -1.1014 -2.7425 -0.1556
 4124SOL     OW24007   1.308   3.979   2.752  0.5537 -0.0847 -0.2716
 4124SOL    HW124008   1.256   3.994   2.674  1.6940  1.3393 -0.7610
 4124SOL    HW224009   1.366   4.056   2.758  0.1197  0.0672  2.2905
 4125SOL     OW24010   3.513   3.158   9.365  0.1811 -0.7310 -0.3638
 4125SOL    HW124011   3.435   3.115   9.330  0.0701 -0.1671 -0.8112
 4125SOL    HW224012   3.539   3.216   9.294  0.9077  0.3716  0.8051
 4126SOL     OW24013   1.034   0.251   3.140  0.5115  0.3229 -0.5643
 4126SOL    HW124014   1.019   0.336   3.181 -0.0050 -0.8348  1.6131
 4126SOL    HW224015   0.948   0.248   3.096  0.3706 -0.3847 -0.2257
 4127SOL     OW24016   1.656   2.778   3.132 -0.1671  0.4188 -0.0393
 4127SOL    HW124017   1.621   2.840   3.067 -0.8213 -0.4610 -0.5223
 4127SOL    HW224018   1.719   2.841   3.166  0.8379 -1.0915  0.8605
 4128SOL     OW24019   3.065   3.162   4.088 -0.4159  0.3274  0.0442
 4128SOL    HW124020   3.005   3.228   4.053 -0.1294  0.1808 -0.7185
 4128SOL    HW224021   3.012   3.092   4.051  2.4086 -1.6720 -0.1792
 4129SOL     OW24022   4.272   4.571   9.292  0.2044 -0.1257  0.3435
 4129SOL    HW124023   4.298   4.513   9.364  1.2042 -1.7407 -1.2908
 4129SOL    HW224024   4.357   4.582   9.249  0.1106 -1.3315 -0.1520
 4130SOL     OW24025   1.275   2.599   4.253 -0.3690 -0.7255 -0.0290
 4130SOL    HW124026   1.211   2.592   4.183 -0.8197 -1.4796  0.4657
 4130SOL    HW224027   1.253   2.516   4.295  0.8626 -0.5528  0.9625
 4131SOL     OW24028   2.731   4.013   3.869  0.8818  0.0594 -0.3629
 4131SOL    HW124029   2.817   4.007   3.910  0.5673 -0.5328  0.2123
 4131SOL    HW224030   2.742   3.947   3.799  1.1678  0.0870 -0.3454
 4132SOL     OW24031   2.901   1.226   8.619 -0.3391  0.2958  0.1611
 4132SOL    HW124032   2.955   1.288   8.669  0.4036 -0.7591  0.6717
 4132SOL    HW224033   2.873   1.287   8.550 -0.8025  0.1078  0.1884
 4133SOL     OW24034   2.129   1.656  16.050 -0.3212 -0.5330 -0.7330
 4133SOL    HW124035   2.066   1.584  16.055 -1.5110  0.4286 -1.7752
 4133SOL    HW224036   2.064   1.717  16.017  0.3566 -0.1598 -1.3922
 4134SOL     OW24037   1.502   4.680   8.460 -0.3608  0.3199  0.1016
 4134SOL    HW124038   1.466   4.697   8.547  0.5361 -1.4869  0.8351
 4134SOL    HW224039   1.434   4.715   8.403 -0.8466 -1.6626 -0.5532
 4135SOL     OW24040   3.307   1.193  13.582  0.0067 -0.1449  0.2770
 4135SOL    HW124041   3.243   1.218  13.516 -0.8682  1.8209  1.8851
 4135SOL    HW224042   3.318   1.098  13.572 -0.1056  0.0495 -1.7235
 4136SOL     OW24043   1.522   2.729   6.341 -0.5037  0.2169  0.1480
 4136SOL    HW124044   1.582   2.803   6.344  0.2596 -0.4647  1.7155
 4136SOL    HW224045   1.474   2.742   6.259 -0.8910 -0.8724  0.2056
 4137SOL     OW24046   1.878   1.696   3.630  0.0146  0.5445 -0.1611
 4137SOL    HW124047   1.946   1.763   3.642  0.4579 -0.0883  0.8440
 4137SOL    HW224048   1.912   1.636   3.697  0.7945  0.4542 -0.6449
 4138SOL     OW24049   3.209   0.299   8.752 -0.3971 -0.4545  0.0702
 4138SOL    HW124050   3.167   0.240   8.689 -1.5416 -0.4566  0.8425
 4138SOL    HW224051   3.298   0.297   8.718  0.1526  0.1027  1.4664
 4139SOL     OW24052   3.752   2.004   6.119 -0.2685  0.9324 -0.3450
 4139SOL    HW124053   3.775   1.978   6.209 -0.4386 -1.1435 -0.9112
 4139SOL    HW224054   3.779   2.094   6.101 -0.0103  0.6366 -1.3986
 4140SOL     OW24055   2.105   0.920   5.385  0.4917 -0.5672  0.1222
 4140SOL    HW124056   2.038   0.914   5.452 -0.6242  1.6130 -0.7831
 4140SOL    HW224057   2.176   0.862   5.412  1.1864 -0.0935 -0.6656
 4141SOL     OW24058   1.204   4.561   6.248  0.1473 -0.2641  0.0159
 4141SOL    HW124059   1.128   4.513   6.215  0.7684 -0.5924 -0.9300
 4141SOL    HW224060   1.210   4.645   6.203 -3.8238 -0.6076 -1.2120
 4142SOL     OW24061   1.001   0.904   8.952 -0.4090 -0.5353  0.2842
 4142SOL    HW124062   1.057   0.953   8.892  0.1181  1.5343  2.4785
 4142SOL    HW224063   1.041   0.816   8.955  0.2474 -0.2633 -0.4816
 4143SOL     OW24064   1.310   3.204  12.599  0.1183 -0.2148  0.3028
 4143SOL    HW124065   1.283   3.126  12.551  1.2156  0.0500 -0.7241
 4143SOL    HW224066   1.266   3.271  12.546  0.8063 -1.4470 -1.8130
 4144SOL     OW24067   1.352   3.497   8.822  0.0132 -0.2079 -0.1125
 4144SOL    HW124068   1.277   3.497   8.763  0.8225 -0.2250 -1.1362
 4144SOL    HW224069   1.364   3.403   8.837  0.0166 -0.0942  0.6454
 4145SOL     OW24070   2.461   0.991   9.627 -0.3527  0.3220  0.3806
 4145SOL    HW124071   2.482   1.046   9.552  0.7214 -0.5342  0.0643
 4145SOL    HW224072   2.496   0.906   9.601 -5.5340 -1.7078  0.0591
 4146SOL     OW24073   1.488   4.008   6.560 -0.3813 -0.2393 -0.1027
 4146SOL    HW124074   1.431   4.013   6.483 -0.9369  2.5782  0.4713
 4146SOL    HW224075   1.419   4.001   6.626 -1.3870 -1.5436 -1.2923
 4147SOL     OW24076   3.106   0.265  16.733  0.3531  0.4746  0.2793
 4147SOL    HW124077   3.055   0.287  16.811 -1.1351  0.2515 -0.6280
 4147SOL    HW224078   3.092   0.170  16.731  2.0601  0.2283  0.5508
 4148SOL     OW24079   2.753   1.470   3.881  0.2856 -0.2523  0.4429
 4148SOL    HW124080   2.683   1.465   3.815  2.5255 -0.7781 -1.8600
 4148SOL    HW224081   2.744   1.563   3.902  0.7937 -0.0236 -0.3772
 4149SOL     OW24082   3.468   3.226   7.159 -0.2544  0.7398  0.7087
 4149SOL    HW124083   3.380   3.189   7.152 -0.4823  1.6070 -1.0516
 4149SOL    HW224084   3.496   3.203   7.070 -2.2512  0.6109  0.1073
 4150SOL     OW24085   1.119   0.622  14.725 -0.1879  0.4581 -0.0827
 4150SOL    HW124086   1.212   0.642  14.713 -0.7036  1.3802 -2.6474
 4150SOL    HW224087   1.079   0.700  14.763  1.4872  1.1705  0.2303
 4151SOL     OW24088   3.439   0.551  14.135 -0.3127 -0.1915  0.0592
 4151SOL    HW124089   3.350   0.575  14.109  0.4277  0.5726 -1.7385
 4151SOL    HW224090   3.486   0.634  14.132 -0.5380 -0.0353  0.8182
 4152SOL     OW24091   2.742   1.132  16.543 -0.1253  0.4887  0.0631
 4152SOL    HW124092   2.678   1.194  16.509  0.3859  0.7504 -0.4134
 4152SOL    HW224093   2.761   1.075  16.468  2.0811  1.7558 -0.3642
 4153SOL     OW24094   1.748   2.671  16.860  0.2829 -0.1360  0.3598
 4153SOL    HW124095   1.695   2.623  16.796  0.6866 -0.7163  0.4713
 4153SOL    HW224096   1.724   2.759  16.830  1.3315  0.7555  2.1722
 4154SOL     OW24097   1.138   0.416   9.181 -0.1110  0.7075 -0.6146
 4154SOL    HW124098   1.052   0.396   9.217  2.2471 -2.4089  3.3303
 4154SOL    HW224099   1.107   0.476   9.113  0.1840  1.3096 -0.2218
 4155SOL     OW24100   2.876   4.092   6.713  0.5806  0.4676  0.3682
 4155SOL    HW124101   2.952   4.134   6.754  0.7668 -0.2600  0.7539
 4155SOL    HW224102   2.875   4.021   6.776  1.5769  0.1884  0.0805
 4156SOL     OW24103   4.307   0.136   8.698  0.4434 -0.3350  0.2137
 4156SOL    HW124104   4.257   0.086   8.762  0.1708 -0.4568 -0.0933
 4156SOL    HW224105   4.241   0.197   8.666  1.2483  0.9954  1.0749
 4157SOL     OW24106   1.590   3.396   3.068 -0.3307 -0.3272  0.4242
 4157SOL    HW124107   1.530   3.333   3.108 -1.9194 -0.4261 -2.1326
 4157SOL    HW224108   1.655   3.347   3.018  0.1200 -0.3327  1.0199
 4158SOL     OW24109   1.401   0.171  11.508  0.2473 -0.4142 -0.1494
 4158SOL    HW124110   1.455   0.179  11.586 -0.3149  1.6045  0.0355
 4158SOL    HW224111   1.429   0.254  11.469  1.7763 -0.8323  0.0885
 4159SOL     OW24112   4.414   1.975  11.448  0.2748  0.0599 -0.1311
 4159SOL    HW124113   4.414   1.945  11.357 -0.8662 -1.1801  0.2803
 4159SOL    HW224114   4.338   1.931  11.486  0.0194 -0.2142 -0.9657
 4160SOL     OW24115   0.322   0.314   8.869 -0.1230  0.1328  0.2176
 4160SOL    HW124116   0.296   0.406   8.864 -0.0517  0.0703 -1.3609
 4160SOL    HW224117   0.242   0.274   8.903 -0.1333  0.8324  0.9902
 4161SOL     OW24118   2.844   2.432  17.303 -0.4149 -0.5341 -0.5299
 4161SOL    HW124119   2.772   2.489  17.330  1.6490  1.8124 -0.0624
 4161SOL    HW224120   2.889   2.420  17.386 -1.9587  1.8082  0.6129
 4162SOL     OW24121   3.697   1.037  13.131  1.2912 -0.4813  0.3996
 4162SOL    HW124122   3.627   0.977  13.155  0.4079  0.0699 -0.8430
 4162SOL    HW224123   3.758   0.970  13.097  2.2918  0.2358  0.7726
 4163SOL     OW24124   0.157   1.273  16.717  0.1399  0.0400  0.1846
 4163SOL    HW124125   0.172   1.221  16.638  1.3946  0.8582 -0.1286
 4163SOL    HW224126   0.196   1.216  16.783 -0.4118 -1.3461 -0.6904
 4164SOL     OW24127   3.299   3.987   8.342 -0.3856  0.5470  0.1629
 4164SOL    HW124128   3.250   4.055   8.388  0.3074  1.6000 -0.6457
 4164SOL    HW224129   3.225   3.960   8.289  1.6724 -0.7679 -2.0562
 4165SOL     OW24130   4.635   1.462  12.382 -0.0674 -0.0609 -0.0130
 4165SOL    HW124131   4.648   1.367  12.393  0.3379 -0.3489 -3.0886
 4165SOL    HW224132   4.714   1.475  12.330  0.8726 -1.2095  1.1044
 4166SOL     OW24133   2.185   3.480   2.740  0.2038  0.2194 -0.1305
 4166SOL    HW124134   2.255   3.513   2.684 -0.3325  2.1011  0.2841
 4166SOL    HW224135   2.116   3.540   2.711 -0.3475 -0.7974 -0.9046
 4167SOL     OW24136   0.363   1.664   7.330 -0.5131 -0.1383 -0.0623
 4167SOL    HW124137   0.454   1.636   7.336 -0.1175  0.7814 -1.9218
 4167SOL    HW224138   0.376   1.722   7.256  4.7782 -1.6588 -0.2675
 4168SOL     OW24139   3.309   1.642  10.770 -0.5004  0.1805  0.0984
 4168SOL    HW124140   3.255   1.697  10.713 -0.5370  0.9952  0.9127
 4168SOL    HW224141   3.310   1.696  10.850 -1.9681  2.8704 -1.7097
 4169SOL     OW24142   2.641   3.136   7.972 -0.3284 -0.2124  0.0975
 4169SOL    HW124143   2.592   3.137   7.889  0.8056  0.1055 -0.5726
 4169SOL    HW224144   2.575   3.101   8.031 -1.5429  1.9267 -0.0024
 4170SOL     OW24145   3.812   3.131  15.665  0.0925 -0.3683 -0.2073
 4170SOL    HW124146   3.896   3.085  15.665  0.3076  0.0189  0.6683
 4170SOL    HW224147   3.797   3.143  15.571  0.2771  0.8298 -0.0952
 4171SOL     OW24148   1.949   1.327   8.001  0.0934  0.1309  0.5383
 4171SOL    HW124149   1.902   1.403   8.034  1.3232  1.5744 -1.0519
 4171SOL    HW224150   1.887   1.267   7.960 -0.4061  1.2623 -0.3455
 4172SOL     OW24151   1.458   3.167   8.544  0.7103  0.0035 -0.0374
 4172SOL    HW124152   1.539   3.217   8.550 -0.1029  1.0789  1.9387
 4172SOL    HW224153   1.464   3.113   8.623  2.3225 -2.4961 -1.8826
 4173SOL     OW24154   0.708   2.169  15.029 -0.0562 -0.1397 -0.4933
 4173SOL    HW124155   0.728   2.254  14.989 -1.6503  0.1535 -0.6924
 4173SOL    HW224156   0.637   2.130  14.978 -0.4378 -0.7721  0.5395
 4174SOL     OW24157   2.231   0.258   6.351  0.0980  0.3812 -0.1024
 4174SOL    HW124158   2.200   0.192   6.288  0.0272  1.0261 -0.7479
 4174SOL    HW224159   2.159   0.320   6.350 -0.0551  0.1867 -1.3904
 4175SOL     OW24160   0.750   2.403   1.813 -0.2385 -0.0823  0.0141
 4175SOL    HW124161   0.813   2.411   1.884 -0.3522  2.1463 -0.1414
 4175SOL    HW224162   0.746   2.308   1.816  1.2001 -0.1487 -0.3405
 4176SOL     OW24163   0.298   2.611   4.146  0.5682 -0.3312 -0.0455
 4176SOL    HW124164   0.326   2.685   4.091 -0.0634 -1.5064 -1.9571
 4176SOL    HW224165   0.354   2.612   4.224 -1.0056 -2.9149  1.1033
 4177SOL     OW24166   3.931   1.223   7.064 -0.3870  0.8731 -0.4229
 4177SOL    HW124167   3.929   1.271   7.147  0.2635  0.8834 -0.4178
 4177SOL    HW224168   4.016   1.180   7.072 -1.0731 -0.6091 -1.0711
 4178SOL     OW24169   0.883   0.739   3.196 -0.6585 -0.3086 -0.0932
 4178SOL    HW124170   0.850   0.819   3.238 -0.7324 -0.2130 -0.3328
 4178SOL    HW224171   0.955   0.787   3.155 -2.3204  0.4805 -2.0885
 4179SOL     OW24172   2.671   0.308  10.851 -0.2714 -0.0191 -0.1172
 4179SOL    HW124173   2.607   0.245  10.883 -2.2316  2.4217  0.8169
 4179SOL    HW224174   2.661   0.366  10.926 -0.8086 -0.3649  0.0806
 4180SOL     OW24175   1.922   3.059   5.145  0.3990 -0.0015  0.0160
 4180SOL    HW124176   1.959   2.974   5.169 -1.6972 -0.9641 -0.2493
 4180SOL    HW224177   1.971   3.070   5.063  0.3343  2.1930  0.2826
 4181SOL     OW24178   3.298   1.133   8.228 -0.1054 -0.0616 -0.4430
 4181SOL    HW124179   3.294   1.071   8.301  1.5254  0.8143  0.3765
 4181SOL    HW224180   3.294   1.070   8.155 -1.5861 -0.7954  0.2838
 4182SOL     OW24181   0.374   2.978   7.539  0.0523 -0.5007 -0.4570
 4182SOL    HW124182   0.467   2.959   7.544  0.4400  1.8995  1.5477
 4182SOL    HW224183   0.339   2.912   7.480 -0.6264 -0.5308 -0.0320
 4183SOL     OW24184   4.420   4.547   8.182 -0.4339 -0.1405 -0.7372
 4183SOL    HW124185   4.350   4.606   8.156 -0.9898 -0.2739  0.5140
 4183SOL    HW224186   4.485   4.613   8.208 -1.5829  0.8438 -0.3979
 4184SOL     OW24187   3.495   1.016   1.998  0.0785 -0.3187  0.1252
 4184SOL    HW124188   3.414   0.973   2.025  0.2340 -1.4453 -1.1691
 4184SOL    HW224189   3.537   0.939   1.961  1.2670  1.0601 -1.4167
 4185SOL     OW24190   0.042   3.989   7.645 -0.0537  0.5076 -0.7561
 4185SOL    HW124191   0.044   3.937   7.726  0.4869  2.1753  0.2958
 4185SOL    HW224192   0.092   3.933   7.586 -0.0842 -1.2695  0.9076
 4186SOL     OW24193   1.619   2.484  14.443 -0.3979  0.0306 -0.6614
 4186SOL    HW124194   1.575   2.425  14.382  0.2136 -2.4761  1.2944
 4186SOL    HW224195   1.563   2.560  14.429 -0.8086 -0.0299  0.6266
 4187SOL     OW24196   3.843   2.199   6.889  0.1692  0.1579 -0.1578
 4187SOL    HW124197   3.823   2.115   6.929  0.6476  0.1299  0.0208
 4187SOL    HW224198   3.765   2.227   6.841 -1.1806  0.4007  2.1915
 4188SOL     OW24199   0.872   1.969  16.804 -0.1436 -0.1082 -0.4838
 4188SOL    HW124200   0.937   2.022  16.757  1.2467 -0.3792  1.1012
 4188SOL    HW224201   0.910   1.881  16.804 -0.5062 -0.2644  0.5681
 4189SOL     OW24202   3.411   3.403   7.848  0.2702  0.6734 -0.2654
 4189SOL    HW124203   3.505   3.411   7.834 -0.1501  1.6885 -2.5145
 4189SOL    HW224204   3.387   3.484   7.894  2.3790  1.9424 -1.4242
 4190SOL     OW24205   0.831   3.354   0.674  0.6459  0.5905  0.4545
 4190SOL    HW124206   0.852   3.283   0.735  1.3620  0.6380  0.2556
 4190SOL    HW224207   0.912   3.403   0.687 -0.6165  2.4325  1.4512
 4191SOL     OW24208   0.354   0.357   1.063 -0.6441 -0.6287  0.2167
 4191SOL    HW124209   0.310   0.322   0.985  2.1183  0.3737 -1.7716
 4191SOL    HW224210   0.319   0.446   1.068 -0.4941 -0.3989 -2.8999
 4192SOL     OW24211   2.044   0.998  16.775  0.2754  0.0108 -0.1362
 4192SOL    HW124212   2.136   0.976  16.756 -0.1911 -0.2379 -2.1095
 4192SOL    HW224213   2.000   0.994  16.691  0.9637 -1.6863 -0.4177
 4193SOL     OW24214   0.073   2.172   9.593  0.3822  0.3207 -0.6030
 4193SOL    HW124215   0.149   2.144   9.542  0.9906 -0.6519  0.8284
 4193SOL    HW224216   0.102   2.263   9.596  1.2273  0.0775 -1.6658
 4194SOL     OW24217   0.409   3.852   2.241 -0.5773  0.0720  0.0452
 4194SOL    HW124218   0.384   3.937   2.205  3.2511  1.2121  0.1545
 4194SOL    HW224219   0.328   3.824   2.285  0.2317  1.0423  2.1202
 4195SOL     OW24220   3.342   0.398   5.121  0.3169  0.3845 -0.6655
 4195SOL    HW124221   3.381   0.447   5.193  1.5407  1.2268 -1.8750
 4195SOL    HW224222   3.303   0.478   5.085  0.5684  0.4043 -0.8959
 4196SOL     OW24223   1.110   3.007   1.030  0.3718  0.3361  0.3349
 4196SOL    HW124224   1.157   2.938   1.078  0.6393  0.4890  0.2911
 4196SOL    HW224225   1.169   3.079   1.052  0.2451  0.8624 -1.0448
 4197SOL     OW24226   0.775   1.096  14.980 -0.1421 -0.0101 -0.1766
 4197SOL    HW124227   0.721   1.158  14.932 -0.2648 -1.0028 -1.3279
 4197SOL    HW224228   0.755   1.122  15.070  0.2500  1.7817 -0.6181
 4198SOL     OW24229   3.616   2.030  13.796  0.3644  0.0087 -0.0276
 4198SOL    HW124230   3.605   2.050  13.703  1.3429 -0.8243 -0.3185
 4198SOL    HW224231   3.698   1.982  13.802  0.9944  0.9441 -1.2222
 4199SOL     OW24232   3.687   2.636  15.075 -0.0099  0.6598 -0.5406
 4199SOL    HW124233   3.710   2.672  14.990 -2.9917 -1.2823 -2.1753
 4199SOL    HW224234   3.778   2.626  15.104 -0.1364  0.2479 -0.2807
 4200SOL     OW24235   4.593   4.179   5.140  0.1964 -0.1159  0.1859
 4200SOL    HW124236   4.662   4.245   5.135 -0.7052  0.8493  0.5079
 4200SOL    HW224237   4.646   4.102   5.119 -2.6220 -1.8228 -0.6869
 4201SOL     OW24238   2.111   2.699   6.370  0.1848 -0.2031 -0.6430
 4201SOL    HW124239   2.179   2.701   6.437 -0.1213  0.2981 -0.3544
 4201SOL    HW224240   2.128   2.618   6.322  0.3069 -1.8737  2.2170
 4202SOL     OW24241   3.060   1.149   7.340 -0.0524 -0.0981 -0.1358
 4202SOL    HW124242   3.130   1.188   7.288 -0.4629 -1.8804 -2.0325
 4202SOL    HW224243   3.097   1.060   7.342 -1.5797 -0.7114  1.2124
 4203SOL     OW24244   3.070   3.026   6.338  0.2898 -0.1165  0.3633
 4203SOL    HW124245   3.058   2.977   6.419  0.7668 -1.7835 -0.5847
 4203SOL    HW224246   3.059   3.119   6.357  0.6890 -0.1735  0.8571
 4204SOL     OW24247   3.632   4.256   6.002  0.1221  0.2127 -0.4267
 4204SOL    HW124248   3.553   4.272   6.054 -0.2989 -1.1504 -0.6501
 4204SOL    HW224249   3.698   4.237   6.068 -0.4997  1.1990  0.4790
 4205SOL     OW24250   4.369   4.112   0.613  0.4578 -0.0640  0.1819
 4205SOL    HW124251   4.282   4.124   0.653  1.0591  0.9478  1.1772
 4205SOL    HW224252   4.341   4.095   0.523  0.7872  1.6609 -0.2586
 4206SOL     OW24253   0.380   3.546   3.203  0.8328 -0.0829  0.6615
 4206SOL    HW124254   0.423   3.604   3.265  0.0859  1.5935 -0.3874
 4206SOL    HW224255   0.449   3.480   3.200  2.8274  2.1245 -1.3661
 4207SOL     OW24256   0.886   1.931  15.942  0.2205  0.2448  0.6739
 4207SOL    HW124257   0.820   1.904  16.006 -2.4367 -0.3707 -2.3351
 4207SOL    HW224258   0.848   2.014  15.913 -0.1262  0.2263  1.0737
 4208SOL     OW24259   0.374   0.392  17.384 -0.2051 -0.4119  0.0282
 4208SOL    HW124260   0.288   0.385  17.343 -1.5525  0.2002  2.7090
 4208SOL    HW224261   0.419   0.339  17.318 -0.9635 -0.8924 -0.0985
 4209SOL     OW24262   3.437   3.497   6.025  0.2337 -0.3977 -0.1994
 4209SOL    HW124263   3.421   3.581   6.069  0.8730 -0.6559  0.5319
 4209SOL    HW224264   3.347   3.472   6.008  0.2854 -0.4354 -0.4072
 4210SOL     OW24265   1.538   2.737   5.072 -0.5403 -0.2313 -0.0195
 4210SOL    HW124266   1.623   2.752   5.031 -1.0106  0.2722 -0.8026
 4210SOL    HW224267   1.520   2.825   5.107 -1.9021 -0.1605 -0.8769
 4211SOL     OW24268   4.540   0.416   2.431  0.4353  0.2311  0.7063
 4211SOL    HW124269   4.605   0.345   2.430 -2.1326 -2.1383  1.6463
 4211SOL    HW224270   4.464   0.363   2.457 -0.8263  2.4011  1.4292
 4212SOL     OW24271   0.152   3.391  16.276  0.0061 -0.3086  0.4713
 4212SOL    HW124272   0.243   3.374  16.252  0.0417  2.5332 -1.4337
 4212SOL    HW224273   0.121   3.434  16.196  1.0557  1.6044  1.1000
 4213SOL     OW24274   1.933   2.070   0.076  0.3515  0.6557  0.4377
 4213SOL    HW124275   1.996   2.142   0.077 -0.7365  1.6636 -2.7874
 4213SOL    HW224276   1.861   2.114   0.030  0.4621  2.5071  2.0308
 4214SOL     OW24277   4.342   2.299   1.403 -0.0835  0.1999 -0.3027
 4214SOL    HW124278   4.360   2.304   1.497  3.5693  0.0097 -1.0167
 4214SOL    HW224279   4.367   2.207   1.392  1.9794  0.5562  1.4984
 4215SOL     OW24280   0.096   0.573   4.397  0.1960  0.2935  0.0237
 4215SOL    HW124281   0.050   0.655   4.382  0.8534  0.7281  0.3575
 4215SOL    HW224282   0.058   0.536   4.477  1.1580 -0.3144  0.2068
 4216SOL     OW24283   2.609   0.425   5.039 -0.0463  0.1971 -0.0150
 4216SOL    HW124284   2.625   0.405   5.131 -3.0932  1.3150  0.7518
 4216SOL    HW224285   2.698   0.407   5.010  0.3657 -1.6229  2.4003
 4217SOL     OW24286   1.092   0.573   4.099 -0.6961 -0.4461 -0.3336
 4217SOL    HW124287   1.000   0.565   4.074 -0.8407 -2.3781  0.8727
 4217SOL    HW224288   1.089   0.569   4.195  0.6757 -0.2862 -0.2829
 4218SOL     OW24289   2.705   1.713   3.967  0.1521 -0.4637 -0.2116
 4218SOL    HW124290   2.628   1.724   3.911 -0.6591 -1.9468  0.6115
 4218SOL    HW224291   2.681   1.780   4.031 -0.6100 -0.8537 -0.0955
 4219SOL     OW24292   0.397   0.754   9.211  0.3842 -0.1901  0.0488
 4219SOL    HW124293   0.424   0.801   9.132  0.9090  1.6779  1.3477
 4219SOL    HW224294   0.478   0.727   9.255  0.4061 -0.3316 -0.0767
 4220SOL     OW24295   4.711   2.473   6.304 -0.0105  0.3916 -0.1456
 4220SOL    HW124296   4.703   2.560   6.344  0.0602 -0.0928  0.9359
 4220SOL    HW224297   0.034   2.437   6.373 -1.6155  2.7171  2.3808
 4221SOL     OW24298   3.244   1.982   0.474  0.1371 -0.5325 -0.2494
 4221SOL    HW124299   3.194   2.062   0.490  0.5369 -0.1887 -0.7425
 4221SOL    HW224300   3.173   1.917   0.474 -0.3058 -0.0688 -4.8023
 4222SOL     OW24301   1.064   1.144   0.603 -0.2291  0.4536 -0.4848
 4222SOL    HW124302   1.144   1.128   0.653  0.5570  2.6674 -1.0627
 4222SOL    HW224303   1.088   1.134   0.511 -1.9491 -1.0731 -0.7868
 4223SOL     OW24304   4.581   0.739   1.600  0.4918 -0.0852  0.4149
 4223SOL    HW124305   4.662   0.740   1.651  0.7717  1.0307 -0.0557
 4223SOL    HW224306   4.547   0.651   1.615 -1.4101  0.3462 -1.3567
 4224SOL     OW24307   3.350   3.106   4.634 -0.4566  0.2608  0.6678
 4224SOL    HW124308   3.351   3.174   4.565  0.9194 -2.2473 -1.7703
 4224SOL    HW224309   3.370   3.035   4.573  0.8863  1.9930 -0.9108
 4225SOL     OW24310   3.484   4.488   7.059  0.0657  0.2620 -0.1696
 4225SOL    HW124311   3.483   4.570   7.107  0.9555  0.3208 -0.2547
 4225SOL    HW224312   3.505   4.524   6.972  0.4708  0.5192  0.0355
 4226SOL     OW24313   1.568   0.529  10.172 -0.0409 -0.5388 -0.0542
 4226SOL    HW124314   1.556   0.438  10.199  1.6868  0.8622  5.4350
 4226SOL    HW224315   1.516   0.567  10.243  0.1832 -2.0381  0.9012
 4227SOL     OW24316   2.249   1.550   4.331  0.2474 -0.0804 -0.3331
 4227SOL    HW124317   2.252   1.490   4.406 -2.4123  1.7006  1.2037
 4227SOL    HW224318   2.261   1.629   4.383  2.6610 -1.5237  1.3152
 4228SOL     OW24319   0.671   1.307   6.819 -0.0726 -0.4511 -0.1862
 4228SOL    HW124320   0.687   1.311   6.914  0.6125  0.5373 -0.3355
 4228SOL    HW224321   0.612   1.232   6.818 -1.3988  0.5754  1.1612
 4229SOL     OW24322   4.505   0.769   8.802 -0.3533 -0.5258 -0.1317
 4229SOL    HW124323   4.546   0.746   8.719 -1.4214 -1.0008 -0.5289
 4229SOL    HW224324   4.471   0.852   8.770  1.7078  0.1575 -0.5777
 4230SOL     OW24325   3.002   2.183   6.077  0.0735  0.3797 -0.3350
 4230SOL    HW124326   2.970   2.193   6.166 -1.1074 -0.4577 -0.6718
 4230SOL    HW224327   2.986   2.272   6.046  1.9130  0.5760 -0.7119
 4231SOL     OW24328   4.326   2.493  14.705 -0.4762 -0.3367  0.6206
 4231SOL    HW124329   4.262   2.543  14.655  0.5409  0.8917  0.5296
 4231SOL    HW224330   4.265   2.451  14.766  0.6833 -1.6847  0.8451
 4232SOL     OW24331   3.167   2.623  10.826 -0.5075 -0.6452 -0.1212
 4232SOL    HW124332   3.202   2.646  10.740  0.0423  1.3746  0.6519
 4232SOL    HW224333   3.227   2.560  10.867  0.4061 -1.2050 -2.3289
 4233SOL     OW24334   2.803   3.721   6.119  0.3074  0.1844 -0.2613
 4233SOL    HW124335   2.747   3.705   6.043  2.3446  1.4483 -2.0093
 4233SOL    HW224336   2.750   3.673   6.183 -0.4469 -0.1470 -1.1455
 4234SOL     OW24337   1.745   0.275   2.353  0.0039  0.0577 -0.1750
 4234SOL    HW124338   1.715   0.309   2.268  2.0817 -0.7299 -1.2365
 4234SOL    HW224339   1.763   0.186   2.322  4.0333  0.5315  0.7893
 4235SOL     OW24340   2.938   3.920   6.893  1.1213  0.2774  0.0046
 4235SOL    HW124341   2.973   3.995   6.940  0.2699  0.8657 -0.3082
 4235SOL    HW224342   3.021   3.872   6.889  0.9010 -0.1681  0.8783
 4236SOL     OW24343   2.043   2.542   4.854  0.0256 -0.0315 -0.0123
 4236SOL    HW124344   2.130   2.575   4.878 -1.4702  1.8779  2.8847
 4236SOL    HW224345   2.056   2.508   4.766 -2.1386  2.5612 -1.3275
 4237SOL     OW24346   0.690   2.114   8.754 -0.5475  0.0490 -0.1137
 4237SOL    HW124347   0.720   2.121   8.664 -0.9342  0.2491 -0.2236
 4237SOL    HW224348   0.646   2.030   8.742 -0.9736  0.0521  1.4033
 4238SOL     OW24349   4.146   2.191  15.965  0.0533  0.1708  0.0940
 4238SOL    HW124350   4.184   2.104  15.977 -0.2974 -0.1829 -1.3113
 4238SOL    HW224351   4.154   2.203  15.870 -2.0367 -0.6258 -0.1853
 4239SOL     OW24352   4.157   3.024   8.170  0.1218  0.2608 -0.4096
 4239SOL    HW124353   4.093   3.045   8.237  1.5881  0.5114  0.9058
 4239SOL    HW224354   4.244   3.027   8.210  0.1158  2.0223 -0.5013
 4240SOL     OW24355   2.918   1.561   4.364  1.2163  0.0864 -0.4190
 4240SOL    HW124356   2.877   1.526   4.285 -1.6777  1.9279  0.2798
 4240SOL    HW224357   2.946   1.478   4.402 -1.0399 -0.8593 -0.7990
 4241SOL     OW24358   4.217   3.327   6.797  0.0551 -0.8360 -0.2227
 4241SOL    HW124359   4.172   3.356   6.717 -2.0106 -0.6901  0.9858
 4241SOL    HW224360   4.236   3.237   6.771 -0.6362 -1.0741  0.0862
 4242SOL     OW24361   2.206   3.556   7.840  0.4557 -0.0824  0.0533
 4242SOL    HW124362   2.138   3.501   7.879 -0.5131  0.8897 -0.2750
 4242SOL    HW224363   2.263   3.572   7.915 -1.4926 -0.6629  1.6697
 4243SOL     OW24364   1.506   0.521  10.667 -0.2419 -0.2664 -0.4048
 4243SOL    HW124365   1.592   0.546  10.699 -0.4445  0.0393 -0.0891
 4243SOL    HW224366   1.530   0.435  10.635 -2.3521 -0.5113 -1.3654
 4244SOL     OW24367   2.034   0.901   0.638 -0.1434  0.5408 -0.0776
 4244SOL    HW124368   1.970   0.842   0.599 -1.1508  1.1578  0.6713
 4244SOL    HW224369   2.097   0.913   0.566  1.8846 -2.6251  1.2067
 4245SOL     OW24370   0.770   2.903  12.036 -0.1351 -0.3082  0.2076
 4245SOL    HW124371   0.863   2.919  12.048 -0.2517  0.5789 -0.1314
 4245SOL    HW224372   0.743   2.984  11.995 -0.8196  0.6445  2.5339
 4246SOL     OW24373   2.961   2.888   8.617 -0.6397 -0.3011 -0.8052
 4246SOL    HW124374   2.905   2.824   8.661 -0.4351  1.5315  2.1004
 4246SOL    HW224375   2.977   2.944   8.693 -0.9878  0.0836 -1.0119
 4247SOL     OW24376   0.940   3.478  12.617 -0.3780  0.2681  0.8017
 4247SOL    HW124377   0.906   3.467  12.706 -0.9522  0.7416  0.6357
 4247SOL    HW224378   0.976   3.566  12.618 -1.1799  0.5867  1.4438
 4248SOL     OW24379   1.721   3.412   8.399 -0.1834  0.1824 -1.0181
 4248SOL    HW124380   1.784   3.423   8.328  0.4871 -2.1699 -0.8114
 4248SOL    HW224381   1.642   3.399   8.347 -1.7499  1.8930  0.9428
 4249SOL     OW24382   2.594   2.904   7.010  0.2223  0.2004  0.0395
 4249SOL    HW124383   2.557   2.988   6.983 -0.2534 -0.2014 -0.5577
 4249SOL    HW224384   2.557   2.896   7.098  1.0626 -0.1379  0.3614
 4250SOL     OW24385   1.122   1.821   7.852 -0.7221 -0.7642 -0.6309
 4250SOL    HW124386   1.044   1.875   7.861 -0.2780 -0.3688  0.8808
 4250SOL    HW224387   1.162   1.860   7.774  0.6037  1.5897  1.2177
 4251SOL     OW24388   1.081   3.902   4.099 -0.6536 -0.0254  0.0221
 4251SOL    HW124389   1.024   3.942   4.164 -0.2560 -0.3479  0.5704
 4251SOL    HW224390   1.150   3.968   4.097 -0.6025 -0.1614 -2.8864
 4252SOL     OW24391   2.939   3.533   8.351  0.2582  0.3727 -1.3717
 4252SOL    HW124392   2.867   3.590   8.325  0.0391  1.4274  1.4872
 4252SOL    HW224393   2.921   3.531   8.445 -0.3663 -0.5759 -1.5200
 4253SOL     OW24394   3.433   1.360   8.128  0.2224  0.1655 -0.7358
 4253SOL    HW124395   3.518   1.333   8.093  0.8983  0.6998  0.5321
 4253SOL    HW224396   3.393   1.276   8.151  1.3551 -0.2253 -0.2288
 4254SOL     OW24397   1.885   2.270   8.332 -0.0189 -0.1582  0.0087
 4254SOL    HW124398   1.819   2.325   8.375  0.5275 -0.1037  0.7929
 4254SOL    HW224399   1.860   2.180   8.349 -0.8086 -0.0618 -0.6939
 4255SOL     OW24400   1.243   3.957  17.370 -0.5835  0.2622 -0.4119
 4255SOL    HW124401   1.226   3.878  17.421 -2.3639  0.4413 -0.7179
 4255SOL    HW224402   1.293   3.915  17.300 -0.0013  0.9809 -0.4291
 4256SOL     OW24403   3.691   4.331   3.939  0.5098  0.0704  0.5121
 4256SOL    HW124404   3.609   4.298   3.976  0.7800  0.0433  1.0925
 4256SOL    HW224405   3.697   4.280   3.859 -0.9851 -0.5883  0.8233
 4257SOL     OW24406   3.132   1.290  15.460 -0.0498  0.2029  0.4866
 4257SOL    HW124407   3.144   1.380  15.429 -0.2630 -0.1028 -0.4801
 4257SOL    HW224408   3.041   1.274  15.433  0.7261 -2.1390 -0.7089
 4258SOL     OW24409   0.855   1.474   3.750 -0.0626 -0.2563  0.1596
 4258SOL    HW124410   0.930   1.533   3.752 -0.7780  0.6821 -1.0462
 4258SOL    HW224411   0.793   1.519   3.693  1.4601  1.8194  0.1481
 4259SOL     OW24412   2.702   2.197   5.368  0.3250  0.5996  0.1786
 4259SOL    HW124413   2.708   2.136   5.295 -0.4906 -0.4201  0.9747
 4259SOL    HW224414   2.790   2.234   5.360  0.7531  0.0822  2.4034
 4260SOL     OW24415   4.182   1.489  13.294 -0.0028 -0.0477 -0.3481
 4260SOL    HW124416   4.115   1.455  13.235  0.7159 -1.1225 -0.5376
 4260SOL    HW224417   4.232   1.544  13.234 -0.7729 -1.2787 -2.0971
 4261SOL     OW24418   2.955   1.937   7.309  0.3858 -0.4774  0.0823
 4261SOL    HW124419   2.893   1.878   7.351 -1.0210  0.2768 -0.9576
 4261SOL    HW224420   2.921   1.937   7.220  1.7589  0.7473 -0.4481
 4262SOL     OW24421   3.166   3.991   4.464  0.1350 -0.3549 -0.0456
 4262SOL    HW124422   3.119   3.960   4.541  3.1271  0.5293  2.1375
 4262SOL    HW224423   3.240   3.931   4.472  0.5346  0.0043 -1.0253
 4263SOL     OW24424   0.198   0.707   7.011  0.7177  0.3688 -0.3566
 4263SOL    HW124425   0.173   0.795   6.984 -0.2711 -0.3742 -1.8964
 4263SOL    HW224426   0.290   0.703   6.986 -0.0657  1.9073 -3.4740
 4264SOL     OW24427   1.816   3.143   4.106  0.3736 -0.2115  0.2715
 4264SOL    HW124428   1.768   3.068   4.073 -2.2222  1.4452  0.2398
 4264SOL    HW224429   1.752   3.171   4.172  0.8719 -0.7959  1.0014
 4265SOL     OW24430   2.023   1.758   8.538  0.3903  0.1435  0.3046
 4265SOL    HW124431   2.031   1.665   8.561  0.2058 -0.4542 -2.0168
 4265SOL    HW224432   1.955   1.755   8.471  0.3643 -1.2932  0.3872
 4266SOL     OW24433   3.690   2.865   5.213 -0.2953 -0.3238 -0.0935
 4266SOL    HW124434   3.778   2.831   5.227 -0.2753 -0.4616 -0.5411
 4266SOL    HW224435   3.719   2.954   5.191  1.0059 -1.1270 -1.6228
 4267SOL     OW24436   4.036   3.459   3.857  0.4292  0.0504 -0.2819
 4267SOL    HW124437   4.094   3.390   3.891 -2.1680 -2.1046 -0.2830
 4267SOL    HW224438   4.059   3.530   3.917 -3.0895  1.2359 -0.3638
 4268SOL     OW24439   0.785   2.656   8.410 -0.4577 -0.3368  0.1479
 4268SOL    HW124440   0.800   2.748   8.432  1.0143 -0.6224  0.3358
 4268SOL    HW224441   0.689   2.661   8.414 -0.5423 -1.3951 -0.6110
 4269SOL     OW24442   3.826   4.630   2.929 -0.4660  0.3893 -0.3732
 4269SOL    HW124443   3.762   4.562   2.908 -0.1088 -0.0822  0.1058
 4269SOL    HW224444   3.806   4.691   2.858  0.7970  0.2629 -0.8309
 4270SOL     OW24445   3.581   3.770  10.732  0.3256  0.1451 -0.1408
 4270SOL    HW124446   3.640   3.791  10.660  1.1752 -0.2895  0.4343
 4270SOL    HW224447   3.551   3.684  10.701  1.8770 -0.9455  1.3937
 4271SOL     OW24448   4.068   0.278   8.643 -0.0195  0.0656  0.3886
 4271SOL    HW124449   3.981   0.258   8.606  0.6104 -2.3136  0.2192
 4271SOL    HW224450   4.033   0.321   8.721 -0.7135 -2.4831  1.4935
 4272SOL     OW24451   0.010   0.996   4.045 -0.4611  0.5709  0.3718
 4272SOL    HW124452   0.085   0.998   4.104  0.9412 -0.8957 -1.3419
 4272SOL    HW224453   0.022   0.906   4.014  1.6176  0.9502  0.1052
 4273SOL     OW24454   2.248   0.431   2.373  0.1624  0.5418  0.3851
 4273SOL    HW124455   2.183   0.500   2.384 -1.2630 -0.8680  0.6662
 4273SOL    HW224456   2.249   0.374   2.450  0.0017 -1.3689 -1.0300
 4274SOL     OW24457   4.248   0.187   5.073 -0.1438  0.1144  0.1209
 4274SOL    HW124458   4.200   0.108   5.050  0.0117 -0.1112  0.5517
 4274SOL    HW224459   4.338   0.171   5.046  0.3762  0.3543  1.6848
 4275SOL     OW24460   0.547   0.157   5.796 -0.4462 -0.1496  0.2363
 4275SOL    HW124461   0.599   0.127   5.721 -1.3786  0.2232 -0.5669
 4275SOL    HW224462   0.558   0.093   5.866 -1.4150 -2.8395 -2.0817
 4276SOL     OW24463   4.321   4.248   5.194  0.3253 -0.0074  0.2910
 4276SOL    HW124464   4.415   4.247   5.177  0.0870 -1.0221 -0.9890
 4276SOL    HW224465   4.307   4.164   5.238  0.3943 -0.9226 -1.4368
 4277SOL     OW24466   3.429   3.304   5.760 -0.4677  0.4040  0.2632
 4277SOL    HW124467   3.468   3.334   5.842  1.8429 -1.4964 -0.1308
 4277SOL    HW224468   3.343   3.285   5.796  0.5032 -0.4202  2.1515
 4278SOL     OW24469   1.672   2.830   2.774 -0.2433  0.5912 -0.1501
 4278SOL    HW124470   1.683   2.875   2.858 -3.1761 -2.3173  1.7744
 4278SOL    HW224471   1.650   2.899   2.711  0.0332  2.1375  1.4200
 4279SOL     OW24472   1.254   4.324   7.024 -0.1962 -0.2473 -0.0104
 4279SOL    HW124473   1.257   4.383   7.100  0.7377 -0.9145  0.4587
 4279SOL    HW224474   1.172   4.346   6.979  0.5240  1.4225 -0.5306
 4280SOL     OW24475   3.435   2.013   8.348 -0.1110 -0.3691 -0.1592
 4280SOL    HW124476   3.345   1.989   8.372 -0.0907 -0.5733 -0.2906
 4280SOL    HW224477   3.487   1.958   8.405 -0.8314 -1.8392 -0.9268
 4281SOL     OW24478   1.233   0.071   0.396  0.3239 -0.0514  0.2883
 4281SOL    HW124479   1.222   0.157   0.436 -0.9127 -0.1099  0.0968
 4281SOL    HW224480   1.326   0.052   0.404  0.3068 -1.5646 -2.8763
 4282SOL     OW24481   0.070   0.652   8.412 -0.2250 -0.4474  0.1815
 4282SOL    HW124482   0.139   0.600   8.454  0.3087  2.4409  2.9082
 4282SOL    HW224483   0.057   0.612   8.326 -1.7377  0.3912  0.0142
 4283SOL     OW24484   3.684   4.158   8.628  0.6874  0.2420 -0.0328
 4283SOL    HW124485   3.682   4.232   8.567  1.6423  1.1644  1.0644
 4283SOL    HW224486   3.646   4.086   8.578  1.1625  0.5830 -0.8892
 4284SOL     OW24487   1.805   0.682  10.992 -0.3990  0.2625  0.0083
 4284SOL    HW124488   1.860   0.714  10.921  0.5399  0.1527  0.6795
 4284SOL    HW224489   1.793   0.594  10.958 -3.2757  1.1180 -1.2157
 4285SOL     OW24490   2.719   0.604   5.350  0.2789  0.0075  0.5521
 4285SOL    HW124491   2.734   0.518   5.391 -0.2217  0.3846  1.5204
 4285SOL    HW224492   2.625   0.603   5.336  0.3989 -0.1009 -0.2399
 4286SOL     OW24493   3.476   4.213   4.039  0.0007  0.1149 -0.8570
 4286SOL    HW124494   3.384   4.228   4.060  0.1077 -2.0377  1.1860
 4286SOL    HW224495   3.466   4.144   3.974 -1.2224  0.0930 -0.6432
 4287SOL     OW24496   3.661   3.121   5.047  0.5172  0.7448  0.0176
 4287SOL    HW124497   3.639   3.140   4.955 -1.3594 -0.9910  0.1078
 4287SOL    HW224498   3.665   3.212   5.077 -0.9214  0.8912 -0.1846
 4288SOL     OW24499   3.505   1.560   4.422  0.8930  0.1392 -0.3407
 4288SOL    HW124500   3.449   1.612   4.365  1.5633  0.4036 -0.7480
 4288SOL    HW224501   3.549   1.634   4.464  1.4013 -1.7159  2.4108
 4289SOL     OW24502   3.836   1.218   4.932 -0.5089  0.1299  0.0721
 4289SOL    HW124503   3.904   1.167   4.889  0.8036  2.7984 -1.0652
 4289SOL    HW224504   3.869   1.307   4.918  0.0617 -0.2103 -0.6877
 4290SOL     OW24505   2.764   4.471   9.842 -0.2740  0.1144  0.3815
 4290SOL    HW124506   2.685   4.421   9.862 -1.3573  1.8584  0.4244
 4290SOL    HW224507   2.791   4.478   9.934  1.3310 -0.1254 -0.0656
 4291SOL     OW24508   4.118   1.466   2.093  0.3081  0.5111 -0.3163
 4291SOL    HW124509   4.191   1.522   2.065  1.3338 -0.8024 -0.2666
 4291SOL    HW224510   4.152   1.430   2.175 -1.6131 -0.0128  0.2320
 4292SOL     OW24511   3.143   0.738  13.483 -0.1837 -0.2777 -0.2136
 4292SOL    HW124512   3.227   0.702  13.454  0.1432 -0.4228  0.9206
 4292SOL    HW224513   3.087   0.725  13.406 -1.0572  0.1301  0.3542
 4293SOL     OW24514   3.606   4.017   0.645  0.2537 -0.2680 -0.2887
 4293SOL    HW124515   3.524   4.065   0.652 -1.3536 -2.2253 -5.4601
 4293SOL    HW224516   3.650   4.057   0.570 -1.0625  1.8468  0.0658
 4294SOL     OW24517   0.400   4.642  10.506 -0.1197 -0.6065  0.4937
 4294SOL    HW124518   0.459   4.669  10.435 -0.0767 -1.3672  0.2342
 4294SOL    HW224519   0.453   4.671  10.580 -1.0748 -0.8867  1.2776
 4295SOL     OW24520   1.934   3.319   9.082  0.4380 -0.4146  0.4251
 4295SOL    HW124521   1.968   3.318   8.993  0.9258 -0.6570  0.6125
 4295SOL    HW224522   2.009   3.358   9.126  0.9494  1.1049 -1.7981
 4296SOL     OW24523   2.743   3.276  17.491  0.3951 -0.3777 -0.1461
 4296SOL    HW124524   2.765   3.264  17.583  0.7830 -1.7689 -0.4091
 4296SOL    HW224525   2.812   3.334  17.458  0.6477 -1.7793 -2.1084
 4297SOL     OW24526   0.897   1.846   9.012  0.2998 -0.1572 -0.1332
 4297SOL    HW124527   0.871   1.848   8.920  0.0190 -1.4651 -0.0786
 4297SOL    HW224528   0.840   1.777   9.047  0.2421 -0.6040 -1.1064
 4298SOL     OW24529   0.921   2.392   5.041  0.1163  0.4513 -0.3349
 4298SOL    HW124530   0.937   2.397   5.135  2.2897 -2.6452 -0.5316
 4298SOL    HW224531   0.981   2.457   5.006  0.3031  0.5821  0.2392
 4299SOL     OW24532   0.834   4.610   9.251 -0.7467  0.1826  0.4822
 4299SOL    HW124533   0.926   4.591   9.233 -0.8755  1.1645 -1.2295
 4299SOL    HW224534   0.841   4.698   9.288  2.3099  0.2008 -0.1214
 4300SOL     OW24535   4.508   2.745   9.535  0.5784  0.0418  0.2265
 4300SOL    HW124536   4.487   2.802   9.608 -1.9046 -1.6244  0.8150
 4300SOL    HW224537   4.564   2.681   9.578  0.3127  0.2122  0.8221
 4301SOL     OW24538   1.807   0.461   6.982 -0.1040  0.2138  0.1143
 4301SOL    HW124539   1.850   0.526   6.927  0.0267  0.6713  0.7557
 4301SOL    HW224540   1.763   0.415   6.910 -1.1231  0.2497  0.7063
 4302SOL     OW24541   0.131   2.966  11.973 -0.7250  0.3026  0.1298
 4302SOL    HW124542   0.079   2.955  11.894  1.9742 -0.2732 -1.5656
 4302SOL    HW224543   0.160   2.876  11.985  1.3352  1.0382  0.8014
 4303SOL     OW24544   2.738   0.371  10.286  0.0720 -0.1086  0.4320
 4303SOL    HW124545   2.825   0.361  10.248  0.0909 -2.8290  1.1994
 4303SOL    HW224546   2.743   0.320  10.367  2.3059  0.3688  0.5820
 4304SOL     OW24547   3.067   2.908   3.627  0.6183  0.1187  0.0047
 4304SOL    HW124548   3.091   2.817   3.612  0.6885  0.3588 -1.3621
 4304SOL    HW224549   3.030   2.944   3.547 -1.2375 -1.0445  0.3475
 4305SOL     OW24550   2.287   2.601  10.565  0.3635  0.1076  0.0976
 4305SOL    HW124551   2.282   2.513  10.527 -0.6722 -0.1637  0.8733
 4305SOL    HW224552   2.214   2.601  10.627  0.1014  0.0359 -0.2110
 4306SOL     OW24553   1.622   2.111   8.023 -0.2104 -0.0612 -0.1252
 4306SOL    HW124554   1.611   2.199   8.058  2.7857  0.2859 -0.0021
 4306SOL    HW224555   1.536   2.070   8.031 -0.2405 -0.3889 -1.9938
 4307SOL     OW24556   3.742   3.739   3.107 -0.2057 -0.5790  0.0542
 4307SOL    HW124557   3.822   3.748   3.158 -0.1835 -0.7159  0.0436
 4307SOL    HW224558   3.775   3.693   3.030 -1.2398  1.2116 -1.4593
 4308SOL     OW24559   1.765   0.510   8.261  0.2637  0.3835 -0.4182
 4308SOL    HW124560   1.798   0.490   8.174 -0.9693  0.6857 -0.9586
 4308SOL    HW224561   1.735   0.422   8.286  0.6225 -0.0229 -1.4480
 4309SOL     OW24562   4.396   0.711   3.197 -0.1722  0.8213  0.2607
 4309SOL    HW124563   4.463   0.757   3.246  0.0562  0.4085  0.3401
 4309SOL    HW224564   4.371   0.645   3.261 -2.1182  1.8408  0.5484
 4310SOL     OW24565   4.684   1.960   1.490 -0.0882  0.2635  0.1434
 4310SOL    HW124566   0.035   1.979   1.532 -0.2884  0.9274  0.2583
 4310SOL    HW224567   4.679   1.865   1.500 -1.5651  0.3754  0.5414
 4311SOL     OW24568   0.143   0.689   7.283  0.1118 -0.3217  0.1769
 4311SOL    HW124569   0.139   0.593   7.283 -1.6504 -0.2409  0.9355
 4311SOL    HW224570   0.150   0.699   7.188 -4.2570 -1.8669 -0.3171
 4312SOL     OW24571   0.269   2.108   3.597  0.4541 -0.9862  0.4172
 4312SOL    HW124572   0.175   2.106   3.582  0.3130  1.7518  0.9044
 4312SOL    HW224573   0.285   2.169   3.669  0.8172  1.1407 -1.4349
 4313SOL     OW24574   3.916   3.119   5.097 -0.0275  0.1884 -0.6832
 4313SOL    HW124575   3.825   3.141   5.075  0.9029  1.3750 -3.3287
 4313SOL    HW224576   3.926   3.174   5.175  0.7113  0.0066 -0.6511
 4314SOL     OW24577   2.920   3.422   2.986  0.7071  0.0419  0.1838
 4314SOL    HW124578   2.971   3.485   3.036 -0.2624 -0.3381  1.6457
 4314SOL    HW224579   2.979   3.390   2.918 -1.7184  0.4577 -2.1031
 4315SOL     OW24580   3.714   2.898  15.363  0.1819 -0.0668  0.3732
 4315SOL    HW124581   3.625   2.873  15.339 -0.2135  0.6895  1.0397
 4315SOL    HW224582   3.767   2.819  15.349 -0.2779 -0.1446 -0.8904
 4316SOL     OW24583   0.560   2.936   5.696 -0.0458 -0.2351  0.2011
 4316SOL    HW124584   0.538   3.025   5.669 -0.3740 -0.7642 -1.2990
 4316SOL    HW224585   0.565   2.949   5.790  0.0335  0.1661  0.1423
 4317SOL     OW24586   4.627   1.344   9.592 -0.0502 -0.2967  0.3970
 4317SOL    HW124587   4.614   1.317   9.501 -0.0160  0.2011  0.2473
 4317SOL    HW224588   4.718   1.318   9.609 -0.1383 -0.7827  0.1444
 4318SOL     OW24589   2.471   2.413  11.611 -0.2571 -0.2837  0.0114
 4318SOL    HW124590   2.449   2.446  11.698 -0.0636 -0.2412  0.0436
 4318SOL    HW224591   2.384   2.432  11.577 -0.8666  2.4031  3.1009
 4319SOL     OW24592   4.273   2.443   2.630 -0.4501 -0.8519 -0.3544
 4319SOL    HW124593   4.305   2.485   2.711  0.2741 -0.9666 -0.5820
 4319SOL    HW224594   4.219   2.513   2.593 -1.7560 -0.0641  2.9642
 4320SOL     OW24595   3.867   0.097   1.468 -0.1560  0.4771 -0.0135
 4320SOL    HW124596   3.772   0.112   1.466 -0.2999 -0.8101 -2.1909
 4320SOL    HW224597   3.884   0.026   1.407  1.0858  1.5364 -0.9105
 4321SOL     OW24598   2.624   0.346   4.516 -0.5472 -0.2314 -0.0565
 4321SOL    HW124599   2.596   0.257   4.497  0.1913 -1.1231  3.1632
 4321SOL    HW224600   2.595   0.360   4.606  1.9055 -1.7534  0.9845
 4322SOL     OW24601   2.571   3.160   9.103  0.3951 -0.0093 -0.0636
 4322SOL    HW124602   2.666   3.146   9.106  0.5769  1.3971  0.7444
 4322SOL    HW224603   2.552   3.124   9.190 -2.8707 -1.1478 -1.2568
 4323SOL     OW24604   0.115   0.165  10.262 -0.0418 -0.0224  0.2969
 4323SOL    HW124605   0.180   0.235  10.255 -0.2639  0.1613  0.0676
 4323SOL    HW224606   0.032   0.211  10.253  0.0656  0.1305  0.0822
 4324SOL     OW24607   1.058   2.115  10.105  0.0519  0.5780  0.6826
 4324SOL    HW124608   1.117   2.191  10.109  2.2526 -1.0006 -1.8121
 4324SOL    HW224609   0.974   2.149  10.136  1.2745  3.3862  0.9123
 4325SOL     OW24610   2.696   3.736   0.530 -0.4427  0.4777  0.1879
 4325SOL    HW124611   2.651   3.820   0.527  1.6764  1.5508 -1.5867
 4325SOL    HW224612   2.689   3.705   0.439  1.0296  1.9226 -0.4105
 4326SOL     OW24613   3.898   2.938   6.129  0.1774 -0.6561 -0.5586
 4326SOL    HW124614   3.839   2.934   6.204 -0.1457 -0.9644 -0.8254
 4326SOL    HW224615   3.843   2.977   6.061 -0.0266 -2.5453 -1.4859
 4327SOL     OW24616   0.801   3.748   6.547  0.2922  0.5512 -0.1766
 4327SOL    HW124617   0.778   3.703   6.628 -1.2716  1.1497 -0.2910
 4327SOL    HW224618   0.733   3.816   6.553 -1.1643 -0.8177 -1.3574
 4328SOL     OW24619   2.186   3.648   5.647  0.2514  0.2475  0.3877
 4328SOL    HW124620   2.157   3.652   5.555 -1.3808 -1.3602  0.8389
 4328SOL    HW224621   2.266   3.701   5.648 -0.3145  1.1510 -1.3747
 4329SOL     OW24622   2.664   2.919   6.541  0.4536  0.6033  0.2733
 4329SOL    HW124623   2.730   2.988   6.530 -0.1917  1.2001  0.1641
 4329SOL    HW224624   2.627   2.906   6.455 -0.2276 -2.5761  1.0759
 4330SOL     OW24625   1.878   3.448   2.797  0.7981 -0.2892 -0.0095
 4330SOL    HW124626   1.855   3.442   2.705 -0.2419 -0.7966  0.2801
 4330SOL    HW224627   1.836   3.373   2.839  1.7438 -0.0107  1.4550
 4331SOL     OW24628   0.335   0.735   3.136  0.0888 -0.1829  0.2257
 4331SOL    HW124629   0.271   0.707   3.202  0.4257  1.7287  1.3446
 4331SOL    HW224630   0.338   0.653   3.087  0.1221  0.6543 -1.1929
 4332SOL     OW24631   3.154   0.265   3.280  0.1573 -0.3914  0.1453
 4332SOL    HW124632   3.214   0.337   3.264  0.6637 -0.3695  2.1929
 4332SOL    HW224633   3.171   0.246   3.372 -1.9804 -1.5461  0.2986
 4333SOL     OW24634   1.670   4.406   2.032 -0.2614  0.0196  0.3138
 4333SOL    HW124635   1.708   4.472   1.973 -0.7727  0.4313  0.4399
 4333SOL    HW224636   1.676   4.448   2.118 -0.8074  0.2246  0.2502
 4334SOL     OW24637   0.545   1.282  10.027  0.8461  0.2203 -0.4317
 4334SOL    HW124638   0.521   1.197  10.063  2.7760  1.3274  3.4365
 4334SOL    HW224639   0.625   1.268   9.977  2.5000 -0.2005  2.3414
 4335SOL     OW24640   0.150   0.286  15.800 -0.3199  0.0627  0.4086
 4335SOL    HW124641   0.228   0.263  15.851 -1.2464  0.2935  1.9207
 4335SOL    HW224642   0.172   0.376  15.776  0.7451 -0.4084 -0.4101
 4336SOL     OW24643   0.063   1.805   7.689 -0.0900  0.4132 -0.0930
 4336SOL    HW124644   0.004   1.875   7.717  1.0821  1.7911 -1.0880
 4336SOL    HW224645   0.145   1.854   7.681  0.1908  0.0543  0.6195
 4337SOL     OW24646   0.683   2.155   1.841  0.5097 -0.5046  0.0529
 4337SOL    HW124647   0.629   2.175   1.764  0.6201 -0.4202 -0.0030
 4337SOL    HW224648   0.735   2.081   1.808  1.2871  0.0108  0.1288
 4338SOL     OW24649   3.864   3.781   0.067 -0.4674  0.3640  0.3767
 4338SOL    HW124650   3.777   3.741   0.071 -0.7821  0.9955 -0.1695
 4338SOL    HW224651   3.840   3.870   0.093  0.6784  0.7715  0.0420
 4339SOL     OW24652   1.552   0.836   9.406  0.1328 -0.1317 -0.3580
 4339SOL    HW124653   1.549   0.785   9.487 -2.6494 -0.3431 -0.5881
 4339SOL    HW224654   1.645   0.827   9.389  0.2438  0.9537 -0.3081
 4340SOL     OW24655   2.477   0.708   4.871 -0.1215 -0.0096  0.4514
 4340SOL    HW124656   2.519   0.633   4.829 -0.2927  0.3234 -0.3126
 4340SOL    HW224657   2.504   0.779   4.813 -1.8349  0.4195  0.2078
 4341SOL     OW24658   2.140   2.619  11.793  0.4724 -0.1969  0.0133
 4341SOL    HW124659   2.154   2.632  11.700 -0.0767  0.9133  0.0831
 4341SOL    HW224660   2.221   2.570  11.810 -1.3597 -3.1454  0.2320
 4342SOL     OW24661   0.172   0.493   2.195  0.5075 -0.0051  0.3155
 4342SOL    HW124662   0.194   0.435   2.268  0.1051  2.6468  2.5709
 4342SOL    HW224663   0.259   0.530   2.184  0.7516 -0.0754  1.9575
 4343SOL     OW24664   1.742   1.338  11.909  0.3531  0.4380 -0.2592
 4343SOL    HW124665   1.730   1.309  11.999  1.1796  0.4647 -0.1328
 4343SOL    HW224666   1.754   1.431  11.932 -3.1329  1.1634 -1.4684
 4344SOL     OW24667   0.391   4.474   7.886  0.4849  0.2069 -0.0987
 4344SOL    HW124668   0.300   4.470   7.915  0.9067 -0.2545  1.1302
 4344SOL    HW224669   0.387   4.552   7.830 -0.5228 -1.1297 -1.8911
 4345SOL     OW24670   2.358   4.125   2.630  0.3655  0.2441 -0.2961
 4345SOL    HW124671   2.389   4.070   2.702 -0.0367 -0.3897 -0.6043
 4345SOL    HW224672   2.378   4.076   2.551 -0.7007  0.3739 -0.6378
 4346SOL     OW24673   0.846   3.245   4.853 -0.1660 -0.6367 -0.5978
 4346SOL    HW124674   0.835   3.337   4.829 -0.0380  0.2154  2.5607
 4346SOL    HW224675   0.896   3.218   4.776  1.6139 -0.8078  0.6142
 4347SOL     OW24676   2.405   4.168   3.151 -0.0805 -0.1401 -0.3891
 4347SOL    HW124677   2.430   4.077   3.171  0.3971 -0.3697 -2.0348
 4347SOL    HW224678   2.415   4.225   3.227 -0.5228 -1.3439  0.5657
 4348SOL     OW24679   0.264   2.290   7.018 -0.0452  0.3459  0.3038
 4348SOL    HW124680   0.210   2.352   7.065  0.5486  0.9635  0.1709
 4348SOL    HW224681   0.351   2.329   7.026  0.3771 -0.8515  1.4312
 4349SOL     OW24682   2.982   2.088   9.000 -0.3359 -0.1023  0.4237
 4349SOL    HW124683   3.058   2.038   9.030  0.3954  0.3740 -0.6369
 4349SOL    HW224684   2.929   2.023   8.953  0.4120 -1.0435  0.9012
 4350SOL     OW24685   2.545   1.849   5.943 -0.5365  0.0769 -0.4285
 4350SOL    HW124686   2.555   1.924   6.003  1.7672 -1.4491  1.0820
 4350SOL    HW224687   2.610   1.785   5.969 -3.3906 -2.3009  0.8717
 4351SOL     OW24688   3.785   0.976   2.763  0.3689  0.5817  0.4591
 4351SOL    HW124689   3.698   0.943   2.785  0.6327 -0.6354 -0.3420
 4351SOL    HW224690   3.773   1.044   2.697 -0.7533 -1.1808 -1.1398
 4352SOL     OW24691   2.901   2.148   5.680 -0.1435 -0.1879 -0.0049
 4352SOL    HW124692   2.926   2.057   5.697  0.4091 -0.4710 -2.2542
 4352SOL    HW224693   2.817   2.128   5.636  0.8743 -1.8888 -1.1990
 4353SOL     OW24694   0.098   1.735   2.602 -0.3048  0.4682  0.1609
 4353SOL    HW124695   0.054   1.651   2.584 -0.6648  0.5337  0.7212
 4353SOL    HW224696   0.030   1.790   2.640 -0.0695  0.8180  0.0663
 4354SOL     OW24697   3.551   2.915   8.809 -0.0163 -0.2710  0.9962
 4354SOL    HW124698   3.530   2.825   8.782 -0.7790  0.3881 -0.5606
 4354SOL    HW224699   3.602   2.896   8.888  2.2760 -0.2461 -0.4876
 4355SOL     OW24700   0.829   4.113   2.844  1.0519 -0.6470 -0.4773
 4355SOL    HW124701   0.859   4.171   2.774 -0.3551 -0.0126 -0.5550
 4355SOL    HW224702   0.746   4.155   2.865  1.1457 -0.3260 -0.7437
 4356SOL     OW24703   3.199   0.903   9.307  0.3190 -0.1565 -0.2891
 4356SOL    HW124704   3.227   0.866   9.391 -1.6864 -1.0483 -0.0194
 4356SOL    HW224705   3.108   0.875   9.313  0.5861 -0.6594  1.5815
 4357SOL     OW24706   2.083   4.273   8.497  0.5571  0.3874 -0.1001
 4357SOL    HW124707   2.146   4.264   8.569 -0.5902 -3.1893  0.4126
 4357SOL    HW224708   2.103   4.202   8.437  2.0074 -0.8896  1.8967
 4358SOL     OW24709   1.676   0.016  15.265  0.2283  0.3140  0.3246
 4358SOL    HW124710   1.665   0.067  15.346 -1.9790  1.4088 -0.6603
 4358SOL    HW224711   1.709   0.086  15.208  3.0802 -0.1996  1.3224
 4359SOL     OW24712   1.474   4.082   5.663 -0.2382 -0.9535 -0.0670
 4359SOL    HW124713   1.403   4.059   5.603 -0.3933 -1.3542  0.2717
 4359SOL    HW224714   1.502   4.166   5.626 -0.4947 -1.4043 -1.2890
 4360SOL     OW24715   3.540   4.551   7.803 -0.5178  0.1929 -0.6846
 4360SOL    HW124716   3.636   4.545   7.801 -0.6853 -2.3449  0.2457
 4360SOL    HW224717   3.520   4.549   7.896 -1.0310 -0.0554 -0.8051
 4361SOL     OW24718   4.294   1.936   1.977  0.3990 -0.0395 -0.2838
 4361SOL    HW124719   4.291   1.930   2.072  1.7941  0.5414 -0.2017
 4361SOL    HW224720   4.207   1.974   1.967  0.4880 -0.2697 -1.9951
 4362SOL     OW24721   3.058   3.089  16.323 -0.1174 -0.1231 -0.8555
 4362SOL    HW124722   2.990   3.101  16.257 -0.1301  0.1128 -0.8003
 4362SOL    HW224723   3.021   3.142  16.394  2.9273 -0.6152  1.1222
 4363SOL     OW24724   1.685   2.569   7.372  0.0640  0.5466  0.4172
 4363SOL    HW124725   1.593   2.546   7.385 -0.1633  0.4151 -1.4527
 4363SOL    HW224726   1.671   2.663   7.366  1.1302  0.7527  1.2178
 4364SOL     OW24727   0.025   0.904   8.280  0.1335  0.1942 -0.1630
 4364SOL    HW124728   0.012   0.816   8.316 -1.9751 -0.0087 -1.4011
 4364SOL    HW224729   4.727   0.965   8.346  0.1283  0.4992 -0.4487
 4365SOL     OW24730   2.346   2.200   6.147 -0.2040 -0.0917  0.9103
 4365SOL    HW124731   2.277   2.212   6.082 -0.3482  0.3732  1.1497
 4365SOL    HW224732   2.432   2.210   6.107 -0.7015 -2.6576 -0.8099
 4366SOL     OW24733   3.639   3.239   6.549 -0.3464 -0.3278 -0.0114
 4366SOL    HW124734   3.641   3.243   6.454  0.4569  1.0753  0.0707
 4366SOL    HW224735   3.611   3.148   6.557  0.3376 -0.6769 -1.6573
 4367SOL     OW24736   1.493   2.393   7.632  0.5925  0.8533 -0.1683
 4367SOL    HW124737   1.427   2.426   7.693 -1.9465 -2.0996 -1.3230
 4367SOL    HW224738   1.465   2.438   7.553 -0.2572  1.4004  0.4405
 4368SOL     OW24739   0.720   2.411  12.197  0.5752  0.0399  0.9431
 4368SOL    HW124740   0.794   2.467  12.172 -0.0414  1.6847  2.8046
 4368SOL    HW224741   0.680   2.416  12.110  1.1957  2.3511  0.7810
 4369SOL     OW24742   0.397   3.580   9.837 -0.1341  0.0292  0.5827
 4369SOL    HW124743   0.461   3.509   9.841  1.5599  1.5350  0.0871
 4369SOL    HW224744   0.442   3.648   9.787  2.0099 -1.4536  0.5014
 4370SOL     OW24745   4.732   2.220   2.458  0.5887  0.0049 -0.3819
 4370SOL    HW124746   4.698   2.298   2.501  0.1237 -1.2102  1.4834
 4370SOL    HW224747   0.072   2.264   2.416  0.6690  0.0004 -0.2459
 4371SOL     OW24748   4.250   3.749   7.288 -0.1309  0.0731  0.2737
 4371SOL    HW124749   4.275   3.801   7.364 -0.1352 -0.0717  0.3750
 4371SOL    HW224750   4.297   3.666   7.285  0.8182  0.5597  1.8553
 4372SOL     OW24751   4.202   2.593   8.179 -0.2226 -0.4095  0.6683
 4372SOL    HW124752   4.274   2.593   8.116 -1.2387  1.7129 -0.5144
 4372SOL    HW224753   4.189   2.499   8.185 -0.7151 -0.5996 -3.8847
 4373SOL     OW24754   3.460   0.195   2.432 -0.2164  0.3549  0.4229
 4373SOL    HW124755   3.450   0.121   2.493 -0.7722  0.6798  0.7240
 4373SOL    HW224756   3.371   0.229   2.437  0.9384  3.3426  0.9142
 4374SOL     OW24757   1.252   4.240   0.806 -0.0315 -0.4894 -0.0632
 4374SOL    HW124758   1.192   4.216   0.877  2.2790  0.6183  2.2808
 4374SOL    HW224759   1.324   4.285   0.851 -1.2695  1.6560 -0.1876
 4375SOL     OW24760   2.932   3.282   6.073 -0.3403  0.3565 -0.3398
 4375SOL    HW124761   2.898   3.300   5.985  1.5919 -0.5585 -1.2722
 4375SOL    HW224762   2.855   3.289   6.129  0.8577  2.3700  1.0683
 4376SOL     OW24763   3.837   2.772   2.654 -0.0797  0.1209  0.1647
 4376SOL    HW124764   3.863   2.851   2.702  1.0217 -0.0496 -0.1366
 4376SOL    HW224765   3.767   2.736   2.707  0.3904 -2.7283 -1.1127
 4377SOL     OW24766   2.272   3.884   3.643 -0.5263 -0.3274 -0.4433
 4377SOL    HW124767   2.262   3.800   3.599  1.0005  0.2020 -1.8263
 4377SOL    HW224768   2.196   3.934   3.613  0.1990  1.4064  0.6114
 4378SOL     OW24769   0.189   1.204   2.091  0.4772  0.7242 -0.1616
 4378SOL    HW124770   0.141   1.269   2.143  2.4748  1.8057  0.3554
 4378SOL    HW224771   0.166   1.132   2.149 -1.1128  1.8531  0.6181
 4379SOL     OW24772   3.880   0.681   4.237 -0.5938 -0.0016 -0.5265
 4379SOL    HW124773   3.897   0.611   4.174  2.0589  0.5344 -0.4046
 4379SOL    HW224774   3.785   0.678   4.250 -0.4565 -1.6586  0.0552
 4380SOL     OW24775   1.333   0.475   3.168  0.0903 -0.4501 -0.6223
 4380SOL    HW124776   1.390   0.454   3.094  2.2197  1.5290  0.4711
 4380SOL    HW224777   1.396   0.467   3.239 -3.2076  0.3160  2.4476
 4381SOL     OW24778   2.528   1.221   5.528  0.3514 -0.0313 -0.3580
 4381SOL    HW124779   2.595   1.238   5.462  0.8950 -1.7318 -0.2534
 4381SOL    HW224780   2.454   1.274   5.500 -0.8878 -1.5777 -0.0075
 4382SOL     OW24781   4.240   2.474   7.027  0.2405  0.2847 -0.0678
 4382SOL    HW124782   4.315   2.436   7.072 -1.2121 -1.7613  0.6264
 4382SOL    HW224783   4.272   2.500   6.941  0.5747  0.3086  0.0648
 4383SOL     OW24784   4.642   4.023   7.372 -0.0153  0.1838  0.2533
 4383SOL    HW124785   4.697   4.095   7.403 -0.3077  0.3282  0.4432
 4383SOL    HW224786   4.575   4.068   7.320 -0.3219 -1.3450 -0.6788
 4384SOL     OW24787   1.586   4.575   4.388  0.1699 -0.2184 -0.2817
 4384SOL    HW124788   1.642   4.523   4.330 -1.0052 -1.8417  0.0545
 4384SOL    HW224789   1.616   4.665   4.371  0.8685 -0.4889 -0.4940
 4385SOL     OW24790   3.304   2.413  17.613  0.3551  0.3910  0.1213
 4385SOL    HW124791   3.324   2.322  17.589  0.3499  0.5315 -0.4065
 4385SOL    HW224792   3.245   2.432  17.540  0.5107  3.0329  0.6667
 4386SOL     OW24793   0.094   0.916   9.878 -0.3802 -0.4017  0.2926
 4386SOL    HW124794   0.173   0.951   9.921 -0.6206  0.4630  0.0181
 4386SOL    HW224795   0.032   0.927   9.950 -0.6382  1.6661 -0.2686
 4387SOL     OW24796   4.726   1.008   3.715  0.1664 -0.2691  0.2161
 4387SOL    HW124797   4.695   0.995   3.805  0.6089 -0.5922  0.3189
 4387SOL    HW224798   0.081   0.974   3.708  1.3071  2.6514  0.7545
 4388SOL     OW24799   1.318   4.154   8.725 -0.8453 -0.4905  0.3925
 4388SOL    HW124800   1.385   4.152   8.794  0.5517 -0.6775 -0.9669
 4388SOL    HW224801   1.340   4.233   8.676 -3.1512  0.7941  1.4477
 4389SOL     OW24802   0.109   2.989  11.521 -0.4364  0.2886 -0.1373
 4389SOL    HW124803   0.182   2.988  11.459 -0.4554 -0.2414 -0.1478
 4389SOL    HW224804   0.037   2.963  11.464 -1.0799  0.2168  0.7034
 4390SOL     OW24805   0.442   3.062   1.047 -0.2053 -0.1911  0.1792
 4390SOL    HW124806   0.486   2.988   1.088  0.1221  0.9164  1.8414
 4390SOL    HW224807   0.508   3.092   0.984 -3.3232  0.8218 -2.6356
 4391SOL     OW24808   3.319   1.973   6.730  0.6978  0.4732 -0.1557
 4391SOL    HW124809   3.311   1.961   6.824  0.9906 -0.2630 -0.2294
 4391SOL    HW224810   3.381   1.903   6.709  2.4393  2.6376 -2.3657
 4392SOL     OW24811   0.669   1.810   3.916  0.7853 -0.6787 -0.0626
 4392SOL    HW124812   0.760   1.829   3.890  0.2648 -1.8364 -2.6893
 4392SOL    HW224813   0.699   1.747   3.981  1.1650 -0.8024 -0.3579
 4393SOL     OW24814   4.383   4.664   5.886  0.4622 -0.2463 -0.1460
 4393SOL    HW124815   4.349   4.654   5.797 -0.0857 -1.5209  0.2110
 4393SOL    HW224816   4.327   0.004   5.911  1.3097  1.3730 -3.0377
 4394SOL     OW24817   1.873   1.882   0.263  0.3570 -0.4932 -0.4694
 4394SOL    HW124818   1.929   1.805   0.255  1.2686  0.4781 -3.6267
 4394SOL    HW224819   1.902   1.939   0.191 -1.6360  0.8990 -0.1826
 4395SOL     OW24820   3.252   3.002  14.759 -0.0873 -0.5329  0.4486
 4395SOL    HW124821   3.244   3.049  14.677 -1.5750  1.4864  1.7465
 4395SOL    HW224822   3.175   3.028  14.810  0.9066  1.5065  0.8876
 4396SOL     OW24823   0.076   4.312   2.402  0.1273 -0.9162 -0.0858
 4396SOL    HW124824   0.111   4.312   2.313  1.6606  0.2476  0.5221
 4396SOL    HW224825   4.724   4.352   2.386  0.4107  0.2126  1.2647
 4397SOL     OW24826   3.024   3.982   4.708  0.5863 -0.1849 -0.2496
 4397SOL    HW124827   2.998   3.937   4.788 -0.8678 -0.9553 -1.1485
 4397SOL    HW224828   2.976   4.063   4.729  1.6165  0.8845 -1.9599
 4398SOL     OW24829   0.046   1.253   8.064 -0.0207 -0.7922  0.4684
 4398SOL    HW124830   0.005   1.271   8.149 -0.4898 -1.1801  0.3234
 4398SOL    HW224831   0.022   1.162   8.051  0.2069 -0.7491 -0.2483
 4399SOL     OW24832   1.869   2.295  13.802  0.3213 -0.4055  0.3468
 4399SOL    HW124833   1.873   2.388  13.779 -0.5829 -1.3077 -3.3337
 4399SOL    HW224834   1.773   2.288  13.805  0.3423 -0.5462  0.7237
 4400SOL     OW24835   1.945   1.651   0.738 -0.2862 -0.5032 -0.1279
 4400SOL    HW124836   1.884   1.695   0.680  0.6796  2.1026  0.8023
 4400SOL    HW224837   2.034   1.671   0.707  0.7538 -4.0040  0.5692
 4401SOL     OW24838   0.936   1.026   7.918  0.2031 -0.3217 -0.3912
 4401SOL    HW124839   0.894   1.066   7.994 -1.6167 -0.7052 -1.1893
 4401SOL    HW224840   0.973   1.107   7.883 -0.4818  0.7561  1.3740
 4402SOL     OW24841   4.194   2.764   6.356  0.0217 -0.1970 -0.0685
 4402SOL    HW124842   4.190   2.741   6.263 -1.6488  0.6277 -0.1995
 4402SOL    HW224843   4.191   2.673   6.387  1.2494 -0.6353 -1.2513
 4403SOL     OW24844   0.214   3.677   2.337  0.8857  0.5835  0.3935
 4403SOL    HW124845   0.224   3.605   2.276  0.3514  2.4400 -1.8633
 4403SOL    HW224846   0.236   3.645   2.425  1.7396 -0.8736 -0.3483
 4404SOL     OW24847   4.466   2.248  11.453 -0.1810  0.3086 -0.1025
 4404SOL    HW124848   4.431   2.160  11.467  0.5058  0.0995  0.2636
 4404SOL    HW224849   4.534   2.249  11.520 -0.3297 -0.5586  0.0497
 4405SOL     OW24850   4.694   0.349  15.133  0.9071  0.8885  0.0492
 4405SOL    HW124851   4.663   0.439  15.140 -0.7076  0.2222  1.2910
 4405SOL    HW224852   0.009   0.339  15.215 -0.5203 -1.1679  0.6419
 4406SOL     OW24853   1.585   1.738   4.363  0.4488  0.0395  0.0558
 4406SOL    HW124854   1.613   1.755   4.273 -1.6389 -1.0480 -0.7977
 4406SOL    HW224855   1.535   1.657   4.363 -1.9590  1.5228  1.0842
 4407SOL     OW24856   0.407   4.483   2.576 -0.0375 -0.8810 -0.5851
 4407SOL    HW124857   0.492   4.458   2.540 -0.0034 -1.7549  0.1188
 4407SOL    HW224858   0.374   4.397   2.600  0.6501 -0.8162  0.5790
 4408SOL     OW24859   3.004   2.329   3.998 -0.2585 -0.3288 -0.5801
 4408SOL    HW124860   3.057   2.303   4.073  0.4231  2.3601 -0.1298
 4408SOL    HW224861   2.944   2.256   3.989  2.7343 -3.0647  1.5809
 4409SOL     OW24862   3.319   2.832  14.444 -0.2921 -0.6426 -0.8370
 4409SOL    HW124863   3.353   2.921  14.429  0.7654 -0.8301  0.3964
 4409SOL    HW224864   3.356   2.789  14.366  1.6411  1.1911 -0.9531
 4410SOL     OW24865   0.956   4.375   8.593 -0.1852  0.4627  0.2412
 4410SOL    HW124866   0.891   4.313   8.560  1.3424 -0.7583 -0.4865
 4410SOL    HW224867   0.894   4.442   8.621  0.6590  0.5608  1.8975
 4411SOL     OW24868   2.807   2.763   8.853  0.0445  0.0140  0.0986
 4411SOL    HW124869   2.759   2.691   8.894  1.9091 -1.0056  0.4927
 4411SOL    HW224870   2.736   2.827   8.852 -1.5762 -1.7655  1.4445
 4412SOL     OW24871   4.354   1.855   6.016 -0.4844 -0.6538  0.5669
 4412SOL    HW124872   4.332   1.797   5.943 -3.1220  0.4091  0.4894
 4412SOL    HW224873   4.263   1.886   6.025 -0.5165 -0.1331 -1.3839
 4413SOL     OW24874   1.594   1.327   1.690  0.3127 -0.4876  0.2822
 4413SOL    HW124875   1.513   1.377   1.695 -0.1226 -1.1436 -0.1758
 4413SOL    HW224876   1.638   1.365   1.766 -2.1482  0.3392  1.2826
 4414SOL     OW24877   0.726   3.083   6.153 -0.2405 -0.1235  0.7322
 4414SOL    HW124878   0.812   3.126   6.150 -0.0231 -0.8036 -2.7656
 4414SOL    HW224879   0.751   3.001   6.197 -0.3026  0.0071  1.0080
 4415SOL     OW24880   3.343   3.019   8.661  0.3741  0.1324 -0.5254
 4415SOL    HW124881   3.355   3.114   8.656  1.9658  0.0119  0.7943
 4415SOL    HW224882   3.433   2.990   8.673  0.5407  0.6390 -0.5284
 4416SOL     OW24883   0.122   2.410   1.022  0.4756 -0.6067  0.3814
 4416SOL    HW124884   0.094   2.331   0.977 -0.6846  1.0596 -1.8347
 4416SOL    HW224885   0.198   2.377   1.069  1.8038 -0.7000 -1.8190
 4417SOL     OW24886   1.407   3.440  11.073  0.1073  0.1324  0.0674
 4417SOL    HW124887   1.429   3.354  11.109 -0.5283  0.4905  1.3167
 4417SOL    HW224888   1.475   3.499  11.105 -0.0375  0.1257  0.3881
 4418SOL     OW24889   1.765   4.517   7.683  0.3080 -0.3497  0.2974
 4418SOL    HW124890   1.805   4.575   7.749  1.3013 -1.7189  0.8945
 4418SOL    HW224891   1.844   4.509   7.629  0.0737 -1.6603  0.1526
 4419SOL     OW24892   0.767   2.234   3.153  0.5138  0.0172  0.1571
 4419SOL    HW124893   0.687   2.184   3.168  1.1911 -0.5388  1.9754
 4419SOL    HW224894   0.734   2.306   3.100 -1.8315  0.6782  2.5381
 4420SOL     OW24895   1.018   2.312   0.613 -0.7535  0.3174 -0.3988
 4420SOL    HW124896   1.017   2.304   0.518 -0.1740 -3.3907 -0.0799
 4420SOL    HW224897   0.926   2.336   0.626 -1.3476 -1.9876 -0.5100
 4421SOL     OW24898   0.639   2.900  13.201  0.1592 -0.3889  0.1284
 4421SOL    HW124899   0.549   2.891  13.170  0.6079  1.9033 -1.8424
 4421SOL    HW224900   0.619   2.933  13.289 -0.1393 -3.1643  1.1003
 4422SOL     OW24901   3.112   3.579   3.973 -0.3581  0.4406  0.4519
 4422SOL    HW124902   3.112   3.543   4.062  0.4278  2.6658  1.3506
 4422SOL    HW224903   3.064   3.509   3.928  0.8764 -2.6937  4.0242
 4423SOL     OW24904   2.969   2.951   1.963  0.1289  0.4377 -0.3385
 4423SOL    HW124905   2.969   2.871   1.910  0.3843  0.1904  0.0349
 4423SOL    HW224906   3.032   2.916   2.027  0.7218 -0.0532 -1.1793
 4424SOL     OW24907   3.159   0.160   7.824  0.2358  0.0565 -0.4486
 4424SOL    HW124908   3.209   0.218   7.881 -0.3860 -0.2063  0.3713
 4424SOL    HW224909   3.116   0.101   7.887 -2.2502  2.6736  0.3361
 4425SOL     OW24910   1.155   1.945   3.303 -0.6911  0.0828  0.0580
 4425SOL    HW124911   1.205   1.867   3.279 -2.3681 -0.4904 -1.5406
 4425SOL    HW224912   1.070   1.919   3.268  0.1287 -3.0699  0.3910
 4426SOL     OW24913   4.501   3.829   4.872  0.2447 -0.4253 -0.0929
 4426SOL    HW124914   4.456   3.819   4.788 -2.6930  0.0998  1.4175
 4426SOL    HW224915   4.484   3.921   4.891 -0.6635 -0.5579 -0.2596
 4427SOL     OW24916   3.535   1.958  15.178  0.2485 -0.0053 -0.2336
 4427SOL    HW124917   3.446   1.974  15.146 -0.2751 -0.0713  1.1530
 4427SOL    HW224918   3.516   1.911  15.260 -0.9605  0.1626 -0.4201
 4428SOL     OW24919   1.265   3.651   4.836  0.2374  0.5321 -0.2042
 4428SOL    HW124920   1.258   3.556   4.828  0.6282  0.5760 -1.1486
 4428SOL    HW224921   1.354   3.653   4.801  0.6567  0.2311  0.8546
 4429SOL     OW24922   4.612   3.892  17.672 -0.4883 -0.4672 -0.4396
 4429SOL    HW124923   4.649   3.899  17.584 -1.1193  1.9908 -0.4933
 4429SOL    HW224924   4.674   3.829  17.710  0.2410  0.6214  0.1691
 4430SOL     OW24925   0.796   1.997  13.759 -0.3197 -0.3691  0.6421
 4430SOL    HW124926   0.772   1.907  13.740  1.7490 -0.4031 -1.7778
 4430SOL    HW224927   0.803   2.042  13.675 -0.5561  0.1064  0.8733
 4431SOL     OW24928   1.760   0.422   8.829 -0.1455  0.5101 -0.1049
 4431SOL    HW124929   1.848   0.450   8.853 -0.2682 -0.1575  1.1412
 4431SOL    HW224930   1.778   0.348   8.772  0.4410  0.2763  0.3845
 4432SOL     OW24931   3.612   0.322   4.398 -0.0616 -0.0608 -0.0191
 4432SOL    HW124932   3.529   0.369   4.389  0.1460 -0.4381 -3.7603
 4432SOL    HW224933   3.606   0.282   4.311  1.3913 -0.9844  0.3086
 4433SOL     OW24934   3.882   2.978   8.673 -0.6608 -0.3002 -0.1349
 4433SOL    HW124935   3.809   3.039   8.662  1.1973  1.6400 -1.6098
 4433SOL    HW224936   3.908   2.954   8.584 -1.7148 -0.1809 -0.4735
 4434SOL     OW24937   1.474   2.192   2.749 -0.3973  0.1090  0.4367
 4434SOL    HW124938   1.476   2.174   2.842  1.6227  0.0371  0.3839
 4434SOL    HW224939   1.380   2.188   2.728  0.2608 -2.2769 -2.0777
 4435SOL     OW24940   1.415   2.473  12.644 -0.4535  0.0480 -0.0267
 4435SOL    HW124941   1.426   2.429  12.728 -1.9211 -0.7883 -0.2884
 4435SOL    HW224942   1.482   2.437  12.585 -1.2743 -2.3908  0.5630
 4436SOL     OW24943   2.944   1.550   7.964 -0.0186 -0.2775 -0.4536
 4436SOL    HW124944   3.033   1.517   7.977  1.2167  2.6408 -1.6863
 4436SOL    HW224945   2.931   1.548   7.869 -1.6285 -3.2405 -0.1574
 4437SOL     OW24946   1.588   3.054   5.168 -0.0282  0.0727  0.1825
 4437SOL    HW124947   1.678   3.029   5.149  0.1989 -0.0206  1.3672
 4437SOL    HW224948   1.583   3.119   5.098  0.6789 -0.9339 -0.7977
 4438SOL     OW24949   0.065   2.444  12.747 -0.0235  0.0436 -0.1360
 4438SOL    HW124950   0.154   2.478  12.737 -1.7450  3.7451 -2.9702
 4438SOL    HW224951   0.041   2.442  12.654 -2.6094 -0.7271  0.5369
 4439SOL     OW24952   1.562   4.180  11.990 -0.3796 -0.2266 -0.2351
 4439SOL    HW124953   1.617   4.145  11.919  1.1983 -1.8292  1.7763
 4439SOL    HW224954   1.557   4.273  11.970  0.8006 -0.5750 -2.2002
 4440SOL     OW24955   2.537   0.162   7.682 -0.4637 -0.3661 -0.1137
 4440SOL    HW124956   2.491   0.187   7.762  0.0529  0.1146  0.0323
 4440SOL    HW224957   2.483   0.087   7.656 -0.0587 -0.7343  0.1039
 4441SOL     OW24958   4.718   0.817   4.382  0.5237 -0.0874 -0.4203
 4441SOL    HW124959   0.056   0.872   4.349  1.3679 -0.8636  0.1223
 4441SOL    HW224960   4.702   0.872   4.459  2.3136 -1.5925  1.0282
 4442SOL     OW24961   3.336   4.692   6.303  0.0157 -0.1147 -0.3523
 4442SOL    HW124962   3.416   4.725   6.345  0.3815 -2.2936  0.6823
 4442SOL    HW224963   3.316   0.041   6.261  2.7586  0.9881  0.5271
 4443SOL     OW24964   1.422   2.775   4.434  0.2043  0.1813 -0.7787
 4443SOL    HW124965   1.395   2.734   4.516 -2.9053  3.0270 -0.3767
 4443SOL    HW224966   1.381   2.716   4.371 -1.3592 -0.9533  1.3037
 4444SOL     OW24967   2.118   0.317   1.810 -0.4664  0.3996 -0.5616
 4444SOL    HW124968   2.164   0.359   1.882 -2.8442  1.1906  0.4830
 4444SOL    HW224969   2.026   0.327   1.834  0.4369 -0.5214  3.2701
 4445SOL     OW24970   0.650   3.070   9.941  0.7113 -0.5624  0.0029
 4445SOL    HW124971   0.736   3.029   9.940  1.3411  0.7005  2.6946
 4445SOL    HW224972   0.645   3.111  10.028  0.3285 -1.6204  0.4735
 4446SOL     OW24973   3.612   3.524  15.446  0.1206  0.7913 -0.5907
 4446SOL    HW124974   3.621   3.599  15.503  1.9511 -1.3634  1.9544
 4446SOL    HW224975   3.682   3.545  15.384  0.6873  1.5919  0.3145
 4447SOL     OW24976   2.249   2.150   7.918 -0.4680 -0.1330  0.7275
 4447SOL    HW124977   2.208   2.172   8.002  0.4385  2.8711  0.3844
 4447SOL    HW224978   2.327   2.203   7.931  0.7073 -1.5571 -0.4555
 4448SOL     OW24979   0.627   2.081  16.866  0.3138  0.7141 -0.2245
 4448SOL    HW124980   0.703   2.036  16.827  0.3100  1.3529 -0.9733
 4448SOL    HW224981   0.593   2.014  16.925 -0.7553  2.3907  1.0194
 4449SOL     OW24982   4.038   0.420   6.638  0.2812  0.3162  0.1458
 4449SOL    HW124983   3.954   0.434   6.594  0.3929 -1.1392 -0.5205
 4449SOL    HW224984   4.012   0.434   6.730 -1.2684 -0.7770 -0.1412
 4450SOL     OW24985   0.547   2.932   6.787 -0.1915  0.3645 -0.0375
 4450SOL    HW124986   0.537   2.862   6.721  0.1670  0.1174  0.1694
 4450SOL    HW224987   0.520   3.008   6.736 -1.3135  1.0443  1.5773
 4451SOL     OW24988   3.313   2.554  11.501 -0.3234 -0.0025  0.1727
 4451SOL    HW124989   3.249   2.613  11.541 -0.4905  0.2592 -0.4710
 4451SOL    HW224990   3.356   2.617  11.443  3.1350 -1.2027  1.4331
 4452SOL     OW24991   3.216   1.691   5.060  0.6938 -0.7675 -0.2164
 4452SOL    HW124992   3.135   1.719   5.104 -0.8424 -1.8756 -2.3868
 4452SOL    HW224993   3.258   1.770   5.026  0.3471 -0.4088  0.1881
 4453SOL     OW24994   0.099   2.700   3.398 -0.0629  0.9072 -0.0045
 4453SOL    HW124995   0.005   2.705   3.379 -0.4039 -0.7851  1.2210
 4453SOL    HW224996   0.105   2.759   3.473  1.0993  2.1734 -1.1240
 4454SOL     OW24997   0.764   4.092   1.095  0.4579 -0.2832  0.0647
 4454SOL    HW124998   0.766   4.140   1.178  2.1695 -2.5983  1.3690
 4454SOL    HW224999   0.731   4.160   1.037 -3.1648 -2.4462 -0.3900
 4455SOL     OW25000   0.007   1.904   4.412  0.0904 -0.3508 -0.1336
 4455SOL    HW125001   0.016   1.824   4.464 -2.9178 -0.1494  0.7026
 4455SOL    HW225002   4.680   1.957   4.462  0.4859 -0.5166  0.5265
 4456SOL     OW25003   1.658   0.005   0.281 -0.2085  0.8501  0.1923
 4456SOL    HW125004   1.627   0.085   0.239 -0.4810  1.1165  0.8977
 4456SOL    HW225005   1.580   4.689   0.258  1.2120 -1.1238 -0.3235
 4457SOL     OW25006   0.543   4.386   5.900 -0.4676 -0.8343 -0.3447
 4457SOL    HW125007   0.520   4.453   5.835  1.8678 -1.1639 -1.5183
 4457SOL    HW225008   0.464   4.367   5.950  0.0301 -2.8223 -0.2930
 4458SOL     OW25009   1.841   0.732   1.509  0.2393  0.3634  0.3319
 4458SOL    HW125010   1.897   0.656   1.523 -0.9095 -0.8581 -1.7472
 4458SOL    HW225011   1.888   0.781   1.442  0.6413 -0.2298  0.1832
 4459SOL     OW25012   3.765   2.717   4.284 -0.6120  0.6037 -0.1638
 4459SOL    HW125013   3.789   2.628   4.308 -0.9535 -0.0874 -2.4121
 4459SOL    HW225014   3.732   2.755   4.366  0.7443  0.5287  0.4277
 4460SOL     OW25015   3.014   2.653   7.493 -0.5613 -0.1348  0.3806
 4460SOL    HW125016   3.023   2.558   7.492 -3.7346 -0.4131 -1.9173
 4460SOL    HW225017   3.090   2.692   7.538  0.6716  1.0828 -2.7610
 4461SOL     OW25018   1.093   4.720   6.067  0.5074  0.3681 -0.0178
 4461SOL    HW125019   1.063   0.048   6.000  0.2116 -0.6451 -0.8368
 4461SOL    HW225020   1.041   4.649   6.029  0.0773  0.2885  0.7208
 4462SOL     OW25021   1.094   0.564   1.946  0.1881 -0.7131  0.2838
 4462SOL    HW125022   1.057   0.612   2.020 -2.1931 -0.8528 -0.8126
 4462SOL    HW225023   1.023   0.580   1.884 -1.0228 -3.2469  1.0140
 4463SOL     OW25024   0.938   0.465   3.268 -0.5489  0.0005  0.3297
 4463SOL    HW125025   0.932   0.559   3.251  0.2352  0.1703  1.0133
 4463SOL    HW225026   0.852   0.440   3.233 -0.8251 -1.1472  1.8686
 4464SOL     OW25027   2.287   3.481   6.532  0.4816 -0.2073  0.1838
 4464SOL    HW125028   2.351   3.478   6.602  0.7127 -2.7342 -0.1447
 4464SOL    HW225029   2.253   3.569   6.549  0.7066  0.0118 -0.4823
 4465SOL     OW25030   2.386   1.034  11.718  0.3841  0.8975  0.1523
 4465SOL    HW125031   2.310   1.071  11.763  0.4273 -1.0687  1.8661
 4465SOL    HW225032   2.394   0.957  11.775  2.4887  0.7068 -0.4011
 4466SOL     OW25033   0.862   2.093   9.492 -0.4945 -0.1838  0.2363
 4466SOL    HW125034   0.847   2.037   9.416  2.4882  3.9678 -3.4176
 4466SOL    HW225035   0.957   2.083   9.495 -0.5435 -0.1687  1.9258
 4467SOL     OW25036   2.763   2.891   8.059  0.3556  0.6739 -0.2274
 4467SOL    HW125037   2.735   2.976   8.024 -0.2191  0.0824 -1.1956
 4467SOL    HW225038   2.738   2.902   8.150  0.0877  2.5377 -0.5168
 4468SOL     OW25039   0.083   0.874   5.828 -0.4426  0.8296  0.0155
 4468SOL    HW125040   0.026   0.951   5.827  0.3920  1.4664  0.8591
 4468SOL    HW225041   0.129   0.877   5.744 -0.8550  1.0348 -0.2030
 4469SOL     OW25042   2.597   1.554   7.133 -0.3442 -0.0734  0.0240
 4469SOL    HW125043   2.515   1.604   7.131  0.6589  1.6528  1.7743
 4469SOL    HW225044   2.599   1.527   7.225 -0.6767 -1.3057 -0.3388
 4470SOL     OW25045   1.947   2.608   3.793 -0.1015  0.0525  0.0855
 4470SOL    HW125046   1.901   2.524   3.791  1.6864 -0.9516  1.0413
 4470SOL    HW225047   1.890   2.660   3.849  0.1558 -0.8881  1.2228
 4471SOL     OW25048   1.878   0.707  14.875  0.6005 -0.5392  0.4439
 4471SOL    HW125049   1.899   0.774  14.939  0.8784 -2.6928  2.6250
 4471SOL    HW225050   1.961   0.659  14.880  2.6870  2.7930 -2.4052
 4472SOL     OW25051   1.913   0.466  14.571  0.1180  0.0376 -0.1747
 4472SOL    HW125052   1.840   0.419  14.611  0.4284  0.7784  1.2638
 4472SOL    HW225053   1.961   0.496  14.648  0.1218  2.3842 -1.0737
 4473SOL     OW25054   3.651   3.042   3.308 -0.1410 -0.7028 -0.7181
 4473SOL    HW125055   3.591   2.971   3.329 -0.3812 -0.0914  0.6348
 4473SOL    HW225056   3.682   3.061   3.396  0.6772 -2.5732 -0.5880
 4474SOL     OW25057   3.952   3.952   0.664 -0.7878  0.1932  0.0526
 4474SOL    HW125058   3.877   3.897   0.686 -0.6899 -0.2265 -0.6561
 4474SOL    HW225059   3.999   3.909   0.593 -1.6383  0.9163 -0.9361
 4475SOL     OW25060   2.410   3.241   2.702  0.3152 -0.4629  0.3084
 4475SOL    HW125061   2.447   3.269   2.618 -0.8370 -3.6780 -1.3028
 4475SOL    HW225062   2.457   3.298   2.763 -0.6018 -1.1749  1.6771
 4476SOL     OW25063   2.828   1.035  12.938 -0.7805  0.2433  0.0361
 4476SOL    HW125064   2.788   1.093  13.002  1.4506  0.5825  1.1118
 4476SOL    HW225065   2.766   0.963  12.925  0.5790 -0.9461  0.1275
 4477SOL     OW25066   2.435   3.528   7.334  0.1351  0.4969  0.1607
 4477SOL    HW125067   2.469   3.556   7.419 -0.7873  1.7152  0.1090
 4477SOL    HW225068   2.516   3.529   7.283 -0.3511 -0.9873 -0.6559
 4478SOL     OW25069   4.110   1.366   5.387  0.2034  0.5392  0.3753
 4478SOL    HW125070   4.050   1.355   5.460 -0.6046 -1.6276 -0.6241
 4478SOL    HW225071   4.090   1.290   5.332 -0.7349 -0.1841  1.7263
 4479SOL     OW25072   2.008   1.011   7.885  0.6748  0.5579 -0.8590
 4479SOL    HW125073   2.100   0.993   7.867  0.2852 -2.9003  0.5226
 4479SOL    HW225074   1.974   0.946   7.823  0.3463  3.1665 -3.4288
 4480SOL     OW25075   4.449   2.383   7.194 -0.4007  0.0814  0.3158
 4480SOL    HW125076   4.393   2.337   7.257  0.0715 -0.5866  0.2502
 4480SOL    HW225077   4.535   2.341   7.205  0.4766  1.6732 -0.4785
 4481SOL     OW25078   3.153   2.140   5.377 -0.1546 -0.5824  0.7084
 4481SOL    HW125079   3.091   2.206   5.408 -1.0079 -1.4179  0.7924
 4481SOL    HW225080   3.111   2.103   5.299  0.6335  0.3917 -0.1852
 4482SOL     OW25081   3.013   3.889  10.252 -0.3684 -0.3716  0.3162
 4482SOL    HW125082   3.047   3.839  10.327  0.5743 -2.0289 -1.1883
 4482SOL    HW225083   3.098   3.903  10.209  0.5711 -1.0416  1.9694
 4483SOL     OW25084   2.983   3.176   2.285 -0.7612  0.2543  0.0350
 4483SOL    HW125085   2.990   3.081   2.294 -1.1394  0.1866 -0.4167
 4483SOL    HW225086   3.051   3.199   2.221 -2.1549  0.7078 -1.2701
 4484SOL     OW25087   1.628   0.709   3.281  0.1962  0.5668 -0.1070
 4484SOL    HW125088   1.617   0.761   3.361  0.3867  0.8508 -0.2689
 4484SOL    HW225089   1.569   0.748   3.216 -0.8977 -0.2118  0.4193
 4485SOL     OW25090   4.322   1.389  11.244  0.1427 -0.0897  0.1055
 4485SOL    HW125091   4.277   1.474  11.248  2.2087  0.9316  1.6788
 4485SOL    HW225092   4.307   1.343  11.161 -3.8241 -0.6883  1.1949
 4486SOL     OW25093   3.923   1.465  17.699  0.2674  0.1453 -0.3873
 4486SOL    HW125094   3.837   1.476  17.657 -0.3529  0.8973  1.0819
 4486SOL    HW225095   3.969   1.542  17.664 -0.6038  0.3787 -1.0467
 4487SOL     OW25096   1.410   3.493   8.526 -0.4700  0.2692 -0.1575
 4487SOL    HW125097   1.428   3.460   8.438  0.3400 -0.1075  0.1466
 4487SOL    HW225098   1.348   3.428   8.558  0.3501 -0.1907  0.4932
 4488SOL     OW25099   3.146   3.671   8.502 -0.4528  0.4440  0.1478
 4488SOL    HW125100   3.215   3.609   8.480 -0.9994 -0.9985  2.4711
 4488SOL    HW225101   3.084   3.630   8.442  1.3973 -0.5565 -1.0706
 4489SOL     OW25102   4.020   2.278   3.819 -0.7953  0.3058 -0.1652
 4489SOL    HW125103   3.992   2.231   3.740 -0.6399 -1.8348  1.0796
 4489SOL    HW225104   4.026   2.364   3.776 -1.1102  0.2482 -0.3211
 4490SOL     OW25105   1.655   3.428   4.826 -0.0218 -0.1635 -0.1881
 4490SOL    HW125106   1.682   3.517   4.849 -0.0069 -1.0532  3.2326
 4490SOL    HW225107   1.586   3.444   4.763  0.9083  1.7902 -0.7200
 4491SOL     OW25108   3.778   2.756   3.003 -0.5307 -0.1428 -0.5747
 4491SOL    HW125109   3.798   2.832   2.949 -2.5202 -1.0874 -2.6398
 4491SOL    HW225110   3.858   2.706   2.985 -0.6188 -0.0269 -1.2826
 4492SOL     OW25111   1.798   1.330   3.437  0.2353 -0.4762  0.2644
 4492SOL    HW125112   1.863   1.397   3.414 -0.6637  0.2155 -0.2557
 4492SOL    HW225113   1.746   1.327   3.356  2.0356  0.7573 -0.9397
 4493SOL     OW25114   4.308   1.253   9.121  0.2512 -0.1956 -1.1410
 4493SOL    HW125115   4.393   1.211   9.125  0.4146  0.3104  0.6901
 4493SOL    HW225116   4.325   1.347   9.108  0.0927 -0.1079 -0.7432
 4494SOL     OW25117   3.578   3.999   8.428 -0.2181 -0.2158  0.5266
 4494SOL    HW125118   3.628   4.016   8.348 -1.1778  0.0009 -0.0190
 4494SOL    HW225119   3.495   4.026   8.389  0.2723  0.5400  0.0118
 4495SOL     OW25120   1.226   3.005   5.605 -0.5433  0.1444  0.7820
 4495SOL    HW125121   1.133   3.011   5.585 -0.4976 -0.1812  0.4763
 4495SOL    HW225122   1.245   2.926   5.554  1.8625  0.7543  0.7347
 4496SOL     OW25123   2.190   3.659  10.320  0.4613 -0.1674  0.8516
 4496SOL    HW125124   2.141   3.719  10.264  3.2500 -0.0955 -1.4739
 4496SOL    HW225125   2.117   3.597  10.330  0.0981  0.2997  1.0769
 4497SOL     OW25126   0.680   4.683   2.827  0.2039  0.0519 -0.7306
 4497SOL    HW125127   0.629   0.030   2.829 -0.7264 -0.5492 -0.0107
 4497SOL    HW225128   0.694   4.678   2.733  0.2507  2.0709 -0.8197
 4498SOL     OW25129   1.614   4.140   5.893  0.6330 -0.0193  0.9847
 4498SOL    HW125130   1.559   4.106   5.964 -1.3883 -1.9722 -1.5059
 4498SOL    HW225131   1.565   4.107   5.817  1.8319  0.7296 -0.1248
 4499SOL     OW25132   0.677   4.159   9.493 -0.3241  0.0974  0.0476
 4499SOL    HW125133   0.681   4.086   9.431 -2.1381  1.6281 -1.8869
 4499SOL    HW225134   0.606   4.207   9.450 -2.0890 -1.5102  1.1789
 4500SOL     OW25135   0.158   2.662   3.100 -0.8696 -0.0862  0.2273
 4500SOL    HW125136   0.131   2.748   3.066  2.6370  1.8419  2.3143
 4500SOL    HW225137   0.183   2.699   3.185 -1.9306  0.3864  0.3320
 4501SOL     OW25138   2.206   4.637   6.371  1.2290 -0.2874  0.6060
 4501SOL    HW125139   2.257   4.667   6.296  0.8127 -0.4399  0.2566
 4501SOL    HW225140   2.137   4.585   6.329  2.4378 -1.0625 -0.3937
 4502SOL     OW25141   1.492   0.915   4.106  0.0184 -0.0104 -0.0275
 4502SOL    HW125142   1.553   0.936   4.177  0.8108  1.5232 -1.1442
 4502SOL    HW225143   1.431   0.873   4.165 -2.0019 -0.7109 -2.6277
 4503SOL     OW25144   4.386   3.649   9.917 -0.4035  0.3200  0.0909
 4503SOL    HW125145   4.450   3.692   9.860 -0.1459  0.0862  0.2056
 4503SOL    HW225146   4.393   3.555   9.900  3.4896  0.2518  2.1443
 4504SOL     OW25147   0.391   1.350  14.569  0.2370 -0.4922 -0.1119
 4504SOL    HW125148   0.351   1.364  14.483 -0.5646  0.4001  0.4062
 4504SOL    HW225149   0.401   1.255  14.561  1.1024 -0.1759 -2.5391
 4505SOL     OW25150   3.933   3.975   3.494 -0.6588 -0.3911  0.8937
 4505SOL    HW125151   3.952   4.064   3.524  0.9014 -0.8469  1.2961
 4505SOL    HW225152   3.882   3.989   3.415  0.8356 -0.6949 -0.1327
 4506SOL     OW25153   4.102   4.092   5.010 -0.4332 -0.3817 -0.0780
 4506SOL    HW125154   4.089   4.020   5.072  1.0650 -0.7093 -0.1365
 4506SOL    HW225155   4.139   4.157   5.069  0.5949  1.0913 -2.3755
 4507SOL     OW25156   0.400   0.933   1.790  0.3810 -0.0120 -0.2767
 4507SOL    HW125157   0.483   0.978   1.804  0.3764 -1.1140  3.4969
 4507SOL    HW225158   0.341   1.007   1.805 -1.5106 -1.4561 -0.5639
 4508SOL     OW25159   1.202   2.201   6.949  0.1418  0.1915 -0.5261
 4508SOL    HW125160   1.209   2.117   6.995 -0.5127  1.4021  1.7892
 4508SOL    HW225161   1.294   2.223   6.935 -0.2446  2.2485  0.1725
 4509SOL     OW25162   1.717   3.678   4.954  0.2415 -0.5519 -0.5497
 4509SOL    HW125163   1.682   3.663   5.041  1.1093  1.2643  0.1255
 4509SOL    HW225164   1.672   3.756   4.923 -0.1736 -0.5632  0.0353
 4510SOL     OW25165   3.484   1.876   0.416  0.0173 -0.0417 -0.0731
 4510SOL    HW125166   3.458   1.795   0.461 -0.9465 -2.2985 -4.7383
 4510SOL    HW225167   3.413   1.925   0.459 -0.6286  0.1347 -1.3561
 4511SOL     OW25168   3.599   4.187  12.215 -0.3067  0.0677  0.6002
 4511SOL    HW125169   3.553   4.248  12.272  1.5453  0.9220  1.1977
 4511SOL    HW225170   3.684   4.224  12.190  0.8769 -1.4218  2.3291
 4512SOL     OW25171   1.541   2.793   5.569  0.4828  0.1000 -0.1254
 4512SOL    HW125172   1.540   2.876   5.521  0.4359  0.7013  0.9139
 4512SOL    HW225173   1.507   2.731   5.505  1.5467  0.9890 -1.5666
 4513SOL     OW25174   3.638   2.354   5.830  0.3770 -0.0906 -0.3850
 4513SOL    HW125175   3.550   2.320   5.810  0.8911 -1.6314 -0.0286
 4513SOL    HW225176   3.676   2.381   5.746 -3.7812  0.5443 -2.0763
 4514SOL     OW25177   1.805   3.307  16.798  0.4558  0.5070  0.8068
 4514SOL    HW125178   1.744   3.274  16.864 -0.8040  1.8137  0.2849
 4514SOL    HW225179   1.775   3.396  16.783 -0.5451  0.2312  1.1222
 4515SOL     OW25180   4.244   3.287  10.012 -0.3680 -0.0819  0.1245
 4515SOL    HW125181   4.191   3.226  10.063 -1.4152  1.2183  0.5830
 4515SOL    HW225182   4.332   3.271  10.046  0.1023  0.6492 -0.7336
 4516SOL     OW25183   0.812   0.392   4.146 -0.2571  0.0785  0.1773
 4516SOL    HW125184   0.829   0.298   4.150 -0.5263  0.0463  0.5336
 4516SOL    HW225185   0.840   0.406   4.056 -2.4060  1.0082 -0.3383
 4517SOL     OW25186   2.503   4.159   7.775  0.2040 -0.5670  1.5371
 4517SOL    HW125187   2.498   4.255   7.768  2.9127 -0.6871 -1.4049
 4517SOL    HW225188   2.591   4.146   7.741  0.1526 -1.7737  1.8608
 4518SOL     OW25189   2.249   3.756   7.430  1.0268  0.2751 -0.1330
 4518SOL    HW125190   2.179   3.729   7.371 -1.5668  0.1729  2.9925
 4518SOL    HW225191   2.214   3.717   7.510 -1.7300  2.5118 -0.2681
 4519SOL     OW25192   1.509   3.983   9.017  0.2197 -0.2697  0.3739
 4519SOL    HW125193   1.566   3.937   9.079  0.2665 -0.4367  0.2077
 4519SOL    HW225194   1.577   4.050   9.008 -2.2890  2.1613 -0.4270
 4520SOL     OW25195   1.337   0.512   1.604 -0.1386  0.2088  0.2933
 4520SOL    HW125196   1.246   0.543   1.607  0.0397  0.8796 -0.9539
 4520SOL    HW225197   1.381   0.597   1.606  0.0043  0.1681 -1.2731
 4521SOL     OW25198   1.734   0.295   3.691  0.1871  0.0768 -0.2520
 4521SOL    HW125199   1.732   0.366   3.628 -4.7834  1.2505  1.2986
 4521SOL    HW225200   1.804   0.242   3.652  0.3016  0.6373 -0.7914
 4522SOL     OW25201   4.618   3.809   0.353 -0.6145  0.3784  0.1120
 4522SOL    HW125202   4.563   3.885   0.370 -0.8696  0.5315 -1.3529
 4522SOL    HW225203   4.604   3.743   0.421 -2.3542  0.3995 -0.2194
 4523SOL     OW25204   4.297   3.952  16.319  0.0482 -0.4492 -0.2819
 4523SOL    HW125205   4.305   3.990  16.406 -0.4012  0.1630 -0.5052
 4523SOL    HW225206   4.384   3.914  16.303 -1.2118 -2.3931 -2.6408
 4524SOL     OW25207   3.572   2.126   7.485  0.7905  0.1584 -0.2647
 4524SOL    HW125208   3.601   2.145   7.395 -0.2992 -1.1783 -0.8998
 4524SOL    HW225209   3.511   2.199   7.492 -1.2584 -1.4145 -1.6111
 4525SOL     OW25210   3.539   4.003   7.211  0.8190  0.1449  0.1517
 4525SOL    HW125211   3.630   4.027   7.198  1.3353 -0.6998  2.3193
 4525SOL    HW225212   3.501   4.091   7.210 -1.4779 -0.8215  0.5803
 4526SOL     OW25213   2.527   2.688   4.973  0.3393  0.0226 -0.0607
 4526SOL    HW125214   2.489   2.626   5.036 -1.5067  0.2196 -1.0061
 4526SOL    HW225215   2.600   2.707   5.032 -1.2910  0.0936  1.9240
 4527SOL     OW25216   1.539   2.287   4.697 -0.1095 -0.6520 -0.1376
 4527SOL    HW125217   1.575   2.200   4.680 -2.2324 -1.6185  0.3388
 4527SOL    HW225218   1.518   2.318   4.609  1.6241  1.2946  0.1200
 4528SOL     OW25219   0.233   0.937   6.440 -0.0667 -0.1576 -0.0180
 4528SOL    HW125220   0.254   0.849   6.407  0.6516 -0.1212  0.3642
 4528SOL    HW225221   0.186   0.980   6.369  0.0895  1.3803  0.8206
 4529SOL     OW25222   0.066   2.970   4.853  0.0386  0.8736  0.1608
 4529SOL    HW125223   0.146   2.948   4.806  0.9549  2.0383  1.1424
 4529SOL    HW225224   0.017   2.888   4.850 -1.1175  1.5041  1.8714
 4530SOL     OW25225   4.273   1.678  11.162 -0.6320 -0.4451 -0.3069
 4530SOL    HW125226   4.278   1.760  11.112  1.8525  0.7792  1.9264
 4530SOL    HW225227   4.178   1.667  11.158 -0.6980  0.9077 -2.5946
 4531SOL     OW25228   2.866   0.131  10.735 -0.1504  0.4924  0.4337
 4531SOL    HW125229   2.834   0.177  10.813 -0.2371 -0.7254  1.1229
 4531SOL    HW225230   2.913   0.056  10.771 -0.3372  0.7768  1.2829
 4532SOL     OW25231   1.441   2.484   7.898 -0.5042  0.2750  0.4244
 4532SOL    HW125232   1.536   2.489   7.905 -0.0831 -4.1540 -1.8243
 4532SOL    HW225233   1.419   2.400   7.939  0.4666 -0.9292 -1.5069
 4533SOL     OW25234   0.782   3.408  15.320 -0.2064  0.0555  0.1072
 4533SOL    HW125235   0.770   3.362  15.237 -1.7116  2.0856 -0.8113
 4533SOL    HW225236   0.811   3.490  15.281 -0.2278 -0.6482 -1.3565
 4534SOL     OW25237   2.676   1.196   7.013 -0.4533  0.5952  0.3312
 4534SOL    HW125238   2.635   1.120   7.055  0.0794 -0.2128 -0.6266
 4534SOL    HW225239   2.608   1.262   6.998  0.4537  1.4421 -0.0810
 4535SOL     OW25240   0.159   1.529  12.271  0.0293  0.2312  1.0639
 4535SOL    HW125241   0.239   1.484  12.297  0.4545  1.6258  2.1665
 4535SOL    HW225242   0.145   1.517  12.177  2.5132  2.0962  0.4723
 4536SOL     OW25243   2.530   0.399   9.047 -0.3629 -0.2020 -0.1469
 4536SOL    HW125244   2.485   0.428   9.126 -0.3423 -0.7862  0.0815
 4536SOL    HW225245   2.467   0.426   8.980  0.2043 -1.3819 -1.1480
 4537SOL     OW25246   2.015   3.402   6.456 -0.3193 -0.0996 -0.0896
 4537SOL    HW125247   2.105   3.371   6.441  0.8932  2.7053  1.2442
 4537SOL    HW225248   1.983   3.417   6.367 -0.1087  1.6378  0.1117
 4538SOL     OW25249   1.765   2.550   3.050  0.1742 -0.8103 -0.4420
 4538SOL    HW125250   1.675   2.516   3.050 -0.3785  0.6382 -0.4393
 4538SOL    HW225251   1.742   2.635   3.087 -0.0752 -1.1309  0.1469
 4539SOL     OW25252   2.539   1.763  16.758  0.5914  0.3121 -0.0141
 4539SOL    HW125253   2.595   1.686  16.765 -0.1539 -0.1917  0.4734
 4539SOL    HW225254   2.543   1.789  16.666 -0.9789 -2.5119 -0.8533
 4540SOL     OW25255   1.058   1.982  17.061 -0.1545  0.4157  0.1717
 4540SOL    HW125256   1.033   2.035  16.984 -0.1675  1.1400  0.6731
 4540SOL    HW225257   1.039   1.893  17.031  0.7442  0.0182  0.8008
 4541SOL     OW25258   2.073   0.070   5.579  0.3839 -0.0277 -0.6274
 4541SOL    HW125259   2.003   0.128   5.548  0.5609  1.7819  2.3997
 4541SOL    HW225260   2.011   0.017   5.629  1.2574 -0.8678 -0.4574
 4542SOL     OW25261   3.341   0.366   7.122  0.1606 -0.1231 -0.2493
 4542SOL    HW125262   3.337   0.397   7.032 -0.6952 -0.2293 -0.2432
 4542SOL    HW225263   3.263   0.417   7.141 -0.1724 -0.4949 -0.6183
 4543SOL     OW25264   0.907   4.040   3.343  0.1078  0.0207 -0.0421
 4543SOL    HW125265   0.960   3.986   3.401 -0.6063 -2.2131 -1.4840
 4543SOL    HW225266   0.907   3.981   3.267 -1.1241 -0.6878  0.5195
 4544SOL     OW25267   1.323   3.800   0.913  0.1736  0.0834  0.9944
 4544SOL    HW125268   1.325   3.874   0.975  0.5146  0.2432  0.7986
 4544SOL    HW225269   1.237   3.768   0.941  0.4595  0.5769  2.4637
 4545SOL     OW25270   4.052   1.157   9.049  0.6783 -0.0206  0.4968
 4545SOL    HW125271   4.121   1.100   9.018  1.4878  0.4518  1.4228
 4545SOL    HW225272   4.112   1.222   9.086 -2.1141  3.1827 -0.5415
 4546SOL     OW25273   2.294   3.876  17.297 -0.6410 -0.6192  0.0232
 4546SOL    HW125274   2.266   3.921  17.218  1.0433  0.3637 -0.0122
 4546SOL    HW225275   2.316   3.935  17.370 -1.6048 -0.0929 -0.1154
 4547SOL     OW25276   3.488   1.122   8.792 -0.1830  0.2745 -0.1392
 4547SOL    HW125277   3.485   1.079   8.707  2.2866  0.4822 -0.3390
 4547SOL    HW225278   3.530   1.207   8.780  0.1326  0.5558  2.8685
 4548SOL     OW25279   0.383   3.433   8.017  0.2580  0.2397 -0.2206
 4548SOL    HW125280   0.361   3.352   8.063  0.1450  0.6483  0.4386
 4548SOL    HW225281   0.459   3.463   8.067  1.0008 -0.0952 -1.1348
 4549SOL     OW25282   1.026   2.250   3.360  0.4353  0.3696  0.2262
 4549SOL    HW125283   1.014   2.285   3.448  1.9443  1.1888  0.1133
 4549SOL    HW225284   0.945   2.212   3.326  0.5143 -0.0659  0.5298
 4550SOL     OW25285   2.788   4.577   5.683  0.4252  0.3194 -1.1992
 4550SOL    HW125286   2.768   4.558   5.775  0.7082 -0.5892 -1.3206
 4550SOL    HW225287   2.759   4.489   5.657  0.6724 -0.4303  1.1110
 4551SOL     OW25288   2.956   2.392  15.008  0.3509  0.3947 -0.2444
 4551SOL    HW125289   3.007   2.470  14.985  1.5925 -1.0470 -2.3448
 4551SOL    HW225290   2.992   2.331  14.944 -0.9238 -0.0505 -0.5454
 4552SOL     OW25291   1.902   0.576   6.578 -0.0200 -0.0782  0.2356
 4552SOL    HW125292   1.936   0.619   6.500 -1.2595  0.8386  0.2090
 4552SOL    HW225293   1.958   0.498   6.581 -2.9277 -2.2487 -1.5406
 4553SOL     OW25294   4.477   2.818   9.892  0.1265  0.3485  0.6329
 4553SOL    HW125295   4.556   2.845   9.938 -0.8268  2.5847  0.9593
 4553SOL    HW225296   4.497   2.727   9.870 -0.8214  0.2240  0.2881
 4554SOL     OW25297   0.332   3.027   8.852 -0.1843  0.9727  0.2602
 4554SOL    HW125298   0.301   3.117   8.844 -2.1681  0.2868  0.2410
 4554SOL    HW225299   0.382   3.035   8.933 -1.3053  1.7492  0.8817
 4555SOL     OW25300   4.148   2.114  10.683 -0.5839  0.1976 -0.0987
 4555SOL    HW125301   4.204   2.130  10.758  0.2264 -2.7439 -0.1026
 4555SOL    HW225302   4.084   2.183  10.697  1.6009  1.9923  0.9949
 4556SOL     OW25303   1.678   0.837   9.897  0.1003 -0.1086 -0.0219
 4556SOL    HW125304   1.724   0.859   9.816 -1.3114  1.6273 -0.3547
 4556SOL    HW225305   1.745   0.841   9.965 -0.0213 -0.0842  0.0986
 4557SOL     OW25306   2.487   1.998   8.373  0.1297 -0.3409  0.0494
 4557SOL    HW125307   2.516   2.015   8.462  0.4362  1.5693 -0.4117
 4557SOL    HW225308   2.482   1.903   8.368  0.4906 -0.3769  0.4182
 4558SOL     OW25309   0.277   4.093   1.905  0.4055 -0.1233  0.3490
 4558SOL    HW125310   0.190   4.132   1.893  0.7259  0.2372 -0.8050
 4558SOL    HW225311   0.294   4.057   1.818  2.8558 -0.0230  0.7768
 4559SOL     OW25312   0.263   1.487   5.080  0.1407 -0.3882 -0.0051
 4559SOL    HW125313   0.215   1.408   5.056 -1.2911  0.6740 -0.5884
 4559SOL    HW225314   0.216   1.509   5.159  1.0958  0.4787  0.3212
 4560SOL     OW25315   4.562   4.218   6.338  0.1867 -0.3152 -0.2317
 4560SOL    HW125316   4.624   4.224   6.411 -1.2037  1.2986  0.8287
 4560SOL    HW225317   4.617   4.164   6.281  0.6731  0.3658 -0.4062
 4561SOL     OW25318   1.259   1.637   3.969 -0.4841  0.0526 -0.1519
 4561SOL    HW125319   1.355   1.644   3.972 -0.3535 -1.4518 -0.8311
 4561SOL    HW225320   1.229   1.645   3.878  0.0225 -0.2063 -0.3436
 4562SOL     OW25321   2.361   4.542   2.262  0.0394  0.3832  0.3075
 4562SOL    HW125322   2.283   4.581   2.301  0.0728  0.1566  0.6031
 4562SOL    HW225323   2.428   4.579   2.319 -1.7759  0.1670  2.5937
 4563SOL     OW25324   4.600   0.665   1.333 -0.2381  0.3910 -0.1552
 4563SOL    HW125325   4.695   0.659   1.321 -0.1773  0.4089  0.3404
 4563SOL    HW225326   4.600   0.695   1.423  1.3673  2.0506 -0.6955
 4564SOL     OW25327   3.374   4.244  16.089 -0.1203  0.3080 -0.3994
 4564SOL    HW125328   3.416   4.184  16.150 -0.9528  1.9387  1.8172
 4564SOL    HW225329   3.437   4.255  16.018  1.9673  2.4508  1.7591
 4565SOL     OW25330   4.366   4.451   1.572  0.4286 -0.9576  0.1244
 4565SOL    HW125331   4.381   4.531   1.622  0.6744 -0.3317 -0.9400
 4565SOL    HW225332   4.451   4.437   1.530 -0.4227 -1.1140 -1.5440
 4566SOL     OW25333   4.276   4.156   9.830  0.6840  0.3027 -0.0255
 4566SOL    HW125334   4.208   4.123   9.889  0.7331  1.6045  0.7462
 4566SOL    HW225335   4.283   4.079   9.774  0.1256 -0.9062  1.5641
 4567SOL     OW25336   2.782   2.928   6.129  0.0235  0.1396  0.0708
 4567SOL    HW125337   2.853   2.980   6.166 -1.8804  0.4805  3.2067
 4567SOL    HW225338   2.712   2.942   6.193 -1.4599  1.3224 -1.8252
 4568SOL     OW25339   2.578   1.503   6.710  0.1009  0.2688  0.1466
 4568SOL    HW125340   2.547   1.424   6.755 -1.3252  0.9562  0.3665
 4568SOL    HW225341   2.522   1.575   6.740 -2.4370 -1.5744 -0.1118
 4569SOL     OW25342   0.757   2.597   3.567  0.2754 -0.3662  0.3026
 4569SOL    HW125343   0.781   2.680   3.526  1.0018 -0.0363  1.3988
 4569SOL    HW225344   0.752   2.542   3.489  2.9352  0.6101 -0.5730
 4570SOL     OW25345   3.415   1.500   3.349  0.1160  0.5129  0.1839
 4570SOL    HW125346   3.325   1.514   3.379 -0.3756  0.1248 -1.1047
 4570SOL    HW225347   3.447   1.426   3.401  2.4965  0.3881 -1.4644
 4571SOL     OW25348   1.347   0.155   4.481  0.5448  0.4074 -0.3575
 4571SOL    HW125349   1.398   0.192   4.410 -0.9476  0.9557 -1.1574
 4571SOL    HW225350   1.414   0.129   4.544  0.4676  2.7892  0.7274
 4572SOL     OW25351   0.969   3.534   7.112  0.3055 -0.0471  0.0870
 4572SOL    HW125352   0.983   3.445   7.146  1.2485 -0.4144 -1.2692
 4572SOL    HW225353   0.873   3.535   7.118  0.4099 -2.1664  2.2923
 4573SOL     OW25354   2.218   0.718   3.178  0.0974 -0.1802  0.3079
 4573SOL    HW125355   2.291   0.656   3.169  0.5123  0.0402  2.1105
 4573SOL    HW225356   2.244   0.774   3.251  0.9534 -0.0402 -0.0977
 4574SOL     OW25357   0.135   4.365  15.458 -0.0060  0.1313  0.4962
 4574SOL    HW125358   0.083   4.375  15.377  0.6271  0.9423  0.1895
 4574SOL    HW225359   0.109   4.444  15.505 -0.2593  1.6756 -2.2513
 4575SOL     OW25360   4.437   4.602   8.897 -0.1647 -0.1708  0.3761
 4575SOL    HW125361   4.463   4.580   8.807 -0.3262  4.1083 -0.7345
 4575SOL    HW225362   4.460   4.695   8.898 -0.0567 -0.1925 -0.2086
 4576SOL     OW25363   0.556   1.169   2.075  0.4054  0.1858 -0.3966
 4576SOL    HW125364   0.515   1.099   2.126 -0.4342 -0.3464 -1.7937
 4576SOL    HW225365   0.536   1.240   2.136 -0.2633 -0.3258 -0.0257
 4577SOL     OW25366   3.962   0.381  15.151  0.5665 -0.0290  0.0710
 4577SOL    HW125367   3.946   0.461  15.200  0.4533  1.3505 -2.2209
 4577SOL    HW225368   3.887   0.371  15.092  1.6389 -0.0111 -1.2725
 4578SOL     OW25369   3.346   3.098   3.232 -0.4258  0.0122 -0.5970
 4578SOL    HW125370   3.433   3.135   3.213 -0.6591  1.8568  1.9658
 4578SOL    HW225371   3.325   3.121   3.322  0.6794 -0.8299 -0.1263
 4579SOL     OW25372   1.176   2.967   7.116 -0.0125  0.0932 -0.2906
 4579SOL    HW125373   1.264   2.972   7.155  0.2745  1.8401 -1.1780
 4579SOL    HW225374   1.177   2.892   7.057  1.0424 -0.8259  0.8833
 4580SOL     OW25375   4.317   1.384   6.167 -0.1386  0.1802  0.1855
 4580SOL    HW125376   4.233   1.390   6.120  0.5177 -0.9580 -1.1369
 4580SOL    HW225377   4.305   1.301   6.212  1.2682 -0.8203 -1.2563
 4581SOL     OW25378   2.979   0.613   2.765  0.0967  0.1925  0.1800
 4581SOL    HW125379   2.935   0.551   2.707 -0.7809  1.4819 -0.5214
 4581SOL    HW225380   3.017   0.678   2.706 -1.2554  2.1229  1.4432
 4582SOL     OW25381   2.722   1.582   8.214  0.0369  0.2000 -0.1154
 4582SOL    HW125382   2.771   1.503   8.234 -2.0933 -1.4784 -1.5359
 4582SOL    HW225383   2.795   1.642   8.225 -0.3766  1.0597 -1.9746
 4583SOL     OW25384   0.193   0.536   4.020 -0.3743 -0.1417  0.3879
 4583SOL    HW125385   0.211   0.468   3.956 -0.3445 -1.0709  1.3777
 4583SOL    HW225386   0.140   0.488   4.084 -1.4975 -0.1252 -0.5409
 4584SOL     OW25387   1.735   2.411   7.859  0.4104  0.1620 -0.2601
 4584SOL    HW125388   1.709   2.328   7.818 -3.2652  1.3069 -0.2901
 4584SOL    HW225389   1.783   2.455   7.789  1.1650 -2.6694 -1.5198
 4585SOL     OW25390   2.002   1.209   8.645 -0.3724 -0.5093 -0.6031
 4585SOL    HW125391   1.929   1.267   8.665 -0.6256 -0.9318 -0.2993
 4585SOL    HW225392   2.061   1.258   8.587  2.0459  0.5586  2.8058
 4586SOL     OW25393   1.035   0.726   1.039 -0.0778  0.5918  0.1492
 4586SOL    HW125394   0.947   0.730   1.075  0.5249  2.7434  1.4579
 4586SOL    HW225395   1.064   0.817   1.049  1.2762 -0.0200  1.8181
 4587SOL     OW25396   0.863   2.026   1.641 -0.4687 -0.4280  0.0749
 4587SOL    HW125397   0.908   1.943   1.628 -1.4246 -0.6351 -1.8521
 4587SOL    HW225398   0.933   2.088   1.661 -1.0619  0.2803 -0.0479
 4588SOL     OW25399   4.381   2.327  15.376  0.6240  0.1456 -0.0777
 4588SOL    HW125400   4.382   2.231  15.381 -0.5454  0.1056 -0.6952
 4588SOL    HW225401   4.419   2.356  15.459  0.0504 -0.3604  0.3648
 4589SOL     OW25402   0.411   2.361   7.431  0.5578 -0.0165  0.0409
 4589SOL    HW125403   0.436   2.340   7.341  1.7418 -0.0075  0.3633
 4589SOL    HW225404   0.486   2.339   7.487 -1.3004 -3.6982  1.0361
 4590SOL     OW25405   3.355   3.614   3.101 -0.3043  0.4714  0.4362
 4590SOL    HW125406   3.264   3.591   3.083 -0.2192 -0.5643  1.3208
 4590SOL    HW225407   3.371   3.655   3.016 -1.0192 -1.4145 -0.5907
 4591SOL     OW25408   2.398   3.704   6.141  0.8106  0.8513 -0.2413
 4591SOL    HW125409   2.335   3.634   6.119 -0.5382  2.2739 -0.8790
 4591SOL    HW225410   2.347   3.766   6.192 -0.4490  0.4772 -1.0436
 4592SOL     OW25411   1.461   0.905   3.175  0.0511 -0.0852 -0.0926
 4592SOL    HW125412   1.368   0.915   3.192 -0.3956 -0.8757 -2.1385
 4592SOL    HW225413   1.468   0.840   3.105  0.1137  1.4510 -1.5187
 4593SOL     OW25414   0.346   3.890   3.795 -0.0870  0.0964  0.6188
 4593SOL    HW125415   0.412   3.956   3.818  0.0991  0.2424 -0.3058
 4593SOL    HW225416   0.291   3.925   3.725  0.0203  0.2777  0.6250
 4594SOL     OW25417   3.731   2.893   5.776  0.0552  0.1630  0.3004
 4594SOL    HW125418   3.639   2.867   5.764 -0.3111  1.9257 -0.6797
 4594SOL    HW225419   3.781   2.813   5.762  2.1207  1.2219  1.6262
 4595SOL     OW25420   0.935   4.623   7.971  0.1396 -0.0843 -0.4970
 4595SOL    HW125421   0.955   4.530   7.976  0.9064 -0.0157 -2.2518
 4595SOL    HW225422   0.843   4.622   7.946  0.4859 -1.2177 -1.7358
 4596SOL     OW25423   2.220   3.911   0.902  0.0259  0.2940  0.1069
 4596SOL    HW125424   2.245   3.921   0.993 -1.1100  1.8117  0.2551
 4596SOL    HW225425   2.169   3.831   0.914 -2.9131  2.2328  0.5197
 4597SOL     OW25426   3.176   4.399  15.261  0.3041  0.1731 -0.3390
 4597SOL    HW125427   3.179   4.491  15.235  0.9332  0.6632  1.5129
 4597SOL    HW225428   3.170   4.419  15.354  0.2516  2.7832 -0.9083
 4598SOL     OW25429   1.890   3.055   3.372  0.0531  0.2277  0.4144
 4598SOL    HW125430   1.798   3.081   3.373 -0.3490 -1.1465 -1.6818
 4598SOL    HW225431   1.928   3.126   3.321 -0.9497 -1.4375 -2.6316
 4599SOL     OW25432   3.075   2.527   1.641  0.1015  0.0519  0.4825
 4599SOL    HW125433   3.101   2.506   1.551 -0.8637  0.8432  0.0080
 4599SOL    HW225434   3.158   2.505   1.684 -0.7527 -1.0799  1.5463
 4600SOL     OW25435   4.626   2.062   6.440 -0.1267 -0.2027 -0.2356
 4600SOL    HW125436   4.604   1.970   6.425 -1.7376  0.0474  0.5335
 4600SOL    HW225437   4.662   2.060   6.529  0.7437 -1.8178 -0.6305
 4601SOL     OW25438   0.729   2.461   3.340 -0.3064  0.1771 -0.0683
 4601SOL    HW125439   0.711   2.380   3.292  0.8598 -0.7096  1.0035
 4601SOL    HW225440   0.794   2.491   3.277 -0.0626  0.9041  0.5265
 4602SOL     OW25441   3.845   3.033   2.342 -0.3621  0.0380  0.1672
 4602SOL    HW125442   3.876   3.122   2.360 -0.2887  0.2310 -0.8936
 4602SOL    HW225443   3.867   3.024   2.249 -0.3304 -1.6078  0.3375
 4603SOL     OW25444   0.895   3.188   5.908  0.3980 -0.4152  0.0725
 4603SOL    HW125445   0.882   3.260   5.846 -1.5612 -0.0823  0.8531
 4603SOL    HW225446   0.934   3.234   5.982  1.5191 -3.2936  1.2680
 4604SOL     OW25447   1.298   1.389   4.990 -0.6564  0.6023  0.4817
 4604SOL    HW125448   1.228   1.407   4.927  0.8411  3.6718 -0.2846
 4604SOL    HW225449   1.313   1.479   5.018  0.6311  0.6770 -0.4467
 4605SOL     OW25450   0.011   3.561  16.755  0.0507  0.0528 -0.7765
 4605SOL    HW125451   4.718   3.480  16.799  0.5527 -0.4275 -1.3553
 4605SOL    HW225452   4.662   3.605  16.736 -0.3495 -0.1909  0.4125
 4606SOL     OW25453   3.950   3.656   5.426  0.2541 -0.3920 -0.2050
 4606SOL    HW125454   3.925   3.695   5.342 -0.2724 -1.6920 -0.6522
 4606SOL    HW225455   3.867   3.671   5.472 -0.4685 -0.3939 -1.5091
 4607SOL     OW25456   3.727   1.896   8.250  0.2965  0.9358 -0.5179
 4607SOL    HW125457   3.686   1.975   8.214  3.9173  2.5634 -1.0205
 4607SOL    HW225458   3.657   1.836   8.222 -0.3528  1.4058  0.0992
 4608SOL     OW25459   1.891   2.072   2.319 -0.4631 -0.1915  0.1728
 4608SOL    HW125460   1.883   2.150   2.374 -0.0728 -0.4386  0.5801
 4608SOL    HW225461   1.807   2.028   2.327 -1.1932  1.8536  3.3933
 4609SOL     OW25462   3.236   3.003  11.811  0.2458 -0.0102  0.2004
 4609SOL    HW125463   3.290   3.052  11.874 -0.0999  0.5240  0.0854
 4609SOL    HW225464   3.161   2.984  11.867 -0.1496  2.3774  0.5043
 4610SOL     OW25465   3.191   1.671   6.792 -0.4273  0.3789  0.3575
 4610SOL    HW125466   3.247   1.701   6.864  0.1395 -0.2668  0.1835
 4610SOL    HW225467   3.116   1.731   6.800  0.8156  2.4591 -3.8931
 4611SOL     OW25468   3.620   3.833   6.505  0.0675  0.5277 -0.1062
 4611SOL    HW125469   3.601   3.795   6.419 -1.4662 -0.0051  0.4726
 4611SOL    HW225470   3.588   3.923   6.501 -2.2820 -0.2230  1.3364
 4612SOL     OW25471   3.829   0.785   0.281  0.2590 -0.4890 -0.1999
 4612SOL    HW125472   3.880   0.849   0.233 -1.8086  0.1980 -1.4924
 4612SOL    HW225473   3.751   0.840   0.288 -0.3610 -1.8635  3.6690
 4613SOL     OW25474   4.079   1.669  17.554 -0.1277 -0.0370  0.0190
 4613SOL    HW125475   4.128   1.751  17.555 -1.0001  0.4759  1.9897
 4613SOL    HW225476   4.141   1.631  17.616 -0.4116  0.4892  0.6263
 4614SOL     OW25477   1.114   2.486   8.583 -0.0665 -0.0091 -0.1093
 4614SOL    HW125478   1.027   2.452   8.563 -0.4624  0.3512  1.0013
 4614SOL    HW225479   1.160   2.406   8.609 -0.8955 -1.2554 -2.4916
 4615SOL     OW25480   3.555   3.964  15.382  0.2951  0.2750  0.7368
 4615SOL    HW125481   3.554   3.939  15.289  3.5952 -0.0283  0.7869
 4615SOL    HW225482   3.468   3.938  15.414  0.8385 -1.5882  0.7066
 4616SOL     OW25483   1.937   3.024   7.270  0.6143  0.1543 -0.6405
 4616SOL    HW125484   1.877   2.950   7.277  2.1742 -1.2373 -2.2672
 4616SOL    HW225485   1.977   3.000   7.187  0.3719  0.0902 -0.7413
 4617SOL     OW25486   0.195   2.047   1.528  0.4421  0.5536 -0.3156
 4617SOL    HW125487   0.218   2.104   1.601  1.0401 -0.9805  0.6991
 4617SOL    HW225488   0.254   1.972   1.537  0.4438  0.5437 -0.4099
 4618SOL     OW25489   2.899   4.188   8.372 -0.1958  0.1598  0.0635
 4618SOL    HW125490   2.865   4.191   8.461 -0.3439 -2.1169  0.0914
 4618SOL    HW225491   2.820   4.191   8.319  0.5106  0.2138 -0.9903
 4619SOL     OW25492   4.560   1.036  13.465  0.4421 -0.3822 -0.4715
 4619SOL    HW125493   4.529   1.040  13.555 -1.0427  0.9241 -1.0555
 4619SOL    HW225494   4.654   1.024  13.480  0.1032 -1.8082  0.5188
 4620SOL     OW25495   3.792   3.691   8.147 -0.5188 -0.5517 -0.0453
 4620SOL    HW125496   3.861   3.733   8.197  0.3623 -1.4238 -0.5205
 4620SOL    HW225497   3.786   3.611   8.200 -1.4254  0.4429  1.3484
 4621SOL     OW25498   1.849   2.699   6.410  0.2900  0.0648 -0.5335
 4621SOL    HW125499   1.942   2.709   6.387  0.3203  0.7914 -0.1194
 4621SOL    HW225500   1.810   2.765   6.353  0.2673 -1.6662 -2.5264
 4622SOL     OW25501   4.401   0.244   1.944 -0.0093  0.2870 -0.3961
 4622SOL    HW125502   4.424   0.235   2.036  0.0172 -0.4211 -0.4735
 4622SOL    HW225503   4.350   0.325   1.937  0.3773  0.5454 -0.1827
 4623SOL     OW25504   2.946   3.134  12.214  0.5175  0.5921  0.6761
 4623SOL    HW125505   3.002   3.207  12.186  1.7725 -0.7143 -0.2072
 4623SOL    HW225506   2.860   3.174  12.200  1.0088  0.7738 -1.8604
 4624SOL     OW25507   0.298   4.320   8.572  0.7638 -0.3997  0.3067
 4624SOL    HW125508   0.318   4.269   8.493 -1.6373 -0.4897 -0.2344
 4624SOL    HW225509   0.346   4.271   8.639 -0.6949 -0.3725  1.3631
 4625SOL     OW25510   4.553   0.479  17.223  0.1973  0.4864  0.8757
 4625SOL    HW125511   4.634   0.525  17.198 -0.6305  1.2938 -0.3509
 4625SOL    HW225512   4.528   0.533  17.297 -2.3443 -1.6302  1.5324
 4626SOL     OW25513   0.539   2.744   9.617  0.4562  0.0363 -0.2007
 4626SOL    HW125514   0.626   2.730   9.579  1.1486 -3.0706  2.5291
 4626SOL    HW225515   0.540   2.657   9.658 -1.1584 -0.2776 -0.8343
 4627SOL     OW25516   2.163   1.748   7.899  0.3606  0.2917 -0.5454
 4627SOL    HW125517   2.145   1.800   7.977  1.5274  0.5865 -0.4714
 4627SOL    HW225518   2.073   1.716   7.895  1.3503 -2.5960  0.2187
 4628SOL     OW25519   0.613   4.014   9.096  0.0721 -0.4737 -0.2926
 4628SOL    HW125520   0.539   3.957   9.075  0.2796 -1.1218  0.7949
 4628SOL    HW225521   0.670   3.960   9.149 -0.0322  0.9993  1.3087
 4629SOL     OW25522   2.445   3.014  17.277 -0.0924 -0.0414  0.5161
 4629SOL    HW125523   2.457   3.108  17.290 -1.6302 -0.1296  2.4473
 4629SOL    HW225524   2.512   2.999  17.210  0.7675 -1.4081  1.6780
 4630SOL     OW25525   1.523   1.721   9.163  0.1537 -0.1636 -0.1685
 4630SOL    HW125526   1.486   1.633   9.153 -1.8561  0.6645 -0.1592
 4630SOL    HW225527   1.616   1.701   9.163 -0.1176 -1.4492 -1.1598
 4631SOL     OW25528   3.950   2.373  16.058  0.1170 -0.0968  0.3024
 4631SOL    HW125529   4.020   2.315  16.030 -0.1023  0.4127 -1.2792
 4631SOL    HW225530   3.959   2.451  16.004 -1.6661 -1.7217 -2.3255
 4632SOL     OW25531   1.779   3.472   1.211 -0.7366 -0.1402  0.0538
 4632SOL    HW125532   1.738   3.513   1.135  1.5660 -1.4661 -1.8929
 4632SOL    HW225533   1.713   3.414   1.249  0.5686 -2.4973 -1.2822
 4633SOL     OW25534   1.064   3.960  11.128  0.4608 -0.0935 -0.0492
 4633SOL    HW125535   1.155   3.978  11.154  0.7318 -1.3650 -0.1027
 4633SOL    HW225536   1.028   3.978  11.214 -0.0329 -1.0176 -0.0712
 4634SOL     OW25537   4.687   0.346   0.734 -0.1257 -0.0254 -0.2912
 4634SOL    HW125538   4.598   0.318   0.712 -0.3178  0.3639 -0.0031
 4634SOL    HW225539   4.716   0.362   0.644  1.7126 -2.9410 -0.2240
 4635SOL     OW25540   3.004   4.510   5.991 -0.4970  0.0938 -0.0696
 4635SOL    HW125541   3.085   4.507   6.042 -0.8113  1.9444  0.5091
 4635SOL    HW225542   3.009   4.597   5.953  0.1894 -0.4369 -1.2199
 4636SOL     OW25543   2.072   3.447  12.286 -0.0737  0.3938 -0.8587
 4636SOL    HW125544   1.991   3.496  12.292  0.0159  0.2858  1.2100
 4636SOL    HW225545   2.090   3.407  12.371 -1.9950 -0.7814 -1.0167
 4637SOL     OW25546   3.997   4.024   3.791 -0.4058 -0.0775 -0.1388
 4637SOL    HW125547   3.968   4.098   3.738 -2.1854  0.4953  1.6225
 4637SOL    HW225548   4.090   4.046   3.794 -0.4675  0.1445  0.1470
 4638SOL     OW25549   3.645   3.079  11.556  0.1324  0.8766  0.7648
 4638SOL    HW125550   3.672   3.038  11.638 -1.6770 -1.3477  0.2154
 4638SOL    HW225551   3.724   3.129  11.534  1.1559 -0.8696  0.4711
 4639SOL     OW25552   3.509   3.515  10.676 -0.2201  0.0273  0.4343
 4639SOL    HW125553   3.543   3.430  10.647  2.1709  0.4386  1.9998
 4639SOL    HW225554   3.446   3.539  10.608  1.5927 -0.6816 -1.4787
 4640SOL     OW25555   3.437   2.189  14.497 -0.5778 -0.1861  0.0278
 4640SOL    HW125556   3.405   2.171  14.586 -2.6045  0.6076 -0.5623
 4640SOL    HW225557   3.450   2.103  14.457 -1.8140  0.0717 -0.9090
 4641SOL     OW25558   3.514   3.676  14.320 -0.1869  0.1059  0.4123
 4641SOL    HW125559   3.439   3.727  14.289 -1.4187 -1.8879  0.1232
 4641SOL    HW225560   3.562   3.683  14.238  0.1404 -0.8024  0.5293
 4642SOL     OW25561   0.611   3.666   2.224  0.8033  0.5192  0.3393
 4642SOL    HW125562   0.663   3.660   2.304 -0.3265  0.0523  1.0383
 4642SOL    HW225563   0.553   3.740   2.238 -0.6345 -0.6922  0.7953
 4643SOL     OW25564   3.233   0.502  12.283 -0.4876 -0.1298 -0.0289
 4643SOL    HW125565   3.236   0.434  12.350 -1.2950  0.2496  0.3938
 4643SOL    HW225566   3.281   0.569  12.332 -1.3108  1.2600 -1.1191
 4644SOL     OW25567   3.331   3.304  14.676  0.2211  0.1544  0.1493
 4644SOL    HW125568   3.236   3.310  14.667  0.3488  0.6489 -0.8351
 4644SOL    HW225569   3.352   3.370  14.609  1.4531  0.0996  0.4899
 4645SOL     OW25570   0.845   4.432  10.049  0.5784  0.4073 -0.1620
 4645SOL    HW125571   0.834   4.499   9.982 -0.2501  0.2306 -0.1981
 4645SOL    HW225572   0.939   4.442  10.064  0.8085  0.9911 -2.0332
 4646SOL     OW25573   0.104   1.731  12.440  0.0023  0.5778 -0.2161
 4646SOL    HW125574   0.013   1.731  12.470  0.2232 -0.0913  0.4564
 4646SOL    HW225575   0.104   1.670  12.366  1.6942  0.0281  0.2403
 4647SOL     OW25576   3.717   1.522   1.496  0.1529  0.7793 -1.0540
 4647SOL    HW125577   3.725   1.498   1.588 -1.8431 -1.3142 -1.4255
 4647SOL    HW225578   3.629   1.486   1.486  0.5548  0.2305 -2.6982
 4648SOL     OW25579   4.440   2.568   2.279 -0.0462 -0.5662  0.1315
 4648SOL    HW125580   4.397   2.652   2.289  0.0399 -0.6005  0.7991
 4648SOL    HW225581   4.473   2.564   2.190 -0.1979 -0.5930  0.0765
 4649SOL     OW25582   3.202   1.305  17.264  0.2257 -0.3754 -0.0105
 4649SOL    HW125583   3.194   1.372  17.332 -2.2871  0.3993 -1.0767
 4649SOL    HW225584   3.274   1.344  17.216 -1.5132  1.0646 -1.4627
 4650SOL     OW25585   3.113   2.624   3.581 -0.6257 -0.1678 -0.4489
 4650SOL    HW125586   3.145   2.592   3.665 -0.3121 -1.8019 -1.1864
 4650SOL    HW225587   3.180   2.611   3.514  0.3958 -0.1073  0.5769
 4651SOL     OW25588   4.458   3.665   9.455  0.0835 -0.5562  0.0987
 4651SOL    HW125589   4.376   3.670   9.505  0.8093  1.6634  1.0750
 4651SOL    HW225590   4.443   3.629   9.367 -0.9103 -0.7480  0.3430
 4652SOL     OW25591   3.434   3.679   9.456 -0.0832 -0.4927  0.2616
 4652SOL    HW125592   3.423   3.618   9.529  2.0678 -0.7704  0.3561
 4652SOL    HW225593   3.509   3.656   9.401 -0.1438 -1.4012  0.5608
 4653SOL     OW25594   4.276   0.223  11.251  0.3771  0.0072 -0.1317
 4653SOL    HW125595   4.253   0.235  11.344  0.8402 -2.1959  0.2674
 4653SOL    HW225596   4.368   0.248  11.242 -0.3967  2.8449 -0.2775
 4654SOL     OW25597   4.534   4.179  15.466 -0.5288 -0.0999 -0.3650
 4654SOL    HW125598   4.527   4.235  15.389 -0.9774  0.8494  0.3767
 4654SOL    HW225599   4.596   4.231  15.518  1.9813 -1.4906 -1.9518
 4655SOL     OW25600   1.507   4.376  17.722  0.3656  0.4813  0.7126
 4655SOL    HW125601   1.482   4.348  17.634  1.0786  0.2840  0.5790
 4655SOL    HW225602   1.603   4.378  17.725  0.3792  0.9787 -0.0345
 4656SOL     OW25603   2.243   4.380   4.266 -0.0297 -0.0890  0.2111
 4656SOL    HW125604   2.279   4.291   4.270 -2.3395 -1.0403  0.1680
 4656SOL    HW225605   2.289   4.424   4.337  0.1036  1.7085 -0.9884
 4657SOL     OW25606   0.845   4.022   2.391  0.7754 -0.3492  0.5730
 4657SOL    HW125607   0.824   4.033   2.298  2.9358 -0.0966  0.1128
 4657SOL    HW225608   0.777   4.077   2.430 -0.8931 -1.2368 -1.1166
 4658SOL     OW25609   3.503   2.159   4.672  0.4235 -0.1848  0.0191
 4658SOL    HW125610   3.431   2.174   4.733  1.2443 -2.0506  1.4503
 4658SOL    HW225611   3.564   2.108   4.726 -0.1105  1.0014  1.7472
 4659SOL     OW25612   4.488   1.049   8.921 -0.4037 -0.0430 -0.2788
 4659SOL    HW125613   4.532   1.122   8.877  0.7968  0.0330  1.0716
 4659SOL    HW225614   4.518   1.064   9.010 -2.8426 -1.1524  0.7395
 4660SOL     OW25615   1.822   1.999   8.408 -0.1047 -0.4278 -0.0952
 4660SOL    HW125616   1.837   1.961   8.321  0.0857 -1.0406  0.2013
 4660SOL    HW225617   1.788   1.923   8.456 -0.4998  0.5184  1.1215
 4661SOL     OW25618   2.405   2.769   6.073  0.3608  0.0572  0.2025
 4661SOL    HW125619   2.484   2.766   6.019  0.9574 -0.9967  1.1346
 4661SOL    HW225620   2.384   2.676   6.077  0.1535  0.1083  0.2657
 4662SOL     OW25621   2.679   3.499   1.164 -0.0155 -0.3226 -0.5275
 4662SOL    HW125622   2.649   3.442   1.094 -3.3955  1.1638 -0.3109
 4662SOL    HW225623   2.613   3.567   1.148 -0.8951 -1.0256  0.1358
 4663SOL     OW25624   0.970   0.616  10.212 -0.4137  0.1350 -1.0446
 4663SOL    HW125625   1.034   0.648  10.276 -1.1074 -1.0545  0.2348
 4663SOL    HW225626   0.944   0.530  10.245  0.4145  0.3492  0.1857
 4664SOL     OW25627   0.969   4.043   8.003 -0.2035  0.0257  0.0281
 4664SOL    HW125628   0.911   4.090   8.064 -0.8034  1.8608 -1.9456
 4664SOL    HW225629   1.033   4.107   7.972  0.0003 -0.5181 -0.6634
 4665SOL     OW25630   4.387   1.520   9.101  0.0760  0.0795  0.8227
 4665SOL    HW125631   4.384   1.587   9.169 -3.1631  0.1175  0.6319
 4665SOL    HW225632   4.449   1.551   9.035 -2.5492  1.5092 -1.0020
 4666SOL     OW25633   0.544   2.691  12.465 -0.2751 -0.3668 -0.4257
 4666SOL    HW125634   0.582   2.749  12.399 -1.7457  0.6031 -0.4116
 4666SOL    HW225635   0.493   2.755  12.515  0.7432 -0.8156  1.1875
 4667SOL     OW25636   4.245   2.236   9.511  0.0206 -0.0215  0.2298
 4667SOL    HW125637   4.248   2.231   9.607  0.9017  0.7895  0.2402
 4667SOL    HW225638   4.151   2.252   9.506  0.2762  0.8281 -1.5746
 4668SOL     OW25639   0.264   2.713  17.094 -0.0288 -0.3623 -0.0582
 4668SOL    HW125640   0.227   2.762  17.168  1.9274 -2.2950  2.2094
 4668SOL    HW225641   0.261   2.787  17.033  0.6351  0.3711  0.7895
 4669SOL     OW25642   2.068   1.646   5.271 -0.2352  0.2149 -0.1565
 4669SOL    HW125643   2.060   1.553   5.249 -1.0519 -0.5866  3.5463
 4669SOL    HW225644   2.086   1.631   5.364 -1.2170 -0.3482 -0.0604
 4670SOL     OW25645   3.862   2.187  11.865 -0.2882  0.4051  0.3038
 4670SOL    HW125646   3.884   2.276  11.894 -1.2001  1.2526 -1.6289
 4670SOL    HW225647   3.948   2.150  11.843 -0.6376 -0.2976  0.1300
 4671SOL     OW25648   3.555   2.946  17.037 -0.4393 -0.1336  0.0181
 4671SOL    HW125649   3.608   2.868  17.057 -0.9664 -0.6537 -0.6429
 4671SOL    HW225650   3.513   2.950  17.123  0.3884 -2.3340  0.5519
 4672SOL     OW25651   1.271   0.258   5.430 -0.2042 -0.3947  0.5758
 4672SOL    HW125652   1.360   0.286   5.407 -1.4600  2.6246 -0.5086
 4672SOL    HW225653   1.223   0.323   5.379 -0.0869 -2.1093 -1.7415
 4673SOL     OW25654   4.409   3.660   1.656 -0.6889 -0.0831 -0.2183
 4673SOL    HW125655   4.406   3.702   1.742 -1.5164  0.5796 -0.5671
 4673SOL    HW225656   4.499   3.681   1.632 -0.9627  0.5792 -0.6568
 4674SOL     OW25657   0.704   3.466   7.584 -0.8711  0.4450  0.5283
 4674SOL    HW125658   0.636   3.463   7.651  0.6340  1.7326  2.1028
 4674SOL    HW225659   0.748   3.381   7.587  0.3314  1.0516 -0.0649
 4675SOL     OW25660   0.533   2.118   3.233  0.3207 -0.4541 -0.4969
 4675SOL    HW125661   0.485   2.171   3.296  1.5423 -1.0678  0.9535
 4675SOL    HW225662   0.464   2.055   3.211 -0.1122 -0.8439  2.0537
 4676SOL     OW25663   2.176   0.719  15.263  0.4452 -0.0364 -0.3618
 4676SOL    HW125664   2.208   0.710  15.353  0.5560 -1.9460 -0.5966
 4676SOL    HW225665   2.243   0.678  15.208  1.6992  1.9853 -0.3418
 4677SOL     OW25666   0.664   0.938   2.451 -0.0147  0.5146  0.1610
 4677SOL    HW125667   0.715   0.870   2.495  1.9553  2.0234  0.1978
 4677SOL    HW225668   0.585   0.945   2.504 -0.3184  0.2815 -0.2624
 4678SOL     OW25669   3.376   0.205   4.676  0.7641 -0.0008  0.5467
 4678SOL    HW125670   3.340   0.161   4.599 -0.1322  2.3081 -0.3698
 4678SOL    HW225671   3.303   0.254   4.714 -0.8010 -2.3707  0.5660
 4679SOL     OW25672   2.360   4.463   8.607  0.4488 -0.3688  0.4148
 4679SOL    HW125673   2.306   4.393   8.643  1.1493 -0.1099  1.9524
 4679SOL    HW225674   2.427   4.398   8.584  0.1986 -1.0309  1.5559
 4680SOL     OW25675   3.478   4.469  10.896  0.6365  0.0207 -0.2464
 4680SOL    HW125676   3.514   4.474  10.808  1.1290  1.2112  0.0170
 4680SOL    HW225677   3.471   4.375  10.910 -2.2882  0.6294  2.3807
 4681SOL     OW25678   0.222   3.551   0.772  0.2804 -0.5310 -0.3453
 4681SOL    HW125679   0.192   3.477   0.825 -2.7905  0.3121 -0.8785
 4681SOL    HW225680   0.303   3.507   0.746  1.0542  0.0634  1.0611
 4682SOL     OW25681   2.563   1.957   3.675 -0.1916 -0.7959  0.0926
 4682SOL    HW125682   2.562   1.953   3.580 -7.2920  2.0220  0.0771
 4682SOL    HW225683   2.653   1.990   3.683 -0.2737  0.2691 -3.3496
 4683SOL     OW25684   4.540   0.779   9.696  0.1402 -0.3837  0.1827
 4683SOL    HW125685   4.564   0.794   9.787  0.9287  0.9048 -0.2398
 4683SOL    HW225686   4.507   0.689   9.697 -2.1245  0.4302 -0.4117
 4684SOL     OW25687   0.540   1.004   9.293  0.0460  0.2551 -0.2906
 4684SOL    HW125688   0.620   0.953   9.303 -0.1080 -0.2426 -1.5538
 4684SOL    HW225689   0.526   0.957   9.211  1.4501  0.3361 -0.5738
 4685SOL     OW25690   1.031   3.618   6.820  0.3789 -0.5691 -0.0879
 4685SOL    HW125691   1.114   3.585   6.855 -1.5844 -0.9536  4.2307
 4685SOL    HW225692   1.058   3.655   6.736  1.0826  2.9114  1.6870
 4686SOL     OW25693   3.957   0.843   5.360 -0.4782  0.4031 -0.5531
 4686SOL    HW125694   3.893   0.914   5.369 -4.3180 -2.8828 -1.8471
 4686SOL    HW225695   3.948   0.808   5.449  2.4489 -1.0631 -0.8452
 4687SOL     OW25696   4.211   0.289   6.965  0.1027  1.0129  0.0550
 4687SOL    HW125697   4.244   0.234   6.894 -1.3298  1.0666 -0.6373
 4687SOL    HW225698   4.125   0.319   6.938 -0.5761 -0.5194  0.5302
 4688SOL     OW25699   0.466   1.380  13.396 -0.4406  0.0979  1.1781
 4688SOL    HW125700   0.527   1.362  13.467  0.2407 -0.3803  0.4733
 4688SOL    HW225701   0.452   1.473  13.410  0.1652  0.4579 -0.6402
 4689SOL     OW25702   3.708   4.506   6.874  0.6969  0.4260 -0.2276
 4689SOL    HW125703   3.732   4.497   6.782  1.7093  0.7317  0.0052
 4689SOL    HW225704   3.763   4.441   6.918  1.1097  0.0007 -1.3880
 4690SOL     OW25705   4.616   1.995   7.790  0.5168  0.3957  0.2821
 4690SOL    HW125706   4.558   2.070   7.797  0.6946  0.6826 -1.4074
 4690SOL    HW225707   4.681   2.014   7.857 -0.7685 -0.4987  1.7803
 4691SOL     OW25708   3.455   2.024   4.442  0.0507  0.4020  0.4310
 4691SOL    HW125709   3.378   2.077   4.422  0.3361  0.8418  0.5156
 4691SOL    HW225710   3.490   2.077   4.513 -0.0769 -0.7726  1.3752
 4692SOL     OW25711   3.043   2.845   8.322  0.3491 -0.0753  0.2710
 4692SOL    HW125712   3.082   2.766   8.360  1.7044  0.1775 -0.6020
 4692SOL    HW225713   2.967   2.836   8.379  0.5230  0.7605  0.6346
 4693SOL     OW25714   1.634   2.007  11.896 -0.1273  0.1296 -0.0971
 4693SOL    HW125715   1.594   1.924  11.872 -3.0578  0.7357  2.7109
 4693SOL    HW225716   1.617   2.062  11.819  2.3287  0.1521 -0.6302
 4694SOL     OW25717   4.100   3.443   8.621  0.0203  0.0958  0.1230
 4694SOL    HW125718   4.178   3.498   8.623  0.2733 -0.2772  0.4465
 4694SOL    HW225719   4.067   3.465   8.708  0.1334  2.2597 -0.3862
 4695SOL     OW25720   3.327   1.624  16.248 -0.5446 -0.3649  0.0441
 4695SOL    HW125721   3.269   1.697  16.269 -0.1540 -0.4642  1.4735
 4695SOL    HW225722   3.390   1.664  16.189 -1.3845  1.3320  0.2932
 4696SOL     OW25723   1.884   1.555   8.385 -0.5632  0.0853  0.0287
 4696SOL    HW125724   1.825   1.622   8.350  1.4173  1.0669 -1.4104
 4696SOL    HW225725   1.914   1.504   8.310  0.6529  0.0282  0.5479
 4697SOL     OW25726   0.156   3.778   0.872  0.3526 -0.2908 -0.0638
 4697SOL    HW125727   0.231   3.830   0.901  0.3753 -1.4005  1.8570
 4697SOL    HW225728   0.195   3.699   0.834  1.6989  0.0818  0.5438
 4698SOL     OW25729   3.298   3.677   0.697  0.4922 -0.2539 -0.3034
 4698SOL    HW125730   3.260   3.749   0.646 -2.4190 -1.7138 -0.2330
 4698SOL    HW225731   3.391   3.688   0.676  0.2850 -0.0830 -1.1658
 4699SOL     OW25732   3.975   0.412   6.909  0.0665 -0.0951 -0.3616
 4699SOL    HW125733   3.951   0.457   6.990 -0.8388  0.1245 -0.7468
 4699SOL    HW225734   3.913   0.339   6.918 -2.3720  2.0868  0.6516
 4700SOL     OW25735   4.294   3.027   9.836 -0.2323  0.4043 -0.5244
 4700SOL    HW125736   4.361   2.968   9.870  0.8429  0.9916 -1.6129
 4700SOL    HW225737   4.211   2.992   9.867  1.3336 -2.3463  0.5527
 4701SOL     OW25738   1.952   1.983   3.693 -0.4672 -0.1977  0.7089
 4701SOL    HW125739   1.979   2.071   3.666  0.4448 -0.7682 -0.2774
 4701SOL    HW225740   2.036   1.939   3.678  0.3235  2.1483 -1.8366
 4702SOL     OW25741   0.146   4.533   7.715  0.4015  0.2279  0.0704
 4702SOL    HW125742   0.131   4.442   7.690  0.6710  0.7451 -2.0120
 4702SOL    HW225743   0.107   4.546   7.802  1.0675  0.9580  0.2587
 4703SOL     OW25744   2.544   1.906   8.677 -0.2521  0.8001 -0.0846
 4703SOL    HW125745   2.500   1.869   8.754 -0.6132  1.1915 -0.1069
 4703SOL    HW225746   2.543   1.999   8.699  0.0191  0.5685  0.9077
 4704SOL     OW25747   4.647   3.818   8.719 -0.2821 -0.2848 -0.1078
 4704SOL    HW125748   4.683   3.896   8.763 -1.1939  0.1420 -0.1121
 4704SOL    HW225749   4.569   3.802   8.772 -2.0276 -2.4956 -3.3860
 4705SOL     OW25750   3.954   4.438   4.332 -0.0649 -0.1020  0.0865
 4705SOL    HW125751   3.945   4.392   4.248 -1.5017  0.3084  0.0133
 4705SOL    HW225752   3.868   4.446   4.372 -0.0707 -1.0013  0.2448
 4706SOL     OW25753   2.492   2.202   3.803  0.2185 -0.2669 -0.5081
 4706SOL    HW125754   2.529   2.246   3.727 -0.7414  2.1912  0.4438
 4706SOL    HW225755   2.544   2.122   3.802  0.7455  0.0592  1.2534
 4707SOL     OW25756   2.155   1.311  15.886  0.5689  0.8314 -0.0661
 4707SOL    HW125757   2.193   1.398  15.876 -2.7616  2.2725 -0.0637
 4707SOL    HW225758   2.074   1.332  15.933 -0.4389  0.0527 -1.4586
 4708SOL     OW25759   3.408   2.377   7.710  0.0608 -0.0261  0.7474
 4708SOL    HW125760   3.498   2.408   7.717 -0.3946  1.3109  0.7176
 4708SOL    HW225761   3.412   2.367   7.615  2.9788  0.1578  0.8482
 4709SOL     OW25762   1.845   4.329   4.323  0.2643  0.0318  0.6409
 4709SOL    HW125763   1.766   4.278   4.306  1.2307 -2.0933  2.4881
 4709SOL    HW225764   1.840   4.315   4.417  0.8833  0.2245  0.6987
 4710SOL     OW25765   3.625   3.156   0.609 -0.4482 -0.4127 -0.2928
 4710SOL    HW125766   3.643   3.069   0.645 -2.9420 -1.1856 -0.9177
 4710SOL    HW225767   3.651   3.131   0.520 -1.5463 -0.4281 -0.6125
 4711SOL     OW25768   1.840   2.517   5.735  0.0782  0.8075 -0.0436
 4711SOL    HW125769   1.769   2.559   5.783  1.4919  1.2613  1.6515
 4711SOL    HW225770   1.788   2.465   5.674  0.6465 -0.2241  0.3497
 4712SOL     OW25771   2.274   3.841   8.968  0.1802  0.3281 -0.0704
 4712SOL    HW125772   2.264   3.747   8.958  0.0097  0.3503 -0.1148
 4712SOL    HW225773   2.200   3.870   9.022  0.2496 -1.3839  0.9333
 4713SOL     OW25774   3.389   2.138   7.867 -0.5498  0.3824  0.1940
 4713SOL    HW125775   3.384   2.216   7.812  2.0504 -1.0506 -2.0399
 4713SOL    HW225776   3.378   2.173   7.956  1.0829 -0.7706  0.8541
 4714SOL     OW25777   2.033   2.565  10.323 -0.2672 -0.6492 -0.0667
 4714SOL    HW125778   2.100   2.510  10.364 -0.3198 -0.1342  0.7131
 4714SOL    HW225779   1.999   2.621  10.393  1.5707  1.4909 -0.8944
 4715SOL     OW25780   4.249   0.611   6.572 -0.1101  0.2636 -0.1006
 4715SOL    HW125781   4.335   0.570   6.564 -0.9079 -1.0243 -2.3466
 4715SOL    HW225782   4.192   0.537   6.552  0.2147  0.0960 -0.4074
 4716SOL     OW25783   1.530   0.965   0.557 -0.0225 -0.5743 -0.1334
 4716SOL    HW125784   1.554   0.931   0.643  0.5163  0.9053  0.2931
 4716SOL    HW225785   1.563   1.054   0.567 -0.4415 -0.4868  0.5217
 4717SOL     OW25786   0.076   1.621  10.127 -0.2451 -0.5158 -0.3953
 4717SOL    HW125787   4.717   1.603  10.116 -0.5720  0.8386  0.1085
 4717SOL    HW225788   0.075   1.714  10.105 -2.1312 -0.2359  0.9554
 4718SOL     OW25789   4.130   1.258   7.491  0.1648  0.1561  0.5316
 4718SOL    HW125790   4.110   1.168   7.466 -1.5215  0.5549  0.4091
 4718SOL    HW225791   4.223   1.268   7.473 -0.3061 -0.4022 -2.2242
 4719SOL     OW25792   1.092   0.360   5.033 -0.3476  0.3932  0.0553
 4719SOL    HW125793   1.167   0.301   5.024  0.2186  0.9835  0.9400
 4719SOL    HW225794   1.087   0.384   5.125  0.3650  1.5801 -0.2122
 4720SOL     OW25795   1.775   0.762   3.660  0.5499 -0.2183  0.3252
 4720SOL    HW125796   1.702   0.807   3.704  0.0707  0.3207 -1.0018
 4720SOL    HW225797   1.837   0.833   3.675 -1.3918  1.9475 -1.8224
 4721SOL     OW25798   1.671   0.367   2.105  0.5906 -0.4373  0.5747
 4721SOL    HW125799   1.577   0.381   2.118  0.9019  1.1899  1.0555
 4721SOL    HW225800   1.708   0.455   2.115 -0.4624 -0.1004  1.4624
 4722SOL     OW25801   4.298   1.900  10.946  0.5403  0.5363  0.2314
 4722SOL    HW125802   4.332   1.970  10.890  0.0046 -0.2930 -1.1550
 4722SOL    HW225803   4.221   1.865  10.900 -0.3357  1.9547  0.6342
 4723SOL     OW25804   1.186   4.479   5.751  0.3870 -0.2682  0.0620
 4723SOL    HW125805   1.137   4.459   5.830  0.8273 -1.5580  0.0016
 4723SOL    HW225806   1.141   4.467   5.668  1.8318  2.8056 -1.1808
 4724SOL     OW25807   0.122   4.238   6.180  0.6279 -0.2334  0.3511
 4724SOL    HW125808   0.101   4.310   6.239  0.3928  0.2973 -0.3842
 4724SOL    HW225809   0.095   4.157   6.223  0.3587 -0.5484 -0.4125
 4725SOL     OW25810   3.342   3.537   9.125 -0.2901 -0.1237  0.2449
 4725SOL    HW125811   3.325   3.632   9.120 -1.0938 -0.4397 -3.0489
 4725SOL    HW225812   3.418   3.536   9.182 -0.0018  0.3779 -0.1308
 4726SOL     OW25813   2.725   0.640  13.689  0.1133 -0.0443  0.5935
 4726SOL    HW125814   2.663   0.591  13.636  0.6547 -1.7596  1.5560
 4726SOL    HW225815   2.812   0.602  13.672  0.1680  0.8849 -1.2032
 4727SOL     OW25816   4.445   0.199  17.156  0.5841  0.4106  0.2240
 4727SOL    HW125817   4.464   0.210  17.063  0.0677  2.1043  0.3115
 4727SOL    HW225818   4.367   0.145  17.148 -0.1949  1.2101  2.2475
 4728SOL     OW25819   3.945   1.384   8.617 -0.4486  0.1169  0.4117
 4728SOL    HW125820   3.924   1.377   8.710  1.6361  0.0109  0.8875
 4728SOL    HW225821   3.895   1.462   8.593  0.5213  0.4729 -0.4719
 4729SOL     OW25822   3.279   4.291   2.685 -1.1683  0.5136 -0.5042
 4729SOL    HW125823   3.200   4.282   2.739 -0.3255 -1.3923  0.3900
 4729SOL    HW225824   3.265   4.220   2.622  0.7638  1.2330 -1.7526
 4730SOL     OW25825   2.495   2.257   8.694  0.3179 -0.3576 -0.3223
 4730SOL    HW125826   2.458   2.260   8.605 -0.8460 -1.2576  0.1313
 4730SOL    HW225827   2.408   2.266   8.733  0.9306  0.3106  0.8413
 4731SOL     OW25828   3.346   3.458   6.830  0.5308  0.2184  0.4194
 4731SOL    HW125829   3.306   3.492   6.750  1.2624 -0.9509 -0.4418
 4731SOL    HW225830   3.295   3.505   6.897  0.1632 -0.1105  0.3684
 4732SOL     OW25831   2.959   3.335   5.038 -0.3459 -1.1691  0.3245
 4732SOL    HW125832   2.919   3.385   4.967 -1.0498  1.8039  2.8217
 4732SOL    HW225833   2.890   3.332   5.105 -2.2459 -1.4674 -1.6562
 4733SOL     OW25834   4.223   3.309   4.929 -0.6650 -0.1467  0.6222
 4733SOL    HW125835   4.161   3.382   4.937  0.1029  0.6894 -1.0996
 4733SOL    HW225836   4.180   3.259   4.860 -1.2471 -0.8159  1.4573
 4734SOL     OW25837   0.790   4.322   9.702  0.4260 -0.6502 -0.6321
 4734SOL    HW125838   0.779   4.269   9.623 -2.6704 -1.9832  0.7026
 4734SOL    HW225839   0.700   4.346   9.725  1.7903  2.5128  1.3816
 4735SOL     OW25840   3.128   3.616   4.941 -0.1339  0.5600 -0.0332
 4735SOL    HW125841   3.107   3.551   4.875 -0.0892 -0.9107  1.3928
 4735SOL    HW225842   3.133   3.560   5.019  2.2574  1.4268  0.4605
 4736SOL     OW25843   3.663   2.419   6.522 -0.0446 -0.5765 -0.2167
 4736SOL    HW125844   3.735   2.355   6.527 -0.5822 -1.0597  1.4468
 4736SOL    HW225845   3.703   2.491   6.571  0.4157 -0.1484 -1.2253
 4737SOL     OW25846   3.430   1.933   6.081 -0.0964  0.3690  0.1014
 4737SOL    HW125847   3.506   1.972   6.124  0.1626 -0.8380  0.7390
 4737SOL    HW225848   3.474   1.897   6.004  0.1924 -0.8558  0.8468
 4738SOL     OW25849   0.099   1.672   8.593 -0.5908  0.4188  0.0869
 4738SOL    HW125850   0.067   1.582   8.580  1.4604 -0.2295 -0.4107
 4738SOL    HW225851   0.106   1.708   8.505 -2.5514  0.2308 -0.1491
 4739SOL     OW25852   3.484   2.961   5.968 -0.5063  0.2324  0.0380
 4739SOL    HW125853   3.469   3.038   6.023 -2.2045  0.4847 -0.7769
 4739SOL    HW225854   3.403   2.942   5.920 -0.6836 -0.0670  0.4612
 4740SOL     OW25855   3.347   4.629  14.425  0.1502  0.2499  0.0796
 4740SOL    HW125856   3.417   4.566  14.443 -0.1260  0.4571  1.8738
 4740SOL    HW225857   3.388   4.714  14.438 -4.0209  2.1154  0.9538
 4741SOL     OW25858   1.118   0.210   8.543 -0.4371  0.2798 -0.3779
 4741SOL    HW125859   1.202   0.186   8.583 -1.7666  1.4394  3.1533
 4741SOL    HW225860   1.068   0.135   8.575 -0.6037  0.7436  0.4721
 4742SOL     OW25861   0.848   0.708   1.862  1.1107  0.5391 -0.4496
 4742SOL    HW125862   0.875   0.758   1.784  0.9816 -0.0736 -0.8843
 4742SOL    HW225863   0.789   0.649   1.816  1.3387 -0.3678  0.4284
 4743SOL     OW25864   0.842   1.196   5.262 -0.0225  0.5214 -0.5772
 4743SOL    HW125865   0.767   1.204   5.321  0.7399 -1.1183  0.6151
 4743SOL    HW225866   0.804   1.196   5.174  1.2910  0.1879 -1.1360
 4744SOL     OW25867   4.571   4.137  13.793 -0.8942 -0.0336  0.2761
 4744SOL    HW125868   4.551   4.213  13.848  0.5248 -0.0258  0.7646
 4744SOL    HW225869   4.664   4.158  13.784 -1.0856  0.2084 -1.1241
 4745SOL     OW25870   0.070   3.519  13.466  0.6147  0.1707 -0.7625
 4745SOL    HW125871   0.070   3.613  13.483 -0.5051 -0.0617  0.5724
 4745SOL    HW225872   0.121   3.488  13.541 -0.5685  2.1180  0.8580
 4746SOL     OW25873   0.252   3.666   7.939 -0.0361  0.0107 -0.0129
 4746SOL    HW125874   0.286   3.577   7.939  1.4648  0.5951  0.9935
 4746SOL    HW225875   0.331   3.711   7.967 -0.2660  1.2983 -1.4247
 4747SOL     OW25876   2.684   3.961   6.199 -0.3886  0.0770 -0.0519
 4747SOL    HW125877   2.729   3.886   6.159 -0.1170  0.6792 -0.8674
 4747SOL    HW225878   2.614   3.922   6.251 -0.3793  1.6854  1.1583
 4748SOL     OW25879   0.819   2.916   7.103 -0.4115  0.5573 -0.4016
 4748SOL    HW125880   0.849   3.002   7.073  1.2724 -0.2040 -0.8925
 4748SOL    HW225881   0.888   2.864   7.061 -1.8496  1.9300 -4.5250
 4749SOL     OW25882   0.612   2.905  12.318 -0.0614  0.2140 -0.0007
 4749SOL    HW125883   0.655   2.986  12.292 -0.6056  0.9382  1.3472
 4749SOL    HW225884   0.681   2.838  12.321 -0.1854  0.0935  0.2016
 4750SOL     OW25885   2.390   4.470  11.953  0.2644  0.3872 -0.2245
 4750SOL    HW125886   2.367   4.485  12.045 -1.3427 -0.6757 -0.4654
 4750SOL    HW225887   2.467   4.412  11.954 -0.5004 -0.6049  0.3531
 4751SOL     OW25888   1.531   0.190   0.883 -0.1045  0.2709 -0.4563
 4751SOL    HW125889   1.617   0.215   0.849 -0.4200  1.9253 -0.0463
 4751SOL    HW225890   1.564   0.187   0.973 -1.0272 -0.4857 -0.1374
 4752SOL     OW25891   2.638   3.868   7.694  0.1018  0.5849  0.1306
 4752SOL    HW125892   2.592   3.887   7.613 -1.2444  0.3245  0.8417
 4752SOL    HW225893   2.725   3.900   7.667  1.0436 -1.6573  0.4792
 4753SOL     OW25894   2.573   3.057   1.914  0.0384 -0.2290  0.1545
 4753SOL    HW125895   2.588   3.042   2.007 -0.1587  1.0650  0.4051
 4753SOL    HW225896   2.560   2.966   1.888 -1.1301 -0.2623  0.8593
 4754SOL     OW25897   1.927   1.046  17.337 -0.0663 -0.0457 -0.1652
 4754SOL    HW125898   1.915   1.141  17.342 -0.4895 -0.2121  1.6647
 4754SOL    HW225899   1.944   1.025  17.245 -0.5301  1.8968 -0.7004
 4755SOL     OW25900   1.223   1.977  17.585 -0.2938  0.0573  0.3514
 4755SOL    HW125901   1.156   1.971  17.517  1.0678 -1.1414 -0.8985
 4755SOL    HW225902   1.191   1.907  17.640  1.8138  0.6499  2.3118
 4756SOL     OW25903   3.058   0.493   8.624 -0.1132 -0.2487 -0.3231
 4756SOL    HW125904   3.118   0.464   8.693 -2.0753 -1.1498  0.9862
 4756SOL    HW225905   3.082   0.586   8.626  1.8307 -0.6787 -3.4771
 4757SOL     OW25906   2.573   4.435   1.147 -0.1060  0.0775  0.0247
 4757SOL    HW125907   2.526   4.459   1.067 -1.9490 -0.4101  0.9703
 4757SOL    HW225908   2.648   4.385   1.114 -0.1112 -1.5386  2.4903
 4758SOL     OW25909   0.287   4.141   2.907 -0.3381 -0.0422 -0.1804
 4758SOL    HW125910   0.238   4.085   2.968 -1.6823 -0.4045 -1.5942
 4758SOL    HW225911   0.289   4.079   2.834 -0.4525  1.3100 -1.3211
 4759SOL     OW25912   1.452   2.195   8.374 -0.0788  0.3628 -0.1474
 4759SOL    HW125913   1.487   2.250   8.304 -2.5503  1.3319 -0.6171
 4759SOL    HW225914   1.361   2.220   8.360 -0.6846 -3.0065 -2.0604
 4760SOL     OW25915   3.807   4.044  15.410 -0.1526  0.2076  0.1081
 4760SOL    HW125916   3.840   4.032  15.321 -0.9278  0.0999 -0.1591
 4760SOL    HW225917   3.716   4.015  15.406 -0.4596  1.1295  0.3897
 4761SOL     OW25918   1.280   1.540   7.817 -0.1876 -0.4056  0.1390
 4761SOL    HW125919   1.216   1.610   7.810  1.4671  1.1367  0.3707
 4761SOL    HW225920   1.247   1.469   7.762  0.4338  0.6704 -1.6208
 4762SOL     OW25921   3.530   4.204   9.860 -0.4712 -0.4267  0.2639
 4762SOL    HW125922   3.603   4.146   9.879 -0.2136  0.9509  3.4674
 4762SOL    HW225923   3.553   4.246   9.778  1.3522  0.9068  1.4732
 4763SOL     OW25924   3.665   1.577   8.675  0.1130 -0.4312  0.0421
 4763SOL    HW125925   3.611   1.655   8.692 -1.5612 -0.8672 -3.2731
 4763SOL    HW225926   3.723   1.609   8.606 -0.8936  1.6922  0.1659
 4764SOL     OW25927   4.609   3.282  10.595  0.0476  0.2975 -0.2348
 4764SOL    HW125928   4.526   3.313  10.557  0.1163 -1.5694 -1.9361
 4764SOL    HW225929   4.592   3.306  10.686 -0.6706 -0.0214 -0.2845
 4765SOL     OW25930   4.535   0.639   0.516  1.0409  0.4536 -0.2418
 4765SOL    HW125931   4.553   0.550   0.485  0.4426  0.3952 -0.4154
 4765SOL    HW225932   4.479   0.634   0.593 -0.3365 -1.7206 -1.3715
 4766SOL     OW25933   4.027   1.055   4.839  0.0301  0.2856 -0.3205
 4766SOL    HW125934   4.121   1.071   4.826  0.5234 -2.6636 -0.5970
 4766SOL    HW225935   4.030   0.999   4.917 -0.9963  1.8825  0.8530
 4767SOL     OW25936   3.862   4.476   3.528 -0.9505 -0.4220 -0.1589
 4767SOL    HW125937   3.898   4.545   3.584  1.0974 -1.8171  0.2470
 4767SOL    HW225938   3.834   4.529   3.454  0.1053  1.3720  0.7376
 4768SOL     OW25939   0.956   0.599  11.073  0.3818 -0.8229  0.1632
 4768SOL    HW125940   1.051   0.591  11.062  0.3677 -0.9022  0.0997
 4768SOL    HW225941   0.940   0.527  11.134 -0.2893  0.7760  1.8809
 4769SOL     OW25942   1.534   3.971   2.550 -0.4679  0.7708 -0.0472
 4769SOL    HW125943   1.596   3.952   2.620  1.3555 -2.0562 -2.3804
 4769SOL    HW225944   1.475   4.034   2.591  0.4712  1.1205  0.7430
 4770SOL     OW25945   3.644   2.185   8.346  0.3165 -0.2288  0.1591
 4770SOL    HW125946   3.613   2.275   8.360  0.2644 -0.7464  3.4669
 4770SOL    HW225947   3.565   2.132   8.350 -0.1177  0.4467  0.6378
 4771SOL     OW25948   4.229   0.077  13.877 -0.2951 -0.3173  0.2589
 4771SOL    HW125949   4.266   0.092  13.790  1.5872 -0.8747  0.9644
 4771SOL    HW225950   4.200   0.165  13.904  0.1260 -0.2405  0.4552
 4772SOL     OW25951   1.444   4.431   6.846  0.6576  0.0917 -0.3334
 4772SOL    HW125952   1.397   4.382   6.913  1.1674 -0.6617 -0.5239
 4772SOL    HW225953   1.462   4.358   6.788  1.5431  0.8688 -1.0365
 4773SOL     OW25954   3.400   1.169   7.761 -0.1816 -0.7307 -0.1150
 4773SOL    HW125955   3.318   1.128   7.735  0.9294 -2.8011 -0.3632
 4773SOL    HW225956   3.430   1.103   7.824 -1.5073 -1.3396 -0.1338
 4774SOL     OW25957   1.779   3.332   5.984  0.2036  0.0886  0.1020
 4774SOL    HW125958   1.823   3.345   6.068  0.3502 -0.9667  0.1851
 4774SOL    HW225959   1.842   3.379   5.930  1.1232 -2.0953 -0.7301
 4775SOL     OW25960   4.551   2.021   6.693  0.6372  0.0986  0.3724
 4775SOL    HW125961   4.516   1.938   6.724  0.7088  0.2994  0.9823
 4775SOL    HW225962   4.472   2.066   6.662 -0.7600  0.2145  4.1621
 4776SOL     OW25963   1.079   4.303   6.560 -0.1959 -0.1929 -0.1544
 4776SOL    HW125964   1.118   4.384   6.591 -0.9366  0.6405 -1.4229
 4776SOL    HW225965   0.993   4.331   6.530  0.1993 -0.5511 -1.6108
 4777SOL     OW25966   2.324   1.142   2.211 -0.3287 -0.2320  0.5638
 4777SOL    HW125967   2.317   1.169   2.119 -1.8940 -0.4789  0.6164
 4777SOL    HW225968   2.310   1.049   2.197  3.4284 -0.9236  1.3146
 4778SOL     OW25969   4.189   0.561   4.071 -0.1527 -0.2900 -0.2673
 4778SOL    HW125970   4.136   0.640   4.059  0.9155  0.3042 -1.0351
 4778SOL    HW225971   4.263   0.589   4.125  0.1251  2.5599 -2.0931
 4779SOL     OW25972   1.651   0.180   7.455 -0.1628  0.5647  0.7326
 4779SOL    HW125973   1.719   0.153   7.393 -1.4167 -1.2842  0.1599
 4779SOL    HW225974   1.573   0.147   7.409  0.6868 -0.5522  0.0780
 4780SOL     OW25975   3.899   4.494   1.923  0.3482  0.2612  0.0081
 4780SOL    HW125976   3.946   4.422   1.966  1.9279  1.4880  0.3254
 4780SOL    HW225977   3.812   4.453   1.931  1.3997 -2.2076 -1.1014
 4781SOL     OW25978   4.044   1.591  12.967 -0.4078  0.1898  0.6741
 4781SOL    HW125979   3.982   1.523  12.940 -0.8400  0.8753 -0.0999
 4781SOL    HW225980   4.119   1.534  12.982 -1.8637 -1.9658 -0.2979
 4782SOL     OW25981   3.803   2.611  10.183 -0.0783 -0.0269 -0.1323
 4782SOL    HW125982   3.827   2.519  10.170  1.1645 -0.1429  2.9562
 4782SOL    HW225983   3.759   2.623  10.267 -0.2537  2.5163 -0.6013
 4783SOL     OW25984   0.602   3.735   3.581 -0.2271 -0.3470  0.2808
 4783SOL    HW125985   0.594   3.750   3.487 -2.5342 -0.1960  0.5001
 4783SOL    HW225986   0.513   3.702   3.595 -0.2224 -0.5564 -0.1928
 4784SOL     OW25987   3.226   3.012  15.407 -0.1654  0.3690  0.0809
 4784SOL    HW125988   3.253   3.052  15.490  0.8414  0.4325 -0.2856
 4784SOL    HW225989   3.146   2.962  15.423 -1.5633  3.5219  3.0402
 4785SOL     OW25990   0.470   0.196   2.918  0.3622 -0.0374  0.1714
 4785SOL    HW125991   0.430   0.196   2.831  0.0413  3.2927  0.3195
 4785SOL    HW225992   0.443   0.112   2.954  0.1477  0.2845  0.7655
 4786SOL     OW25993   1.156   1.406   3.003 -0.6564 -0.4957 -0.3496
 4786SOL    HW125994   1.128   1.474   2.942 -0.5190 -1.1407 -1.1336
 4786SOL    HW225995   1.132   1.445   3.087 -1.9760 -3.9959  0.9349
 4787SOL     OW25996   4.307   2.664   5.223 -0.0554  0.2202  0.6832
 4787SOL    HW125997   4.330   2.756   5.208 -0.4959  0.2389  0.1407
 4787SOL    HW225998   4.275   2.651   5.133 -2.7315  2.6472  1.3017
 4788SOL     OW25999   3.247   2.702   9.080 -0.0463 -0.5133  0.0873
 4788SOL    HW126000   3.233   2.646   9.003  2.2704  1.8065 -2.0206
 4788SOL    HW226001   3.232   2.791   9.048 -1.4456 -1.2927 -1.4466
 4789SOL     OW26002   1.485   2.128   1.550  0.5881  0.1321  0.3186
 4789SOL    HW126003   1.513   2.106   1.640 -0.0633 -0.4734  0.3667
 4789SOL    HW226004   1.501   2.048   1.500 -0.0935  1.3821 -1.8544
 4790SOL     OW26005   4.535   4.096   0.326 -0.1016 -0.4032 -0.2104
 4790SOL    HW126006   4.551   4.146   0.406  2.4855 -0.0227 -0.9624
 4790SOL    HW226007   4.603   4.128   0.267 -1.0463  3.2260  0.6586
 4791SOL     OW26008   4.656   1.798   2.007 -0.6703  0.7580 -0.0182
 4791SOL    HW126009   4.652   1.894   2.016 -1.1906  0.6511  0.9064
 4791SOL    HW226010   4.618   1.761   2.087  0.8372 -1.3136 -0.2506
 4792SOL     OW26011   1.437   1.263   8.040  0.3243 -0.2239 -0.4703
 4792SOL    HW126012   1.525   1.252   8.077  0.1490  2.6440  0.8526
 4792SOL    HW226013   1.413   1.174   8.014 -0.1787 -0.7071  1.6971
 4793SOL     OW26014   2.554   2.166  17.600  0.1796  0.2725 -0.0998
 4793SOL    HW126015   2.588   2.135  17.684  2.0681  0.1451 -0.9009
 4793SOL    HW226016   2.544   2.258  17.621 -0.2167 -0.0924  1.2855
 4794SOL     OW26017   3.331   3.611   1.105  0.1370 -0.1971 -0.6296
 4794SOL    HW126018   3.350   3.571   1.020 -0.4005  2.8019 -2.1684
 4794SOL    HW226019   3.404   3.577   1.158  0.1952  1.3516  0.3120
 4795SOL     OW26020   4.476   1.033   7.597 -0.5319 -0.3863 -0.1785
 4795SOL    HW126021   4.547   1.048   7.659 -0.5267 -1.1205 -0.0045
 4795SOL    HW226022   4.526   1.018   7.516  2.6589 -0.1100  1.7423
 4796SOL     OW26023   3.538   0.070   5.737 -0.4376 -0.4114  0.0897
 4796SOL    HW126024   3.580   0.084   5.652 -0.0214 -1.5174  0.1151
 4796SOL    HW226025   3.447   0.087   5.714 -0.4542 -1.2924 -0.4730
 4797SOL     OW26026   0.776   0.272   7.734 -0.1899  0.0354 -0.1541
 4797SOL    HW126027   0.851   0.256   7.791  0.1771 -1.6015 -1.0756
 4797SOL    HW226028   0.711   0.310   7.793  1.1127  0.2579  1.1209
 4798SOL     OW26029   0.022   1.687  11.797  0.3034 -0.2497  0.1863
 4798SOL    HW126030   4.719   1.773  11.778  1.7998  0.4274  0.3178
 4798SOL    HW226031   4.678   1.640  11.766 -0.3805  0.5481  0.7248
 4799SOL     OW26032   0.701   0.691   5.240  0.4438 -0.3270  0.1187
 4799SOL    HW126033   0.706   0.596   5.229  2.7123 -0.0100 -1.4048
 4799SOL    HW226034   0.629   0.696   5.304  0.1661  4.1736 -0.5250
 4800SOL     OW26035   2.832   0.128   4.709  0.2676 -0.1422  0.3475
 4800SOL    HW126036   2.780   0.072   4.652  0.0692  0.7764 -0.3743
 4800SOL    HW226037   2.916   0.083   4.705  0.4885  0.1634  1.5953
 4801SOL     OW26038   2.131   0.900   5.107  0.5461 -0.4723  0.2811
 4801SOL    HW126039   2.131   0.913   5.201  0.5400 -1.0779  0.3684
 4801SOL    HW226040   2.074   0.823   5.093  1.2992 -0.7644 -1.2113
 4802SOL     OW26041   2.589   1.967   3.050  0.2411 -0.1006  0.1286
 4802SOL    HW126042   2.592   1.920   2.966 -0.4961  0.3197 -0.1388
 4802SOL    HW226043   2.513   2.024   3.037 -1.3378 -1.5686  3.0071
 4803SOL     OW26044   3.821   0.863   3.011 -0.4887 -0.1744  0.2889
 4803SOL    HW126045   3.833   0.918   2.934  1.5310  0.1544  0.8400
 4803SOL    HW226046   3.729   0.836   3.013 -0.1549 -1.3974 -0.7935
 4804SOL     OW26047   0.108   0.940   6.892  0.3934 -0.4638  0.3930
 4804SOL    HW126048   0.035   1.003   6.892  0.1637 -0.7311 -1.6663
 4804SOL    HW226049   0.173   1.002   6.859  0.5327 -0.8484 -0.0485
 4805SOL     OW26050   0.910   2.356   9.199  0.1774  0.0883 -0.2411
 4805SOL    HW126051   0.889   2.292   9.130 -3.0915  0.5173  0.3153
 4805SOL    HW226052   0.983   2.309   9.239  1.4434  0.5947 -1.9936
 4806SOL     OW26053   1.407   0.497  11.728 -0.6529 -0.6184 -0.0924
 4806SOL    HW126054   1.398   0.412  11.684  5.1015 -0.4485 -1.5518
 4806SOL    HW226055   1.471   0.471  11.794  0.7641  0.3280 -1.1198
 4807SOL     OW26056   1.014   2.181   6.759  0.4675  0.1084  0.1603
 4807SOL    HW126057   1.043   2.242   6.691 -0.0458  1.8154  1.4711
 4807SOL    HW226058   1.080   2.208   6.823  3.6005  0.1662 -3.1682
 4808SOL     OW26059   4.214   1.249  13.456 -0.4804  0.1303 -0.3299
 4808SOL    HW126060   4.246   1.329  13.414  1.5414 -0.1985  0.5566
 4808SOL    HW226061   4.134   1.277  13.499  0.4734  1.2613  0.6977
 4809SOL     OW26062   4.197   2.453   2.051  0.0809 -0.1003 -0.2821
 4809SOL    HW126063   4.262   2.523   2.046 -0.4458  0.4588  0.6034
 4809SOL    HW226064   4.247   2.371   2.060  0.1517 -0.1862 -1.4534
 4810SOL     OW26065   0.325   1.940   5.601 -0.1128 -0.7073 -0.1806
 4810SOL    HW126066   0.236   1.943   5.565  0.2573  1.4436 -0.9040
 4810SOL    HW226067   0.296   1.931   5.692 -0.1532  0.2285 -0.1030
 4811SOL     OW26068   3.294   0.175   5.671  0.1933  0.1342 -0.2306
 4811SOL    HW126069   3.301   0.205   5.761 -0.2538  1.2603 -0.5674
 4811SOL    HW226070   3.345   0.235   5.616 -1.0043  3.8871  2.7787
 4812SOL     OW26071   2.026   3.698   7.269 -0.2575  0.1997  0.3169
 4812SOL    HW126072   1.951   3.693   7.328  0.5816 -0.5279  1.3215
 4812SOL    HW226073   1.979   3.725   7.190 -0.0152  0.8800  0.4075
 4813SOL     OW26074   0.737   4.149   6.070 -0.3398 -0.6844  0.2502
 4813SOL    HW126075   0.646   4.120   6.079 -0.2976 -0.7437  0.4897
 4813SOL    HW226076   0.749   4.159   5.976  2.5739  0.8199  0.7733
 4814SOL     OW26077   0.440   0.025   7.805 -0.2126 -0.7144  0.0523
 4814SOL    HW126078   0.476   0.044   7.719 -0.4049 -2.1219 -0.3488
 4814SOL    HW226079   0.435   0.115   7.837 -1.3106 -0.3419 -1.1474
 4815SOL     OW26080   1.322   2.400   3.241 -0.1489  0.5119 -0.5926
 4815SOL    HW126081   1.283   2.313   3.247 -1.3447  1.1600  0.9419
 4815SOL    HW226082   1.375   2.394   3.321  0.4297  1.1611 -0.9295
 4816SOL     OW26083   0.118   4.592   6.096  0.0423 -0.7939 -0.0733
 4816SOL    HW126084   0.028   4.562   6.084 -0.3057 -0.0655  0.6833
 4816SOL    HW226085   0.136   4.664   6.035 -3.1057  2.5883  2.9711
 4817SOL     OW26086   1.803   2.194  12.805  0.2174 -0.1564  0.2811
 4817SOL    HW126087   1.818   2.282  12.838 -0.3350 -0.2325  0.7399
 4817SOL    HW226088   1.744   2.157  12.871 -1.1065  1.1133 -0.1813
 4818SOL     OW26089   4.364   0.192  13.653 -0.1528  0.3839 -0.4768
 4818SOL    HW126090   4.388   0.273  13.699 -1.3299  0.3512  0.1765
 4818SOL    HW226091   4.370   0.229  13.565  0.2166  0.3318 -0.4749
 4819SOL     OW26092   3.682   1.093   2.544 -0.4969 -0.1036 -0.5774
 4819SOL    HW126093   3.597   1.073   2.583  0.2521 -1.4103  0.3815
 4819SOL    HW226094   3.659   1.162   2.481 -1.3406 -1.5784 -1.8705
 4820SOL     OW26095   4.504   0.303  10.747 -0.1094 -0.2413 -0.2186
 4820SOL    HW126096   4.500   0.372  10.813  2.0747  1.2763 -1.6791
 4820SOL    HW226097   4.480   0.232  10.807 -1.0191  0.9766  0.8552
 4821SOL     OW26098   2.417   3.446   4.515  0.2706  0.3479 -0.1794
 4821SOL    HW126099   2.418   3.533   4.555 -0.9315  1.2606 -2.1824
 4821SOL    HW226100   2.484   3.399   4.565  0.0197  0.9436  0.7195
 4822SOL     OW26101   0.406   2.909   5.461  0.0789 -0.3155 -0.4433
 4822SOL    HW126102   0.446   2.901   5.547  0.8453 -1.9634 -0.9592
 4822SOL    HW226103   0.382   2.821   5.432  0.8239 -0.8206  0.5103
 4823SOL     OW26104   3.106   2.764   6.241 -0.3032 -0.2467  0.1919
 4823SOL    HW126105   3.098   2.859   6.252 -0.7435 -0.2788  0.1484
 4823SOL    HW226106   3.161   2.743   6.317 -0.8690  1.0298  0.9558
 4824SOL     OW26107   2.940   0.460  17.409 -0.2319  0.1347  0.3362
 4824SOL    HW126108   2.902   0.474  17.322 -0.6580 -0.4337  0.4330
 4824SOL    HW226109   2.992   0.380  17.399  0.5370  0.7091 -0.2956
 4825SOL     OW26110   2.351   0.715   5.116 -0.6093  0.5498  0.7482
 4825SOL    HW126111   2.308   0.801   5.112 -0.5020  0.3653 -4.3197
 4825SOL    HW226112   2.385   0.707   5.027  0.5405  1.0564  1.1445
 4826SOL     OW26113   3.310   0.240   6.189  0.1388  0.6494 -0.4255
 4826SOL    HW126114   3.356   0.302   6.245  0.0176 -0.2595  0.6655
 4826SOL    HW226115   3.222   0.237   6.225  0.8021 -0.1223  1.1281
 4827SOL     OW26116   2.379   2.869   4.622  0.0336  0.5665  0.0056
 4827SOL    HW126117   2.344   2.927   4.554 -1.8357 -2.1234 -1.3055
 4827SOL    HW226118   2.383   2.789   4.570 -1.8982  0.6820 -0.3052
 4828SOL     OW26119   1.195   0.231   2.710  0.2038 -0.6109 -0.4995
 4828SOL    HW126120   1.205   0.142   2.673 -1.5533 -0.6512 -0.8770
 4828SOL    HW226121   1.217   0.214   2.801 -0.8280 -1.7685 -0.4733
 4829SOL     OW26122   1.470   3.057  16.555 -0.4962  0.3523 -0.1178
 4829SOL    HW126123   1.447   2.993  16.622  0.9111 -0.6385 -0.5965
 4829SOL    HW226124   1.457   2.997  16.482  1.8943 -0.9311  0.5301
 4830SOL     OW26125   4.128   1.763   3.518 -0.0569 -0.1446 -0.2092
 4830SOL    HW126126   4.038   1.761   3.485 -1.1072  1.0573  2.5754
 4830SOL    HW226127   4.145   1.856   3.505  1.1703 -0.3360  0.0463
 4831SOL     OW26128   3.761   3.726   9.523  0.2964  0.1638 -0.3778
 4831SOL    HW126129   3.831   3.791   9.515  0.8220 -0.4866 -0.9992
 4831SOL    HW226130   3.706   3.744   9.447 -0.7946  0.3437  0.4491
 4832SOL     OW26131   0.131   0.334  17.298 -0.5271  0.0471 -0.5428
 4832SOL    HW126132   0.109   0.327  17.205 -3.5097 -2.4574  0.3354
 4832SOL    HW226133   0.049   0.309  17.341  0.1064  1.2325  1.3419
 4833SOL     OW26134   1.562   2.115   6.893 -0.0281 -0.1348 -0.0016
 4833SOL    HW126135   1.585   2.087   6.804  0.2290  1.5237 -0.4573
 4833SOL    HW226136   1.528   2.036   6.935  1.3830 -0.5606  0.3468
 4834SOL     OW26137   3.622   0.668   6.795 -0.1620  0.2780  0.1711
 4834SOL    HW126138   3.586   0.580   6.804 -1.0753  0.4934 -1.4899
 4834SOL    HW226139   3.577   0.707   6.870 -0.7129 -1.2380  0.6285
 4835SOL     OW26140   2.606   2.423  14.338  0.4436 -0.1198  1.0809
 4835SOL    HW126141   2.526   2.476  14.342  0.7723  0.3219  1.6923
 4835SOL    HW226142   2.572   2.342  14.376  0.7502 -0.7489  0.0073
 4836SOL     OW26143   4.091   0.185   1.593 -0.0449 -0.3226  0.4367
 4836SOL    HW126144   4.073   0.126   1.666  0.7850 -0.1767  0.7712
 4836SOL    HW226145   4.016   0.165   1.538 -0.2578 -0.4589  0.7764
 4837SOL     OW26146   0.813   0.874   6.396 -0.3930  0.0754  0.2927
 4837SOL    HW126147   0.731   0.877   6.445 -1.3841 -1.0008 -1.3000
 4837SOL    HW226148   0.848   0.962   6.406 -0.0225 -0.0209 -0.1407
 4838SOL     OW26149   0.813   2.539  12.822 -0.1735 -0.2727 -0.8493
 4838SOL    HW126150   0.800   2.604  12.892 -0.5555  0.7390 -1.8634
 4838SOL    HW226151   0.828   2.591  12.743 -1.0873 -0.5341 -1.1988
 4839SOL     OW26152   4.579   1.988   4.626 -0.0329  0.0450 -0.5266
 4839SOL    HW126153   4.625   1.955   4.703 -1.7982  0.0378  0.5024
 4839SOL    HW226154   4.489   1.959   4.635 -0.4200  1.4898  0.1075
 4840SOL     OW26155   4.660   3.406   2.323 -0.0836 -0.3697  0.2462
 4840SOL    HW126156   4.618   3.482   2.364  2.2117  2.6890 -3.0687
 4840SOL    HW226157   4.583   3.353   2.304 -1.2641  1.2499  0.5176
 4841SOL     OW26158   0.408   3.119   8.564  0.2737  0.2885 -0.1127
 4841SOL    HW126159   0.319   3.136   8.594 -0.2363  0.2928 -1.6443
 4841SOL    HW226160   0.414   3.122   8.469  0.6686 -1.1360 -0.1194
 4842SOL     OW26161   2.509   0.886   7.982  0.3851 -0.4715 -0.3590
 4842SOL    HW126162   2.478   0.977   7.987  0.9054 -0.2450 -1.1844
 4842SOL    HW226163   2.443   0.843   8.036  1.0529 -1.3626 -0.2623
 4843SOL     OW26164   2.168   3.137   4.193 -0.1595  0.3342  0.0079
 4843SOL    HW126165   2.118   3.058   4.172 -0.7798  0.6608  0.2333
 4843SOL    HW226166   2.228   3.116   4.264 -1.4757  0.1382  1.0670
 4844SOL     OW26167   0.179   2.721   7.076  0.0733  0.0523 -0.3453
 4844SOL    HW126168   0.123   2.644   7.090 -1.4282  1.0617 -0.7511
 4844SOL    HW226169   0.257   2.692   7.029 -0.3447  0.7041 -1.4392
 4845SOL     OW26170   0.595   0.243  14.208  0.1547  0.6229 -0.2608
 4845SOL    HW126171   0.616   0.239  14.115 -0.4969 -3.4350 -0.2218
 4845SOL    HW226172   0.683   0.265  14.240  0.1810 -1.4715  1.0824
 4846SOL     OW26173   2.149   0.769   9.511  0.0756 -0.1569 -0.0822
 4846SOL    HW126174   2.206   0.701   9.475  0.5239 -0.4945  1.2591
 4846SOL    HW226175   2.199   0.840   9.471  0.8561 -1.0488 -0.6798
 4847SOL     OW26176   1.016   1.622  11.273 -0.1603 -0.2619  0.0070
 4847SOL    HW126177   1.009   1.537  11.315 -0.6530 -0.0120  0.4283
 4847SOL    HW226178   0.971   1.605  11.191 -0.3528 -1.5971  0.3978
 4848SOL     OW26179   1.447   1.052   6.102 -0.0783 -0.8461  0.2281
 4848SOL    HW126180   1.535   1.091   6.097  0.5317 -1.9281  2.6603
 4848SOL    HW226181   1.466   0.962   6.127  2.4368 -0.4179 -0.1062
 4849SOL     OW26182   4.045   4.632   2.504  0.0588 -0.0515  0.1812
 4849SOL    HW126183   4.096   4.588   2.571  0.5367  3.6237  2.2613
 4849SOL    HW226184   4.110   4.686   2.459 -0.8775  1.3076  0.4311
 4850SOL     OW26185   1.853   1.389   1.026 -0.2754  0.1775  0.0900
 4850SOL    HW126186   1.876   1.392   0.933 -0.9956  0.0974 -0.0878
 4850SOL    HW226187   1.919   1.324   1.051 -0.8389 -0.6774 -0.6543
 4851SOL     OW26188   3.773   2.359   9.780  0.5300 -0.3327 -0.6492
 4851SOL    HW126189   3.859   2.318   9.784  1.4396  1.8424  1.8801
 4851SOL    HW226190   3.791   2.442   9.824  0.4573 -0.5209 -0.2700
 4852SOL     OW26191   2.028   2.912   3.561  0.6205 -0.1609  0.7099
 4852SOL    HW126192   2.005   2.960   3.481 -0.4845 -2.5616 -0.4106
 4852SOL    HW226193   1.985   2.828   3.543 -0.1972  0.5923 -0.9307
 4853SOL     OW26194   0.669   3.228   8.562 -0.2177 -0.0932 -0.5121
 4853SOL    HW126195   0.635   3.290   8.498 -1.3631  0.8435  1.0087
 4853SOL    HW226196   0.594   3.170   8.575  1.6197 -2.0924  1.1325
 4854SOL     OW26197   2.427   2.162  17.349 -0.0866  0.2905  0.1093
 4854SOL    HW126198   2.405   2.070  17.367 -0.5878 -0.0198 -2.0867
 4854SOL    HW226199   2.478   2.179  17.428  1.5869 -0.4982 -0.8114
 4855SOL     OW26200   3.964   2.512  13.091  0.1873  0.0150  0.1728
 4855SOL    HW126201   3.907   2.588  13.077 -0.4780 -0.4665  0.2713
 4855SOL    HW226202   4.035   2.557  13.137 -1.9800  1.5649  1.9610
 4856SOL     OW26203   0.282   4.273  12.705 -0.0586  0.0062 -0.2614
 4856SOL    HW126204   0.226   4.228  12.643 -1.8450  0.5351  0.9855
 4856SOL    HW226205   0.360   4.289  12.652  0.0159 -2.0166 -0.7781
 4857SOL     OW26206   2.551   1.093   5.792 -0.3838 -0.4376  0.0090
 4857SOL    HW126207   2.601   1.026   5.745 -2.0482  0.7587 -3.4894
 4857SOL    HW226208   2.515   1.159   5.733  0.4773 -1.5147 -1.7337
 4858SOL     OW26209   2.851   0.398   4.932  0.1262  0.0959 -0.4359
 4858SOL    HW126210   2.863   0.427   4.842 -0.4599  1.4851 -0.0794
 4858SOL    HW226211   2.909   0.456   4.981  0.5466 -0.5817 -0.1384
 4859SOL     OW26212   3.543   3.102   9.626  0.1438 -0.1429  0.1303
 4859SOL    HW126213   3.516   3.117   9.536  1.1704 -1.3854 -0.3792
 4859SOL    HW226214   3.526   3.010   9.642  1.9515 -0.5198 -0.0741
 4860SOL     OW26215   2.296   0.354   7.758  0.2247  0.2341  0.3697
 4860SOL    HW126216   2.351   0.318   7.826  1.1051 -1.2164 -1.1111
 4860SOL    HW226217   2.354   0.415   7.712 -0.6251  0.3606 -0.5614
 4861SOL     OW26218   2.923   4.322   6.976 -0.4332  0.0897  0.3661
 4861SOL    HW126219   2.971   4.390   6.928  0.4636 -1.5039 -0.9907
 4861SOL    HW226220   2.899   4.374   7.052  0.3460  1.5021 -0.3603
 4862SOL     OW26221   3.581   3.332   3.128  0.2752  0.2781 -0.0533
 4862SOL    HW126222   3.614   3.421   3.136 -1.0935  0.8296 -0.6638
 4862SOL    HW226223   3.543   3.329   3.215 -0.3674 -1.8174 -0.3989
 4863SOL     OW26224   2.811   2.358  16.177 -0.1203  1.1631 -0.1518
 4863SOL    HW126225   2.897   2.336  16.212 -1.1264 -0.7538  1.1646
 4863SOL    HW226226   2.826   2.452  16.173  0.0578  1.1795  0.9812
 4864SOL     OW26227   2.332   4.428   8.062 -0.3089  0.5849 -0.6572
 4864SOL    HW126228   2.386   4.403   8.137  0.9070 -2.6570 -2.5815
 4864SOL    HW226229   2.355   4.364   7.994  0.5598  0.1832  0.0166
 4865SOL     OW26230   0.768   2.173  15.896  0.0912  0.0453  0.0848
 4865SOL    HW126231   0.784   2.264  15.870 -1.4048 -0.0569 -1.1256
 4865SOL    HW226232   0.807   2.185  15.983  2.3078  0.0134 -0.8892
 4866SOL     OW26233   1.296   2.063   4.852 -0.7346 -0.2416 -0.1800
 4866SOL    HW126234   1.273   2.049   4.760 -0.2548  1.5452 -0.5698
 4866SOL    HW226235   1.386   2.038   4.869 -0.9538 -0.2156  1.0315
 4867SOL     OW26236   0.334   1.128  10.659 -0.3976 -0.2728  0.5139
 4867SOL    HW126237   0.285   1.200  10.619 -1.6986 -3.5884 -3.8833
 4867SOL    HW226238   0.280   1.051  10.640  0.2199  0.0475 -2.5520
 4868SOL     OW26239   2.657   2.788   4.765 -0.2967 -0.2980 -0.1122
 4868SOL    HW126240   2.728   2.843   4.798  0.2679 -1.0008 -0.1467
 4868SOL    HW226241   2.601   2.772   4.841  0.5128 -4.0146 -0.3255
 4869SOL     OW26242   2.940   0.492   7.734 -0.4841  0.4469  0.2037
 4869SOL    HW126243   2.991   0.472   7.813 -1.8741 -2.7647  0.2925
 4869SOL    HW226244   2.925   0.408   7.690 -0.3831  0.0211  0.9805
 4870SOL     OW26245   4.150   4.602   4.721  0.0124  0.2127  0.0307
 4870SOL    HW126246   4.228   4.611   4.776  1.2344  0.8955 -1.7992
 4870SOL    HW226247   4.133   4.695   4.706  0.1317  0.3231  0.5836
 4871SOL     OW26248   2.944   2.361   9.802  0.1876 -0.5045 -0.1707
 4871SOL    HW126249   3.012   2.414   9.761  0.7278  0.8553  2.4766
 4871SOL    HW226250   2.894   2.427   9.850 -0.5126 -1.7684  0.8462
 4872SOL     OW26251   3.939   3.213   7.533 -0.1505 -0.0236 -0.2471
 4872SOL    HW126252   3.919   3.303   7.559  1.2676  0.0744  0.4793
 4872SOL    HW226253   3.906   3.215   7.443 -1.7071 -0.7841  0.2927
 4873SOL     OW26254   0.560   3.095   3.595 -0.3473  0.2029  0.8354
 4873SOL    HW126255   0.473   3.136   3.598 -0.0154  0.9671  0.2326
 4873SOL    HW226256   0.553   3.011   3.639  1.9537  0.0696  0.9182
 4874SOL     OW26257   3.608   2.132   3.389  0.3082  0.1647  0.3971
 4874SOL    HW126258   3.601   2.055   3.446 -1.0796  0.5461  0.7284
 4874SOL    HW226259   3.593   2.202   3.453 -0.5200  0.0338  0.3490
 4875SOL     OW26260   4.375   4.392   6.227 -0.1318 -0.0631 -0.2767
 4875SOL    HW126261   4.315   4.354   6.291 -0.0149  1.7210  0.8834
 4875SOL    HW226262   4.454   4.341   6.240  0.6175  1.1184 -0.2091
 4876SOL     OW26263   2.691   1.824  17.315 -0.6631  0.2893 -0.4117
 4876SOL    HW126264   2.704   1.897  17.376 -2.8367  0.7336 -0.4848
 4876SOL    HW226265   2.596   1.825  17.308 -0.7345  0.0995  0.6741
 4877SOL     OW26266   1.213   4.559   8.735 -0.4627  0.1949  0.1007
 4877SOL    HW126267   1.147   4.614   8.695 -2.7351 -0.4635  2.9346
 4877SOL    HW226268   1.219   4.494   8.665  2.0467  0.0160  0.4561
 4878SOL     OW26269   0.186   0.521  12.719  0.3403  0.0646  0.2800
 4878SOL    HW126270   0.224   0.462  12.784  0.3651 -1.0848 -0.7811
 4878SOL    HW226271   0.097   0.519  12.754  0.3615 -0.6959  0.2835
 4879SOL     OW26272   2.248   3.486   9.822  0.3741  0.1614 -0.0661
 4879SOL    HW126273   2.202   3.455   9.900 -0.1007  1.4605  0.1587
 4879SOL    HW226274   2.337   3.484   9.856  0.5343 -0.3991 -0.5164
 4880SOL     OW26275   2.876   4.355   7.827 -0.2965 -0.3592 -0.7032
 4880SOL    HW126276   2.855   4.401   7.908 -1.9529  1.8749 -2.3701
 4880SOL    HW226277   2.876   4.265   7.857  0.7377  0.0670  0.5868
 4881SOL     OW26278   3.582   4.442   8.843 -0.0132 -0.2350  0.1766
 4881SOL    HW126279   3.496   4.401   8.846  0.1681 -0.5292  1.2550
 4881SOL    HW226280   3.643   4.369   8.847  0.9614  0.4658 -1.6499
 4882SOL     OW26281   3.392   4.653   4.902  0.3381 -0.2302 -0.6011
 4882SOL    HW126282   3.351   4.635   4.817 -0.4962 -1.9456  0.1606
 4882SOL    HW226283   3.358   0.003   4.934 -1.6388 -0.8472 -1.0981
 4883SOL     OW26284   3.141   1.885  14.823  0.9048 -0.0279  0.7153
 4883SOL    HW126285   3.096   1.880  14.908 -0.7724 -1.4771 -0.2535
 4883SOL    HW226286   3.235   1.875  14.838  1.4624  1.3858 -1.9606
 4884SOL     OW26287   3.602   3.298   9.813  0.2467 -0.0804  0.1939
 4884SOL    HW126288   3.655   3.349   9.751  1.7834 -1.0673  0.6728
 4884SOL    HW226289   3.587   3.228   9.750 -2.2301 -0.4131  1.1777
 4885SOL     OW26290   3.452   2.835  15.276  0.3992  0.2400 -0.4106
 4885SOL    HW126291   3.366   2.845  15.317  0.4161  0.8777 -0.5377
 4885SOL    HW226292   3.430   2.866  15.189 -1.2390  0.7216  0.1784
 4886SOL     OW26293   3.428   0.637   0.546 -0.4209 -0.3174  0.0090
 4886SOL    HW126294   3.365   0.651   0.617  0.4570 -3.5724  1.4244
 4886SOL    HW226295   3.503   0.626   0.604 -0.2548  0.1252 -0.1186
 4887SOL     OW26296   4.369   3.276  11.962  0.0511 -0.5686 -0.2268
 4887SOL    HW126297   4.353   3.274  12.057  1.2827 -0.1414 -0.0064
 4887SOL    HW226298   4.465   3.277  11.955 -0.0807  1.4164 -1.7460
 4888SOL     OW26299   0.533   3.692  15.764 -0.5606 -0.7798 -0.2765
 4888SOL    HW126300   0.497   3.603  15.762  0.6707 -1.3626  2.7699
 4888SOL    HW226301   0.627   3.673  15.770 -0.8615 -1.5574  2.2493
 4889SOL     OW26302   1.569   2.524   1.117  0.7472  0.1320 -0.3018
 4889SOL    HW126303   1.515   2.449   1.091  1.7631 -0.1017 -1.7554
 4889SOL    HW226304   1.544   2.534   1.209 -1.2074  0.2106 -0.8332
 4890SOL     OW26305   0.963   1.854   0.718 -0.4089  0.3865 -0.4186
 4890SOL    HW126306   0.906   1.842   0.794  0.9899 -0.9179  0.4238
 4890SOL    HW226307   1.007   1.935   0.744  2.3113 -1.1224 -0.2261
 4891SOL     OW26308   1.327   2.463  12.963  0.2071 -0.0519 -0.2471
 4891SOL    HW126309   1.388   2.392  12.939  0.4833 -0.3684  1.3856
 4891SOL    HW226310   1.387   2.510  13.021  0.5082  0.5575 -1.0507
 4892SOL     OW26311   2.823   2.580   7.257  0.1407  0.2884 -0.2480
 4892SOL    HW126312   2.904   2.529   7.254 -0.2806 -0.4909  1.5477
 4892SOL    HW226313   2.837   2.645   7.189  2.3194  3.1604  2.9811
 4893SOL     OW26314   3.558   2.983  10.241  0.2634 -0.4054  0.0170
 4893SOL    HW126315   3.538   2.935  10.161  1.9152  1.2440 -1.3691
 4893SOL    HW226316   3.591   3.065  10.204 -0.1345 -0.9638 -1.5779
 4894SOL     OW26317   0.897   3.003  13.043 -0.1620 -0.3177  0.3313
 4894SOL    HW126318   0.831   3.041  13.101 -0.1990 -1.8472  1.2926
 4894SOL    HW226319   0.847   3.018  12.963  0.5593 -0.1775 -0.0972
 4895SOL     OW26320   1.220   2.948   8.945  0.0525 -0.5829  0.2927
 4895SOL    HW126321   1.136   2.904   8.948  0.1948 -0.7541  1.6251
 4895SOL    HW226322   1.197   3.041   8.955  0.7141 -0.4168  0.2930
 4896SOL     OW26323   4.668   4.083   4.210 -0.4046  0.3222  0.9237
 4896SOL    HW126324   4.702   4.142   4.142  0.0173 -1.9845 -0.8489
 4896SOL    HW226325   4.705   4.002   4.177 -2.4952  0.1702 -1.0620
 4897SOL     OW26326   0.266   3.610   7.475  0.4662 -0.1051 -0.4096
 4897SOL    HW126327   0.329   3.622   7.546  1.7688 -0.1572 -1.5753
 4897SOL    HW226328   0.227   3.532   7.515  0.2201 -0.0816 -0.5997
 4898SOL     OW26329   1.556   3.520   2.620 -0.0292 -0.1148 -0.4260
 4898SOL    HW126330   1.579   3.524   2.528  3.0623  1.8770  0.4250
 4898SOL    HW226331   1.604   3.601   2.641 -2.6210  0.5833  2.8865
 4899SOL     OW26332   2.875   1.504   5.362  0.1625 -0.2970  0.0656
 4899SOL    HW126333   2.933   1.529   5.434 -2.8493 -1.6008  2.9318
 4899SOL    HW226334   2.791   1.508   5.409  0.3275 -0.8607  0.4044
 4900SOL     OW26335   2.583   2.374   7.005  0.2961  0.4568  0.5808
 4900SOL    HW126336   2.590   2.468   6.990 -1.8683  0.3921 -0.8545
 4900SOL    HW226337   2.494   2.371   7.040  0.3465 -0.7474  0.6298
 4901SOL     OW26338   0.893   0.461   2.214 -0.5441 -0.5632  0.5637
 4901SOL    HW126339   0.828   0.515   2.260  1.6868  1.3521  1.4766
 4901SOL    HW226340   0.969   0.518   2.226 -1.1426 -0.0943  2.1152
 4902SOL     OW26341   1.638   0.761   9.126 -0.5961  0.3897 -0.2096
 4902SOL    HW126342   1.594   0.678   9.143  0.7312 -0.4210 -0.6545
 4902SOL    HW226343   1.718   0.752   9.178 -0.8197  0.9827  0.2226
 4903SOL     OW26344   4.317   4.085   2.514 -0.4706  0.4745  0.2841
 4903SOL    HW126345   4.370   4.047   2.444 -0.8841 -2.6208  1.6586
 4903SOL    HW226346   4.241   4.115   2.465  0.4496  1.8107 -0.3384
 4904SOL     OW26347   2.223   3.616   7.050 -0.1859  0.0621 -0.0038
 4904SOL    HW126348   2.285   3.668   7.101  1.0375  0.4376 -1.8886
 4904SOL    HW226349   2.147   3.627   7.108 -1.7254 -0.1751 -1.9512
 4905SOL     OW26350   1.984   3.613   3.191 -0.1969 -0.1786 -0.0589
 4905SOL    HW126351   2.000   3.541   3.129 -1.6849 -0.8797  0.3840
 4905SOL    HW226352   1.986   3.688   3.131  0.8708 -1.2871 -1.4202
 4906SOL     OW26353   0.052   3.598   5.710  0.1299  0.3912  0.4374
 4906SOL    HW126354   0.111   3.523   5.698 -0.3710 -0.4330  3.1358
 4906SOL    HW226355   0.037   3.604   5.804  0.8058 -1.4072  0.6790
 4907SOL     OW26356   4.138   2.924   4.493  0.0780 -0.0439 -0.2100
 4907SOL    HW126357   4.084   2.852   4.461  1.8333 -2.4918  2.3311
 4907SOL    HW226358   4.212   2.868   4.517  0.6358  0.3667 -0.9733
 4908SOL     OW26359   0.897   4.695   4.970  0.5823  0.1580  0.1067
 4908SOL    HW126360   0.947   4.705   5.051  2.3284 -1.2027 -0.8115
 4908SOL    HW226361   0.835   0.033   4.982  2.3465  1.7212 -0.0569
 4909SOL     OW26362   1.525   3.796   8.540 -0.0753  0.4957  0.6449
 4909SOL    HW126363   1.457   3.857   8.569 -1.4458 -1.3036  1.1860
 4909SOL    HW226364   1.588   3.852   8.496  0.7949 -0.2280  0.9789
 4910SOL     OW26365   0.783   0.686  11.639  0.8811  0.5391 -0.3666
 4910SOL    HW126366   0.864   0.694  11.589 -0.6279  0.7656 -2.7848
 4910SOL    HW226367   0.753   0.777  11.645  0.8372  0.4027  1.6839
 4911SOL     OW26368   1.451   0.929  17.155 -0.0279  0.1670 -0.0157
 4911SOL    HW126369   1.534   0.894  17.189  0.4538 -0.6713 -2.0764
 4911SOL    HW226370   1.463   1.020  17.126 -0.5696  0.7557  1.5894
 4912SOL     OW26371   3.567   1.293   2.377  0.0736 -0.3598  0.7400
 4912SOL    HW126372   3.577   1.387   2.384  0.1603 -0.1799 -1.8654
 4912SOL    HW226373   3.522   1.299   2.293  0.0827 -1.5347  0.6451
 4913SOL     OW26374   2.560   0.308   3.651  0.3007  0.2704 -0.3186
 4913SOL    HW126375   2.474   0.336   3.621 -0.1733 -0.1701  0.6244
 4913SOL    HW226376   2.545   0.213   3.643  0.2217  0.5331 -3.1209
 4914SOL     OW26377   2.937   4.297   2.378  0.1684 -0.0956  0.1140
 4914SOL    HW126378   2.857   4.313   2.328  0.2530  0.1246  0.0475
 4914SOL    HW226379   2.975   4.384   2.391 -2.0382  0.4809  2.6740
 4915SOL     OW26380   2.501   1.183  11.548  0.5098  0.0809 -0.4565
 4915SOL    HW126381   2.440   1.137  11.606  1.1027 -0.4174 -0.2332
 4915SOL    HW226382   2.508   1.115  11.482 -0.4700 -0.3638 -0.1073
 4916SOL     OW26383   1.517   0.746  13.178  0.3238  0.3204  0.0446
 4916SOL    HW126384   1.570   0.823  13.200  1.9244 -0.4724 -1.0247
 4916SOL    HW226385   1.492   0.707  13.262 -3.4746  0.6905 -0.9490
 4917SOL     OW26386   0.662   0.050   4.610  0.6505 -0.2601 -0.2153
 4917SOL    HW126387   0.655   4.711   4.671  1.3799 -0.2149 -0.0745
 4917SOL    HW226388   0.756   0.042   4.593  0.5601 -0.4708 -0.6065
 4918SOL     OW26389   1.158   2.051   1.899 -0.0922  0.8364 -0.3191
 4918SOL    HW126390   1.220   2.119   1.872  1.4523 -0.2538  0.4988
 4918SOL    HW226391   1.082   2.108   1.910 -0.1656  0.7397 -0.3290
 4919SOL     OW26392   2.006   3.034   6.099  0.6335 -0.6245  0.1319
 4919SOL    HW126393   1.965   3.085   6.170  1.6372  1.5817 -0.8881
 4919SOL    HW226394   1.929   3.035   6.043  0.0122 -0.9961  0.9887
 4920SOL     OW26395   3.159   2.717   8.720 -0.4217  0.2704 -0.1505
 4920SOL    HW126396   3.118   2.689   8.802 -0.8075 -1.0567 -0.7936
 4920SOL    HW226397   3.167   2.812   8.731 -2.7671  0.6642 -1.7991
 4921SOL     OW26398   0.712   2.025   8.321 -0.0740 -0.1307 -0.1913
 4921SOL    HW126399   0.725   2.105   8.372 -0.0453 -1.7799  2.3952
 4921SOL    HW226400   0.665   2.064   8.247 -1.4204  0.9774  1.2410
 4922SOL     OW26401   1.902   0.275   6.760 -0.4666  0.1585 -0.1820
 4922SOL    HW126402   1.997   0.278   6.754 -0.3160  1.0110  2.3516
 4922SOL    HW226403   1.887   0.198   6.705 -1.6595 -0.6364  1.2442
 4923SOL     OW26404   2.175   4.702   2.338 -0.0820 -0.1351  0.5297
 4923SOL    HW126405   2.081   4.709   2.323  0.0060  0.3794  0.2394
 4923SOL    HW226406   2.182   0.024   2.415 -1.7090  1.8713 -0.8001
 4924SOL     OW26407   4.492   0.528   6.533  0.6733 -0.3589  0.2555
 4924SOL    HW126408   4.506   0.520   6.628 -3.4951 -0.2677  0.8823
 4924SOL    HW226409   4.542   0.457   6.493 -0.1366 -1.2238  0.7567
 4925SOL     OW26410   2.463   1.596   3.198 -0.3024 -0.2722  0.0866
 4925SOL    HW126411   2.375   1.619   3.167 -0.3317  1.4177  1.4113
 4925SOL    HW226412   2.452   1.562   3.286 -0.1736 -1.0305 -0.1902
 4926SOL     OW26413   1.059   3.976  13.918  0.9917  0.2205  0.6779
 4926SOL    HW126414   1.105   3.926  13.850 -2.3802 -0.8126 -0.8070
 4926SOL    HW226415   1.044   3.905  13.980  0.6895  0.6027  1.0423
 4927SOL     OW26416   4.109   0.056   5.521  0.7374  0.8764  0.3368
 4927SOL    HW126417   4.021   0.079   5.548 -0.2366 -1.2780 -0.9779
 4927SOL    HW226418   4.119   0.115   5.446  0.1734  2.4177  1.4831
 4928SOL     OW26419   1.447   3.969   6.063 -0.2276  0.1868 -0.1767
 4928SOL    HW126420   1.412   3.894   6.111 -0.5561 -0.2846 -1.1352
 4928SOL    HW226421   1.371   4.000   6.013 -0.8180 -0.5528  0.2502
 4929SOL     OW26422   2.881   0.858   1.856 -0.0226  0.0783 -0.2059
 4929SOL    HW126423   2.814   0.850   1.924 -0.8396 -0.3032 -1.0587
 4929SOL    HW226424   2.828   0.871   1.777 -0.9679 -0.4577  0.3369
 4930SOL     OW26425   0.376   1.750   2.632  0.0576 -0.3590  0.1122
 4930SOL    HW126426   0.283   1.759   2.607 -0.7233 -0.9479  2.8111
 4930SOL    HW226427   0.399   1.843   2.641  1.7299 -1.0050  2.2535
 4931SOL     OW26428   0.001   0.206   2.390 -0.3544  0.5243  0.3901
 4931SOL    HW126429   0.063   0.265   2.433 -0.7953  0.2175  1.4487
 4931SOL    HW226430   0.066   0.136   2.383 -2.1174 -0.8660 -1.8536
 4932SOL     OW26431   2.421   1.530  16.443  0.3972 -0.1146 -0.0845
 4932SOL    HW126432   2.395   1.591  16.374  0.7311  0.1023 -0.0183
 4932SOL    HW226433   2.353   1.550  16.508  0.7675  1.3322 -0.1368
 4933SOL     OW26434   0.546   4.612   1.931 -0.4076  0.0941  0.0832
 4933SOL    HW126435   0.499   4.676   1.985  0.2701 -0.1534  0.9814
 4933SOL    HW226436   0.552   4.656   1.847 -0.4632 -1.0270 -0.5039
 4934SOL     OW26437   4.287   2.234   0.697  0.5286  0.5494 -0.1300
 4934SOL    HW126438   4.250   2.159   0.652 -3.0600  1.9373  0.5433
 4934SOL    HW226439   4.380   2.226   0.673  0.4716 -0.4397 -0.0239
 4935SOL     OW26440   0.656   3.807   6.177  0.5674  0.2441  0.5478
 4935SOL    HW126441   0.723   3.793   6.244  0.4619  1.2206  0.8590
 4935SOL    HW226442   0.604   3.729   6.197  2.6852 -1.1616  0.5533
 4936SOL     OW26443   2.906   1.343   6.359  0.5715  0.3021  0.4200
 4936SOL    HW126444   2.822   1.308   6.328  1.0801 -1.2042  0.7369
 4936SOL    HW226445   2.876   1.417   6.411  3.5992  2.1145 -0.4263
 4937SOL     OW26446   0.498   1.987   4.957 -0.0401  0.4981 -0.2210
 4937SOL    HW126447   0.409   2.022   4.966 -0.6743 -1.6800  2.1648
 4937SOL    HW226448   0.490   1.902   4.916 -2.5000  0.4290  0.3699
 4938SOL     OW26449   1.097   2.913   7.711  0.0237 -0.5083 -0.0787
 4938SOL    HW126450   1.151   2.876   7.781  3.7266  0.1398 -2.5856
 4938SOL    HW226451   1.065   2.832   7.673 -2.1492  0.4950 -0.3874
 4939SOL     OW26452   4.580   1.836   9.523  0.2614 -0.4577  0.4972
 4939SOL    HW126453   4.651   1.856   9.584 -0.5775  4.0334 -0.0239
 4939SOL    HW226454   4.516   1.805   9.588 -0.5521 -0.6467 -0.3955
 4940SOL     OW26455   3.369   3.776   6.080  0.4475 -0.7345 -0.6131
 4940SOL    HW126456   3.310   3.788   6.006 -0.5437 -0.4720  0.2222
 4940SOL    HW226457   3.326   3.823   6.151  2.0160  3.7725 -2.6940
 4941SOL     OW26458   4.574   2.969   8.908  0.1155  0.0352 -0.1755
 4941SOL    HW126459   4.600   3.043   8.962  2.1955 -1.9899  1.5740
 4941SOL    HW226460   4.661   2.931   8.899  0.3932  0.5314  0.4263
 4942SOL     OW26461   0.635   2.923  15.107 -0.3305  0.4132 -0.1323
 4942SOL    HW126462   0.548   2.959  15.090 -1.5608 -2.6149 -0.3112
 4942SOL    HW226463   0.689   2.993  15.072  1.9542 -0.0129  2.4964
 4943SOL     OW26464   3.441   3.417  15.650  0.7673 -0.1415  0.0235
 4943SOL    HW126465   3.508   3.442  15.586 -0.3310 -0.2238 -1.1643
 4943SOL    HW226466   3.483   3.336  15.678  1.8553  0.7841  1.0627
 4944SOL     OW26467   2.381   1.700   4.747 -0.4950 -0.7843 -0.5392
 4944SOL    HW126468   2.469   1.737   4.757  0.0581 -2.6027  1.2598
 4944SOL    HW226469   2.397   1.632   4.682 -0.2180  3.4044 -4.8234
 4945SOL     OW26470   4.024   0.683   2.583  0.2743 -0.4417  0.0023
 4945SOL    HW126471   4.062   0.689   2.671 -1.6059  1.0120  0.7121
 4945SOL    HW226472   4.097   0.710   2.528 -0.1754  0.5919 -0.0854
 4946SOL     OW26473   0.948   1.595   7.282 -0.1926 -0.0268  0.2592
 4946SOL    HW126474   0.943   1.686   7.310  0.2163 -0.1481  0.7312
 4946SOL    HW226475   0.966   1.605   7.188 -0.7602 -1.0142  0.0393
 4947SOL     OW26476   1.082   4.096   0.215  0.1501 -0.2740  0.2496
 4947SOL    HW126477   1.107   4.036   0.145  1.4097  1.1028 -0.4878
 4947SOL    HW226478   0.989   4.077   0.228 -0.7057  2.9843 -1.0061
 4948SOL     OW26479   0.917   3.017   6.444 -0.4070 -0.4107 -0.6683
 4948SOL    HW126480   0.901   3.098   6.493 -1.1196  0.0172 -1.6195
 4948SOL    HW226481   1.003   3.022   6.402 -0.1970  1.6341  0.0091
 4949SOL     OW26482   3.855   2.111  15.944 -0.1248  0.1919 -0.0571
 4949SOL    HW126483   3.940   2.120  15.987  1.0707  0.5733 -2.5345
 4949SOL    HW226484   3.808   2.195  15.946  0.3764  0.4455  0.8846
 4950SOL     OW26485   3.594   1.005   3.497 -0.1372  0.3530 -0.3657
 4950SOL    HW126486   3.558   0.918   3.479 -0.8000  0.5443  0.0245
 4950SOL    HW226487   3.686   0.987   3.515 -0.0648 -0.1158 -1.2186
 4951SOL     OW26488   3.281   2.891   5.555 -0.4265  0.2700  0.0559
 4951SOL    HW126489   3.282   2.987   5.555  2.5529  0.2340  1.7458
 4951SOL    HW226490   3.299   2.886   5.649  0.8808 -1.9901 -0.3258
 4952SOL     OW26491   1.928   1.434   4.876  0.0266 -0.3254  0.1286
 4952SOL    HW126492   1.838   1.405   4.858  0.2430 -0.5811 -0.5376
 4952SOL    HW226493   1.973   1.401   4.798 -0.4744  1.0762 -0.7446
 4953SOL     OW26494   2.441   3.398  17.654  0.2542  0.0921 -0.5379
 4953SOL    HW126495   2.377   3.346  17.702  1.3056  0.3208  1.1055
 4953SOL    HW226496   2.484   3.337  17.595  1.6568  1.8589 -1.3470
 4954SOL     OW26497   1.805   4.325   1.085 -0.2359 -0.4254 -0.0916
 4954SOL    HW126498   1.824   4.371   1.003 -0.4629 -2.1876 -1.1328
 4954SOL    HW226499   1.855   4.244   1.076 -0.3546 -0.7483  2.0094
 4955SOL     OW26500   2.499   0.244   6.494  0.7862 -0.0111 -0.6378
 4955SOL    HW126501   2.413   0.207   6.473  1.2165  0.1025 -2.6571
 4955SOL    HW226502   2.511   0.205   6.580  1.2549  0.7509 -0.3619
 4956SOL     OW26503   0.182   2.697   4.545 -0.2031  0.4600 -0.4650
 4956SOL    HW126504   0.159   2.605   4.553  2.3641 -0.2833 -1.3311
 4956SOL    HW226505   0.129   2.732   4.473  2.5422  0.5498 -2.5005
 4957SOL     OW26506   3.164   1.264   9.145 -0.0581  0.0541  0.1350
 4957SOL    HW126507   3.233   1.198   9.132 -0.0050  0.2180 -0.4060
 4957SOL    HW226508   3.195   1.292   9.231 -0.1587 -0.2924  0.2827
 4958SOL     OW26509   2.412   1.381  12.941 -0.2961  0.3787 -0.4415
 4958SOL    HW126510   2.373   1.443  13.001 -3.4408 -2.0110 -0.0376
 4958SOL    HW226511   2.374   1.412  12.859  0.3479  1.8641 -0.1759
 4959SOL     OW26512   3.915   2.839   8.924 -0.8462 -0.2070 -0.1185
 4959SOL    HW126513   3.864   2.883   8.855  2.3442  2.2142 -0.9195
 4959SOL    HW226514   3.991   2.808   8.874 -0.7070  1.4719 -0.9559
 4960SOL     OW26515   3.092   4.708   0.609 -0.2474 -0.0827 -0.6517
 4960SOL    HW126516   3.061   4.632   0.659 -0.6302 -1.4086 -2.9324
 4960SOL    HW226517   3.131   0.025   0.681 -1.4627  0.2340 -0.2092
 4961SOL     OW26518   3.000   2.415   3.461 -0.3425  0.2422 -0.0855
 4961SOL    HW126519   3.034   2.492   3.507  1.3758 -0.9930  0.6745
 4961SOL    HW226520   3.041   2.345   3.511 -0.5417  0.1953  0.0104
 4962SOL     OW26521   2.408   4.598   7.353 -0.6937  0.4095  0.0584
 4962SOL    HW126522   2.387   4.514   7.312  2.0731 -0.1439 -0.2122
 4962SOL    HW226523   2.334   4.617   7.410  0.0421  1.6319  0.6027
 4963SOL     OW26524   0.944   0.707   6.938  0.1411  0.1345  0.0209
 4963SOL    HW126525   0.959   0.619   6.905 -0.0030 -0.4969  1.6748
 4963SOL    HW226526   0.997   0.759   6.877  1.2202  0.3933  1.1740
 4964SOL     OW26527   0.285   3.797  16.613  0.8226  0.1423  0.8239
 4964SOL    HW126528   0.252   3.815  16.701 -3.1415 -0.8560 -0.4776
 4964SOL    HW226529   0.241   3.713  16.598 -0.0014  0.5836  0.7859
 4965SOL     OW26530   0.804   4.351   2.514  0.0935  0.4062 -0.8408
 4965SOL    HW126531   0.854   4.356   2.432 -0.5964 -0.1465 -1.3048
 4965SOL    HW226532   0.749   4.280   2.480  0.5736 -1.0161  1.4219
 4966SOL     OW26533   0.705   0.639   2.310  0.4399 -0.0665  0.0887
 4966SOL    HW126534   0.732   0.696   2.382  0.1876  0.4759 -0.2460
 4966SOL    HW226535   0.698   0.705   2.241  0.7985 -0.0157  0.1057
 4967SOL     OW26536   4.355   3.919   7.986  0.1426 -0.2478  0.1926
 4967SOL    HW126537   4.333   3.826   7.989 -0.8467  0.0208  1.6065
 4967SOL    HW226538   4.294   3.952   8.053  0.7074  1.2975 -0.0512
 4968SOL     OW26539   2.329   3.334  10.164  0.2981 -0.4543 -0.5871
 4968SOL    HW126540   2.420   3.304  10.162 -0.3361 -2.2630 -2.2999
 4968SOL    HW226541   2.299   3.294  10.083 -2.3020 -1.2869  0.7797
 4969SOL     OW26542   4.344   0.970   9.245  0.6697 -0.2637  0.0144
 4969SOL    HW126543   4.431   1.009   9.235  1.1718 -0.9334  1.6839
 4969SOL    HW226544   4.291   1.049   9.249  0.1338 -0.7674  2.8548
 4970SOL     OW26545   3.548   1.504   3.648 -0.3634 -0.5633  0.0927
 4970SOL    HW126546   3.579   1.431   3.594 -2.2730 -2.8362  2.0850
 4970SOL    HW226547   3.488   1.460   3.709 -0.3964 -1.3995 -0.5356
 4971SOL     OW26548   0.556   0.792   7.318  0.1203  0.5453 -0.2305
 4971SOL    HW126549   0.490   0.857   7.340 -2.1021 -1.6750 -0.4205
 4971SOL    HW226550   0.634   0.823   7.365  1.2578 -1.4457 -0.8428
 4972SOL     OW26551   0.045   4.299   5.887  0.2680 -0.1259  0.9984
 4972SOL    HW126552   0.059   4.213   5.846 -1.9034 -0.3491  0.7262
 4972SOL    HW226553   0.089   4.283   5.970  0.4838 -0.6845  0.7835
 4973SOL     OW26554   4.279   0.045   9.483 -0.1781 -0.1470 -0.1345
 4973SOL    HW126555   4.280   4.721   9.406  2.1466 -0.7137  0.3211
 4973SOL    HW226556   4.283   0.127   9.434 -1.0157 -0.2235 -0.3243
 4974SOL     OW26557   0.568   2.952  11.268  0.0838  0.3568  0.2291
 4974SOL    HW126558   0.660   2.932  11.283 -0.1964 -1.2411 -0.2521
 4974SOL    HW226559   0.581   3.023  11.205  0.3132 -1.4391 -1.7599
 4975SOL     OW26560   0.400   2.437   5.568 -0.5468 -0.1606 -0.2486
 4975SOL    HW126561   0.371   2.527   5.585  0.4392  0.3657 -1.3516
 4975SOL    HW226562   0.362   2.412   5.483 -1.6627  1.5896 -0.2684
 4976SOL     OW26563   2.779   3.860   1.586  0.3375  0.3701 -0.6278
 4976SOL    HW126564   2.781   3.826   1.497 -2.5568 -0.1760 -0.5060
 4976SOL    HW226565   2.684   3.852   1.596  0.7804 -1.0061  2.5249
 4977SOL     OW26566   2.795   1.912   8.928 -0.0507 -0.0542 -0.3190
 4977SOL    HW126567   2.730   1.930   8.997  2.5996  1.8670  1.6686
 4977SOL    HW226568   2.821   1.824   8.956 -1.5988 -0.3941  0.0390
 4978SOL     OW26569   4.655   0.845  10.829  0.1376  0.1263  0.5986
 4978SOL    HW126570   4.589   0.820  10.764  0.9140  1.9583 -0.9080
 4978SOL    HW226571   4.699   0.763  10.847  0.0278  0.1951  1.1679
 4979SOL     OW26572   2.137   1.399   8.491  0.4530 -0.0856 -0.2621
 4979SOL    HW126573   2.081   1.458   8.441 -0.3158 -1.2339 -0.7509
 4979SOL    HW226574   2.188   1.454   8.551 -0.9142  0.3790  0.4519
 4980SOL     OW26575   3.921   0.483   5.151  0.4661  0.0754 -0.1254
 4980SOL    HW126576   3.974   0.465   5.073  2.6697 -1.6072  1.8001
 4980SOL    HW226577   3.903   0.576   5.140  0.5927  0.1899  0.6912
 4981SOL     OW26578   3.922   2.158   2.683 -0.1313 -0.2765 -0.1208
 4981SOL    HW126579   3.862   2.106   2.630  1.0401 -0.5435 -1.1617
 4981SOL    HW226580   3.876   2.180   2.764  0.6220  1.7572 -0.2363
 4982SOL     OW26581   0.214   1.964   8.519  0.1734 -0.0464 -0.2025
 4982SOL    HW126582   0.190   2.057   8.526  0.7856  0.1192 -0.2983
 4982SOL    HW226583   0.284   1.961   8.584 -0.7920 -1.2359  0.7730
 4983SOL     OW26584   4.359   0.909  16.724 -0.0654 -0.1597  0.4184
 4983SOL    HW126585   4.271   0.877  16.744 -1.2740  1.9421 -1.4868
 4983SOL    HW226586   4.410   0.861  16.788 -1.2207 -0.2292  1.2836
 4984SOL     OW26587   1.219   0.523  11.038 -0.6406  0.5197 -0.3539
 4984SOL    HW126588   1.246   0.440  11.001  1.7115  0.5718  1.2227
 4984SOL    HW226589   1.205   0.499  11.130 -0.7789 -0.1291 -0.5463
 4985SOL     OW26590   1.854   0.842   2.236 -0.0535 -0.1118 -0.6024
 4985SOL    HW126591   1.892   0.874   2.318 -0.0374 -1.5925 -0.0352
 4985SOL    HW226592   1.921   0.875   2.175  0.6031 -1.2959 -0.5259
 4986SOL     OW26593   0.669   2.406   4.913  0.0292  0.1592 -0.3394
 4986SOL    HW126594   0.742   2.382   4.971 -0.7223 -0.3272  0.4039
 4986SOL    HW226595   0.714   2.447   4.839 -0.1217 -0.2461 -0.6596
 4987SOL     OW26596   2.311   0.900   7.470 -0.5255  0.2911 -0.2218
 4987SOL    HW126597   2.370   0.828   7.446  1.3715  2.0211 -0.6599
 4987SOL    HW226598   2.228   0.874   7.429 -0.5073  1.4448 -0.9681
 4988SOL     OW26599   1.005   1.085   3.823  0.7171  0.0682  0.0982
 4988SOL    HW126600   1.046   1.165   3.792  4.0056 -1.9769 -0.8633
 4988SOL    HW226601   1.080   1.027   3.837 -1.1678 -2.1567  1.0918
 4989SOL     OW26602   1.008   3.974  16.137  0.1371  0.3282 -0.6064
 4989SOL    HW126603   1.011   3.879  16.150  3.3491  0.3633 -1.3481
 4989SOL    HW226604   0.915   3.993  16.122  0.0297 -0.4627 -0.9713
 4990SOL     OW26605   3.351   1.919   4.907  0.0534 -0.3547 -0.1216
 4990SOL    HW126606   3.344   1.879   4.820  3.2525  1.6721 -1.2829
 4990SOL    HW226607   3.363   2.012   4.891  1.7570 -0.7836 -1.2808
 4991SOL     OW26608   3.477   0.108  14.181  0.4096 -0.7660  0.0764
 4991SOL    HW126609   3.402   0.069  14.136  0.9726  0.6338 -2.1251
 4991SOL    HW226610   3.530   0.130  14.104  0.4158  2.1405  0.9026
 4992SOL     OW26611   2.976   1.720   4.094  0.0516 -0.8085  0.7476
 4992SOL    HW126612   2.895   1.706   4.045 -0.1128  1.4528  0.3889
 4992SOL    HW226613   2.949   1.687   4.180  1.9363 -2.2560  0.7976
 4993SOL     OW26614   2.744   3.925  11.717 -0.4473  0.1232 -0.5065
 4993SOL    HW126615   2.690   3.875  11.656 -0.6395  0.9708 -1.0349
 4993SOL    HW226616   2.756   3.858  11.785 -0.0758 -0.0792 -0.7732
 4994SOL     OW26617   0.328   1.073   4.585 -0.5362 -0.8225 -0.0646
 4994SOL    HW126618   0.295   1.114   4.505  0.8976  3.6098  1.6407
 4994SOL    HW226619   0.355   0.986   4.554  0.3161  0.0511 -1.7566
 4995SOL     OW26620   4.174   2.465   8.605  0.3572  0.0774  0.5711
 4995SOL    HW126621   4.167   2.502   8.693 -0.3571  0.7632  0.2266
 4995SOL    HW226622   4.107   2.397   8.607 -0.1331  0.5231 -0.6834
 4996SOL     OW26623   4.589   0.167   9.134 -0.6067  0.2902  0.1878
 4996SOL    HW126624   4.658   0.166   9.200  1.9529  1.0166 -2.4888
 4996SOL    HW226625   4.574   0.261   9.136 -1.7470  0.1353 -1.4191
 4997SOL     OW26626   3.425   3.313   0.665 -0.1846  0.2014  0.1043
 4997SOL    HW126627   3.494   3.266   0.619 -1.8333  0.2081 -2.3958
 4997SOL    HW226628   3.367   3.238   0.678  1.1821 -0.9810 -0.5361
 4998SOL     OW26629   1.771   2.118   7.796  0.1533  0.1884 -0.0459
 4998SOL    HW126630   1.855   2.073   7.808  0.1402  0.3205  0.5493
 4998SOL    HW226631   1.713   2.094   7.869 -0.3118  5.1377  1.1850
 4999SOL     OW26632   3.141   2.432   3.231 -0.0982 -0.0041 -0.5957
 4999SOL    HW126633   3.115   2.494   3.164 -1.0560  0.3126  0.0765
 4999SOL    HW226634   3.079   2.435   3.304  2.0714  1.1113  1.2374
 5000SOL     OW26635   1.163   2.599   7.375  0.0134 -0.3159  0.4294
 5000SOL    HW126636   1.132   2.561   7.293 -0.6200 -0.0789  0.5583
 5000SOL    HW226637   1.256   2.576   7.365  0.1281 -0.3574  1.5397
 5001SOL     OW26638   0.878   0.557   1.281  0.4772  0.7075  0.1571
 5001SOL    HW126639   0.830   0.585   1.359  0.0261  0.5159 -0.0580
 5001SOL    HW226640   0.810   0.520   1.226 -1.0268  0.0518  2.4880
 5002SOL     OW26641   0.412   1.763   3.945  0.8224 -0.2046  0.3002
 5002SOL    HW126642   0.425   1.679   3.900  0.2185  0.0137 -0.2758
 5002SOL    HW226643   0.499   1.803   3.944  0.2326  1.1093  1.3317
 5003SOL     OW26644   3.047   0.200   4.171  0.6730  0.2322 -0.6112
 5003SOL    HW126645   3.018   0.291   4.163 -0.0831  0.1798  1.3797
 5003SOL    HW226646   2.963   0.173   4.209  0.6094 -0.7168 -1.4504
 5004SOL     OW26647   3.558   4.472  14.504 -0.5924 -0.2283  0.6211
 5004SOL    HW126648   3.635   4.479  14.448 -1.2183 -3.3420 -0.6563
 5004SOL    HW226649   3.535   4.384  14.475 -0.4035 -0.2589  0.5613
 5005SOL     OW26650   4.654   2.898   7.042  0.5328  0.3387  0.0351
 5005SOL    HW126651   4.686   2.963   6.980  1.2648 -1.1883 -1.2070
 5005SOL    HW226652   4.732   2.844   7.028 -0.8084 -1.3721 -0.9408
 5006SOL     OW26653   3.706   4.141   3.298  0.2019  0.0394  0.2607
 5006SOL    HW126654   3.638   4.084   3.332 -1.6752  2.1807  0.1450
 5006SOL    HW226655   3.655   4.178   3.225  2.2489 -0.0305 -1.2067
 5007SOL     OW26656   0.902   2.949   1.755  0.1958  0.5238  0.5521
 5007SOL    HW126657   0.820   2.973   1.712  1.7988  3.8824 -0.5738
 5007SOL    HW226658   0.882   2.958   1.849 -2.6560 -1.0968  0.1181
 5008SOL     OW26659   2.862   1.685   6.413 -0.4357  0.5307 -0.0902
 5008SOL    HW126660   2.953   1.668   6.389  0.2565  0.5441  2.5239
 5008SOL    HW226661   2.869   1.646   6.500  1.4030  0.0777 -0.4410
 5009SOL     OW26662   1.064   1.370   1.481  0.2355 -0.5816 -0.3288
 5009SOL    HW126663   1.045   1.298   1.421 -0.7038 -0.8920  0.3371
 5009SOL    HW226664   1.043   1.446   1.425 -1.5136 -2.5338 -2.3392
 5010SOL     OW26665   4.706   3.299   9.853 -1.0914 -0.0264  0.5293
 5010SOL    HW126666   0.014   3.373   9.898 -1.9418 -0.2951  1.7552
 5010SOL    HW226667   4.642   3.272   9.918 -0.3040 -1.6523  0.6195
 5011SOL     OW26668   2.332   3.984   8.748  0.5392 -0.1939 -0.2570
 5011SOL    HW126669   2.294   3.928   8.680  1.4579 -1.7859  0.5432
 5011SOL    HW226670   2.301   3.954   8.833 -1.9392  0.5192 -0.9238
 5012SOL     OW26671   3.239   1.898   3.556 -0.0743 -0.3484 -0.0718
 5012SOL    HW126672   3.151   1.873   3.583 -0.1307 -0.2110 -0.1276
 5012SOL    HW226673   3.286   1.834   3.610  0.3914 -0.3843 -0.5203
 5013SOL     OW26674   2.972   0.846  13.106 -0.5016 -0.3138  0.2694
 5013SOL    HW126675   3.016   0.781  13.052  0.0407 -1.0067  1.5498
 5013SOL    HW226676   2.974   0.919  13.044  0.6024 -0.5241  0.0606
 5014SOL     OW26677   0.929   2.884   5.075 -0.0339 -0.4107 -0.0292
 5014SOL    HW126678   1.000   2.852   5.020 -0.0257 -2.7533  1.3134
 5014SOL    HW226679   0.958   2.973   5.092 -0.0317 -0.5574  0.7645
 5015SOL     OW26680   1.426   3.420  15.947  0.4917  0.0731 -0.0685
 5015SOL    HW126681   1.516   3.411  15.916  0.8999  1.8972  0.5674
 5015SOL    HW226682   1.410   3.339  15.996 -0.6023  0.6925  0.5933
 5016SOL     OW26683   3.804   3.464   8.329 -0.2666  0.4906  0.1300
 5016SOL    HW126684   3.800   3.527   8.401  1.3016  0.5748  0.1285
 5016SOL    HW226685   3.886   3.416   8.336 -0.7754 -0.6965 -2.1050
 5017SOL     OW26686   2.957   3.665   0.257  0.1424  0.1912 -0.1658
 5017SOL    HW126687   2.963   3.741   0.199  0.8381  0.5124  0.3278
 5017SOL    HW226688   2.861   3.663   0.261  0.2022 -1.1388  0.6322
 5018SOL     OW26689   4.407   2.163   3.303 -0.1178 -0.0860 -0.3028
 5018SOL    HW126690   4.420   2.258   3.309 -0.3180 -0.0972  0.3094
 5018SOL    HW226691   4.478   2.142   3.242  0.8858  2.3649  0.0150
 5019SOL     OW26692   2.821   3.223   4.760  0.2372 -0.0567  0.3430
 5019SOL    HW126693   2.733   3.260   4.747  0.3120 -0.7454 -2.2187
 5019SOL    HW226694   2.870   3.293   4.718  0.6123 -0.2711  0.4320
 5020SOL     OW26695   0.072   3.406   6.780  1.0907 -0.1070 -0.0167
 5020SOL    HW126696   0.029   3.419   6.864  0.8485  3.6337 -0.7105
 5020SOL    HW226697   0.159   3.375   6.804  0.5301 -0.5815  1.3692
 5021SOL     OW26698   0.358   2.677   6.332 -0.7922 -0.3583 -0.2738
 5021SOL    HW126699   0.400   2.608   6.280  3.0707  2.3257 -0.7646
 5021SOL    HW226700   0.341   2.738   6.260 -2.3401 -0.7637 -0.2308
 5022SOL     OW26701   2.515   4.091   0.266 -0.3141 -0.5378 -0.1250
 5022SOL    HW126702   2.483   4.174   0.301  2.2818  0.6873 -0.7000
 5022SOL    HW226703   2.608   4.112   0.265 -0.7339  1.1759 -2.5429
 5023SOL     OW26704   1.546   4.264   6.669 -0.4839  0.7619 -0.8074
 5023SOL    HW126705   1.601   4.209   6.725 -2.9318  0.6693  1.5140
 5023SOL    HW226706   1.504   4.192   6.622  0.5176  0.0636 -0.6429
 5024SOL     OW26707   1.500   1.238   8.436 -0.6596 -0.0430  0.1780
 5024SOL    HW126708   1.425   1.184   8.410 -1.2812 -0.2657  2.4509
 5024SOL    HW226709   1.475   1.327   8.410  1.6155  0.6225  0.2994
 5025SOL     OW26710   2.842   0.043  16.560 -0.4672  0.2170 -0.6849
 5025SOL    HW126711   2.806   0.128  16.538 -1.8939 -0.0666  0.5744
 5025SOL    HW226712   2.933   0.053  16.532  0.2148 -0.4379  1.2919
 5026SOL     OW26713   1.767   0.531  10.767 -0.1040  0.1495 -0.2603
 5026SOL    HW126714   1.801   0.592  10.701  0.3169  0.8925  0.6495
 5026SOL    HW226715   1.836   0.465  10.765 -0.0412  0.2145 -0.2279
 5027SOL     OW26716   2.647   4.155   9.530 -0.3149  0.0690  0.1900
 5027SOL    HW126717   2.650   4.136   9.624  0.2145 -1.1380 -0.0664
 5027SOL    HW226718   2.648   4.251   9.527 -1.0123  0.1145  1.2835
 5028SOL     OW26719   4.082   1.814  10.795 -0.0820  0.0294  0.0127
 5028SOL    HW126720   4.025   1.876  10.840 -0.4959 -0.9432  0.8013
 5028SOL    HW226721   4.072   1.853  10.708  0.0807 -1.7620 -0.8170
 5029SOL     OW26722   2.608   4.347   5.739 -0.0422  0.5322  0.4866
 5029SOL    HW126723   2.640   4.404   5.809  1.4711  1.0537 -0.6173
 5029SOL    HW226724   2.521   4.387   5.729  0.0617  0.1557 -2.1644
 5030SOL     OW26725   3.381   1.911   7.053 -0.6084 -0.4364 -0.7356
 5030SOL    HW126726   3.396   1.819   7.031 -1.4614 -0.5888 -0.6786
 5030SOL    HW226727   3.413   1.917   7.143  0.6498 -1.0762 -1.1380
 5031SOL     OW26728   1.220   0.329   4.645 -0.3450  0.8636 -0.2521
 5031SOL    HW126729   1.254   0.268   4.581 -1.8446 -1.2768  0.9849
 5031SOL    HW226730   1.128   0.319   4.619 -0.6315 -0.7414  1.3564
 5032SOL     OW26731   3.306   2.710  10.605 -0.0535  0.3128 -0.0111
 5032SOL    HW126732   3.229   2.718  10.549  1.2329  0.0964 -1.8183
 5032SOL    HW226733   3.372   2.746  10.546  1.8370  0.0181  1.8992
 5033SOL     OW26734   1.525   4.731  11.349 -0.5808 -0.0931 -0.1186
 5033SOL    HW126735   1.518   4.650  11.400  0.9167 -0.5926 -0.7140
 5033SOL    HW226736   1.481   0.059  11.407  1.2090  3.5555 -2.6410
 5034SOL     OW26737   1.734   4.380   3.525  0.1498  0.0292  0.6849
 5034SOL    HW126738   1.816   4.357   3.570  0.4565  3.0265  1.6602
 5034SOL    HW226739   1.676   4.394   3.600 -0.8472  0.9125 -0.2490
 5035SOL     OW26740   2.681   3.484  12.115  0.2975 -0.0348  0.0445
 5035SOL    HW126741   2.592   3.449  12.114  0.0905  0.5129 -0.3168
 5035SOL    HW226742   2.719   3.396  12.118 -0.3339 -0.2717  1.0963
 5036SOL     OW26743   3.961   2.903   5.391 -0.0720 -0.0020 -0.6376
 5036SOL    HW126744   4.010   2.919   5.471 -1.0263  0.6335 -0.1906
 5036SOL    HW226745   3.882   2.956   5.398  1.0966  1.8415 -1.4787
 5037SOL     OW26746   2.615   3.967   0.785  0.2364  0.1788 -0.1230
 5037SOL    HW126747   2.521   3.963   0.764  0.2559  3.4395 -0.9178
 5037SOL    HW226748   2.646   3.998   0.700 -1.0060  0.2768 -0.5457
 5038SOL     OW26749   4.237   2.792   4.192 -0.0110 -0.4586  0.1994
 5038SOL    HW126750   4.331   2.782   4.206 -0.2884  0.0091  2.4023
 5038SOL    HW226751   4.199   2.730   4.254 -0.2199  0.7154  1.2510
 5039SOL     OW26752   1.092   3.279   5.558 -0.5936  0.5639  0.5723
 5039SOL    HW126753   1.179   3.269   5.597 -0.8922 -0.8955  0.8492
 5039SOL    HW226754   1.042   3.220   5.615  0.6180 -2.6132 -1.6535
 5040SOL     OW26755   1.839   3.140   8.429 -0.0272  0.2610 -0.2290
 5040SOL    HW126756   1.812   3.232   8.438 -2.9602 -0.4209 -2.0352
 5040SOL    HW226757   1.777   3.106   8.365 -0.3595  0.0252  0.2144
 5041SOL     OW26758   2.632   4.679  11.009  0.7224  0.0600  0.2790
 5041SOL    HW126759   2.704   4.732  11.042  0.1228  1.3298 -0.4484
 5041SOL    HW226760   2.566   0.013  10.995  1.9682  1.1597 -0.2566
 5042SOL     OW26761   1.230   1.666   6.627 -0.2780 -0.1500 -0.2191
 5042SOL    HW126762   1.141   1.633   6.636 -0.6700  1.0814  0.5099
 5042SOL    HW226763   1.206   1.735   6.565 -0.9074 -0.9541 -0.8707
 5043SOL     OW26764   4.596   3.922   5.428  0.2318  0.7009  0.2175
 5043SOL    HW126765   4.673   3.902   5.480  0.5562  1.5256  0.0540
 5043SOL    HW226766   4.645   3.946   5.349  1.4099 -2.7500 -0.1396
 5044SOL     OW26767   3.014   2.351   7.550  0.6011  0.7684 -0.3334
 5044SOL    HW126768   3.055   2.411   7.613  1.1368  0.6603 -0.5737
 5044SOL    HW226769   2.983   2.274   7.597 -0.2249  0.8064 -0.8167
 5045SOL     OW26770   0.205   0.619   3.395 -0.9246 -0.5656  0.0607
 5045SOL    HW126771   0.131   0.624   3.335 -0.9687 -0.2057  0.1441
 5045SOL    HW226772   0.192   0.524   3.403 -0.5732 -0.6791 -0.7076
 5046SOL     OW26773   3.764   2.407  12.504  0.2000 -0.0405 -0.5822
 5046SOL    HW126774   3.703   2.459  12.452 -1.3998  0.7359  2.0632
 5046SOL    HW226775   3.697   2.340  12.516 -1.0948  1.2338 -0.7201
 5047SOL     OW26776   0.215   4.641  11.873  0.0127 -0.1640  0.5091
 5047SOL    HW126777   0.153   4.713  11.862  0.9903  0.4075 -1.1031
 5047SOL    HW226778   0.258   4.628  11.789 -1.4370  1.5301 -0.4974
 5048SOL     OW26779   1.605   0.455  12.649  0.0293 -0.2279  0.9568
 5048SOL    HW126780   1.565   0.373  12.620 -0.8727  0.4219  0.3549
 5048SOL    HW226781   1.696   0.432  12.666 -0.0341 -1.8699 -1.0404
 5049SOL     OW26782   0.827   4.622  14.803  0.2119 -0.0376 -0.2936
 5049SOL    HW126783   0.813   4.527  14.797 -0.6872  0.1264 -0.6579
 5049SOL    HW226784   0.807   4.655  14.716 -1.2373 -0.2403 -0.0337
 5050SOL     OW26785   1.111   3.018   2.426  0.1479 -0.0705 -0.1828
 5050SOL    HW126786   1.196   2.973   2.422 -0.0093 -0.4624  1.1453
 5050SOL    HW226787   1.056   2.954   2.380  0.5278 -0.0220 -0.7078
 5051SOL     OW26788   3.294   1.542   5.625 -0.2677  0.5100  0.2062
 5051SOL    HW126789   3.332   1.625   5.653  2.8300 -0.9273  0.1958
 5051SOL    HW226790   3.210   1.553   5.669 -1.7277 -1.5951 -2.0517
 5052SOL     OW26791   1.183   1.259   3.695 -0.5177 -0.3925 -0.4183
 5052SOL    HW126792   1.136   1.316   3.635 -1.5655  3.1049  3.7240
 5052SOL    HW226793   1.260   1.316   3.692 -0.8808  0.2855  3.0754
 5053SOL     OW26794   2.294   2.336   7.378  0.1312 -0.8663 -0.3884
 5053SOL    HW126795   2.325   2.402   7.440 -2.1607  1.6415 -1.9112
 5053SOL    HW226796   2.369   2.278   7.370 -0.1931 -1.5975  1.6687
 5054SOL     OW26797   0.876   0.994   0.915 -0.4817  0.3824 -0.8672
 5054SOL    HW126798   0.921   1.071   0.949  0.6082 -0.8219  0.4339
 5054SOL    HW226799   0.850   0.961   1.002 -0.9887  1.9847 -0.4092
 5055SOL     OW26800   2.061   0.183  10.588 -0.0743  0.0735  0.2769
 5055SOL    HW126801   2.125   0.148  10.525  1.1717  0.1256  1.5010
 5055SOL    HW226802   2.089   0.146  10.672  1.2170 -0.9500 -0.5879
 5056SOL     OW26803   1.302   0.172  11.847  0.1341 -0.4003  0.0837
 5056SOL    HW126804   1.235   0.211  11.791 -1.1316 -2.6562  0.0271
 5056SOL    HW226805   1.378   0.185  11.790  0.1112 -2.3319 -0.3807
 5057SOL     OW26806   0.334   3.762   1.955  0.0812 -0.1388  0.1315
 5057SOL    HW126807   0.362   3.781   2.045  1.6864  0.1193 -0.4246
 5057SOL    HW226808   0.391   3.688   1.935 -0.8643 -0.7361 -0.3449
 5058SOL     OW26809   4.644   4.002   3.122  0.1965  0.0572  0.3382
 5058SOL    HW126810   4.560   4.044   3.104  0.9921  1.3538 -0.2874
 5058SOL    HW226811   4.639   3.920   3.074 -2.3139  0.9962 -0.9917
 5059SOL     OW26812   1.776   0.502   3.502 -0.1644  0.0697 -0.0865
 5059SOL    HW126813   1.756   0.579   3.556  0.7869 -0.3763  0.8799
 5059SOL    HW226814   1.827   0.534   3.428 -1.4606  0.3642 -0.8586
 5060SOL     OW26815   4.120   0.232   6.458 -0.2336  0.2827  0.7572
 5060SOL    HW126816   4.201   0.201   6.501 -0.8755 -0.4481  1.4380
 5060SOL    HW226817   4.081   0.281   6.530  2.5934  0.7048  2.0317
 5061SOL     OW26818   0.904   4.504   6.826  0.0470  0.0250  0.1475
 5061SOL    HW126819   0.968   4.486   6.756  0.1418  1.5268 -0.1629
 5061SOL    HW226820   0.847   4.428   6.832  0.0310  0.1734  1.8869
 5062SOL     OW26821   3.993   3.656   7.329  0.1092 -0.4771 -0.2417
 5062SOL    HW126822   4.060   3.723   7.320  0.5854 -0.5772  2.5553
 5062SOL    HW226823   3.963   3.640   7.239  0.2056  0.3360 -0.4179
 5063SOL     OW26824   1.708   1.159   6.118  0.6777 -0.3252 -0.5473
 5063SOL    HW126825   1.774   1.144   6.186  2.8765  0.9708 -2.4108
 5063SOL    HW226826   1.761   1.204   6.053  0.6687 -0.1452 -0.4294
 5064SOL     OW26827   0.892   0.811   7.746  0.0441 -0.0967 -0.0063
 5064SOL    HW126828   0.921   0.727   7.781 -0.2559 -1.2278 -2.4652
 5064SOL    HW226829   0.935   0.866   7.811  0.1840  1.9292 -1.8240
 5065SOL     OW26830   2.772   0.315   8.042  0.0415  0.1449 -0.2389
 5065SOL    HW126831   2.835   0.264   8.093 -1.6912 -2.5905 -0.8697
 5065SOL    HW226832   2.828   0.378   7.996  2.3149 -1.7108 -0.0609
 5066SOL     OW26833   0.446   1.317   3.377  0.1709 -0.2907  0.2181
 5066SOL    HW126834   0.520   1.368   3.412 -0.9907  0.0036  2.2146
 5066SOL    HW226835   0.438   1.239   3.432 -2.5332  0.0008  0.2156
 5067SOL     OW26836   1.925   4.303   0.521 -0.2422 -0.2941  0.1246
 5067SOL    HW126837   1.867   4.332   0.451 -0.1498 -0.1999  0.0864
 5067SOL    HW226838   2.000   4.355   0.493  1.3222 -2.2262  0.7045
 5068SOL     OW26839   4.315   0.086  15.429 -0.4755  0.5062 -0.3630
 5068SOL    HW126840   4.350   0.125  15.509  0.4249  0.3264 -0.6634
 5068SOL    HW226841   4.318   0.162  15.370  0.4793  1.1168  0.4639
 5069SOL     OW26842   0.277   2.427   1.817 -0.5848 -0.1349 -0.2140
 5069SOL    HW126843   0.209   2.427   1.750 -0.4038 -0.2799 -0.3975
 5069SOL    HW226844   0.344   2.404   1.752 -0.1787 -1.2262  0.5841
 5070SOL     OW26845   0.322   2.475  12.904  0.1795 -0.3626 -0.4876
 5070SOL    HW126846   0.338   2.412  12.834  1.5300 -0.7078  0.1132
 5070SOL    HW226847   0.413   2.491  12.930 -0.1640 -0.2664  0.6771
 5071SOL     OW26848   4.163   1.810   4.838  0.0104 -0.0559 -0.5857
 5071SOL    HW126849   4.143   1.799   4.931  1.8906 -1.2554 -0.3380
 5071SOL    HW226850   4.226   1.738   4.834  0.3799  0.5506 -5.2568
 5072SOL     OW26851   4.270   0.870   7.541  0.2892  0.0877 -0.6134
 5072SOL    HW126852   4.315   0.792   7.509  0.6997 -0.3961  1.1087
 5072SOL    HW226853   4.338   0.937   7.550 -2.1031  2.1776  2.0409
 5073SOL     OW26854   1.492   0.605  10.978 -0.0890  0.2745  0.2753
 5073SOL    HW126855   1.497   0.612  10.882 -0.4777  0.3890  0.2644
 5073SOL    HW226856   1.398   0.606  10.993 -0.3810 -0.3631 -1.4508
 5074SOL     OW26857   3.753   0.685   5.099 -0.0610 -0.1990  0.2020
 5074SOL    HW126858   3.707   0.759   5.138  2.0899  1.9140 -1.2783
 5074SOL    HW226859   3.804   0.728   5.030  0.0445 -2.3303 -1.0670
 5075SOL     OW26860   2.046   1.855   2.718 -0.3455 -0.0952 -0.1099
 5075SOL    HW126861   2.126   1.826   2.761  0.3655  3.0462  0.6982
 5075SOL    HW226862   2.078   1.861   2.628 -2.1549 -2.3490 -0.9211
 5076SOL     OW26863   4.193   1.691   1.850  0.2008  0.5323  0.1326
 5076SOL    HW126864   4.165   1.717   1.762  2.3401 -1.7033 -1.2248
 5076SOL    HW226865   4.245   1.761   1.889  1.7354 -0.4796 -0.0667
 5077SOL     OW26866   3.099   0.190  11.262  0.5095  0.1871  0.0328
 5077SOL    HW126867   3.165   0.147  11.317  0.9975 -0.7680 -1.3043
 5077SOL    HW226868   3.090   0.279  11.298 -2.0519 -0.4866  1.0115
 5078SOL     OW26869   0.346   2.547   6.627 -0.1505  0.4513 -0.4163
 5078SOL    HW126870   0.368   2.638   6.607  1.8353 -0.2789 -1.5231
 5078SOL    HW226871   0.418   2.501   6.584  0.9862  0.3480  1.6022
 5079SOL     OW26872   3.751   3.374  16.820  0.7623  0.0158 -0.5364
 5079SOL    HW126873   3.701   3.332  16.890  2.0865 -0.3776  0.1827
 5079SOL    HW226874   3.824   3.409  16.871  1.1091 -0.3957 -0.7520
 5080SOL     OW26875   2.647   2.968   9.260 -0.4726  0.1293 -0.1414
 5080SOL    HW126876   2.580   2.901   9.271 -1.1047  0.9695  1.1017
 5080SOL    HW226877   2.718   2.913   9.295 -0.6316  0.9797  1.5230
 5081SOL     OW26878   1.612   0.133   8.835 -0.2669  0.3477  0.1618
 5081SOL    HW126879   1.553   0.077   8.784  0.0545  0.6277 -0.5243
 5081SOL    HW226880   1.671   0.157   8.763 -1.9117 -1.3376 -1.7473
 5082SOL     OW26881   3.632   0.686   6.477 -0.5459 -0.0725 -0.1220
 5082SOL    HW126882   3.543   0.655   6.493  0.0586 -1.2007  1.0118
 5082SOL    HW226883   3.668   0.680   6.565  0.6626 -0.0854 -0.6210
 5083SOL     OW26884   3.908   2.650  15.298 -0.5664 -0.3664  0.2210
 5083SOL    HW126885   3.939   2.571  15.254 -2.2229 -0.0903 -1.4905
 5083SOL    HW226886   3.963   2.657  15.376 -0.0591 -1.8458 -0.0085
 5084SOL     OW26887   0.068   1.126  10.304 -0.1875 -0.4086 -0.7651
 5084SOL    HW126888   0.079   1.205  10.251  1.9054 -0.9726 -1.1668
 5084SOL    HW226889   0.155   1.088  10.290 -0.7619 -1.5070 -1.3579
 5085SOL     OW26890   1.309   3.782   0.626  0.2598 -0.2918 -0.1035
 5085SOL    HW126891   1.330   3.764   0.718 -1.2843 -2.0418 -0.0950
 5085SOL    HW226892   1.261   3.865   0.631 -0.4191 -0.7706  1.3779
 5086SOL     OW26893   4.562   3.731   3.374  0.0281 -0.2461 -0.1399
 5086SOL    HW126894   4.598   3.656   3.327  1.6561 -0.4271  1.4131
 5086SOL    HW226895   4.562   3.793   3.301 -0.4111  0.6450  0.6239
 5087SOL     OW26896   4.472   3.313   4.186 -0.2129 -0.6317 -0.1420
 5087SOL    HW126897   4.487   3.222   4.163  1.7553 -0.0803 -1.0163
 5087SOL    HW226898   4.412   3.341   4.116 -1.4834 -0.5386  0.9821
 5088SOL     OW26899   0.523   0.825   5.432  0.2085  0.9416 -0.2995
 5088SOL    HW126900   0.541   0.743   5.477  0.4609  0.9629 -0.3623
 5088SOL    HW226901   0.467   0.872   5.494  0.1300 -0.3639  0.6084
 5089SOL     OW26902   1.711   1.468   3.170 -0.2834  0.0565 -0.1909
 5089SOL    HW126903   1.764   1.544   3.147  1.2485 -0.8501  0.2712
 5089SOL    HW226904   1.725   1.419   3.088 -0.5630 -0.2297 -0.0675
 5090SOL     OW26905   0.862   1.857   6.003  0.2301 -0.2505  0.2002
 5090SOL    HW126906   0.853   1.877   5.910  3.0233  2.1452  0.4403
 5090SOL    HW226907   0.850   1.949   6.025 -1.3475 -0.2075 -0.8236
 5091SOL     OW26908   4.103   4.436   6.124  0.0766  0.1535  0.0924
 5091SOL    HW126909   4.197   4.440   6.137  0.0856  2.0778 -0.5949
 5091SOL    HW226910   4.091   4.528   6.103  1.0775  0.5899  1.4756
 5092SOL     OW26911   2.251   1.954   5.176 -0.0881 -0.1896  0.2829
 5092SOL    HW126912   2.202   1.920   5.252  2.0135 -0.7140  1.4071
 5092SOL    HW226913   2.225   2.046   5.186 -0.6553 -0.4608  1.3686
 5093SOL     OW26914   3.471   3.843   1.155 -0.3520 -0.2336 -0.1554
 5093SOL    HW126915   3.397   3.782   1.156 -0.5333 -0.0760 -2.5680
 5093SOL    HW226916   3.545   3.785   1.174 -1.2296 -1.3470 -0.1518
 5094SOL     OW26917   0.583   3.349   9.865 -0.0478  0.4180  0.1107
 5094SOL    HW126918   0.592   3.254   9.855 -0.7468  0.1601  1.9834
 5094SOL    HW226919   0.625   3.356   9.951  1.0581 -0.8463 -0.3243
 5095SOL     OW26920   0.946   3.656   5.475 -0.0925  0.1352  0.1802
 5095SOL    HW126921   0.957   3.720   5.404  0.3162  0.6793  0.7295
 5095SOL    HW226922   0.971   3.581   5.421  0.1358 -0.3662  0.9836
 5096SOL     OW26923   3.766   3.531  10.882  0.0796 -0.5022  0.2178
 5096SOL    HW126924   3.767   3.532  10.977 -0.8086  2.1835  0.2014
 5096SOL    HW226925   3.681   3.572  10.866  1.2410  1.6017 -0.5913
 5097SOL     OW26926   0.877   2.634  16.530 -0.0625 -0.0343 -0.0652
 5097SOL    HW126927   0.829   2.596  16.604  2.3265  0.1908  1.6401
 5097SOL    HW226928   0.969   2.612  16.546  0.6768  1.6250 -2.0513
 5098SOL     OW26929   1.811   1.190   3.902  0.3037 -0.3301  0.2570
 5098SOL    HW126930   1.835   1.148   3.985  2.0346  0.7970  0.3340
 5098SOL    HW226931   1.719   1.168   3.894  0.1463 -0.0647  1.2808
 5099SOL     OW26932   4.173   4.644  15.085 -0.7988 -0.3349 -0.7549
 5099SOL    HW126933   4.097   4.687  15.125  0.5299  0.1935  1.1502
 5099SOL    HW226934   4.202   4.715  15.028  2.2893 -1.4042 -0.5007
 5100SOL     OW26935   1.096   1.896   2.641  0.1961  0.2595  0.9019
 5100SOL    HW126936   1.048   1.873   2.562 -0.1733  2.1278  0.5850
 5100SOL    HW226937   1.184   1.859   2.631  0.5126  1.3796 -0.5051
 5101SOL     OW26938   3.275   1.990   2.598  0.8016 -0.5573  0.0915
 5101SOL    HW126939   3.261   1.907   2.645 -1.2164  1.0770  2.3648
 5101SOL    HW226940   3.352   2.022   2.644  0.8192  0.0259 -0.3523
 5102SOL     OW26941   4.307   2.542   9.681  0.4405  0.1939 -0.2509
 5102SOL    HW126942   4.276   2.452   9.679  0.7275  0.0904  0.0230
 5102SOL    HW226943   4.349   2.547   9.595 -0.7198  1.8166 -0.7252
 5103SOL     OW26944   0.759   1.628   9.080  0.0620  0.7205  0.8535
 5103SOL    HW126945   0.833   1.567   9.069  0.4497  1.2351  0.5946
 5103SOL    HW226946   0.710   1.611   8.999  0.3027 -2.0954  1.3010
 5104SOL     OW26947   0.940   0.901  10.047 -0.5628 -0.1145  0.3882
 5104SOL    HW126948   0.999   0.952   9.992 -0.9724  1.4236  1.3830
 5104SOL    HW226949   0.966   0.932  10.134  0.7190  3.7891 -1.4295
 5105SOL     OW26950   4.358   3.027   4.802 -0.1535 -0.1529 -0.4735
 5105SOL    HW126951   4.277   3.056   4.761 -0.6611  0.6921  1.1253
 5105SOL    HW226952   4.435   3.065   4.759  0.2276 -1.8772 -1.2873
 5106SOL     OW26953   2.342   0.736   2.549 -0.0078 -0.2694  0.0287
 5106SOL    HW126954   2.250   0.712   2.539  0.1922  0.1601 -2.8125
 5106SOL    HW226955   2.346   0.764   2.641 -0.6200 -0.6030  0.1587
 5107SOL     OW26956   4.199   2.372  14.918  0.3769 -0.1617 -0.4760
 5107SOL    HW126957   4.273   2.387  14.978  0.6048 -0.7474 -0.6034
 5107SOL    HW226958   4.145   2.309  14.965 -1.0814  0.2518 -1.6290
 5108SOL     OW26959   1.643   1.863   3.112 -0.5726 -0.3142 -0.1177
 5108SOL    HW126960   1.632   1.828   3.024 -2.2977 -2.0531  0.8038
 5108SOL    HW226961   1.554   1.876   3.143 -0.5017  0.9458 -0.4257
 5109SOL     OW26962   1.851   0.073   1.750  0.2027  0.2032  0.2375
 5109SOL    HW126963   1.939   0.036   1.750  0.2689  0.3729  1.4427
 5109SOL    HW226964   1.854   0.157   1.796  0.4381 -0.3020  1.1504
 5110SOL     OW26965   2.980   0.399  12.663 -0.3054 -0.1149 -0.0205
 5110SOL    HW126966   3.043   0.358  12.722 -0.7539 -1.1353 -0.2464
 5110SOL    HW226967   3.031   0.474  12.635  1.5931 -1.3903  0.0146
 5111SOL     OW26968   2.323   1.049  10.027  0.9826 -0.1851 -0.6622
 5111SOL    HW126969   2.299   0.956  10.019  1.8658 -0.3351 -1.5705
 5111SOL    HW226970   2.406   1.053   9.979  0.2004 -2.3238 -2.1803
 5112SOL     OW26971   0.892   1.125   6.109 -0.1171  0.1937 -0.2750
 5112SOL    HW126972   0.942   1.043   6.100 -3.3776 -1.7438 -0.5058
 5112SOL    HW226973   0.938   1.164   6.184 -1.7369 -0.7702  1.1954
 5113SOL     OW26974   1.132   3.517  13.838  0.3888 -0.0563  0.2873
 5113SOL    HW126975   1.040   3.496  13.851  0.4258 -0.4642 -0.1107
 5113SOL    HW226976   1.133   3.546  13.746  0.3275 -1.7153 -0.2366
 5114SOL     OW26977   1.831   4.429   5.447  0.1531  0.5872  0.2203
 5114SOL    HW126978   1.806   4.522   5.450  0.7709  0.7810 -0.4764
 5114SOL    HW226979   1.900   4.431   5.381 -1.1095  2.8138 -1.0347
 5115SOL     OW26980   2.863   2.795  15.986 -0.4533  0.0038 -0.1686
 5115SOL    HW126981   2.844   2.882  15.952  1.1316  0.3896 -0.0915
 5115SOL    HW226982   2.851   2.746  15.904  0.9466 -2.0742  0.8591
 5116SOL     OW26983   1.844   3.792   5.297  0.2980  0.2416  0.0789
 5116SOL    HW126984   1.917   3.826   5.349  0.9635 -1.2700  0.1220
 5116SOL    HW226985   1.881   3.783   5.209 -0.4176  0.9209 -0.2930
 5117SOL     OW26986   3.622   4.373   8.466 -0.0757 -0.1771  0.0105
 5117SOL    HW126987   3.646   4.301   8.407 -3.1295 -0.9715 -0.2559
 5117SOL    HW226988   3.527   4.377   8.463 -0.1273  1.5076  3.9337
 5118SOL     OW26989   1.391   1.600  11.879  0.3823  0.4987  0.3083
 5118SOL    HW126990   1.437   1.684  11.888  4.0847 -1.3275 -1.5375
 5118SOL    HW226991   1.305   1.632  11.905  0.5507  0.9461  0.3106
 5119SOL     OW26992   1.047   0.419  15.911  0.4964  0.4185  0.1895
 5119SOL    HW126993   0.955   0.425  15.888  0.8704  1.6598 -1.0041
 5119SOL    HW226994   1.086   0.456  15.832  1.3255 -3.4560 -1.2385
 5120SOL     OW26995   0.561   0.282   7.129  0.4097  0.0866  0.6977
 5120SOL    HW126996   0.601   0.207   7.084 -1.2233 -0.1724 -0.3166
 5120SOL    HW226997   0.491   0.242   7.180 -0.1148  1.1964  0.8536
 5121SOL     OW26998   2.790   0.252  14.242  0.1052  0.1340 -0.5942
 5121SOL    HW126999   2.725   0.293  14.184  0.4273  2.2845  0.5505
 5121SOL    HW227000   2.742   0.268  14.323  3.2258  2.6323  0.7283
 5122SOL     OW27001   4.655   2.830   4.088  0.2499  0.4533 -0.2473
 5122SOL    HW127002   4.721   2.849   4.021 -0.6632  0.4714 -1.1529
 5122SOL    HW227003   4.622   2.743   4.064  1.7123 -0.5482  1.3769
 5123SOL     OW27004   2.966   4.360  11.050  0.3072  0.6014 -0.2478
 5123SOL    HW127005   3.053   4.401  11.048  0.6470 -0.0571  0.8855
 5123SOL    HW227006   2.902   4.425  11.078 -3.3231 -2.3835 -1.5086
 5124SOL     OW27007   3.810   0.640   5.875  0.1535 -0.1105 -0.0174
 5124SOL    HW127008   3.825   0.579   5.803  1.4417 -0.4295  0.5305
 5124SOL    HW227009   3.826   0.583   5.951 -1.2923  1.1492  1.2325
 5125SOL     OW27010   4.335   1.201  12.998 -0.3719  0.0621  0.0436
 5125SOL    HW127011   4.371   1.280  12.956 -0.6173 -0.3467 -0.9225
 5125SOL    HW227012   4.357   1.213  13.090  1.7908 -0.7014 -0.3654
 5126SOL     OW27013   4.181   3.467   1.772  0.6054  0.5117  0.6725
 5126SOL    HW127014   4.253   3.517   1.735 -0.7700  2.1259  0.1615
 5126SOL    HW227015   4.214   3.379   1.790  0.8558  0.4789  0.0482
 5127SOL     OW27016   3.437   3.083   6.407  0.2577 -0.2431 -0.6428
 5127SOL    HW127017   3.398   2.996   6.403  0.6481 -0.4588  0.1636
 5127SOL    HW227018   3.371   3.129   6.459 -0.2890 -2.7270  0.8643
 5128SOL     OW27019   1.919   1.145   6.301 -0.2187  0.1712 -0.0737
 5128SOL    HW127020   1.984   1.077   6.316 -1.0062 -0.7255 -0.7433
 5128SOL    HW227021   1.916   1.183   6.389  0.6912  1.2610 -0.5084
 5129SOL     OW27022   1.521   2.552   1.993  0.0511  0.4947 -0.3621
 5129SOL    HW127023   1.563   2.538   1.908 -0.6071  0.3605 -0.6689
 5129SOL    HW227024   1.436   2.576   1.955  1.2071 -0.9515 -3.7894
 5130SOL     OW27025   4.127   1.642   6.756  0.5175  0.1873 -0.2616
 5130SOL    HW127026   4.086   1.605   6.678 -2.8470 -0.6857  1.9080
 5130SOL    HW227027   4.067   1.717   6.760 -2.6627 -2.4471  1.3259
 5131SOL     OW27028   2.621   3.973   5.215 -0.2194  0.8728  0.0223
 5131SOL    HW127029   2.628   3.881   5.242  1.0275  1.4762  1.8065
 5131SOL    HW227030   2.713   3.999   5.219  0.2542 -0.7781  0.1523
 5132SOL     OW27031   3.034   1.555  15.322  0.3889  0.0850  0.2205
 5132SOL    HW127032   3.031   1.550  15.417 -3.0320 -0.4117  0.0943
 5132SOL    HW227033   2.942   1.580  15.309  0.6042  0.2477 -0.9947
 5133SOL     OW27034   3.788   0.153   3.901 -0.4095  0.5100  0.2653
 5133SOL    HW127035   3.723   0.113   3.844 -0.7965 -0.2401  1.2339
 5133SOL    HW227036   3.845   0.076   3.899 -0.8801  0.1604  0.2483
 5134SOL     OW27037   2.818   1.264  17.415  0.4362 -0.0481 -0.4309
 5134SOL    HW127038   2.819   1.334  17.350 -0.6912  0.2010 -0.1839
 5134SOL    HW227039   2.744   1.209  17.390 -0.8818  0.7027  1.7495
 5135SOL     OW27040   0.346   2.617   2.858 -0.1250  0.7577 -0.1442
 5135SOL    HW127041   0.331   2.712   2.850  0.6437  0.7577 -1.5645
 5135SOL    HW227042   0.314   2.597   2.946 -1.8292  1.4742 -0.5903
 5136SOL     OW27043   0.096   2.444   7.186  0.4360 -0.2933 -0.0724
 5136SOL    HW127044   0.014   2.407   7.219  1.8014 -2.2582  1.1119
 5136SOL    HW227045   0.150   2.457   7.263  2.5303 -1.3290 -1.3669
 5137SOL     OW27046   2.582   1.065   3.814  0.1594  0.2696 -0.1786
 5137SOL    HW127047   2.668   1.105   3.816  0.0353  0.6387 -2.2468
 5137SOL    HW227048   2.569   1.027   3.901  0.3535  0.6229 -0.0000
 5138SOL     OW27049   1.881   0.437   6.051  0.7654  0.2627 -0.0272
 5138SOL    HW127050   1.786   0.429   6.063  0.7137  1.5652  0.4389
 5138SOL    HW227051   1.877   0.483   5.968  0.7803 -1.5506 -1.0251
 5139SOL     OW27052   0.925   2.640   3.801 -0.7147 -0.5020  0.6175
 5139SOL    HW127053   0.857   2.593   3.753 -0.2837 -0.5263  0.0193
 5139SOL    HW227054   0.991   2.654   3.733 -1.1619 -0.3311  0.2191
 5140SOL     OW27055   0.804   0.414  15.464 -0.2898  0.2404 -0.0111
 5140SOL    HW127056   0.784   0.504  15.437 -1.0389 -0.0331 -0.3642
 5140SOL    HW227057   0.878   0.396  15.406 -0.0091  0.0886  0.3944
 5141SOL     OW27058   2.731   3.811   8.055 -0.5749  0.5047  0.5427
 5141SOL    HW127059   2.826   3.820   8.051 -0.4862 -0.1973  1.0690
 5141SOL    HW227060   2.712   3.890   8.005  2.9084  0.3175 -1.0370
 5142SOL     OW27061   0.540   2.019   2.214  0.3340 -0.3377 -0.3357
 5142SOL    HW127062   0.585   2.097   2.183 -1.1774  0.2306 -1.0987
 5142SOL    HW227063   0.584   1.949   2.165 -1.0628 -0.0283 -2.0388
 5143SOL     OW27064   1.157   0.806   9.322  0.4321 -0.1843 -0.2998
 5143SOL    HW127065   1.217   0.739   9.356 -0.3423 -0.7877 -0.1120
 5143SOL    HW227066   1.197   0.812   9.235 -0.6255 -1.8527 -0.9151
 5144SOL     OW27067   4.604   3.088   4.678 -0.0464 -0.0445 -0.0405
 5144SOL    HW127068   4.654   3.046   4.748 -2.9164 -3.0066  0.2791
 5144SOL    HW227069   4.566   3.159   4.729 -0.0397  0.0289 -0.1386
 5145SOL     OW27070   3.684   3.850  15.138  0.6177 -0.1845  0.0992
 5145SOL    HW127071   3.659   3.939  15.113 -1.1549 -0.6640  0.1844
 5145SOL    HW227072   3.656   3.809  15.055  0.8496 -0.7884  0.3164
 5146SOL     OW27073   0.019   2.427   5.606 -0.3020 -0.0604 -0.9191
 5146SOL    HW127074   4.673   2.378   5.630 -0.3552  0.9881  1.0881
 5146SOL    HW227075   4.711   2.513   5.609 -1.8239 -0.7578 -2.0872
 5147SOL     OW27076   3.764   1.982   4.410 -0.3981 -0.1457  0.1461
 5147SOL    HW127077   3.786   2.001   4.319  3.3226 -1.3456  0.8280
 5147SOL    HW227078   3.672   2.010   4.412 -0.9691 -2.1081  1.6313
 5148SOL     OW27079   4.465   0.573   3.726  0.2627 -0.5546  0.3082
 5148SOL    HW127080   4.480   0.661   3.691 -0.3620 -1.7626 -3.0169
 5148SOL    HW227081   4.373   0.584   3.752 -0.6150 -1.9778 -2.1300
 5149SOL     OW27082   3.224   0.976   8.000 -0.3787 -0.2738  0.2726
 5149SOL    HW127083   3.244   0.892   7.960  0.4622  0.5143 -0.9675
 5149SOL    HW227084   3.199   1.026   7.922  0.5249 -1.9402 -1.0771
 5150SOL     OW27085   3.659   0.206   4.654  0.3127  0.1217  0.2591
 5150SOL    HW127086   3.640   0.215   4.561  0.1729 -3.3933 -0.0592
 5150SOL    HW227087   3.576   0.168   4.685 -1.1522  2.0536 -1.3635
 5151SOL     OW27088   3.716   0.424   8.874 -0.3320  0.1520 -0.4058
 5151SOL    HW127089   3.772   0.397   8.947 -1.5615 -0.4274  0.3255
 5151SOL    HW227090   3.705   0.516   8.896 -2.2436 -0.1833  0.0922
 5152SOL     OW27091   1.382   4.644   6.685 -0.6692 -0.1831  0.0397
 5152SOL    HW127092   1.389   4.598   6.601  3.0291 -2.2859  1.4743
 5152SOL    HW227093   1.424   4.574   6.736  1.0924  1.4353  0.7736
 5153SOL     OW27094   0.014   2.871   5.688 -0.0218  0.4496 -0.7143
 5153SOL    HW127095   4.712   2.802   5.633  0.1314  0.0645 -0.3263
 5153SOL    HW227096   4.674   2.878   5.748  0.4749  0.5400 -0.1105
 5154SOL     OW27097   4.392   4.549   4.854 -0.7398  0.3421 -0.5707
 5154SOL    HW127098   4.479   4.509   4.854 -0.7111  0.4024 -0.9931
 5154SOL    HW227099   4.399   4.613   4.925 -2.8283  1.1134 -1.0893
 5155SOL     OW27100   0.874   2.102   4.460 -0.5267  0.1042 -0.1678
 5155SOL    HW127101   0.784   2.134   4.469  0.1802  2.0763 -0.0993
 5155SOL    HW227102   0.887   2.107   4.366 -0.7222 -0.5590 -0.2340
 5156SOL     OW27103   0.001   4.152   6.602 -0.0554 -0.5216  0.0459
 5156SOL    HW127104   0.048   4.192   6.675 -0.4460 -2.0866  1.1522
 5156SOL    HW227105   0.076   4.127   6.547 -0.3038 -1.7761  0.2682
 5157SOL     OW27106   3.500   0.304   2.943 -0.4217 -0.0629  0.0295
 5157SOL    HW127107   3.475   0.222   2.985 -0.0889 -1.0520 -1.7063
 5157SOL    HW227108   3.531   0.275   2.857  2.1613  0.5394  0.7451
 5158SOL     OW27109   2.509   4.447   7.036 -0.0639 -0.7464 -0.1185
 5158SOL    HW127110   2.562   4.527   7.035  0.2632 -0.9697 -0.5334
 5158SOL    HW227111   2.531   4.416   6.948 -1.9557 -0.7116 -0.5976
 5159SOL     OW27112   4.218   1.710  13.659 -0.1791  0.6111  0.2427
 5159SOL    HW127113   4.201   1.804  13.653  1.1128  0.8220 -0.1102
 5159SOL    HW227114   4.289   1.710  13.594 -0.1428 -1.8598  0.2923
 5160SOL     OW27115   2.469   3.758   7.858  0.3161  0.0400 -0.5092
 5160SOL    HW127116   2.540   3.786   7.801 -0.6179  1.2606 -1.0843
 5160SOL    HW227117   2.510   3.719   7.935 -0.5986  0.4514  0.1932
 5161SOL     OW27118   0.276   2.983   8.315 -0.2681 -0.2956 -0.1954
 5161SOL    HW127119   0.205   2.976   8.380  0.4676 -0.6942  0.5628
 5161SOL    HW227120   0.252   2.923   8.244  3.8531 -2.5602  0.3433
 5162SOL     OW27121   0.189   4.368   2.160 -0.1867 -0.4038  0.4692
 5162SOL    HW127122   0.140   4.417   2.094  1.5160  2.1549  1.1248
 5162SOL    HW227123   0.272   4.375   2.114 -1.3383  3.6201 -0.9857
 5163SOL     OW27124   4.364   1.700   3.066 -0.0893 -0.1050 -0.5206
 5163SOL    HW127125   4.435   1.764   3.079 -1.0303  1.0459 -1.0351
 5163SOL    HW227126   4.405   1.627   3.114 -1.2927  0.3083  1.1527
 5164SOL     OW27127   1.658   3.816   6.468 -0.0865 -0.2473  0.0998
 5164SOL    HW127128   1.600   3.877   6.513 -0.1341 -1.0337  1.1263
 5164SOL    HW227129   1.711   3.874   6.415  1.4338 -2.4063 -0.7516
 5165SOL     OW27130   1.600   3.265  12.513  0.2599 -0.2829  0.5994
 5165SOL    HW127131   1.532   3.275  12.446 -1.0053 -0.7227  1.8178
 5165SOL    HW227132   1.617   3.172  12.522  0.4674 -0.2253  0.7966
 5166SOL     OW27133   4.035   2.665   9.409 -0.0371 -0.2522  0.0244
 5166SOL    HW127134   4.119   2.698   9.376  0.1023  1.7545  2.4013
 5166SOL    HW227135   3.994   2.658   9.323 -0.6500  1.1477  0.2212
 5167SOL     OW27136   0.867   1.597  13.073 -0.5237 -0.2812  0.1673
 5167SOL    HW127137   0.801   1.558  13.016 -1.1171  0.5516  0.2687
 5167SOL    HW227138   0.872   1.684  13.033  0.7800 -0.7500 -0.6915
 5168SOL     OW27139   0.727   1.400   3.986  1.1191  0.4454  0.3870
 5168SOL    HW127140   0.777   1.319   3.998  0.3859 -0.0137  0.3574
 5168SOL    HW227141   0.758   1.427   3.899  1.7024 -0.2023  0.3910
 5169SOL     OW27142   1.453   4.177   0.535  0.1358 -0.1401 -0.0408
 5169SOL    HW127143   1.435   4.258   0.488 -2.4366 -0.7452 -0.0927
 5169SOL    HW227144   1.519   4.199   0.600  1.0542 -0.8228 -0.7405
 5170SOL     OW27145   0.784   0.862   1.145  0.1923 -0.2121 -0.1256
 5170SOL    HW127146   0.736   0.784   1.175  0.4136 -0.8672 -1.4542
 5170SOL    HW227147   0.803   0.904   1.228  2.6788  0.5865 -1.0904
 5171SOL     OW27148   2.287   1.552  15.853 -0.8784 -0.0278 -0.2102
 5171SOL    HW127149   2.241   1.597  15.924  0.1343 -1.3643  1.2847
 5171SOL    HW227150   2.380   1.565  15.872 -1.0348 -0.2564  0.6847
 5172SOL     OW27151   2.884   0.463   4.138  0.0144 -0.2057 -0.3538
 5172SOL    HW127152   2.838   0.433   4.060  0.0301 -3.7505  0.9686
 5172SOL    HW227153   2.863   0.554   4.117 -0.7204 -0.8727 -2.5388
 5173SOL     OW27154   3.198   4.505   2.164  0.1548 -0.1009  0.3469
 5173SOL    HW127155   3.106   4.484   2.151  0.3309 -1.4260  1.2619
 5173SOL    HW227156   3.242   4.510   2.079 -1.7152  1.9051 -0.4968
 5174SOL     OW27157   0.589   4.565   3.445  0.0953  0.0982  0.0301
 5174SOL    HW127158   0.648   4.496   3.475  1.2747  1.4387  0.7884
 5174SOL    HW227159   0.564   4.507   3.373  0.6327  2.7094 -2.2366
 5175SOL     OW27160   3.384   0.312   5.456  0.4066 -0.0950 -0.5185
 5175SOL    HW127161   3.309   0.328   5.398  1.6500  2.2051 -1.4762
 5175SOL    HW227162   3.400   0.399   5.493  0.7509 -0.7239  0.7867
 5176SOL     OW27163   3.827   4.349  13.932  0.4396  0.5445 -0.2060
 5176SOL    HW127164   3.883   4.383  13.862 -0.2040  3.4635  0.6907
 5176SOL    HW227165   3.817   4.264  13.891 -0.3792 -0.3949  1.9843
 5177SOL     OW27166   1.643   0.521   7.221 -0.1648 -0.5189 -0.3158
 5177SOL    HW127167   1.553   0.544   7.197 -0.3657  0.9362  1.8916
 5177SOL    HW227168   1.675   0.483   7.139  1.0946 -0.4371  0.1365
 5178SOL     OW27169   3.235   2.942   8.970 -0.6513  0.1798 -0.3568
 5178SOL    HW127170   3.163   2.999   8.941 -1.2044  0.1638  0.9845
 5178SOL    HW227171   3.304   2.957   8.906  0.0654  0.0702  0.3981
 5179SOL     OW27172   2.380   2.756  14.149 -0.6795  0.2669 -0.1776
 5179SOL    HW127173   2.429   2.736  14.069  0.6657  2.9989 -0.0208
 5179SOL    HW227174   2.327   2.827  14.112 -0.9308 -0.7500 -1.7795
 5180SOL     OW27175   0.376   3.630   6.508  0.0797  0.6249  0.1726
 5180SOL    HW127176   0.285   3.600   6.506  1.4850 -3.5751 -0.5399
 5180SOL    HW227177   0.371   3.702   6.571  0.4664  0.5584  0.2753
 5181SOL     OW27178   0.696   0.169   8.838  0.1305 -0.3191 -1.0020
 5181SOL    HW127179   0.772   0.192   8.891 -0.1456  0.0768 -0.7831
 5181SOL    HW227180   0.676   0.083   8.874  0.5542 -0.1197 -0.2953
 5182SOL     OW27181   0.499   0.679   5.964  0.2307 -0.1104 -0.4883
 5182SOL    HW127182   0.550   0.660   6.043  0.1800  0.8848 -0.2156
 5182SOL    HW227183   0.566   0.727   5.915 -1.8843  0.9880 -2.2931
 5183SOL     OW27184   4.677   1.212   8.851  0.2915  0.5165 -0.3440
 5183SOL    HW127185   4.722   1.246   8.929 -0.3512  0.0156  0.2457
 5183SOL    HW227186   0.002   1.140   8.829  0.8083  1.1029 -0.8970
 5184SOL     OW27187   2.516   3.440   8.321 -0.3584 -0.5895  0.4941
 5184SOL    HW127188   2.555   3.527   8.325 -0.5423 -0.5019  0.3422
 5184SOL    HW227189   2.586   3.377   8.301  1.5102  2.2157 -1.7609
 5185SOL     OW27190   1.760   3.596   5.620 -0.1498 -0.4150 -0.6144
 5185SOL    HW127191   1.712   3.598   5.703  0.1442 -2.4949 -0.4129
 5185SOL    HW227192   1.708   3.533   5.571 -0.7891 -1.2155  1.0995
 5186SOL     OW27193   2.455   0.206  11.648  0.0090 -0.0022  0.3272
 5186SOL    HW127194   2.413   0.228  11.731  2.7770  1.4029  1.3654
 5186SOL    HW227195   2.549   0.221  11.659  0.5069 -0.9426 -2.6633
 5187SOL     OW27196   3.292   2.132  15.445  0.2516 -0.4657  0.4449
 5187SOL    HW127197   3.374   2.174  15.418 -0.8791  1.7621  0.5658
 5187SOL    HW227198   3.276   2.086  15.363 -0.6610  0.9523 -0.1481
 5188SOL     OW27199   1.141   2.053   0.451 -1.1364  0.5496  0.1109
 5188SOL    HW127200   1.178   2.093   0.372 -0.3429 -0.4892 -0.0437
 5188SOL    HW227201   1.103   1.975   0.409 -2.1193 -0.2548  2.5285
 5189SOL     OW27202   1.728   2.418   6.746  0.2698 -0.0901  0.4098
 5189SOL    HW127203   1.803   2.365   6.774  2.4245  1.2520 -2.7879
 5189SOL    HW227204   1.741   2.417   6.651 -1.6154  0.6805  0.1424
 5190SOL     OW27205   4.066   3.531   9.405  0.7222 -0.0296  0.3384
 5190SOL    HW127206   4.002   3.546   9.335 -0.0580  1.7719  1.4334
 5190SOL    HW227207   4.028   3.453   9.446 -1.0145  1.4384  1.5294
 5191SOL     OW27208   3.124   1.488  17.457 -0.3784  0.0542 -0.2218
 5191SOL    HW127209   3.081   1.435  17.524  3.2760  0.3002  2.2975
 5191SOL    HW227210   3.053   1.547  17.431  1.0899  2.0367  0.2349
 5192SOL     OW27211   4.088   1.588   5.722  0.4442  0.5956 -0.4615
 5192SOL    HW127212   4.050   1.621   5.641  0.5300 -1.5043 -1.3733
 5192SOL    HW227213   4.021   1.535   5.766  0.6572  0.6854 -0.0294
 5193SOL     OW27214   3.019   2.483  11.234 -0.4441 -0.1999  0.3461
 5193SOL    HW127215   3.076   2.445  11.167 -1.8537 -0.1745 -0.8825
 5193SOL    HW227216   3.049   2.574  11.237 -3.1789  0.6953  0.4065
 5194SOL     OW27217   0.176   0.152   6.575  0.8903 -0.3685 -0.3563
 5194SOL    HW127218   0.138   0.093   6.509  0.0587  1.0456 -1.1396
 5194SOL    HW227219   0.266   0.160   6.543 -0.2842 -2.0495 -4.1764
 5195SOL     OW27220   0.288   0.404  10.436 -0.1076  0.1825  0.0215
 5195SOL    HW127221   0.323   0.359  10.513 -2.4228  1.9789  2.1190
 5195SOL    HW227222   0.240   0.471  10.486  1.7555  3.0039 -2.0098
 5196SOL     OW27223   0.670   3.241  15.503 -0.4006  0.9439  0.5033
 5196SOL    HW127224   0.668   3.151  15.470 -0.6922  1.4582 -0.8685
 5196SOL    HW227225   0.713   3.287  15.431  1.6639 -0.6583  0.6928
 5197SOL     OW27226   2.821   0.094   4.269 -0.2181 -0.6084  0.1845
 5197SOL    HW127227   2.744   0.114   4.323  0.5951 -2.1696  1.9145
 5197SOL    HW227228   2.771   0.069   4.192 -1.3014  0.1477  0.6290
 5198SOL     OW27229   3.181   1.796  10.606  0.5776 -0.1261  0.5989
 5198SOL    HW127230   3.155   1.857  10.538  1.5031  1.3915  1.6063
 5198SOL    HW227231   3.096   1.771  10.642  0.7727 -1.1542  0.3652
 5199SOL     OW27232   0.282   2.858  11.341  0.1400 -0.1409 -0.3003
 5199SOL    HW127233   0.333   2.923  11.292  0.9993 -0.7100 -0.1500
 5199SOL    HW227234   0.263   2.795  11.271  1.3730 -1.3834  0.4845
 5200SOL     OW27235   0.328   3.582   5.948 -0.2070 -0.3663 -0.4596
 5200SOL    HW127236   0.244   3.541   5.969 -0.4567  1.2774  1.7531
 5200SOL    HW227237   0.356   3.513   5.888 -0.0613 -0.8429  0.1597
 5201SOL     OW27238   4.704   0.828  13.643  0.2558  0.6422  0.5760
 5201SOL    HW127239   4.674   0.816  13.733 -2.3635  0.7526 -0.3003
 5201SOL    HW227240   4.629   0.804  13.589 -0.3068 -0.2207  1.7402
 5202SOL     OW27241   3.901   4.356  10.828 -0.5718 -0.6645 -0.0760
 5202SOL    HW127242   3.976   4.301  10.849  0.2209 -0.5082 -2.4896
 5202SOL    HW227243   3.927   4.431  10.882 -1.0131 -1.1090  0.7498
 5203SOL     OW27244   0.806   0.208  10.141  0.1408 -0.5668 -0.0957
 5203SOL    HW127245   0.730   0.261  10.117  0.8641  0.6475  0.3109
 5203SOL    HW227246   0.845   0.269  10.204 -0.1075  0.1218 -0.6011
 5204SOL     OW27247   2.708   4.574   2.045  0.1837 -0.0664  0.0828
 5204SOL    HW127248   2.760   4.613   1.976  0.2101  0.4653  0.4032
 5204SOL    HW227249   2.650   4.646   2.070 -0.0741 -0.4073  0.4734
 5205SOL     OW27250   2.245   2.286   3.839  0.2333 -0.1949 -0.0497
 5205SOL    HW127251   2.338   2.266   3.841  0.4404  0.7859  0.2545
 5205SOL    HW227252   2.217   2.254   3.925 -3.2659 -3.3518 -2.3862
 5206SOL     OW27253   0.571   1.368   2.767  0.0144  0.2253 -0.4517
 5206SOL    HW127254   0.591   1.275   2.769 -3.2125 -0.4628 -0.3415
 5206SOL    HW227255   0.478   1.369   2.787 -0.8363  0.1137 -4.3293
 5207SOL     OW27256   0.751   3.403  10.110  0.0747  0.2011  0.1705
 5207SOL    HW127257   0.798   3.358  10.180  0.5185  0.4080  0.0018
 5207SOL    HW227258   0.820   3.421  10.047 -0.4912  0.1813 -0.4522
 5208SOL     OW27259   1.645   4.497   2.297  0.6119 -0.0667 -0.2224
 5208SOL    HW127260   1.566   4.551   2.295  0.0035 -0.9128  0.8656
 5208SOL    HW227261   1.637   4.457   2.384 -2.7070  2.8005  0.7959
 5209SOL     OW27262   0.905   2.518  13.243  0.0245  0.2909 -0.3495
 5209SOL    HW127263   0.825   2.464  13.239 -0.7567  1.5161 -1.4175
 5209SOL    HW227264   0.874   2.588  13.186 -0.7422 -0.5596 -0.9941
 5210SOL     OW27265   0.506   2.504  14.769  0.2043 -0.2175  0.3253
 5210SOL    HW127266   0.481   2.551  14.848  1.9375  0.4703  0.4763
 5210SOL    HW227267   0.515   2.426  14.823  0.2132 -0.2414  0.2899
 5211SOL     OW27268   1.662   3.433   9.516 -0.2034  0.1166  0.2531
 5211SOL    HW127269   1.749   3.399   9.495 -0.6873 -1.6265  1.0647
 5211SOL    HW227270   1.626   3.349   9.544  0.4175 -0.5838 -1.0814
 5212SOL     OW27271   0.462   4.385   8.958  0.0585  0.0984 -0.0529
 5212SOL    HW127272   0.524   4.404   9.029 -0.2852  0.5752  0.1248
 5212SOL    HW227273   0.507   4.310   8.920  0.4958 -0.2715  1.1930
 5213SOL     OW27274   0.306   3.133   7.770 -0.5080  0.3570 -0.2893
 5213SOL    HW127275   0.345   3.211   7.730 -0.0756  0.3125  0.0365
 5213SOL    HW227276   0.317   3.081   7.690  2.2131 -0.4371  0.5789
 5214SOL     OW27277   4.470   1.718   5.306 -0.0208  0.1047 -0.4684
 5214SOL    HW127278   4.420   1.642   5.277  1.9724 -0.4312 -2.4998
 5214SOL    HW227279   4.538   1.668   5.351 -1.3668 -1.0059  0.3379
 5215SOL     OW27280   3.260   0.199  12.001  0.3025 -0.4449 -0.1376
 5215SOL    HW127281   3.276   0.289  12.031 -0.0574  0.9730 -4.1372
 5215SOL    HW227282   3.292   0.205  11.911 -1.0864 -1.2071 -0.6799
 5216SOL     OW27283   1.556   0.607   3.903 -0.4775  0.0727 -0.0827
 5216SOL    HW127284   1.462   0.620   3.892 -0.2568  2.6113  1.1340
 5216SOL    HW227285   1.593   0.687   3.867 -1.9040  0.7001 -0.1737
 5217SOL     OW27286   3.162   1.071  17.567 -0.0284  0.3969 -0.4447
 5217SOL    HW127287   3.131   1.076  17.477 -0.0519  1.3956 -0.3836
 5217SOL    HW227288   3.100   1.134  17.604 -1.0667 -1.8991  1.6937
 5218SOL     OW27289   2.271   0.774   3.584 -0.3439  0.4648  0.3449
 5218SOL    HW127290   2.293   0.833   3.512  0.2048 -2.1430 -1.5846
 5218SOL    HW227291   2.281   0.832   3.660  0.8947  1.7414 -0.7892
 5219SOL     OW27292   0.956   3.608  16.607 -0.5290  0.3498  0.7651
 5219SOL    HW127293   0.926   3.518  16.590  1.1423 -0.5830  2.7251
 5219SOL    HW227294   1.042   3.589  16.570 -1.3110 -0.7093 -0.5618
 5220SOL     OW27295   3.058   1.516   5.753  0.5036 -0.0525  0.5099
 5220SOL    HW127296   3.029   1.568   5.827 -0.6712 -0.3339  0.2492
 5220SOL    HW227297   3.006   1.438   5.771  0.4671  0.0693  0.9334
 5221SOL     OW27298   4.430   0.841   4.924 -0.7205  0.3080 -0.0433
 5221SOL    HW127299   4.494   0.909   4.948 -1.8353  1.4136 -0.1983
 5221SOL    HW227300   4.359   0.875   4.979 -2.6489 -1.3171 -1.5298
 5222SOL     OW27301   2.428   4.344   3.722 -0.1107 -0.0264 -1.0608
 5222SOL    HW127302   2.417   4.413   3.656 -0.9258 -0.5671 -1.4918
 5222SOL    HW227303   2.522   4.331   3.737  0.4689  2.6290 -2.2504
 5223SOL     OW27304   1.861   3.049   7.962 -0.0830  0.3552  0.1721
 5223SOL    HW127305   1.818   3.024   7.880  3.3402 -0.3609 -1.3968
 5223SOL    HW227306   1.864   2.964   8.007 -1.4436  0.6085  0.7345
 5224SOL     OW27307   0.007   1.260   4.059 -0.1418 -0.3281  0.3199
 5224SOL    HW127308   0.100   1.274   4.044 -0.3731  2.2503  1.3513
 5224SOL    HW227309   0.003   1.164   4.051  2.4269 -0.2735 -1.4777
 5225SOL     OW27310   1.747   3.003   5.977  0.1332  0.1414 -0.9958
 5225SOL    HW127311   1.692   3.078   5.956 -0.8755 -0.7507 -1.5227
 5225SOL    HW227312   1.736   2.939   5.907  1.3780 -0.7214 -0.4097
 5226SOL     OW27313   0.317   4.352   3.603  0.4090 -0.1311 -0.1241
 5226SOL    HW127314   0.400   4.344   3.649  0.0395  1.1304  0.7441
 5226SOL    HW227315   0.297   4.258   3.601  0.6923 -0.2346  1.6734
 5227SOL     OW27316   2.714   1.138   1.553 -0.0238  0.0692  0.3164
 5227SOL    HW127317   2.645   1.123   1.489 -1.4929  0.4945  1.8026
 5227SOL    HW227318   2.729   1.233   1.561 -1.2292  0.3117 -0.3154
 5228SOL     OW27319   2.411   1.471   3.441 -0.6152 -0.7556  0.1600
 5228SOL    HW127320   2.368   1.518   3.512  0.8614 -0.7826  1.0657
 5228SOL    HW227321   2.469   1.405   3.479  0.0727 -0.1460  0.1820
 5229SOL     OW27322   0.049   4.359   9.951 -0.0607  0.0567  0.4579
 5229SOL    HW127323   4.702   4.382   9.906  0.0939 -0.6083 -0.1595
 5229SOL    HW227324   0.039   4.416  10.027 -0.7981  0.0329  0.3802
 5230SOL     OW27325   2.616   0.377  14.461  0.1205 -0.2250 -1.0847
 5230SOL    HW127326   2.549   0.420  14.407 -1.2685 -0.4255  0.4860
 5230SOL    HW227327   2.576   0.331  14.534  0.1286  0.8298 -0.4187
 5231SOL     OW27328   1.197   2.446  12.018 -0.9886 -0.0389  0.2356
 5231SOL    HW127329   1.264   2.384  11.989 -1.1986  0.3062 -0.9896
 5231SOL    HW227330   1.256   2.518  12.039  0.3896 -1.2699  0.5784
 5232SOL     OW27331   3.433   4.087   0.164  0.3522  0.2722  0.8543
 5232SOL    HW127332   3.450   4.017   0.228 -3.0745 -0.5845  0.8430
 5232SOL    HW227333   3.498   4.066   0.098 -1.7175  0.4939 -1.2569
 5233SOL     OW27334   2.055   1.037   2.372  0.0373  0.4637 -0.3195
 5233SOL    HW127335   1.982   1.035   2.434  0.9330  0.3530  0.7346
 5233SOL    HW227336   2.026   1.100   2.306 -0.3781  0.9134  0.2922
 5234SOL     OW27337   1.386   2.745   8.998  0.1156 -0.1460  0.1434
 5234SOL    HW127338   1.449   2.782   9.060  1.0548 -0.5784 -0.5553
 5234SOL    HW227339   1.327   2.818   8.976 -0.9038 -0.9607  0.1981
 5235SOL     OW27340   1.974   4.263  11.035  0.3088 -0.3971 -0.2115
 5235SOL    HW127341   2.005   4.327  11.098 -1.1105  0.3891 -0.3235
 5235SOL    HW227342   2.001   4.184  11.083 -1.3352  0.3076  1.8709
 5236SOL     OW27343   1.511   3.363   8.208  0.1689 -0.5402 -0.1374
 5236SOL    HW127344   1.480   3.440   8.159  0.2346 -1.5924 -1.8046
 5236SOL    HW227345   1.557   3.330   8.131  0.9650 -0.8688  0.4799
 5237SOL     OW27346   3.442   0.577   3.705  0.1094 -0.3933 -0.2787
 5237SOL    HW127347   3.496   0.575   3.784  2.2049 -2.3524 -1.7781
 5237SOL    HW227348   3.448   0.489   3.667 -0.0077 -0.7601  0.5409
 5238SOL     OW27349   1.241   0.325   7.227  0.2255  0.1522 -0.6512
 5238SOL    HW127350   1.265   0.336   7.319  1.5598 -2.0051 -0.7363
 5238SOL    HW227351   1.151   0.356   7.225  0.0882 -0.3983 -2.9164
 5239SOL     OW27352   1.011   0.150   7.497 -0.3815 -0.9402 -0.5294
 5239SOL    HW127353   0.917   0.169   7.495 -0.3511 -0.7674 -0.3554
 5239SOL    HW227354   1.052   0.222   7.449 -0.2548 -0.3363  0.4799
 5240SOL     OW27355   4.198   1.975  14.400  0.1543 -0.5058  0.5130
 5240SOL    HW127356   4.110   1.939  14.416 -0.3855  0.2924 -0.6131
 5240SOL    HW227357   4.166   2.057  14.361 -0.3712 -0.6725  0.5884
 5241SOL     OW27358   3.013   1.112   0.169  0.5176  0.2642 -0.1243
 5241SOL    HW127359   3.051   1.200   0.161 -0.3537  0.3580 -3.1481
 5241SOL    HW227360   3.010   1.091   0.076  1.9659  0.1258 -0.1377
 5242SOL     OW27361   4.424   4.242   4.601  0.0727 -0.0060 -0.3887
 5242SOL    HW127362   4.374   4.273   4.525 -0.7463 -2.5745 -0.9180
 5242SOL    HW227363   4.353   4.225   4.662 -0.2493  2.1902 -0.1570
 5243SOL     OW27364   1.374   3.691   7.672 -0.0807  0.2471 -0.2075
 5243SOL    HW127365   1.312   3.661   7.605  0.5396  2.5583 -1.8054
 5243SOL    HW227366   1.444   3.728   7.618 -0.0187 -0.7588 -0.8328
 5244SOL     OW27367   0.955   1.596   0.383  0.1004 -0.3189  0.5021
 5244SOL    HW127368   0.970   1.581   0.476 -0.5301 -0.7650  0.5307
 5244SOL    HW227369   0.915   1.511   0.363 -0.3711  0.4316 -1.7418
 5245SOL     OW27370   3.571   2.271   0.986 -0.1032 -0.6756  0.2826
 5245SOL    HW127371   3.610   2.184   0.996  0.6783 -0.5265 -1.4189
 5245SOL    HW227372   3.558   2.294   1.078  0.3235  2.7406 -0.5175
 5246SOL     OW27373   3.118   0.902   5.495  0.1210  0.0258  0.3989
 5246SOL    HW127374   3.051   0.902   5.427 -0.2264  3.1654  0.7552
 5246SOL    HW227375   3.061   0.893   5.571  0.9906  1.2965  1.2022
 5247SOL     OW27376   2.271   0.493   4.367 -0.0510 -0.1202  0.2399
 5247SOL    HW127377   2.352   0.525   4.406  1.1094 -1.5617 -1.0009
 5247SOL    HW227378   2.257   0.407   4.407 -0.2476 -0.6454 -0.9496
 5248SOL     OW27379   3.435   2.032   5.635 -0.1542 -0.1282 -0.2618
 5248SOL    HW127380   3.521   2.055   5.600  1.1639 -1.4399  2.1308
 5248SOL    HW227381   3.417   2.109   5.688 -0.4558  0.1043 -0.7033
 5249SOL     OW27382   3.809   0.090   6.776 -0.3282 -0.0784  0.2756
 5249SOL    HW127383   3.757   0.050   6.707 -2.3869  0.3277  1.5681
 5249SOL    HW227384   3.888   0.041   6.755 -1.4522 -3.0044  2.8719
 5250SOL     OW27385   3.102   0.506   6.159 -0.1728 -0.6775  0.0781
 5250SOL    HW127386   3.160   0.435   6.130  0.0317 -1.3216  2.0412
 5250SOL    HW227387   3.097   0.567   6.085 -0.6384 -0.7513  0.0512
 5251SOL     OW27388   0.105   4.081   3.348 -0.3102  0.5908  0.0777
 5251SOL    HW127389   0.026   4.135   3.339 -0.2194  0.5099 -1.2344
 5251SOL    HW227390   0.087   4.005   3.291 -0.5585  0.9331 -0.3034
 5252SOL     OW27391   2.115   4.069   4.005 -0.0777 -0.7922 -0.1519
 5252SOL    HW127392   2.179   4.002   3.984  0.1286 -1.0519  1.3108
 5252SOL    HW227393   2.163   4.149   3.984 -1.6009  0.4585  1.0690
 5253SOL     OW27394   0.363   4.369  13.527  0.5396 -0.1448  0.4998
 5253SOL    HW127395   0.454   4.398  13.526  0.8177 -0.9932  1.3246
 5253SOL    HW227396   0.323   4.419  13.598 -0.8572 -0.6881  0.1069
 5254SOL     OW27397   1.306   3.647  15.031  0.2938 -0.5272 -0.2722
 5254SOL    HW127398   1.381   3.705  15.034 -1.0728  1.2453 -0.4837
 5254SOL    HW227399   1.304   3.629  15.125  0.7767 -1.9206 -0.5320
 5255SOL     OW27400   0.464   2.882   2.560 -0.0364 -0.0643 -0.0628
 5255SOL    HW127401   0.509   2.826   2.496  0.1503  0.4374 -0.3721
 5255SOL    HW227402   0.383   2.904   2.514  0.6335 -2.0756 -2.2387
 5256SOL     OW27403   3.657   2.553   2.685  0.7293 -0.1038 -0.0857
 5256SOL    HW127404   3.735   2.512   2.650 -0.7106 -1.4531 -1.7066
 5256SOL    HW227405   3.592   2.493   2.650 -0.8957  0.9361  1.1194
 5257SOL     OW27406   2.004   4.382   6.811 -0.2409  0.2718 -0.0705
 5257SOL    HW127407   1.981   4.474   6.797 -0.8634  0.1853  0.4000
 5257SOL    HW227408   1.925   4.346   6.849 -0.5928  0.4674 -0.6122
 5258SOL     OW27409   1.915   2.990   4.449  0.3026 -0.1237 -0.3775
 5258SOL    HW127410   1.872   3.074   4.438  0.4602 -0.0678 -0.5876
 5258SOL    HW227411   1.897   2.949   4.364  1.1803 -0.7475 -0.2664
 5259SOL     OW27412   2.928   1.320  15.719 -0.5310 -0.1215 -0.3174
 5259SOL    HW127413   2.850   1.300  15.771  0.5114 -2.8657  0.2304
 5259SOL    HW227414   3.003   1.286  15.766 -0.3915  2.2672  1.1532
 5260SOL     OW27415   0.064   2.036   3.097 -0.3622 -0.1765  0.5617
 5260SOL    HW127416   0.157   2.012   3.101 -0.6760 -1.5313 -0.2659
 5260SOL    HW227417   0.062   2.105   3.163  0.2139 -0.4481  0.8600
 5261SOL     OW27418   1.111   4.569   6.605 -0.4672  0.6442  0.3026
 5261SOL    HW127419   1.205   4.583   6.618 -0.2449 -2.4172  2.0052
 5261SOL    HW227420   1.074   4.658   6.600 -2.0682 -0.1727 -2.3362
 5262SOL     OW27421   4.680   2.444   4.279  0.5521  0.0287  0.1989
 5262SOL    HW127422   4.623   2.386   4.329 -1.0426  2.2640  0.9946
 5262SOL    HW227423   4.686   2.528   4.325  0.3408  1.4559 -2.3972
 5263SOL     OW27424   2.590   4.296   9.840  0.3525  0.2734  0.6987
 5263SOL    HW127425   2.614   4.204   9.825  0.6716  0.2548  1.3141
 5263SOL    HW227426   2.499   4.305   9.811  0.4151  1.8393  0.9887
 5264SOL     OW27427   2.781   4.123   0.241 -0.2146 -0.3604  0.1705
 5264SOL    HW127428   2.850   4.068   0.203 -1.4423 -0.4017 -1.9857
 5264SOL    HW227429   2.777   4.177   0.162 -0.6568 -1.3287 -0.4845
 5265SOL     OW27430   1.449   1.874   6.983  0.3928 -0.4104 -0.1244
 5265SOL    HW127431   1.503   1.834   7.051 -1.0669  1.1201  1.9432
 5265SOL    HW227432   1.420   1.797   6.934 -0.7111  0.1828 -0.4031
 5266SOL     OW27433   1.360   0.302   4.026  0.3411  0.4826  0.2937
 5266SOL    HW127434   1.454   0.300   4.007  0.4376 -0.0125  0.8114
 5266SOL    HW227435   1.324   0.373   3.973 -4.1706 -0.9039  1.4554
 5267SOL     OW27436   2.416   1.370  12.144 -0.1930 -0.0772  0.1345
 5267SOL    HW127437   2.354   1.442  12.132 -1.0200 -0.8570 -0.2735
 5267SOL    HW227438   2.443   1.353  12.053 -1.8332 -1.8826 -0.0193
 5268SOL     OW27439   3.998   2.319  12.614  0.2773  0.4798 -0.0605
 5268SOL    HW127440   3.911   2.341  12.581  0.0910 -0.8377 -0.4565
 5268SOL    HW227441   3.982   2.302  12.707 -2.4810 -1.6490 -0.9080
 5269SOL     OW27442   3.943   4.401   6.615  0.0560  0.2311 -0.1522
 5269SOL    HW127443   3.998   4.415   6.537 -0.1071 -1.0791 -0.5079
 5269SOL    HW227444   3.864   4.368   6.572  0.6355  0.7467 -1.6286
 5270SOL     OW27445   2.636   3.006   2.504  0.8958 -0.0073  0.1852
 5270SOL    HW127446   2.714   3.017   2.559  2.4132 -0.2707 -1.9205
 5270SOL    HW227447   2.594   3.092   2.508 -0.0222 -0.4302 -0.3347
 5271SOL     OW27448   2.037   0.081   2.555  0.5024  0.6352 -0.0354
 5271SOL    HW127449   2.043   4.732   2.603  3.5683  1.9860  1.8619
 5271SOL    HW227450   1.972   0.054   2.490 -1.9066 -0.7434  3.0061
 5272SOL     OW27451   3.681   1.818   6.878 -0.7312 -0.1178 -0.0683
 5272SOL    HW127452   3.615   1.814   6.809 -0.4960 -2.4316 -0.1507
 5272SOL    HW227453   3.652   1.747   6.934 -1.5060  1.4894  1.5809
 5273SOL     OW27454   2.076   3.388  10.020  0.1570  0.4880 -0.2352
 5273SOL    HW127455   1.997   3.441  10.010 -0.5657 -0.5945 -0.3293
 5273SOL    HW227456   2.064   3.339  10.102 -0.4380  2.0594  0.6067
 5274SOL     OW27457   3.688   0.711   1.418 -0.3770 -0.2272  0.1922
 5274SOL    HW127458   3.681   0.641   1.484 -0.7730 -1.4573 -1.1530
 5274SOL    HW227459   3.684   0.788   1.474 -0.0986 -1.0353  1.3416
 5275SOL     OW27460   0.044   4.145   4.778  0.1723  0.0778 -0.3488
 5275SOL    HW127461   0.072   4.061   4.743  0.7619  1.1408 -2.5003
 5275SOL    HW227462   4.689   4.142   4.742  1.0292 -3.2840 -2.1661
 5276SOL     OW27463   2.583   2.439  11.262 -0.0292  0.1139 -0.9370
 5276SOL    HW127464   2.514   2.375  11.244  0.5044 -0.7745  0.1465
 5276SOL    HW227465   2.635   2.437  11.182  0.7641 -2.8701 -0.3643
 5277SOL     OW27466   1.619   1.762   5.934  0.0208  0.2752  0.6475
 5277SOL    HW127467   1.659   1.697   5.992 -2.3980 -0.3484  1.5883
 5277SOL    HW227468   1.596   1.837   5.988  1.8299  0.1563  1.5867
 5278SOL     OW27469   0.321   2.052   8.952  0.0170  0.1307  0.2219
 5278SOL    HW127470   0.302   2.096   8.869 -1.1086  0.1601  0.4959
 5278SOL    HW227471   0.260   1.979   8.955  1.3587 -1.0081  0.0469
 5279SOL     OW27472   1.214   4.601  10.248 -0.0972 -0.0986 -0.3581
 5279SOL    HW127473   1.278   4.548  10.295 -0.9134  1.1519  2.1459
 5279SOL    HW227474   1.149   4.536  10.222  1.7868 -1.9956 -0.3618
 5280SOL     OW27475   2.695   3.215  12.144  0.7144 -0.0901  0.2330
 5280SOL    HW127476   2.617   3.204  12.199  1.0340  0.3542  0.7750
 5280SOL    HW227477   2.658   3.171  12.067 -0.9341 -1.9865  2.0936
 5281SOL     OW27478   4.550   0.021  14.740  0.2227 -0.4148 -0.0653
 5281SOL    HW127479   4.597   0.066  14.810  0.8568  0.6641 -1.1761
 5281SOL    HW227480   4.495   4.699  14.794 -0.3505 -0.3015 -0.5299
 5282SOL     OW27481   4.551   3.401   8.916 -0.5740  0.2456 -0.2047
 5282SOL    HW127482   4.521   3.370   9.002  2.0969  0.2238  0.7427
 5282SOL    HW227483   4.528   3.493   8.917 -2.0654 -0.1333 -0.7040
 5283SOL     OW27484   4.390   2.545  10.766  0.2982 -0.0403 -0.0438
 5283SOL    HW127485   4.415   2.496  10.845  1.2264  0.1050 -0.2471
 5283SOL    HW227486   4.302   2.510  10.758 -0.2367  1.2988  0.0372
 5284SOL     OW27487   4.224   0.945   0.880  0.2355 -0.1077 -0.1945
 5284SOL    HW127488   4.161   0.980   0.943 -1.1702 -1.6228 -0.7656
 5284SOL    HW227489   4.185   0.858   0.868 -2.0554  0.5908  2.1728
 5285SOL     OW27490   3.417   1.862  17.532 -0.5798 -0.2103  0.3950
 5285SOL    HW127491   3.434   1.870  17.626  0.6430  0.7571  0.0928
 5285SOL    HW227492   3.395   1.770  17.522  1.0295 -0.5550 -0.0370
 5286SOL     OW27493   2.607   4.211   6.642  0.2150  0.2535  0.0884
 5286SOL    HW127494   2.535   4.183   6.698  0.2160 -1.6280 -0.8633
 5286SOL    HW227495   2.679   4.151   6.662 -0.0205 -0.3238 -0.8105
 5287SOL     OW27496   4.584   2.342   5.193 -0.0734  0.2499 -0.1616
 5287SOL    HW127497   4.646   2.410   5.166  0.2863 -0.6188 -1.5118
 5287SOL    HW227498   4.539   2.319   5.112  1.8271  0.7630 -1.3401
 5288SOL     OW27499   0.752   4.023   1.399  0.4196  0.0837 -0.0297
 5288SOL    HW127500   0.720   3.956   1.460 -0.2480 -0.5562 -1.0778
 5288SOL    HW227501   0.844   3.997   1.392 -0.1913 -2.0200 -0.3847
 5289SOL     OW27502   2.390   2.361   8.418  0.0440 -0.0772 -0.1323
 5289SOL    HW127503   2.310   2.348   8.467  0.2951  3.0251  1.0482
 5289SOL    HW227504   2.381   2.451   8.388  1.2222  0.2182  0.3763
 5290SOL     OW27505   2.213   2.550   3.733 -0.4868 -0.5006 -0.3103
 5290SOL    HW127506   2.230   2.465   3.772 -1.5027 -1.0346 -1.0484
 5290SOL    HW227507   2.128   2.575   3.770 -0.8528 -2.9522  0.5041
 5291SOL     OW27508   2.498   2.808   1.350 -0.0424  0.0902  0.1504
 5291SOL    HW127509   2.447   2.764   1.418  2.0527  0.6386  2.0654
 5291SOL    HW227510   2.449   2.886   1.324 -0.3157 -0.2050 -0.2163
 5292SOL     OW27511   1.289   4.527   2.361  0.0926  0.1448 -0.2698
 5292SOL    HW127512   1.352   4.600   2.362  0.5873 -0.2878  2.8651
 5292SOL    HW227513   1.262   4.516   2.270  1.6522  1.1022 -0.8428
 5293SOL     OW27514   0.670   0.389   7.966  0.1172 -0.9184 -0.3191
 5293SOL    HW127515   0.576   0.387   7.944 -0.2329 -1.7043  1.2727
 5293SOL    HW227516   0.678   0.310   8.018  0.7979 -0.8940 -0.3881
 5294SOL     OW27517   3.127   2.228   8.270 -0.7377  0.4921  0.1372
 5294SOL    HW127518   3.144   2.176   8.349  2.6408  0.2146 -0.7770
 5294SOL    HW227519   3.031   2.218   8.273 -0.6980  0.3353  0.8190
 5295SOL     OW27520   3.609   1.815   7.234  0.0849  0.1397  0.2360
 5295SOL    HW127521   3.588   1.722   7.243  1.4242 -0.0473  1.2659
 5295SOL    HW227522   3.547   1.854   7.296 -1.1358  0.1383 -0.9696
 5296SOL     OW27523   3.801   3.590   8.960  0.2118  0.8068 -0.0450
 5296SOL    HW127524   3.710   3.574   8.934 -0.0504 -0.0606  1.4061
 5296SOL    HW227525   3.834   3.501   8.945 -0.1204  1.1674 -2.9047
 5297SOL     OW27526   4.676   0.286  15.632 -0.0262 -0.7757  0.3547
 5297SOL    HW127527   0.029   0.267  15.668  1.9793  2.5121 -2.7547
 5297SOL    HW227528   4.615   0.288  15.706  0.0702  0.8252  0.3725
 5298SOL     OW27529   2.855   1.400   4.147  0.0674 -0.4802 -1.1431
 5298SOL    HW127530   2.799   1.427   4.074  0.0289  0.5354 -0.7310
 5298SOL    HW227531   2.933   1.359   4.109 -0.2548 -2.1999  0.0450
 5299SOL     OW27532   0.114   2.201   5.738 -0.3514  0.1982  0.1849
 5299SOL    HW127533   0.108   2.292   5.709 -1.1392 -0.5672 -2.0298
 5299SOL    HW227534   0.154   2.211   5.825  1.6247 -0.7799 -0.5940
 5300SOL     OW27535   3.574   3.373   1.008  0.1341  0.3620 -0.8339
 5300SOL    HW127536   3.640   3.360   0.940 -1.1229 -1.2146 -1.7533
 5300SOL    HW227537   3.494   3.394   0.960 -0.4181 -0.3630 -0.2127
 5301SOL     OW27538   2.538   0.973   4.080 -0.0117 -0.2680 -0.0362
 5301SOL    HW127539   2.552   1.009   4.168 -1.7766  0.3166  0.0071
 5301SOL    HW227540   2.538   0.883   4.112  0.2455 -0.2835 -0.0787
 5302SOL     OW27541   3.847   2.198   9.198  0.3204 -0.1687 -0.2700
 5302SOL    HW127542   3.863   2.194   9.104 -1.8665 -1.6661 -0.5842
 5302SOL    HW227543   3.821   2.107   9.215  0.8851 -0.3597 -0.4165
 5303SOL     OW27544   0.101   0.426   7.186 -0.5636 -0.1476 -0.5398
 5303SOL    HW127545   0.161   0.366   7.231 -0.9569  0.5525  0.9131
 5303SOL    HW227546   0.014   0.388   7.174 -0.3072 -0.3089 -1.9248
 5304SOL     OW27547   1.422   4.726   1.430 -0.4252 -0.5842 -0.3172
 5304SOL    HW127548   1.373   4.660   1.381 -0.8365 -0.4190 -0.1265
 5304SOL    HW227549   1.366   0.068   1.416 -1.1320 -1.4319 -2.1163
 5305SOL     OW27550   3.368   1.417   7.548 -0.0311  0.2945  0.1442
 5305SOL    HW127551   3.443   1.469   7.578 -1.6336  1.9927  1.2344
 5305SOL    HW227552   3.394   1.340   7.598  1.6538  1.4861  1.0945
 5306SOL     OW27553   2.751   1.675  13.651 -0.2300  0.3287  0.1346
 5306SOL    HW127554   2.678   1.655  13.592 -0.7098  2.8735 -0.1214
 5306SOL    HW227555   2.784   1.760  13.623 -1.7854  0.7240 -0.5051
 5307SOL     OW27556   1.951   0.641   6.839  0.6510  0.1300  0.3411
 5307SOL    HW127557   1.946   0.736   6.842  0.5079  0.1105  0.6379
 5307SOL    HW227558   1.926   0.622   6.748  1.2122  0.1017  0.1901
 5308SOL     OW27559   3.013   0.456   8.004  0.4079 -0.1654 -0.8065
 5308SOL    HW127560   3.098   0.418   8.028  0.4080  0.8324  0.7696
 5308SOL    HW227561   2.982   0.511   8.076  1.0688 -0.8836  0.0427
 5309SOL     OW27562   3.400   1.090   4.816 -0.1480 -0.7865 -0.4592
 5309SOL    HW127563   3.469   1.151   4.790 -0.3020  0.0328  1.0524
 5309SOL    HW227564   3.451   1.010   4.805 -0.9780 -1.1559 -1.6751
 5310SOL     OW27565   4.432   4.346   9.391  0.4324 -0.5978  0.3976
 5310SOL    HW127566   4.509   4.390   9.427  0.5089 -0.5848  0.2187
 5310SOL    HW227567   4.442   4.255   9.421  1.2690 -0.4733  0.4819
 5311SOL     OW27568   4.406   1.247   6.959  0.2878  0.1914 -0.2658
 5311SOL    HW127569   4.327   1.194   6.950  1.3700 -1.4705 -0.1218
 5311SOL    HW227570   4.380   1.332   6.923 -0.5374  0.1754  0.3133
 5312SOL     OW27571   4.546   4.135  17.016  0.0527  0.0427 -0.3436
 5312SOL    HW127572   4.494   4.214  17.028 -0.4078  0.0155 -2.1525
 5312SOL    HW227573   4.623   4.177  17.054 -2.2807  0.9910  3.3049
 5313SOL     OW27574   2.758   3.253   6.825  0.3028 -0.2958  0.1934
 5313SOL    HW127575   2.678   3.227   6.779  0.9925 -0.7625 -0.7239
 5313SOL    HW227576   2.774   3.324   6.763 -3.0702 -1.2627 -1.7526
 5314SOL     OW27577   1.986   1.071   9.411  0.2363  0.5374  0.1003
 5314SOL    HW127578   2.072   1.039   9.386  0.2771 -0.5976  1.6728
 5314SOL    HW227579   2.004   1.070   9.505 -1.1032  0.2076  0.3591
 5315SOL     OW27580   1.212   0.028  13.039 -0.3211  0.5005 -0.4289
 5315SOL    HW127581   1.150   4.701  13.000  0.9126 -0.3696 -1.0647
 5315SOL    HW227582   1.250   0.065  12.960 -0.0595 -0.2240 -0.6432
 5316SOL     OW27583   3.563   2.860  10.489 -0.1450  0.4684  0.4018
 5316SOL    HW127584   3.557   2.928  10.421 -1.0355  0.1734  0.1757
 5316SOL    HW227585   3.553   2.780  10.437 -1.0062  0.4569  0.5830
 5317SOL     OW27586   3.362   0.761  13.878 -0.1978  0.7880 -0.4354
 5317SOL    HW127587   3.287   0.702  13.879 -0.8599  1.6544  0.8809
 5317SOL    HW227588   3.404   0.759  13.964  2.0930 -0.7865 -1.5973
 5318SOL     OW27589   1.100   2.814   1.424 -0.2888 -0.1009  0.4477
 5318SOL    HW127590   1.162   2.886   1.421 -1.7820  1.1653 -0.0475
 5318SOL    HW227591   1.145   2.761   1.489 -1.1085 -3.4151 -1.6864
 5319SOL     OW27592   3.405   1.405   4.642  0.0248  0.0982  0.2521
 5319SOL    HW127593   3.437   1.447   4.722  1.5493  1.2027 -0.9467
 5319SOL    HW227594   3.387   1.485   4.592  1.2955  0.1332 -0.1603
 5320SOL     OW27595   1.388   0.734   1.193  0.1100  0.0704 -0.0588
 5320SOL    HW127596   1.441   0.727   1.272  1.0471  0.5936 -0.6373
 5320SOL    HW227597   1.324   0.794   1.230  0.0608 -0.9969  1.5808
 5321SOL     OW27598   3.802   4.071  14.980  0.3015  0.3337  0.2797
 5321SOL    HW127599   3.739   4.032  14.919 -0.6516  0.5360  1.1263
 5321SOL    HW227600   3.875   4.097  14.923  0.3176  0.9456  0.5769
 5322SOL     OW27601   3.599   1.659  13.650  0.3156  0.9104 -0.0494
 5322SOL    HW127602   3.601   1.668  13.555  0.6126 -2.6861 -0.3850
 5322SOL    HW227603   3.558   1.573  13.655 -0.1219  1.1111 -0.2095
 5323SOL     OW27604   3.241   2.762  11.673 -0.2319 -0.5579 -0.0144
 5323SOL    HW127605   3.231   2.851  11.708 -3.5786 -0.6015 -0.8088
 5323SOL    HW227606   3.250   2.713  11.755 -3.0181 -0.0239  0.6349
 5324SOL     OW27607   4.728   3.815   4.387  0.1695 -0.0888 -0.2939
 5324SOL    HW127608   4.693   3.877   4.452  2.1438 -0.8871  1.5458
 5324SOL    HW227609   4.646   3.769   4.367  1.3457 -2.5070  0.5785
 5325SOL     OW27610   3.562   0.014   8.513  0.0335  0.3581 -0.2591
 5325SOL    HW127611   3.633   0.054   8.463 -0.6244 -0.2138 -1.6505
 5325SOL    HW227612   3.607   4.694   8.578 -1.2990 -1.5791 -0.9118
 5326SOL     OW27613   0.316   2.736   5.873 -0.0617  0.0576  0.2423
 5326SOL    HW127614   0.357   2.808   5.923  0.1243 -0.2167  0.4829
 5326SOL    HW227615   0.240   2.707   5.923 -0.0674 -0.2937  0.0238
 5327SOL     OW27616   2.574   1.815  11.922  0.4041 -0.1577  0.4283
 5327SOL    HW127617   2.662   1.846  11.901  0.0571  0.7607  0.3211
 5327SOL    HW227618   2.594   1.769  12.003  0.2396  1.8626  1.6104
 5328SOL     OW27619   0.740   1.231   5.708  0.1084  0.3266 -0.0816
 5328SOL    HW127620   0.647   1.231   5.729 -0.0489 -1.1367 -0.7822
 5328SOL    HW227621   0.716   1.244   5.617  0.6046  0.7204 -0.1544
 5329SOL     OW27622   0.772   3.171   7.506 -0.0666 -0.3771  0.5051
 5329SOL    HW127623   0.727   3.092   7.537  0.3692 -0.5739  0.6397
 5329SOL    HW227624   0.849   3.135   7.464 -0.3896 -0.3573 -0.1051
 5330SOL     OW27625   2.310   3.957   7.761  0.1620 -0.4344 -0.1055
 5330SOL    HW127626   2.382   4.016   7.741  0.8717 -0.8241  1.2764
 5330SOL    HW227627   2.358   3.879   7.787 -0.5380 -1.4305 -1.8004
 5331SOL     OW27628   2.737   0.897  14.465  0.0398  0.5510 -0.2817
 5331SOL    HW127629   2.832   0.897  14.465  0.0502  2.8416  3.0170
 5331SOL    HW227630   2.716   0.808  14.437 -0.8395  0.1673  1.5357
 5332SOL     OW27631   4.464   0.619   2.263  0.2384 -0.5166 -0.3734
 5332SOL    HW127632   4.495   0.533   2.289  1.4156 -0.1507 -0.5349
 5332SOL    HW227633   4.371   0.599   2.254 -0.2652  2.0583 -0.9087
 5333SOL     OW27634   3.551   2.440   8.392 -0.1476 -0.0476  0.2577
 5333SOL    HW127635   3.537   2.478   8.305 -0.3343 -2.4861 -0.7771
 5333SOL    HW227636   3.587   2.515   8.439  1.2156 -1.3661  1.3268
 5334SOL     OW27637   1.177   1.785   4.721 -0.3762 -0.4621 -0.0624
 5334SOL    HW127638   1.153   1.819   4.635 -0.9000  0.0472  0.2906
 5334SOL    HW227639   1.255   1.833   4.748 -3.3465  2.7202  2.9028
 5335SOL     OW27640   3.670   3.327   2.198 -0.0251  0.2288  0.0029
 5335SOL    HW127641   3.746   3.323   2.256 -1.1455 -2.5576  1.2771
 5335SOL    HW227642   3.636   3.413   2.219 -0.5812  0.1400 -0.5142
 5336SOL     OW27643   0.424   2.337   5.051  0.2267  0.4316 -0.2466
 5336SOL    HW127644   0.463   2.387   5.123  0.4938 -2.1341  1.3989
 5336SOL    HW227645   0.499   2.323   4.993  1.1418  0.3111  0.9727
 5337SOL     OW27646   2.627   1.659  13.247  0.4233  0.1687  0.1422
 5337SOL    HW127647   2.710   1.707  13.246 -1.1162  2.7631 -2.5613
 5337SOL    HW227648   2.620   1.643  13.153  1.6929  2.4578 -0.3426
 5338SOL     OW27649   4.332   0.388   6.167 -0.5903  0.0088 -0.8009
 5338SOL    HW127650   4.397   0.391   6.097 -2.7467 -0.8163 -2.8444
 5338SOL    HW227651   4.355   0.472   6.206  0.2656 -0.3887 -0.4572
 5339SOL     OW27652   3.526   4.722  16.939  0.0034 -0.5070  0.5210
 5339SOL    HW127653   3.489   0.066  16.898  2.1905  0.3919  0.2362
 5339SOL    HW227654   3.603   0.026  16.981 -1.1566  2.1066  0.2893
 5340SOL     OW27655   3.383   2.621   6.262  0.3221 -0.0444  0.0856
 5340SOL    HW127656   3.440   2.696   6.277 -3.5886  2.7989  0.7427
 5340SOL    HW227657   3.366   2.596   6.353 -2.1172 -4.4169 -1.5487
 5341SOL     OW27658   1.581   4.199  13.586 -0.7072  0.3967 -0.3616
 5341SOL    HW127659   1.495   4.237  13.604 -0.4809  1.1254 -0.8264
 5341SOL    HW227660   1.626   4.232  13.663 -0.3918  2.5020 -1.4478
 5342SOL     OW27661   3.712   2.470   9.059 -0.3590 -0.3247 -0.0826
 5342SOL    HW127662   3.648   2.540   9.047  0.6065  0.5140 -0.2777
 5342SOL    HW227663   3.791   2.522   9.066  0.8626 -1.9914 -1.5007
 5343SOL     OW27664   3.534   2.042  11.264 -0.3361 -0.5084 -0.2082
 5343SOL    HW127665   3.599   2.008  11.326  0.8131  0.2253 -1.0089
 5343SOL    HW227666   3.552   2.001  11.180  1.6070 -1.1935  0.5286
 5344SOL     OW27667   0.348   1.625   1.308  0.3172  0.0600 -0.6500
 5344SOL    HW127668   0.308   1.712   1.316 -0.5967 -0.5355  1.2270
 5344SOL    HW227669   0.264   1.580   1.302 -0.4022  1.4207 -0.9705
 5345SOL     OW27670   2.688   0.505   3.073 -0.2951  0.2308 -0.0876
 5345SOL    HW127671   2.771   0.516   3.121 -1.1894  0.7951  1.3500
 5345SOL    HW227672   2.705   0.537   2.985  2.3833 -1.6807 -0.2501
 5346SOL     OW27673   2.760   1.863  10.663 -0.6725  0.1074 -0.1085
 5346SOL    HW127674   2.702   1.792  10.636  1.9073 -2.4476  1.0085
 5346SOL    HW227675   2.840   1.816  10.686  0.2954  0.8105 -2.0410
 5347SOL     OW27676   1.263   0.490   8.874 -0.3465  0.6270  0.3198
 5347SOL    HW127677   1.226   0.402   8.872  1.6077 -0.2259  1.5775
 5347SOL    HW227678   1.351   0.466   8.904  0.2144  0.1116 -1.7529
 5348SOL     OW27679   2.800   0.511   4.383  0.4841  0.3445 -0.3358
 5348SOL    HW127680   2.727   0.450   4.398 -1.1374  2.6525  1.1606
 5348SOL    HW227681   2.834   0.476   4.301  0.1906 -2.8222  0.8760
 5349SOL     OW27682   4.679   2.683   8.702  0.2487  0.0304 -0.2918
 5349SOL    HW127683   4.668   2.776   8.720  0.4296 -0.0679  0.3051
 5349SOL    HW227684   4.727   2.687   8.619 -1.5579  0.3706 -1.3255
 5350SOL     OW27685   3.516   2.596  16.963  0.4694 -0.3759  0.3730
 5350SOL    HW127686   3.431   2.625  16.928 -0.5288 -3.5988  0.0912
 5350SOL    HW227687   3.574   2.632  16.896  1.3036  0.3410  1.4896
 5351SOL     OW27688   2.495   3.222  10.903 -0.6350 -0.1886 -0.2025
 5351SOL    HW127689   2.491   3.185  10.991  1.4227 -1.5970 -0.7252
 5351SOL    HW227690   2.574   3.189  10.861 -1.4027 -2.8037  0.4129
 5352SOL     OW27691   0.690   1.540   8.489 -0.5605  0.4251 -1.3571
 5352SOL    HW127692   0.723   1.577   8.408 -1.9096  0.9253 -1.6837
 5352SOL    HW227693   0.595   1.538   8.479 -0.7901  0.7828  0.6997
 5353SOL     OW27694   0.200   1.042  11.650  0.2105  0.2545  0.0664
 5353SOL    HW127695   0.141   1.106  11.688  1.0872 -0.6039  2.8831
 5353SOL    HW227696   0.128   0.978  11.649  0.9041 -0.5156 -0.6521
 5354SOL     OW27697   0.209   4.682   7.990  0.2115 -0.5832 -1.1423
 5354SOL    HW127698   0.252   4.723   8.065 -0.3275  1.4711 -1.9585
 5354SOL    HW227699   0.246   4.726   7.913  1.8569 -0.3125 -0.1871
 5355SOL     OW27700   0.342   1.829   7.618  0.0702  0.7535  0.5634
 5355SOL    HW127701   0.338   1.815   7.524 -1.1239 -0.9927  0.8614
 5355SOL    HW227702   0.332   1.924   7.616  2.0917  0.9535 -0.4679
 5356SOL     OW27703   0.561   0.592   8.886 -0.2564 -0.1535 -0.0528
 5356SOL    HW127704   0.656   0.601   8.876 -0.3880  1.5874  0.2910
 5356SOL    HW227705   0.569   0.514   8.940 -0.7477 -0.6572 -0.7036
 5357SOL     OW27706   0.432   2.802   7.304  0.1073 -0.1566  0.3344
 5357SOL    HW127707   0.500   2.739   7.328  0.0809 -0.5744 -0.6745
 5357SOL    HW227708   0.452   2.816   7.211  1.1421 -1.5719  0.3388
 5358SOL     OW27709   3.810   2.313   8.099 -0.0584  0.0978  0.3494
 5358SOL    HW127710   3.753   2.262   8.156 -0.2175 -2.1536 -1.8506
 5358SOL    HW227711   3.770   2.299   8.013  1.4971  3.5801 -0.9369
 5359SOL     OW27712   4.113   1.056   8.280 -0.3167  0.0806  0.6308
 5359SOL    HW127713   4.100   1.036   8.373  1.4197 -0.0968  0.8532
 5359SOL    HW227714   4.034   1.100   8.251 -0.4630 -1.6316 -1.5574
 5360SOL     OW27715   2.083   4.031   2.819  0.0883  0.4871  0.6262
 5360SOL    HW127716   2.058   3.988   2.901  0.9320 -2.3223 -0.5808
 5360SOL    HW227717   2.144   4.097   2.853  1.5923 -0.6776  0.1849
 5361SOL     OW27718   0.514   2.086   4.223 -0.3803 -0.5519 -0.3875
 5361SOL    HW127719   0.429   2.065   4.261 -0.4393  2.8254  1.2868
 5361SOL    HW227720   0.487   2.151   4.157  1.2676  1.2168  0.6735
 5362SOL     OW27721   3.675   1.255   7.708  0.0389 -1.1390 -0.2487
 5362SOL    HW127722   3.719   1.170   7.707 -0.3985 -1.3470 -1.6116
 5362SOL    HW227723   3.587   1.224   7.731  0.1986 -2.4265 -1.3723
 5363SOL     OW27724   4.665   1.831   5.610 -0.2110  0.2392  0.1376
 5363SOL    HW127725   4.718   1.881   5.549  0.0816  1.0198  1.0395
 5363SOL    HW227726   4.664   1.743   5.572  0.5983  1.4300 -2.6519
 5364SOL     OW27727   3.717   4.329   0.119 -0.5991  0.2317  0.1158
 5364SOL    HW127728   3.655   4.396   0.089  0.5958  0.2973 -2.2579
 5364SOL    HW227729   3.691   4.267   0.050 -1.1920  1.1256 -0.4631
 5365SOL     OW27730   4.571   4.084  12.210 -0.1935 -0.1770 -0.6085
 5365SOL    HW127731   4.482   4.110  12.183 -0.6864 -1.5317 -0.2943
 5365SOL    HW227732   4.576   4.123  12.297  0.4965 -2.5193  0.3897
 5366SOL     OW27733   3.608   4.251   7.115 -0.4778 -0.4125  0.0304
 5366SOL    HW127734   3.644   4.211   7.035  0.5450  1.8218 -0.6174
 5366SOL    HW227735   3.573   4.334   7.082 -1.7537 -0.7034  0.6391
 5367SOL     OW27736   3.865   0.284   1.802 -0.1489  0.3908  0.2453
 5367SOL    HW127737   3.956   0.266   1.777 -0.4992 -2.1639  0.8056
 5367SOL    HW227738   3.836   0.354   1.743  0.6063  0.9518  0.5354
 5368SOL     OW27739   2.823   1.055  11.345 -0.2355  0.8376  0.5230
 5368SOL    HW127740   2.827   0.963  11.372 -0.6522  0.9649  1.0130
 5368SOL    HW227741   2.881   1.042  11.270 -1.1105  0.4434 -0.0867
 5369SOL     OW27742   0.134   1.775   8.339  0.2168 -0.7804  0.4865
 5369SOL    HW127743   0.167   1.858   8.374 -2.4856 -0.0932  1.4127
 5369SOL    HW227744   0.168   1.760   8.251  2.9974 -1.3729  1.6352
 5370SOL     OW27745   4.040   2.943   7.922  0.1663 -0.1911 -0.3654
 5370SOL    HW127746   4.077   2.993   7.995 -1.0677  0.8479 -0.4725
 5370SOL    HW227747   3.991   2.865   7.948 -1.0626  0.3669 -1.0014
 5371SOL     OW27748   0.156   1.769   6.972 -0.0621 -0.4557 -0.1873
 5371SOL    HW127749   0.176   1.862   6.971  0.6726 -0.6073  0.6933
 5371SOL    HW227750   0.086   1.762   7.037  0.5538 -0.3097  0.4872
 5372SOL     OW27751   1.059   4.200   7.331 -0.1651 -0.4405  0.0988
 5372SOL    HW127752   0.975   4.246   7.333  0.8283  1.3777  0.6678
 5372SOL    HW227753   1.094   4.232   7.248 -0.0391 -4.3698 -1.3557
 5373SOL     OW27754   0.675   1.171   0.844  0.7531 -0.1124 -0.2878
 5373SOL    HW127755   0.587   1.133   0.854  1.1603 -0.7770  0.7553
 5373SOL    HW227756   0.732   1.095   0.854 -1.2256 -1.8190 -1.9044
 5374SOL     OW27757   4.345   0.768   7.168 -0.1190  0.3243  0.3479
 5374SOL    HW127758   4.381   0.856   7.160 -0.4262  0.1997 -2.5128
 5374SOL    HW227759   4.267   0.785   7.115  2.5655  2.5036 -2.8961
 5375SOL     OW27760   2.562   2.248  11.893  0.2447  0.3742 -0.6401
 5375SOL    HW127761   2.612   2.292  11.962 -1.5853  1.1599  0.1904
 5375SOL    HW227762   2.625   2.236  11.822 -0.5660  0.2929 -1.3425
 5376SOL     OW27763   2.103   4.180   4.735 -0.3303 -0.0818 -0.0287
 5376SOL    HW127764   2.127   4.162   4.644 -0.2025  1.3310 -0.2828
 5376SOL    HW227765   2.065   4.097   4.764  1.7993 -0.4751  1.6945
 5377SOL     OW27766   0.695   2.570   4.048 -0.2040  0.5758  0.0654
 5377SOL    HW127767   0.728   2.482   4.033 -1.3878 -0.0960  1.5251
 5377SOL    HW227768   0.630   2.583   3.979 -0.4575  0.2362  0.2399
 5378SOL     OW27769   0.916   1.773   6.794 -0.1171  0.0434  0.2353
 5378SOL    HW127770   0.961   1.842   6.744  2.3862 -0.6385  1.5411
 5378SOL    HW227771   0.930   1.703   6.731 -0.8523 -0.9765  1.2273
 5379SOL     OW27772   0.907   2.547   8.004  0.4972 -0.0678 -0.1815
 5379SOL    HW127773   0.941   2.585   8.085  1.1711  0.3838 -0.6750
 5379SOL    HW227774   0.857   2.476   8.045 -0.6671  2.2238  2.2888
 5380SOL     OW27775   2.837   3.896  16.907  0.6627  0.2433 -0.2588
 5380SOL    HW127776   2.932   3.893  16.920  0.4533 -0.9375  1.0309
 5380SOL    HW227777   2.830   3.899  16.812  0.0833  0.9053 -0.1893
 5381SOL     OW27778   0.617   2.215   4.454 -0.3391  0.2273  0.3967
 5381SOL    HW127779   0.575   2.172   4.380  0.8654 -2.5710  1.3528
 5381SOL    HW227780   0.536   2.259   4.481 -1.4364 -1.4655 -0.1158
 5382SOL     OW27781   1.417   2.253   6.513  0.1067 -0.0466  0.4723
 5382SOL    HW127782   1.434   2.343   6.483  0.3652  0.4477  2.1054
 5382SOL    HW227783   1.332   2.247   6.470  1.4936  0.0399 -2.2300
 5383SOL     OW27784   1.325   4.087  11.103  0.6355 -0.2753 -0.1056
 5383SOL    HW127785   1.416   4.061  11.119  1.0322  1.9083  1.1181
 5383SOL    HW227786   1.315   4.063  11.011 -1.4449 -1.2119  0.3534
 5384SOL     OW27787   4.149   0.160   2.355  0.0032  0.2228 -0.1541
 5384SOL    HW127788   4.150   0.153   2.259 -0.4404  0.5280 -0.1837
 5384SOL    HW227789   4.076   0.222   2.360 -0.4163 -0.1804 -1.2347
 5385SOL     OW27790   0.273   4.057   3.570  0.9092 -0.4399  0.2931
 5385SOL    HW127791   0.352   4.063   3.516  2.0353 -0.7027  1.9175
 5385SOL    HW227792   0.210   4.054   3.498  1.0869  3.2837 -0.0182
 5386SOL     OW27793   3.959   0.972   8.719 -0.2697  0.8083 -0.0993
 5386SOL    HW127794   3.865   0.970   8.737 -0.0406 -0.7780  0.9263
 5386SOL    HW227795   3.985   0.880   8.729 -0.7956  0.2947 -3.4979
 5387SOL     OW27796   2.246   0.832   8.114 -0.7376  0.1686 -0.2040
 5387SOL    HW127797   2.197   0.760   8.074  0.5561  0.3734 -2.2056
 5387SOL    HW227798   2.259   0.802   8.204 -0.6894 -0.1673 -0.3222
 5388SOL     OW27799   1.253   0.098   0.133  0.2433  0.1222  0.5723
 5388SOL    HW127800   1.204   0.029   0.087  1.2755 -0.1668 -0.0812
 5388SOL    HW227801   1.231   0.080   0.225  0.0888 -0.4469  0.4296
 5389SOL     OW27802   1.946   0.862   5.591  0.1834 -0.5635  0.4819
 5389SOL    HW127803   1.888   0.796   5.552 -0.6049  0.7199 -0.5276
 5389SOL    HW227804   1.889   0.923   5.638  0.6306 -2.8802  4.0419
 5390SOL     OW27805   1.224   3.718   3.450  0.1278  0.2009  0.0282
 5390SOL    HW127806   1.315   3.717   3.421 -0.1514 -3.0828 -0.7785
 5390SOL    HW227807   1.222   3.630   3.489  1.2749  1.1266  2.1680
 5391SOL     OW27808   2.003   0.509   1.575  0.1007 -0.5917 -0.0720
 5391SOL    HW127809   2.081   0.464   1.607 -1.2951 -1.6302  1.8539
 5391SOL    HW227810   1.986   0.463   1.493  0.0501  0.1560 -0.4830
 5392SOL     OW27811   3.831   0.513  12.879 -0.2242  0.3303  0.4285
 5392SOL    HW127812   3.871   0.545  12.959 -1.7137  0.4581  1.1071
 5392SOL    HW227813   3.829   0.418  12.891 -1.1889  0.3166  0.1639
 5393SOL     OW27814   4.524   3.076   8.583 -0.3800  0.0041  0.6316
 5393SOL    HW127815   4.493   3.164   8.564  0.6019  0.0687 -0.6659
 5393SOL    HW227816   4.445   3.038   8.620 -1.0417  1.4271  0.6777
 5394SOL     OW27817   2.615   4.143   4.435  0.0521  0.2274 -0.1070
 5394SOL    HW127818   2.700   4.167   4.398  0.5970  2.9420  2.8779
 5394SOL    HW227819   2.556   4.123   4.363  0.0467  1.8655 -0.5575
 5395SOL     OW27820   3.736   0.109  17.031  0.2914 -0.4327  0.0335
 5395SOL    HW127821   3.830   0.120  17.018 -0.2042  3.2415 -0.3186
 5395SOL    HW227822   3.745   0.107  17.126 -0.1967 -2.3566  0.0360
 5396SOL     OW27823   2.303   1.133   6.245 -0.2941 -0.0427  0.0563
 5396SOL    HW127824   2.286   1.182   6.326  0.2540  1.0728 -0.4940
 5396SOL    HW227825   2.290   1.201   6.179  0.9285  0.8322  0.7072
 5397SOL     OW27826   3.451   2.883   2.115 -0.7255 -0.2689  0.6412
 5397SOL    HW127827   3.426   2.886   2.207 -1.5126  0.7622  0.3875
 5397SOL    HW227828   3.493   2.967   2.094 -0.5409 -0.0593  1.8848
 5398SOL     OW27829   2.695   4.731   8.026 -0.2103  0.0343  0.0298
 5398SOL    HW127830   2.728   0.017   7.938  0.8066  1.0268  0.6178
 5398SOL    HW227831   2.762   0.052   8.067  0.6043  0.1397 -1.4181
 5399SOL     OW27832   3.373   0.997   6.181 -0.2211  0.2565  0.1808
 5399SOL    HW127833   3.286   1.033   6.163  0.0907  0.8947 -0.0451
 5399SOL    HW227834   3.381   1.036   6.268 -3.6030 -0.0898  0.6588
 5400SOL     OW27835   1.427   1.905   4.599  0.0585 -0.2909 -0.1893
 5400SOL    HW127836   1.480   1.984   4.590 -0.4127 -0.0777 -1.1065
 5400SOL    HW227837   1.469   1.853   4.530  0.2690  1.4535 -1.3723
 5401SOL     OW27838   0.808   1.213   5.001  0.4764 -0.1497 -0.0953
 5401SOL    HW127839   0.890   1.261   5.012  0.0916  0.5643 -0.3688
 5401SOL    HW227840   0.820   1.134   4.947 -2.8807  1.9011 -3.8499
 5402SOL     OW27841   3.198   1.952   8.733  0.4009 -0.0241 -0.6313
 5402SOL    HW127842   3.272   2.011   8.746 -2.0027  2.3879  2.0393
 5402SOL    HW227843   3.182   1.908   8.816 -1.0972  0.6737 -0.5653
 5403SOL     OW27844   2.718   3.244  14.276 -0.3606 -0.4114  0.1788
 5403SOL    HW127845   2.748   3.332  14.298 -0.6787 -0.5847  1.3482
 5403SOL    HW227846   2.641   3.248  14.334  0.0274 -0.0109  0.6657
 5404SOL     OW27847   0.464   1.478  17.246  0.3059  0.4389  0.3012
 5404SOL    HW127848   0.438   1.493  17.337  0.5490  0.3797  0.3800
 5404SOL    HW227849   0.381   1.467  17.198  0.5193 -1.0670  0.2645
 5405SOL     OW27850   1.708   1.806  13.250  0.3311  0.2100 -0.2752
 5405SOL    HW127851   1.719   1.886  13.302  0.0012 -0.7008  1.1846
 5405SOL    HW227852   1.635   1.764  13.296  0.9702  1.8112  2.2037
 5406SOL     OW27853   0.066   3.934  15.048  0.6660  0.3243  0.5634
 5406SOL    HW127854   0.030   4.022  15.035 -1.1194 -0.5657 -0.4384
 5406SOL    HW227855   0.043   3.928  15.141  1.0577 -2.9645  0.4293
 5407SOL     OW27856   2.341   4.450   5.723  0.5049 -0.3160  0.1504
 5407SOL    HW127857   2.290   4.501   5.786  0.7218 -0.7311  0.6655
 5407SOL    HW227858   2.309   4.362   5.739  1.0979 -0.9057 -1.9065
 5408SOL     OW27859   1.898   1.348  17.259  0.8310 -0.6475  0.0638
 5408SOL    HW127860   1.965   1.402  17.217  1.7987 -1.8094  0.1051
 5408SOL    HW227861   1.817   1.395  17.238 -0.6449 -2.9434  0.6914
 5409SOL     OW27862   4.418   3.398   6.960  0.0863 -0.1442 -0.1367
 5409SOL    HW127863   4.352   3.385   6.892 -1.0603 -2.3822  1.3870
 5409SOL    HW227864   4.353   3.407   7.030  0.3260  0.4453  0.0127
 5410SOL     OW27865   1.724   4.103   0.888  0.1720 -0.2585 -0.4649
 5410SOL    HW127866   1.677   4.024   0.860 -0.8603 -0.4780  1.8310
 5410SOL    HW227867   1.808   4.098   0.843  0.7213  2.1222  0.2751
 5411SOL     OW27868   4.336   2.064   6.933  0.1463  0.3799  0.5024
 5411SOL    HW127869   4.310   1.983   6.888  1.6895 -0.7634  1.6394
 5411SOL    HW227870   4.376   2.036   7.015  1.0690 -2.0750 -0.7820
 5412SOL     OW27871   4.176   0.929   5.772 -0.1917 -0.1861  0.6236
 5412SOL    HW127872   4.132   1.014   5.764 -1.3518 -0.7818  0.6796
 5412SOL    HW227873   4.187   0.928   5.867  1.7367 -0.4468  0.3870
 5413SOL     OW27874   0.449   3.458   0.678 -0.3543  0.3716  0.0017
 5413SOL    HW127875   0.422   3.368   0.658  1.2810 -0.5338  1.9479
 5413SOL    HW227876   0.544   3.450   0.670 -0.1983  0.1918  2.2764
 5414SOL     OW27877   0.807   2.948   5.324 -0.9666  0.1494  0.4948
 5414SOL    HW127878   0.728   2.973   5.276 -0.1542  1.5099 -0.1296
 5414SOL    HW227879   0.865   2.926   5.251 -1.7606 -2.5670  0.6776
 5415SOL     OW27880   1.765   0.070   2.088 -0.3028 -0.2707  0.4725
 5415SOL    HW127881   1.717   0.152   2.099 -1.0651 -0.4559 -1.6230
 5415SOL    HW227882   1.715   0.021   2.023 -0.7792  1.0961 -0.1887
 5416SOL     OW27883   2.084   1.741   7.479  0.0345 -0.4312  0.2874
 5416SOL    HW127884   2.129   1.805   7.423 -0.6403  1.1100  1.5064
 5416SOL    HW227885   2.156   1.687   7.510 -1.5633 -2.1865  0.9357
 5417SOL     OW27886   3.557   0.719  13.661  0.6579 -0.0998 -0.1402
 5417SOL    HW127887   3.628   0.675  13.706  1.3260  1.1950  0.0826
 5417SOL    HW227888   3.497   0.719  13.736  0.0906 -0.1110 -0.5874
 5418SOL     OW27889   1.289   3.974   1.133 -0.1996  0.2252  0.2967
 5418SOL    HW127890   1.356   4.037   1.105  0.4991  0.5586  2.7615
 5418SOL    HW227891   1.219   4.039   1.143 -0.7047 -0.1427 -0.7559
 5419SOL     OW27892   2.445   2.384   1.316 -0.3965  0.4519  0.1275
 5419SOL    HW127893   2.510   2.396   1.385 -0.8082  1.9399  0.2491
 5419SOL    HW227894   2.441   2.471   1.277 -0.9646 -0.8794 -2.7836
 5420SOL     OW27895   4.259   1.962  15.868 -0.5198  0.1959  0.2551
 5420SOL    HW127896   4.276   1.979  15.775  3.8213  0.7711  1.1600
 5420SOL    HW227897   4.191   1.894  15.869 -0.6143  0.3294  1.6873
 5421SOL     OW27898   0.448   4.636   2.996  0.0576  0.2700  0.2607
 5421SOL    HW127899   0.530   4.615   2.950  0.2153  0.0449  0.6465
 5421SOL    HW227900   0.394   4.564   2.964 -0.5903  0.5936  0.6311
 5422SOL     OW27901   3.732   3.081   7.903  0.3483  0.3544 -0.0380
 5422SOL    HW127902   3.670   3.008   7.911  0.5688  0.0957 -0.7173
 5422SOL    HW227903   3.809   3.049   7.949  0.9422 -1.7552 -2.5178
 5423SOL     OW27904   1.899   0.450   8.015 -0.6843 -0.1224  0.3923
 5423SOL    HW127905   1.994   0.465   8.009 -1.1488  2.7337  0.3761
 5423SOL    HW227906   1.900   0.355   8.024 -2.0019 -0.2587 -0.8255
 5424SOL     OW27907   0.879   4.163   0.534  0.3799 -0.1583  0.0382
 5424SOL    HW127908   0.975   4.167   0.538  0.5116 -0.8609 -2.4444
 5424SOL    HW227909   0.870   4.117   0.617  1.7764 -1.6047 -0.6121
 5425SOL     OW27910   1.954   0.357   8.468 -0.4802 -0.4271 -0.0147
 5425SOL    HW127911   1.887   0.302   8.427 -1.0256 -0.7135  1.2524
 5425SOL    HW227912   2.030   0.351   8.410  0.3154  1.6389  0.8027
 5426SOL     OW27913   2.206   0.992   8.690  0.3071  0.2772  0.2645
 5426SOL    HW127914   2.137   1.038   8.641  0.4318  0.8049  0.5888
 5426SOL    HW227915   2.284   1.026   8.647 -0.6636  3.0829  0.6984
 5427SOL     OW27916   2.794   1.125   4.586  0.0859 -0.2089  0.0293
 5427SOL    HW127917   2.730   1.169   4.642  1.0791  1.5668 -0.2298
 5427SOL    HW227918   2.746   1.096   4.508  1.1377 -0.0598 -0.6798
 5428SOL     OW27919   2.907   1.328   7.477 -0.7652 -0.2174 -0.5915
 5428SOL    HW127920   2.933   1.283   7.396 -0.6796 -0.7770 -0.2527
 5428SOL    HW227921   2.934   1.265   7.544  1.2499  0.1459 -1.0339
 5429SOL     OW27922   2.754   2.163   3.166  0.2377  0.3193 -0.1775
 5429SOL    HW127923   2.791   2.201   3.087 -1.3764  2.0593 -0.0958
 5429SOL    HW227924   2.691   2.103   3.125 -0.1763  2.7501 -3.1120
 5430SOL     OW27925   0.320   2.668   8.926  0.5845 -0.3428  0.6702
 5430SOL    HW127926   0.262   2.605   8.969 -1.7103  0.9061 -0.6065
 5430SOL    HW227927   0.402   2.619   8.919  0.3095 -0.3518 -2.4316
 5431SOL     OW27928   3.424   1.449   2.171  0.1837 -0.4396  0.5444
 5431SOL    HW127929   3.480   1.382   2.133  0.0915  0.0972 -0.5426
 5431SOL    HW227930   3.468   1.522   2.127  0.1092 -2.0187 -2.1412
 5432SOL     OW27931   0.751   4.000   4.673  0.2181 -0.1074  0.3967
 5432SOL    HW127932   0.678   4.036   4.724 -0.8887 -1.7082 -0.0718
 5432SOL    HW227933   0.799   4.082   4.658 -0.3266  0.2304  0.5010
 5433SOL     OW27934   3.137   1.426  16.318 -0.3350  0.1310  0.7586
 5433SOL    HW127935   3.221   1.380  16.319 -0.5148 -0.2011 -0.0575
 5433SOL    HW227936   3.169   1.516  16.304  1.4072 -0.7313 -0.7378
 5434SOL     OW27937   4.190   3.872  14.795 -0.7523  0.1084 -0.5385
 5434SOL    HW127938   4.143   3.955  14.803  0.1058  0.7350 -1.9734
 5434SOL    HW227939   4.212   3.843  14.883  1.6257  2.1014 -0.4530
 5435SOL     OW27940   1.310   2.679   3.620 -0.2160 -0.0401  0.0167
 5435SOL    HW127941   1.323   2.585   3.637  0.0729  0.0576  0.3243
 5435SOL    HW227942   1.229   2.676   3.569 -0.9626  0.3186  1.1902
 5436SOL     OW27943   1.361   4.468   6.476  0.2788 -0.2562 -1.0448
 5436SOL    HW127944   1.402   4.391   6.436 -0.6953 -0.4240 -1.7301
 5436SOL    HW227945   1.283   4.485   6.423 -0.4992 -0.8354 -0.0785
 5437SOL     OW27946   3.046   2.942   8.070  0.3289 -0.0827 -0.1867
 5437SOL    HW127947   3.075   2.930   8.160  1.7333  0.5176 -0.5651
 5437SOL    HW227948   2.953   2.920   8.075 -0.4396  2.9450 -1.2453
 5438SOL     OW27949   2.993   0.813   5.722  0.8968  0.3073 -0.6304
 5438SOL    HW127950   2.935   0.841   5.793 -1.4937  0.5980 -2.7117
 5438SOL    HW227951   2.946   0.741   5.678  0.3708 -1.1103  2.2415
 5439SOL     OW27952   4.483   0.028  16.361  0.7744  0.0572 -0.2782
 5439SOL    HW127953   4.480   0.025  16.265  1.3118  1.4791 -0.3377
 5439SOL    HW227954   4.389   0.030  16.378  0.9683 -0.8144  0.8310
 5440SOL     OW27955   0.095   0.518   6.379 -0.2266 -0.2238  0.2056
 5440SOL    HW127956   0.061   0.598   6.340  1.9013  0.0055 -1.1840
 5440SOL    HW227957   0.043   0.450   6.337 -0.4222  0.7683 -1.1495
 5441SOL     OW27958   4.622   3.448   7.667 -0.6879  0.4428  0.5515
 5441SOL    HW127959   4.577   3.516   7.617 -0.6532  1.0526  1.3481
 5441SOL    HW227960   4.614   3.494   7.750 -1.8291 -1.3143  1.4069
 5442SOL     OW27961   1.581   0.250  10.792  0.2833 -0.6823  0.0015
 5442SOL    HW127962   1.617   0.162  10.798 -1.6619 -1.3529  1.4201
 5442SOL    HW227963   1.663   0.300  10.788 -0.9908  1.5664  2.1693
 5443SOL     OW27964   1.624   2.287  14.918  0.4122 -0.4195 -0.6252
 5443SOL    HW127965   1.629   2.215  14.855  1.9611  0.7312 -1.8136
 5443SOL    HW227966   1.703   2.340  14.904 -0.4310  0.7729 -0.8388
 5444SOL     OW27967   2.819   2.526   9.966  0.0906  0.2052 -0.2146
 5444SOL    HW127968   2.735   2.556   9.929  0.3870  0.5593 -0.6058
 5444SOL    HW227969   2.777   2.490  10.044 -0.3128  0.3941 -0.3397
 5445SOL     OW27970   0.672   0.075  15.622 -0.4181  0.1558 -0.8154
 5445SOL    HW127971   0.587   0.058  15.662 -0.4855 -1.0834 -1.4662
 5445SOL    HW227972   0.645   0.111  15.537 -1.3337  2.1719  0.3299
 5446SOL     OW27973   1.830   1.160   7.216 -0.1451  0.2188 -0.2076
 5446SOL    HW127974   1.805   1.090   7.277  1.3194  1.0444  1.3360
 5446SOL    HW227975   1.912   1.174   7.264  0.2291 -2.7434  0.0437
 5447SOL     OW27976   3.025   4.588   0.144 -0.8723  0.2756 -0.2818
 5447SOL    HW127977   3.041   4.658   0.208  0.9748 -0.3992  0.0079
 5447SOL    HW227978   2.930   4.579   0.139 -0.8911  1.4446 -2.0045
 5448SOL     OW27979   1.181   2.346  12.542  0.2330 -0.0777 -0.2685
 5448SOL    HW127980   1.141   2.283  12.602 -0.1957  0.5260  0.0719
 5448SOL    HW227981   1.265   2.341  12.588 -0.5125  0.8375  1.1986
 5449SOL     OW27982   0.221   2.594   1.359 -0.7351  0.2180  0.2654
 5449SOL    HW127983   0.252   2.586   1.269 -0.1785 -0.2713  0.5071
 5449SOL    HW227984   0.211   2.687   1.379  1.4301  0.3069  0.8199
 5450SOL     OW27985   0.149   4.204   5.020  0.2061  0.0770  0.0805
 5450SOL    HW127986   0.195   4.122   5.039 -1.8333 -0.9755  0.3874
 5450SOL    HW227987   0.104   4.188   4.937 -0.1019 -1.5023  0.5561
 5451SOL     OW27988   0.647   2.951   1.544  0.4432  0.3062 -0.3834
 5451SOL    HW127989   0.656   3.015   1.474  1.0811  0.2626 -0.3366
 5451SOL    HW227990   0.675   2.867   1.507 -0.0464  0.0233 -0.1223
 5452SOL     OW27991   0.114   4.562  11.145  0.3960  0.4034  0.0197
 5452SOL    HW127992   0.109   4.466  11.151 -2.9160  0.5650 -0.4643
 5452SOL    HW227993   0.080   4.580  11.233  0.0699  0.2952 -0.0835
 5453SOL     OW27994   0.791   2.328   0.788  0.1802  0.2206 -0.4460
 5453SOL    HW127995   0.854   2.329   0.861 -1.6636 -0.7409  1.1488
 5453SOL    HW227996   0.735   2.254   0.810 -2.1833  2.0100 -0.5303
 5454SOL     OW27997   1.039   2.591  13.485 -0.0071 -0.4642  0.2845
 5454SOL    HW127998   1.101   2.618  13.417 -1.4017  3.1892  0.4463
 5454SOL    HW227999   0.986   2.530  13.434 -0.1831  2.6150 -3.2405
 5455SOL     OW28000   0.433   1.061   4.870 -0.4756 -0.0189  0.4661
 5455SOL    HW128001   0.409   1.064   4.778  0.8238  0.2600  0.1409
 5455SOL    HW228002   0.483   1.142   4.880 -0.5646  0.1120 -0.1571
 5456SOL     OW28003   0.261   0.133   4.757  0.4580  0.3168  0.3881
 5456SOL    HW128004   0.239   0.149   4.849 -0.5506  1.4312 -0.0539
 5456SOL    HW228005   0.230   0.042   4.749  2.0026 -0.2928  1.2460
 5457SOL     OW28006   3.254   1.051   2.918  0.3377 -0.0204 -0.2089
 5457SOL    HW128007   3.169   1.008   2.922 -0.0839  0.7568 -0.9636
 5457SOL    HW228008   3.235   1.079   3.008  1.5599 -0.6586  0.2462
 5458SOL     OW28009   4.376   2.492   2.883 -0.7336 -0.1169 -0.0366
 5458SOL    HW128010   4.471   2.484   2.874 -0.9919 -3.6952  0.5853
 5458SOL    HW228011   4.349   2.411   2.925 -0.0192  0.0888  0.8172
 5459SOL     OW28012   2.019   3.642   2.536  0.0011 -0.2454 -0.3161
 5459SOL    HW128013   2.041   3.652   2.443  2.1791  0.3270  0.2400
 5459SOL    HW228014   1.961   3.566   2.535 -0.0408 -0.2099 -0.6490
 5460SOL     OW28015   3.266   3.135  17.387  0.2964  0.3541 -0.2499
 5460SOL    HW128016   3.195   3.165  17.443 -0.8039  0.2856 -1.6066
 5460SOL    HW228017   3.330   3.104  17.452  0.4862 -0.4648 -0.8319
 5461SOL     OW28018   0.403   0.992  13.995 -0.0632  0.1289  0.2112
 5461SOL    HW128019   0.431   1.072  13.949  2.8494 -0.0853  1.6195
 5461SOL    HW228020   0.321   1.028  14.028  0.0502 -0.5113  1.1823
 5462SOL     OW28021   3.433   2.270   6.466 -0.3425 -0.1752 -0.1561
 5462SOL    HW128022   3.407   2.333   6.533 -1.1099 -1.6581  0.9347
 5462SOL    HW228023   3.512   2.314   6.433 -0.9311  0.6537 -0.4593
 5463SOL     OW28024   4.680   0.496  12.424  0.7101  0.1424 -0.3756
 5463SOL    HW128025   4.585   0.509  12.434  0.3923 -2.2253 -0.3563
 5463SOL    HW228026   4.683   0.402  12.412  0.9217  0.0439  0.4351
 5464SOL     OW28027   4.222   2.934  16.656  0.0276  0.2604  0.1267
 5464SOL    HW128028   4.307   2.888  16.656 -1.5547 -2.6941  1.5555
 5464SOL    HW228029   4.211   2.956  16.748 -2.3422 -2.9243  0.6102
 5465SOL     OW28030   2.155   0.596   7.852 -0.2944  0.0835  0.5878
 5465SOL    HW128031   2.214   0.521   7.865 -0.1124 -0.2033 -2.0144
 5465SOL    HW228032   2.117   0.578   7.767  0.4887 -0.3073  0.3192
 5466SOL     OW28033   0.475   0.160   2.450 -0.1874 -0.4597 -0.4995
 5466SOL    HW128034   0.552   0.203   2.413  0.3162 -0.4112  0.6042
 5466SOL    HW228035   0.488   0.065   2.452  2.8443  0.0252  1.4751
 5467SOL     OW28036   1.268   0.556   5.586  0.3694 -0.0500 -0.4378
 5467SOL    HW128037   1.326   0.484   5.612  0.1994 -0.4967 -1.3094
 5467SOL    HW228038   1.307   0.564   5.499 -1.0280 -1.1455 -1.1610
 5468SOL     OW28039   4.643   1.284   4.505  0.0006  0.0682 -0.5444
 5468SOL    HW128040   4.726   1.293   4.458 -0.4617 -2.1087 -1.7846
 5468SOL    HW228041   4.669   1.198   4.539  3.1923  1.7769  1.3106
 5469SOL     OW28042   3.284   0.652   8.167  0.0027 -0.0060  0.4549
 5469SOL    HW128043   3.253   0.660   8.077 -0.9295  0.1578  0.7905
 5469SOL    HW228044   3.375   0.678   8.157  0.0601 -1.1346 -1.9776
 5470SOL     OW28045   2.567   1.059   3.298 -0.1341  0.6279  0.4391
 5470SOL    HW128046   2.553   1.029   3.208 -0.5214  2.1553 -0.0029
 5470SOL    HW228047   2.659   1.057   3.322 -0.0559  2.2036  0.2329
 5471SOL     OW28048   2.518   4.112   2.195 -0.0118 -0.8969  0.2443
 5471SOL    HW128049   2.458   4.118   2.120 -1.4461 -0.3216  1.4381
 5471SOL    HW228050   2.584   4.052   2.160 -1.2831 -0.7815 -2.3218
 5472SOL     OW28051   2.205   2.578   3.208  0.2960 -0.0640 -0.0525
 5472SOL    HW128052   2.271   2.601   3.274  1.4582  0.8706 -1.5394
 5472SOL    HW228053   2.251   2.549   3.129  3.0618 -0.0597  1.5251
 5473SOL     OW28054   4.572   0.867   6.630  0.3055  0.0968  0.4235
 5473SOL    HW128055   4.644   0.805   6.614 -2.4941 -2.7939 -0.9319
 5473SOL    HW228056   4.540   0.825   6.709  2.5615 -0.2176  1.1888
 5474SOL     OW28057   3.351   4.685  11.599  0.3098 -0.3460  0.3955
 5474SOL    HW128058   3.287   4.664  11.667  0.6741 -0.7997  0.5964
 5474SOL    HW228059   3.418   4.633  11.642  2.8237  0.7416 -2.1713
 5475SOL     OW28060   0.609   3.829   3.083 -0.2013 -0.7039 -0.0690
 5475SOL    HW128061   0.665   3.882   3.026  1.1499  0.8598  2.7294
 5475SOL    HW228062   0.581   3.757   3.026  0.1451 -0.5157 -0.4755
 5476SOL     OW28063   2.751   1.894  16.380  0.2916 -0.5128  0.0219
 5476SOL    HW128064   2.746   1.805  16.415  3.5897 -1.1531 -1.1404
 5476SOL    HW228065   2.837   1.912  16.417 -0.1504 -1.9202  1.6827
 5477SOL     OW28066   3.587   3.228   3.733 -0.3227  0.0124  0.3479
 5477SOL    HW128067   3.517   3.164   3.740  1.7214 -2.0332  2.1081
 5477SOL    HW228068   3.664   3.178   3.705 -2.1106 -2.0528 -0.8465
 5478SOL     OW28069   2.965   3.225   8.159 -0.2884 -0.7579 -0.3740
 5478SOL    HW128070   2.998   3.236   8.248  0.9094  1.6886 -1.1327
 5478SOL    HW228071   2.873   3.247   8.174  0.2293  0.2916  1.1994
 5479SOL     OW28072   4.426   1.674  13.497  0.0432  0.2118  0.1348
 5479SOL    HW128073   4.499   1.613  13.499 -0.9700 -1.0293 -1.1704
 5479SOL    HW228074   4.431   1.692  13.403 -2.9799 -2.6139 -0.5311
 5480SOL     OW28075   0.090   3.488  13.745  0.1083  0.1294 -0.5831
 5480SOL    HW128076   0.023   3.549  13.777  1.7192  1.7467 -0.3070
 5480SOL    HW228077   0.050   3.401  13.744  2.0736 -0.8023  1.9494
 5481SOL     OW28078   2.091   1.433   6.099 -0.0560  0.0698 -0.1144
 5481SOL    HW128079   2.069   1.480   6.180 -0.2231  0.4570 -0.3851
 5481SOL    HW228080   2.182   1.406   6.109  0.2821  0.5055 -2.1295
 5482SOL     OW28081   4.091   3.085   9.441  0.6245 -0.4936  0.3983
 5482SOL    HW128082   4.031   3.011   9.447 -1.4817  1.1933  0.0290
 5482SOL    HW228083   4.058   3.149   9.504 -1.3875 -0.7596 -0.3891
 5483SOL     OW28084   4.606   0.555   8.944 -0.2301  0.2333  0.9367
 5483SOL    HW128085   4.692   0.564   8.904 -0.8429 -1.6627 -0.8366
 5483SOL    HW228086   4.550   0.625   8.911 -0.0509  1.0811  2.4390
 5484SOL     OW28087   3.585   4.226   2.594 -0.1547  0.4213 -0.0426
 5484SOL    HW128088   3.544   4.224   2.507 -0.6938 -4.4619  0.2965
 5484SOL    HW228089   3.633   4.308   2.589 -0.9670  0.9188  0.3422
 5485SOL     OW28090   4.113   0.731   5.982  0.1084  0.5337 -0.2791
 5485SOL    HW128091   4.169   0.679   5.925  1.5525  0.6366  1.0545
 5485SOL    HW228092   4.164   0.724   6.062 -1.7194 -2.0267  0.6541
 5486SOL     OW28093   0.996   1.880   9.651  0.7788 -0.3252  0.8615
 5486SOL    HW128094   0.992   1.888   9.556  0.2366 -0.8047  0.8368
 5486SOL    HW228095   0.990   1.784   9.660  0.9755 -0.3719  0.4796
 5487SOL     OW28096   1.078   0.342  16.534 -0.0823  0.9825 -0.0253
 5487SOL    HW128097   1.150   0.376  16.586  2.2089 -2.2352 -1.0992
 5487SOL    HW228098   1.037   0.424  16.507  0.0742  1.1676  0.3023
 5488SOL     OW28099   3.364   3.188   6.856  0.3612 -0.2292 -0.1526
 5488SOL    HW128100   3.371   3.284   6.861 -0.4270 -0.1829 -0.0257
 5488SOL    HW228101   3.456   3.172   6.834  0.6638  1.0884  0.1578
 5489SOL     OW28102   0.116   3.471   5.390  0.0637 -0.4703  0.2429
 5489SOL    HW128103   0.119   3.559   5.351  0.2276 -1.5893 -2.2990
 5489SOL    HW228104   0.183   3.429   5.336 -1.0351 -3.5824  1.2957
 5490SOL     OW28105   0.702   2.267   1.473  0.2780  0.4144  0.0086
 5490SOL    HW128106   0.774   2.232   1.526  0.7322  0.2608 -0.7154
 5490SOL    HW228107   0.658   2.331   1.529 -0.8890 -0.7946  0.4973
 5491SOL     OW28108   2.711   1.503   8.563 -0.2259 -0.5768  0.0032
 5491SOL    HW128109   2.725   1.591   8.528  1.5143 -0.2119  1.6468
 5491SOL    HW228110   2.727   1.518   8.656  0.7800 -1.8207  0.0343
 5492SOL     OW28111   2.991   1.620   7.419  0.7753 -0.2323 -0.1439
 5492SOL    HW128112   2.926   1.689   7.417  1.5146  0.4810  0.5475
 5492SOL    HW228113   2.936   1.543   7.432  1.0429 -0.2888  0.6206
 5493SOL     OW28114   4.614   2.392   1.127  0.5244  0.0045 -0.0946
 5493SOL    HW128115   4.657   2.392   1.212 -0.9319 -0.0829  0.6369
 5493SOL    HW228116   4.692   2.424   1.081  0.7986 -1.2087 -0.4678
 5494SOL     OW28117   3.186   0.579  17.232 -0.1915  0.0871 -0.1691
 5494SOL    HW128118   3.151   0.609  17.148 -0.3286  0.4292  0.0142
 5494SOL    HW228119   3.148   0.491  17.236 -1.3361  0.4859 -2.2428
 5495SOL     OW28120   2.089   1.712   1.722  0.2692  0.7662 -0.0259
 5495SOL    HW128121   2.058   1.770   1.792  0.3693  0.8220 -0.0276
 5495SOL    HW228122   2.025   1.641   1.721  1.7501 -0.5680  0.2823
 5496SOL     OW28123   4.544   4.127   3.398  0.3070 -0.2116 -0.2965
 5496SOL    HW128124   4.492   4.079   3.334  2.7688 -1.0373 -1.6703
 5496SOL    HW228125   4.487   4.205   3.399  1.0122  0.3003 -0.0093
 5497SOL     OW28126   3.851   2.014   6.634 -0.3424 -0.3944 -0.8357
 5497SOL    HW128127   3.765   2.039   6.668 -0.5031 -0.4537 -1.1971
 5497SOL    HW228128   3.871   2.101   6.601 -0.8336  0.0758  0.1047
 5498SOL     OW28129   4.512   2.332  17.683  0.2980 -0.1883  0.0510
 5498SOL    HW128130   4.468   2.403  17.729 -0.1098 -0.7216  0.4860
 5498SOL    HW228131   4.532   2.264   0.013 -0.4007 -2.8739 -2.5492
 5499SOL     OW28132   1.554   2.416   1.504 -0.3558  0.2247  0.6659
 5499SOL    HW128133   1.609   2.403   1.427  0.4526  0.3492  1.2283
 5499SOL    HW228134   1.537   2.323   1.516 -2.9877  0.5625 -0.4487
 5500SOL     OW28135   3.832   1.174   9.253  0.1904  0.1223 -0.1817
 5500SOL    HW128136   3.889   1.211   9.186  0.4811 -1.2725 -0.6955
 5500SOL    HW228137   3.852   1.235   9.324 -0.0152 -1.7706  1.4998
 5501SOL     OW28138   3.791   1.920   9.180 -0.0407  0.4376  0.3990
 5501SOL    HW128139   3.880   1.932   9.214  0.4171  0.4631 -0.8062
 5501SOL    HW228140   3.795   1.825   9.171  1.4594  0.7188 -1.8920
 5502SOL     OW28141   1.271   2.580  15.955 -0.0927  0.0868 -0.4527
 5502SOL    HW128142   1.272   2.630  15.874  1.5964 -0.8491 -0.9972
 5502SOL    HW228143   1.311   2.648  16.010 -0.2064  1.9148 -2.6494
 5503SOL     OW28144   4.276   1.317   7.732 -0.7590 -0.3660  0.1598
 5503SOL    HW128145   4.234   1.268   7.661 -0.3906  0.4012 -0.5838
 5503SOL    HW228146   4.365   1.330   7.698 -0.8354  1.9322  0.8385
 5504SOL     OW28147   1.740   1.717   7.720  0.2467  0.1399 -0.4537
 5504SOL    HW128148   1.670   1.652   7.720  1.3051 -0.9987  1.5647
 5504SOL    HW228149   1.699   1.789   7.768 -0.2882 -1.9377  2.2136
 5505SOL     OW28150   2.699   1.564  16.407 -0.5832  0.1099  0.0834
 5505SOL    HW128151   2.726   1.481  16.445  2.9899  2.0688  1.8934
 5505SOL    HW228152   2.608   1.539  16.394 -1.2907  2.3401  0.7105
 5506SOL     OW28153   1.669   3.835   2.745 -0.5716  0.1377  0.1861
 5506SOL    HW128154   1.630   3.801   2.826 -1.4746  0.0972 -0.2773
 5506SOL    HW228155   1.761   3.809   2.753 -0.5794 -0.3063 -1.2956
 5507SOL     OW28156   0.533   3.145   6.972 -0.3985 -0.4659  0.0940
 5507SOL    HW128157   0.516   3.103   7.056  2.8079 -0.5519  0.6938
 5507SOL    HW228158   0.537   3.067   6.916 -0.4176 -0.0431 -0.5005
 5508SOL     OW28159   0.322   4.136   4.627 -0.1889  0.4366 -0.5101
 5508SOL    HW128160   0.395   4.122   4.688  0.0201 -0.1729 -0.8943
 5508SOL    HW228161   0.320   4.048   4.588 -2.6509  0.3751 -0.2556
 5509SOL     OW28162   1.773   0.288  12.789  0.3205  0.2503  1.0299
 5509SOL    HW128163   1.724   0.206  12.775 -0.3153  1.0628 -1.5515
 5509SOL    HW228164   1.730   0.325  12.865 -1.1166 -0.1896  0.4305
 5510SOL     OW28165   3.726   4.502   7.471 -0.6653  0.1857  0.2673
 5510SOL    HW128166   3.769   4.498   7.385 -1.8402 -0.9948 -0.2574
 5510SOL    HW228167   3.788   4.565   7.507  0.5409 -0.8855  0.0803
 5511SOL     OW28168   2.898   2.805   9.778 -0.3611  0.2069 -0.1597
 5511SOL    HW128169   2.913   2.727   9.832  0.3300  1.1625  1.0331
 5511SOL    HW228170   2.919   2.776   9.689  0.0472 -1.7172  0.5711
 5512SOL     OW28171   0.733   1.778   4.746  0.6884 -0.1562  0.2202
 5512SOL    HW128172   0.790   1.702   4.737  1.2668  0.4248 -1.0022
 5512SOL    HW228173   0.780   1.815   4.821  0.5382  0.2500  0.1153
 5513SOL     OW28174   0.271   1.159  17.520 -0.2665 -0.2929 -0.8301
 5513SOL    HW128175   0.276   1.254  17.533  2.8711 -0.7256  1.1374
 5513SOL    HW228176   0.350   1.122  17.559 -2.4733 -2.3170  1.8175
 5514SOL     OW28177   4.486   3.845  17.033  0.0566  0.8876  0.6734
 5514SOL    HW128178   4.510   3.930  16.998 -0.8508  0.2676 -1.4574
 5514SOL    HW228179   4.450   3.870  17.118 -1.8806 -1.4605  0.5619
 5515SOL     OW28180   3.139   4.517  12.425 -0.2096  0.2690  0.0378
 5515SOL    HW128181   3.132   4.566  12.343  0.5327 -0.4841 -0.4901
 5515SOL    HW228182   3.185   4.572  12.489  0.1292 -0.8294  0.7384
 5516SOL     OW28183   3.453   1.018   2.334 -0.1105  0.1344  0.3855
 5516SOL    HW128184   3.495   1.102   2.352 -0.6034  0.2883  0.8267
 5516SOL    HW228185   3.384   1.029   2.268  0.0676  1.2911  0.3810
 5517SOL     OW28186   4.261   2.735   9.280  0.1152  0.1883 -0.2947
 5517SOL    HW128187   4.273   2.700   9.192 -0.9857 -2.6613  0.6798
 5517SOL    HW228188   4.295   2.824   9.266  1.9202 -0.5235 -0.4059
 5518SOL     OW28189   1.566   0.571   2.618 -0.4295  0.5414 -0.0695
 5518SOL    HW128190   1.548   0.662   2.643  0.6273  0.7335 -0.0056
 5518SOL    HW228191   1.477   0.545   2.596  0.0412 -0.0597 -1.2112
 5519SOL     OW28192   2.792   4.500  16.579 -0.3465 -0.9041 -0.1686
 5519SOL    HW128193   2.742   4.493  16.661  0.7528 -2.3208  0.3682
 5519SOL    HW228194   2.770   4.592  16.566 -1.7302 -1.3788 -1.1963
 5520SOL     OW28195   3.240   3.009   8.393  0.0060 -0.0511  0.0226
 5520SOL    HW128196   3.257   2.971   8.480  1.2369 -0.1502 -0.2682
 5520SOL    HW228197   3.164   2.958   8.363 -0.8568  0.6665  0.9936
 5521SOL     OW28198   3.597   2.370   2.195  0.6164 -0.0806  0.0662
 5521SOL    HW128199   3.656   2.374   2.120  1.3151  0.9976  0.6797
 5521SOL    HW228200   3.657   2.381   2.269 -1.3004 -2.4407  2.0013
 5522SOL     OW28201   0.260   1.577   6.089 -0.2185 -0.2185 -0.5958
 5522SOL    HW128202   0.281   1.670   6.093 -0.3598 -0.2095  0.0016
 5522SOL    HW228203   0.209   1.562   6.169 -2.6793 -0.0182 -2.1368
 5523SOL     OW28204   1.966   0.230   7.111  0.4099 -0.3308 -0.5214
 5523SOL    HW128205   1.912   0.296   7.069 -0.9076 -1.3123 -0.3670
 5523SOL    HW228206   1.982   0.182   7.030 -0.4917 -0.4519 -0.6225
 5524SOL     OW28207   0.331   4.159   8.342  0.4572  0.2668 -0.1897
 5524SOL    HW128208   0.388   4.088   8.312 -0.4089  0.3601 -2.0631
 5524SOL    HW228209   0.309   4.198   8.258  2.0785 -1.1641 -1.2927
 5525SOL     OW28210   0.080   0.086   7.686 -0.6561  0.0997  0.0616
 5525SOL    HW128211   4.728   0.057   7.656 -1.2639  1.1233  0.8191
 5525SOL    HW228212   0.118   4.732   7.694 -1.2255 -0.4578 -3.3378
 5526SOL     OW28213   0.514   1.012   5.970 -0.3584  0.1980  0.0053
 5526SOL    HW128214   0.522   0.956   5.893  0.1576 -1.2270  1.1068
 5526SOL    HW228215   0.558   0.961   6.037 -0.1692  0.0768 -0.2114
 5527SOL     OW28216   2.507   3.278  17.362 -0.2869 -0.3454  0.0263
 5527SOL    HW128217   2.589   3.267  17.410  0.9213  0.5515 -1.8344
 5527SOL    HW228218   2.530   3.323  17.281 -1.2947  1.7030  0.8708
 5528SOL     OW28219   4.217   0.250   9.333  1.0523 -0.4483  0.3228
 5528SOL    HW128220   4.126   0.230   9.355  0.5583  1.5755  0.1254
 5528SOL    HW228221   4.225   0.340   9.363 -1.8352  0.1227 -0.6144
 5529SOL     OW28222   3.239   2.920   4.007 -0.9385 -0.4109 -0.2567
 5529SOL    HW128223   3.157   2.954   3.973 -1.6925 -1.1187  0.8590
 5529SOL    HW228224   3.208   2.836   4.040  1.5782 -0.2143  2.6483
 5530SOL     OW28225   3.014   3.565  17.178  0.1718 -0.0293  0.6144
 5530SOL    HW128226   3.056   3.647  17.154 -0.5822 -1.0512 -4.1873
 5530SOL    HW228227   3.087   3.503  17.171 -0.9141 -1.3058  0.5045
 5531SOL     OW28228   4.095   2.182  17.042  0.1807 -0.3187 -0.0501
 5531SOL    HW128229   4.048   2.148  16.965  2.3611 -0.6835 -1.2194
 5531SOL    HW228230   4.041   2.153  17.116 -0.4528  1.1879  0.0747
 5532SOL     OW28231   0.734   1.962   9.281  0.1369  0.1635  0.2586
 5532SOL    HW128232   0.678   2.023   9.231 -0.4709 -1.9245 -1.5942
 5532SOL    HW228233   0.772   1.906   9.214 -0.4972 -1.1993  1.0498
 5533SOL     OW28234   2.987   3.643   2.154 -0.1604  0.5991  0.1228
 5533SOL    HW128235   2.920   3.584   2.118 -0.6471  0.5961  1.0482
 5533SOL    HW228236   3.039   3.655   2.074  0.0398  0.5644  0.2497
 5534SOL     OW28237   2.900   0.105   8.222 -0.0584  0.5829 -0.1541
 5534SOL    HW128238   2.818   0.098   8.269 -1.0964  0.4422 -1.9790
 5534SOL    HW228239   2.944   0.178   8.265  0.7111 -0.4854  0.8775
 5535SOL     OW28240   3.692   3.698   5.554  0.1946 -0.0220  0.1607
 5535SOL    HW128241   3.627   3.698   5.625 -0.0281  0.3356 -0.0435
 5535SOL    HW228242   3.639   3.719   5.477 -2.2676 -0.3310  1.7589
 5536SOL     OW28243   4.327   0.124  14.973  0.7241 -0.3819  0.1348
 5536SOL    HW128244   4.263   0.195  14.976 -0.0657 -1.0685 -0.3082
 5536SOL    HW228245   4.411   0.170  14.972  0.3998  0.2507  1.3605
 5537SOL     OW28246   0.235   1.114  14.438  0.5559  0.1583  0.2720
 5537SOL    HW128247   0.304   1.057  14.471 -0.7143 -2.1012 -0.9187
 5537SOL    HW228248   0.285   1.176  14.386  0.1963  0.9179  0.8443
 5538SOL     OW28249   1.428   3.497  12.765 -0.3608  0.2662 -0.0473
 5538SOL    HW128250   1.482   3.418  12.779  1.0345  1.0994 -0.6981
 5538SOL    HW228251   1.492   3.565  12.786  0.7373 -0.2962 -1.5912
 5539SOL     OW28252   1.595   4.559   3.696  0.2808 -0.1789  0.0595
 5539SOL    HW128253   1.506   4.540   3.668 -0.9671  0.5072  3.6949
 5539SOL    HW228254   1.608   4.639   3.646 -1.8510 -0.9573 -1.7387
 5540SOL     OW28255   0.639   0.674   8.003  0.0329  0.0249 -0.3735
 5540SOL    HW128256   0.713   0.621   7.973  0.8953  0.8267  0.3045
 5540SOL    HW228257   0.652   0.685   8.098 -0.0001  1.9002 -0.5803
 5541SOL     OW28258   3.107   2.296   5.754  0.5965 -0.3075 -0.0352
 5541SOL    HW128259   3.098   2.374   5.700  1.8380  0.1060  0.3628
 5541SOL    HW228260   3.041   2.236   5.718  1.5170 -1.4931  0.2591
 5542SOL     OW28261   4.415   4.297   7.032  0.3866  0.1006 -0.0283
 5542SOL    HW128262   4.370   4.381   7.036  1.2534  0.6226 -1.1305
 5542SOL    HW228263   4.478   4.302   6.959  0.2057  2.0165 -0.0405
 5543SOL     OW28264   3.593   0.216  13.972  0.4657 -0.2724 -0.4185
 5543SOL    HW128265   3.642   0.166  13.907  0.0791 -0.6170 -0.4395
 5543SOL    HW228266   3.528   0.266  13.923 -0.2440  0.1675  0.9586
 5544SOL     OW28267   1.822   3.575   7.526 -0.4031  0.8964 -0.1802
 5544SOL    HW128268   1.837   3.668   7.546 -0.0596  0.6882  0.5172
 5544SOL    HW228269   1.842   3.553   7.617 -1.6076  0.6498  0.0213
 5545SOL     OW28270   1.858   0.711   0.448  0.0078  0.4622 -0.5614
 5545SOL    HW128271   1.860   0.616   0.438  1.7111  0.4273  0.1117
 5545SOL    HW228272   1.783   0.726   0.390 -0.9995 -2.2961  0.0507
 5546SOL     OW28273   0.430   2.219  16.776 -0.0235  0.0616  0.0533
 5546SOL    HW128274   0.493   2.155  16.809  1.1682  1.6638  0.8869
 5546SOL    HW228275   0.412   2.280  16.848 -1.5348 -0.0829 -0.1978
 5547SOL     OW28276   1.609   3.445   6.735  0.3522 -0.1525  0.4163
 5547SOL    HW128277   1.633   3.474   6.823 -0.0315 -2.3293  1.2538
 5547SOL    HW228278   1.696   3.415   6.707  0.4780 -2.4033  3.2190
 5548SOL     OW28279   1.473   2.967   8.735 -0.1750  0.2845 -0.3258
 5548SOL    HW128280   1.519   2.935   8.813 -0.7563  0.0510 -0.0775
 5548SOL    HW228281   1.417   2.889   8.724  0.7980 -0.2387 -1.6176
 5549SOL     OW28282   1.032   2.438   2.494  0.4991  0.1419  0.0352
 5549SOL    HW128283   1.017   2.362   2.438 -1.0339 -0.2198  0.9517
 5549SOL    HW228284   1.103   2.402   2.548  0.0580 -3.2013 -1.6200
 5550SOL     OW28285   1.157   2.358   4.375 -0.2371 -0.8208  0.3567
 5550SOL    HW128286   1.199   2.275   4.353 -0.5820 -1.0551  0.5781
 5550SOL    HW228287   1.078   2.353   4.321  0.6033 -0.3141 -0.9228
 5551SOL     OW28288   1.822   1.918   8.107  0.1957 -0.1421 -0.1722
 5551SOL    HW128289   1.747   1.947   8.054  0.1906  0.3359  0.0929
 5551SOL    HW228290   1.901   1.930   8.054  0.5531  0.3671  0.4813
 5552SOL     OW28291   3.776   2.938  10.690 -0.2396 -0.8890 -0.1295
 5552SOL    HW128292   3.699   2.919  10.636 -0.3364  0.5677 -0.5106
 5552SOL    HW228293   3.765   3.032  10.677 -0.0286 -0.9161 -0.5037
 5553SOL     OW28294   2.520   3.567   4.979  0.0064 -0.1376 -0.4790
 5553SOL    HW128295   2.457   3.633   4.951  0.3770  1.2238  1.8472
 5553SOL    HW228296   2.472   3.524   5.049 -1.4380 -0.2753 -1.5566
 5554SOL     OW28297   2.979   1.309  17.624 -0.1011  0.0570  0.0249
 5554SOL    HW128298   2.904   1.317  17.565 -0.6006 -0.6312  0.5675
 5554SOL    HW228299   2.961   1.372  17.694 -1.1899 -0.5123  0.2585
 5555SOL     OW28300   4.335   4.352   5.874 -0.3951 -0.0574  0.0039
 5555SOL    HW128301   4.362   4.298   5.948  0.0677  2.9569  2.0069
 5555SOL    HW228302   4.374   4.437   5.893  1.1427 -0.2886 -2.1524
 5556SOL     OW28303   1.814   4.415   8.005  0.0256  0.5684 -0.4571
 5556SOL    HW128304   1.893   4.463   8.030 -1.0078  2.0049  0.0392
 5556SOL    HW228305   1.828   4.427   7.911  2.1039 -1.9743 -0.4724
 5557SOL     OW28306   1.967   2.417   3.226 -0.4827 -0.8565  0.3606
 5557SOL    HW128307   1.907   2.452   3.160 -0.1724  1.7710  1.4588
 5557SOL    HW228308   2.048   2.468   3.217 -0.7103 -0.4465  0.6276
 5558SOL     OW28309   2.086   1.691   6.995 -0.0532 -0.0986  0.5264
 5558SOL    HW128310   2.056   1.674   7.085 -2.5307  2.4286  0.1868
 5558SOL    HW228311   2.058   1.782   6.981  0.5645 -0.1965 -1.3197
 5559SOL     OW28312   3.753   0.953   8.434 -0.0413 -0.1604 -0.1109
 5559SOL    HW128313   3.684   0.998   8.482 -1.5403 -1.8757 -0.6391
 5559SOL    HW228314   3.816   1.024   8.421 -0.4838  0.2453 -0.0061
 5560SOL     OW28315   1.772   0.289  15.923 -0.3389 -0.2003  0.7230
 5560SOL    HW128316   1.862   0.315  15.905 -1.5060  1.4329 -2.5736
 5560SOL    HW228317   1.733   0.376  15.927 -0.6365 -0.2037 -2.1053
 5561SOL     OW28318   2.540   1.602  11.538 -0.5132  0.1860  0.1072
 5561SOL    HW128319   2.452   1.569  11.555 -0.0312 -1.4513 -0.5387
 5561SOL    HW228320   2.522   1.695  11.533  1.9709  0.5791 -1.3106
 5562SOL     OW28321   0.245   1.977   3.983 -0.6370  0.4202  0.0730
 5562SOL    HW128322   0.297   1.898   3.970 -1.0855  0.1099  0.1653
 5562SOL    HW228323   0.153   1.951   3.994 -1.3011  2.2205 -1.0724
 5563SOL     OW28324   1.490   2.128   5.678 -0.8250 -0.0549  0.7320
 5563SOL    HW128325   1.421   2.072   5.714 -1.0483 -0.7228 -0.7257
 5563SOL    HW228326   1.557   2.113   5.745  1.3013  1.6690 -1.0420
 5564SOL     OW28327   3.265   3.259   6.527  0.3485 -0.0630 -0.2136
 5564SOL    HW128328   3.220   3.215   6.598 -1.5170  1.1925 -0.6298
 5564SOL    HW228329   3.188   3.312   6.507  0.0478 -0.7741 -0.9392
 5565SOL     OW28330   2.555   3.941   5.811 -0.3166  0.3514  0.1644
 5565SOL    HW128331   2.529   3.989   5.889  1.2700 -1.6415  1.9093
 5565SOL    HW228332   2.605   4.015   5.776  0.5789 -0.5064 -0.3563
 5566SOL     OW28333   3.887   4.581   5.082  0.2360 -0.2042  0.0149
 5566SOL    HW128334   3.949   4.524   5.037 -0.6473 -0.6147 -0.6927
 5566SOL    HW228335   3.819   4.513   5.082  0.0256  0.0084 -2.0388
 5567SOL     OW28336   4.445   3.683   8.877  0.9486 -0.1105 -0.0932
 5567SOL    HW128337   4.502   3.704   8.951  0.2260 -1.4345  0.8287
 5567SOL    HW228338   4.359   3.701   8.914  1.0650 -2.2507  1.2300
 5568SOL     OW28339   3.365   3.863   9.721 -0.0923 -0.2270 -0.8187
 5568SOL    HW128340   3.366   3.790   9.782  1.5079  0.5281  0.0649
 5568SOL    HW228341   3.416   3.828   9.648  3.0712 -0.5844  1.5767
 5569SOL     OW28342   0.913   3.403  14.160  0.3404  0.2138 -0.7853
 5569SOL    HW128343   0.821   3.404  14.186  1.3275  1.1507  2.7416
 5569SOL    HW228344   0.933   3.488  14.198 -2.3448 -0.3334  1.8794
 5570SOL     OW28345   3.871   1.263   2.781  0.1200  0.0932  0.2396
 5570SOL    HW128346   3.914   1.347   2.767 -1.0883  0.9983  1.9765
 5570SOL    HW228347   3.778   1.289   2.783  0.6037  1.8317  0.2251
 5571SOL     OW28348   1.372   0.054   1.929  0.5895 -0.5129 -0.1504
 5571SOL    HW128349   1.396   4.718   1.868  0.4199  0.9794 -1.9427
 5571SOL    HW228350   1.363   0.140   1.888  1.2201 -0.4859 -0.2458
 5572SOL     OW28351   3.031   0.042   5.927  0.8546  0.0867 -0.0001
 5572SOL    HW128352   2.967   0.113   5.920  1.8153  1.0700  1.4574
 5572SOL    HW228353   3.100   0.057   5.863  0.5900  1.8347  0.1371
 5573SOL     OW28354   0.108   3.056  13.725  0.0808  0.4118 -0.2209
 5573SOL    HW128355   0.051   3.126  13.756  1.5400  0.3869  2.4713
 5573SOL    HW228356   0.186   3.111  13.716  0.8077 -0.6511 -0.5503
 5574SOL     OW28357   1.341   2.403   3.685 -0.6098  0.1961 -0.4148
 5574SOL    HW128358   1.373   2.349   3.612 -2.3530 -1.0298 -0.2742
 5574SOL    HW228359   1.417   2.388   3.740  0.6479 -2.9899 -3.0145
 5575SOL     OW28360   0.652   0.749   9.323 -0.1569  0.4961 -0.4984
 5575SOL    HW128361   0.692   0.712   9.401 -0.9315  0.7326  0.0173
 5575SOL    HW228362   0.724   0.763   9.262  0.2874 -1.4420 -0.4028
 5576SOL     OW28363   3.918   0.587   9.180  0.2343 -0.2675 -0.1665
 5576SOL    HW128364   4.001   0.544   9.160  0.6304  0.3334  0.1980
 5576SOL    HW228365   3.936   0.680   9.172  0.8526 -0.3682  0.0493
 5577SOL     OW28366   4.229   3.374   7.244 -0.1864 -0.2137  0.3128
 5577SOL    HW128367   4.162   3.398   7.307 -1.0842  0.1201 -0.7639
 5577SOL    HW228368   4.198   3.288   7.215  1.3406 -0.3917 -0.8477
 5578SOL     OW28369   2.494   2.426   4.840 -0.1056  0.5845  0.2528
 5578SOL    HW128370   2.546   2.496   4.881  2.9432 -0.6871 -1.4806
 5578SOL    HW228371   2.454   2.387   4.918  0.7281  0.6516  0.7184
 5579SOL     OW28372   3.137   4.409  10.832  0.4671  0.1984 -1.0093
 5579SOL    HW128373   3.075   4.371  10.894  1.1295 -1.5182 -1.4175
 5579SOL    HW228374   3.217   4.357  10.831  0.8067  0.7161 -1.0613
 5580SOL     OW28375   2.498   2.785   5.387 -0.2359 -0.2993 -0.1969
 5580SOL    HW128376   2.557   2.741   5.324  1.2752  0.4480  0.6975
 5580SOL    HW228377   2.422   2.735   5.357  1.6141 -2.2643 -1.6698
 5581SOL     OW28378   4.451   3.319   8.558  0.0096 -0.0192  0.0059
 5581SOL    HW128379   4.415   3.396   8.603  2.2736  2.8716 -3.1008
 5581SOL    HW228380   4.505   3.365   8.494  1.3655 -0.9536  0.5014
 5582SOL     OW28381   1.159   0.044   3.769  0.1486 -0.4799  0.1759
 5582SOL    HW128382   1.233   0.084   3.722 -0.9796  1.5194  0.1307
 5582SOL    HW228383   1.165   0.071   3.860  2.8828 -1.2603  0.2476
 5583SOL     OW28384   4.016   1.343  13.119  0.0540  0.0439  0.2100
 5583SOL    HW128385   3.921   1.351  13.132  0.3967  0.7514  2.2573
 5583SOL    HW228386   4.020   1.247  13.115  0.1524  0.0173  0.9203
 5584SOL     OW28387   3.739   1.868   6.402  0.4081  0.3017 -0.0553
 5584SOL    HW128388   3.795   1.929   6.450 -0.3862  0.8457  0.1681
 5584SOL    HW228389   3.662   1.862   6.458  0.9035 -0.2163  0.5854
 5585SOL     OW28390   1.645   2.980   1.751 -0.1119  0.1853 -0.2865
 5585SOL    HW128391   1.646   3.062   1.800  2.1245 -0.2576  0.4145
 5585SOL    HW228392   1.613   2.915   1.814  2.8937 -0.1731  0.8958
 5586SOL     OW28393   2.179   4.286   5.272 -0.0633  0.1993  0.0573
 5586SOL    HW128394   2.257   4.260   5.223  0.0254  0.7612 -0.1052
 5586SOL    HW228395   2.188   4.242   5.356  1.4060  0.0561 -0.1725
 5587SOL     OW28396   0.467   1.907   4.667 -0.0713  0.1884  0.3613
 5587SOL    HW128397   0.545   1.862   4.700 -0.7775  0.4815  2.4981
 5587SOL    HW228398   0.512   1.982   4.628 -0.5779  0.0857 -0.4190
 5588SOL     OW28399   2.525   3.327   9.629  0.2131  0.0258  0.4824
 5588SOL    HW128400   2.586   3.253   9.626  1.7019  1.3051 -0.6270
 5588SOL    HW228401   2.507   3.332   9.536 -0.8179 -0.5105  0.6549
 5589SOL     OW28402   0.602   0.762   1.417 -0.2421 -0.4051 -0.1327
 5589SOL    HW128403   0.638   0.844   1.451  3.6472 -1.8023 -0.8489
 5589SOL    HW228404   0.518   0.770   1.462  1.4287  1.6055  2.6059
 5590SOL     OW28405   0.412   2.687   5.262 -0.1648  0.1544 -0.5593
 5590SOL    HW128406   0.458   2.613   5.303 -1.3024 -0.5230 -0.5118
 5590SOL    HW228407   0.479   2.718   5.201  0.6936  0.6768  0.6450
 5591SOL     OW28408   2.277   0.976   4.432  0.1810 -0.1358  0.1162
 5591SOL    HW128409   2.315   1.036   4.495 -1.8744  1.7466 -0.4483
 5591SOL    HW228410   2.188   0.975   4.467 -0.3372 -2.0979 -1.2170
 5592SOL     OW28411   1.447   1.106   1.568 -0.5815 -0.0546  0.1517
 5592SOL    HW128412   1.510   1.034   1.577 -0.8089 -0.6269 -2.7474
 5592SOL    HW228413   1.504   1.161   1.622 -0.3404  0.2173 -0.3772
 5593SOL     OW28414   2.496   4.531  17.382 -0.4480  0.6803 -0.5703
 5593SOL    HW128415   2.569   4.523  17.444 -0.8244  1.1708 -0.0585
 5593SOL    HW228416   2.528   4.570  17.301 -1.7411 -0.1714 -1.4813
 5594SOL     OW28417   3.976   3.895  13.318 -0.3900  0.0880 -0.3794
 5594SOL    HW128418   3.993   3.984  13.287  1.2317  0.0223  0.3071
 5594SOL    HW228419   4.039   3.843  13.267 -0.9189 -2.2557  1.3751
 5595SOL     OW28420   2.172   2.994   6.417 -0.1654  0.1084 -0.1862
 5595SOL    HW128421   2.108   2.983   6.488  0.9731  1.9066  1.1117
 5595SOL    HW228422   2.190   2.904   6.390 -2.4042  0.0769 -1.5583
 5596SOL     OW28423   2.898   1.412   7.016  0.3705  0.6180 -0.5393
 5596SOL    HW128424   2.816   1.375   7.050 -0.8469  2.7962 -1.1120
 5596SOL    HW228425   2.890   1.507   7.008  1.3597  0.7861  0.5081
 5597SOL     OW28426   3.570   2.854   7.030  0.4707  0.1728 -0.1977
 5597SOL    HW128427   3.482   2.864   7.068  0.5169  0.6136 -0.2080
 5597SOL    HW228428   3.624   2.836   7.107  0.1859 -0.3962 -0.1303
 5598SOL     OW28429   0.238   1.160   7.734 -0.9582 -0.3120  0.2592
 5598SOL    HW128430   0.279   1.086   7.779 -0.7414 -0.9133 -0.9303
 5598SOL    HW228431   0.266   1.239   7.781  2.3952 -0.4204 -1.6439
 5599SOL     OW28432   2.533   2.446  16.237 -0.1763 -0.6572 -0.1348
 5599SOL    HW128433   2.530   2.508  16.164 -0.6447  0.1561  0.5652
 5599SOL    HW228434   2.598   2.385  16.204  0.4558 -0.7604  1.3085
 5600SOL     OW28435   0.939   0.567  16.458 -0.6514 -0.6211 -0.1423
 5600SOL    HW128436   0.917   0.588  16.367 -0.6066 -0.6221 -0.1531
 5600SOL    HW228437   1.003   0.637  16.474 -0.1545 -0.6734 -1.9780
 5601SOL     OW28438   0.197   2.209   8.637 -0.0788  0.1311 -0.1460
 5601SOL    HW128439   0.116   2.249   8.667  0.0752  1.4419 -1.5039
 5601SOL    HW228440   0.253   2.286   8.647 -0.7439  0.7309 -1.1235
 5602SOL     OW28441   2.330   1.535   7.147  0.4517 -0.6916 -0.2385
 5602SOL    HW128442   2.239   1.563   7.153  0.0314 -2.3550  0.8606
 5602SOL    HW228443   2.363   1.562   7.233 -2.4429 -0.7126  0.8610
 5603SOL     OW28444   4.012   4.497   9.268 -0.7123 -0.2369  0.1385
 5603SOL    HW128445   4.103   4.523   9.281 -1.0918  0.5900  1.1148
 5603SOL    HW228446   4.033   4.441   9.192  2.8985  0.0642  0.8907
 5604SOL     OW28447   0.364   3.583   6.971  0.5441 -0.6935  0.0980
 5604SOL    HW128448   0.322   3.606   7.053 -0.2482  0.2830 -0.5960
 5604SOL    HW228449   0.297   3.621   6.914  1.1477  1.6280  0.9375
 5605SOL     OW28450   4.702   0.635   8.659 -0.4308  0.0820 -0.6352
 5605SOL    HW128451   0.035   0.572   8.686 -0.1475  0.0614 -1.3876
 5605SOL    HW228452   4.716   0.648   8.565 -2.1065 -1.5984 -1.1285
 5606SOL     OW28453   0.037   0.435   5.256 -0.1413  0.2539 -0.4363
 5606SOL    HW128454   4.681   0.435   5.290 -0.9468  1.8546 -2.5782
 5606SOL    HW228455   0.044   0.527   5.233  2.5513  0.7541  2.3307
 5607SOL     OW28456   2.799   2.586  13.025  0.2094 -0.0552 -0.3305
 5607SOL    HW128457   2.811   2.539  12.942 -2.4644  2.0676 -1.9366
 5607SOL    HW228458   2.870   2.650  13.025 -0.6746  0.9451  0.1020
 5608SOL     OW28459   3.507   4.455  17.732 -0.4574 -0.0798  0.2034
 5608SOL    HW128460   3.422   4.462  17.687 -1.0601  1.4912  1.5947
 5608SOL    HW228461   3.510   4.535   0.050 -1.3660  1.1425 -1.5641
 5609SOL     OW28462   1.948   0.202   1.325  0.6993  0.3875  0.1677
 5609SOL    HW128463   2.011   0.178   1.394 -0.8293 -0.5927  1.2378
 5609SOL    HW228464   1.874   0.144   1.345  0.7980 -0.1420 -1.0142
 5610SOL     OW28465   0.109   0.554   7.601  0.1059 -0.1831  0.1658
 5610SOL    HW128466   0.192   0.600   7.583  0.6513 -1.9926 -1.8737
 5610SOL    HW228467   0.137   0.494   7.670  1.1973  0.7571  0.5390
 5611SOL     OW28468   3.694   3.915  13.408 -0.2772 -0.3813 -0.2317
 5611SOL    HW128469   3.708   3.957  13.323  2.5215  0.3535  0.5797
 5611SOL    HW228470   3.784   3.912  13.441 -1.7060 -0.8417  3.6056
 5612SOL     OW28471   2.358   1.912   4.143  0.4098 -0.0264  0.2234
 5612SOL    HW128472   2.313   1.832   4.118  0.6902 -0.3408  0.7198
 5612SOL    HW228473   2.290   1.962   4.189 -0.4699 -1.1033  0.0746
 5613SOL     OW28474   4.060   2.125   9.751  0.7285 -0.2848  1.2191
 5613SOL    HW128475   4.015   2.169   9.823  2.3971  1.6781  1.0696
 5613SOL    HW228476   4.147   2.164   9.763  0.0279  2.2361 -1.8559
 5614SOL     OW28477   4.508   4.127   4.876 -0.2669 -0.1855 -0.2994
 5614SOL    HW128478   4.519   4.190   4.947  2.0689 -0.3300 -0.5316
 5614SOL    HW228479   4.453   4.164   4.806 -0.6430 -0.1769  0.0023
 5615SOL     OW28480   3.303   0.718   4.050  0.4696  0.5878  0.4015
 5615SOL    HW128481   3.224   0.692   4.096 -0.2785  2.5385  0.2096
 5615SOL    HW228482   3.343   0.775   4.116 -0.2541  0.2490  1.1327
 5616SOL     OW28483   0.748   3.983   6.814  0.3206  0.1826 -0.2382
 5616SOL    HW128484   0.841   3.979   6.837  0.1751  0.4082  0.4074
 5616SOL    HW228485   0.703   3.948   6.891  1.1513 -0.7772 -0.2013
 5617SOL     OW28486   1.696   1.314   8.610  0.0365  0.3596 -0.1745
 5617SOL    HW128487   1.670   1.289   8.521  0.2644 -1.1781  0.1886
 5617SOL    HW228488   1.611   1.333   8.649 -0.2900  0.4695 -0.9461
 5618SOL     OW28489   1.409   2.670   4.721 -0.0516  0.4969 -0.2480
 5618SOL    HW128490   1.408   2.748   4.777 -0.2451 -0.2368  0.7719
 5618SOL    HW228491   1.468   2.619   4.777 -2.1594 -0.5344  1.0256
 5619SOL     OW28492   3.780   0.760   8.244  0.1097  0.1268 -0.0094
 5619SOL    HW128493   3.804   0.827   8.180 -0.9328 -0.2225 -0.7582
 5619SOL    HW228494   3.781   0.810   8.325 -1.0843 -0.8779  0.6156
 5620SOL     OW28495   1.895   2.629  11.013 -0.1265  0.1763 -0.1158
 5620SOL    HW128496   1.866   2.698  11.073 -0.0538  2.1103 -2.2992
 5620SOL    HW228497   1.878   2.551  11.066 -0.1720 -1.0231 -1.8682
 5621SOL     OW28498   0.352   0.351   8.090  0.3805 -0.0572 -0.3610
 5621SOL    HW128499   0.347   0.441   8.121 -1.1705  1.0590 -3.8549
 5621SOL    HW228500   0.262   0.327   8.114 -0.1349  1.4078 -0.8434
 5622SOL     OW28501   1.627   3.217   1.913  0.3543 -0.2672  0.4606
 5622SOL    HW128502   1.600   3.309   1.916  0.2451 -0.3371  1.3624
 5622SOL    HW228503   1.560   3.193   1.976  0.9544  0.9104  1.5644
 5623SOL     OW28504   2.285   0.429   1.021 -0.5359 -0.0038  0.2212
 5623SOL    HW128505   2.213   0.481   1.055 -0.7038  0.0555 -0.2355
 5623SOL    HW228506   2.360   0.459   1.073  0.4414 -1.0896 -0.5508
 5624SOL     OW28507   0.501   2.400  17.014  0.2861  0.1656 -0.3064
 5624SOL    HW128508   0.505   2.466  16.945 -3.2439 -0.4471 -1.1082
 5624SOL    HW228509   0.547   2.452  17.081 -0.4854 -0.9019  1.0497
 5625SOL     OW28510   4.036   4.487   8.618  0.2253  0.5358  0.0888
 5625SOL    HW128511   4.090   4.552   8.574  1.6838 -0.3567  0.5447
 5625SOL    HW228512   3.953   4.511   8.577 -0.6271 -0.7860  1.0354
 5626SOL     OW28513   0.498   1.447  13.660  0.0210 -0.5254 -0.1741
 5626SOL    HW128514   0.418   1.395  13.664  0.9537 -2.0165 -0.9421
 5626SOL    HW228515   0.513   1.468  13.752  1.9332  0.4355 -0.7110
 5627SOL     OW28516   0.228   3.634   2.997 -0.3056 -0.8112 -0.4122
 5627SOL    HW128517   0.270   3.587   3.069  0.2805 -0.6052 -0.6237
 5627SOL    HW228518   0.302   3.651   2.940 -0.3197 -0.5201 -0.3433
 5628SOL     OW28519   0.758   2.068  13.010  0.2887  0.2990  0.0008
 5628SOL    HW128520   0.743   2.115  12.928  2.4057  2.6024  0.9569
 5628SOL    HW228521   0.694   1.997  13.004  1.7296 -0.8594 -1.6284
 5629SOL     OW28522   0.645   1.744   7.849 -0.5506  0.0819  0.0184
 5629SOL    HW128523   0.698   1.769   7.772 -0.2912  2.2809  0.9313
 5629SOL    HW228524   0.581   1.815   7.854 -0.3915  0.4521 -3.0333
 5630SOL     OW28525   0.495   4.056   3.433 -0.0518  1.4563  0.2539
 5630SOL    HW128526   0.489   4.080   3.340  0.8495 -1.0622 -0.4634
 5630SOL    HW228527   0.575   4.097   3.467  1.3396 -0.0671 -1.1364
 5631SOL     OW28528   0.905   4.472   7.559  0.4063 -0.2547  0.0077
 5631SOL    HW128529   0.936   4.546   7.506 -0.0269 -1.8719 -2.4608
 5631SOL    HW228530   0.840   4.522   7.610  0.6036 -0.7468  0.7424
 5632SOL     OW28531   3.936   1.022  14.414  0.0981  0.7672 -0.2879
 5632SOL    HW128532   3.970   1.108  14.438  0.9051  0.3168  0.1507
 5632SOL    HW228533   4.013   0.983  14.372 -2.1055 -2.0406 -1.7300
 5633SOL     OW28534   0.640   4.680   5.262 -0.6248  0.5393  0.3335
 5633SOL    HW128535   0.676   0.012   5.322  1.8291  0.2917 -0.8521
 5633SOL    HW228536   0.577   4.733   5.213 -1.2558 -0.8084 -0.3103
 5634SOL     OW28537   3.812   3.866   6.865 -0.2944 -0.4892 -0.4425
 5634SOL    HW128538   3.774   3.788   6.906  0.9412 -0.5476  0.5746
 5634SOL    HW228539   3.905   3.845   6.869  0.2940  2.0880 -0.9153
 5635SOL     OW28540   4.133   3.491   5.750  0.1377  0.7651 -0.0101
 5635SOL    HW128541   4.093   3.572   5.781 -1.7756  0.1451 -0.8456
 5635SOL    HW228542   4.103   3.421   5.809 -0.8885  0.6246 -0.6879
 5636SOL     OW28543   2.344   4.703   7.704 -0.8054  0.2446 -0.3786
 5636SOL    HW128544   2.277   4.725   7.769 -1.6261  0.3419 -1.2483
 5636SOL    HW228545   2.285   4.661   7.640 -2.5318  2.0130  0.0575
 5637SOL     OW28546   1.883   2.291   4.434  0.4334  0.3528  0.2818
 5637SOL    HW128547   1.873   2.348   4.357 -1.2281 -0.9213 -0.4522
 5637SOL    HW228548   1.828   2.216   4.411 -1.0483  1.1007  1.3666
 5638SOL     OW28549   4.579   2.885   2.869 -0.4455 -0.4164 -0.5658
 5638SOL    HW128550   4.638   2.931   2.809 -0.9469  0.0331 -0.7202
 5638SOL    HW228551   4.646   2.832   2.912 -0.9649 -1.4424 -1.0241
 5639SOL     OW28552   3.863   3.348   7.943  0.0597  1.1275 -0.2165
 5639SOL    HW128553   3.796   3.416   7.951 -1.9887 -0.6837 -1.7275
 5639SOL    HW228554   3.806   3.271   7.932  2.4625 -0.8204  0.7893
 5640SOL     OW28555   3.014   0.276   5.555 -0.0733 -0.2988 -0.1126
 5640SOL    HW128556   2.981   0.186   5.559 -1.6043  0.2060 -1.2378
 5640SOL    HW228557   3.058   0.281   5.640  1.7017 -0.5859 -1.0327
 5641SOL     OW28558   0.789   2.850   3.532 -0.2492  0.3766  0.4939
 5641SOL    HW128559   0.757   2.940   3.528  0.2986  0.4747 -1.4839
 5641SOL    HW228560   0.798   2.836   3.438  0.1056  2.4017  0.2237
 5642SOL     OW28561   1.583   2.809   9.177 -0.3929  0.4215 -0.2125
 5642SOL    HW128562   1.622   2.873   9.236 -1.3912  1.0448 -0.2360
 5642SOL    HW228563   1.609   2.729   9.225  0.3107  0.8869  0.1933
 5643SOL     OW28564   3.973   3.677   5.005 -0.5045  0.6768  0.4176
 5643SOL    HW128565   3.931   3.705   5.086 -0.2834  1.7202  0.1652
 5643SOL    HW228566   4.002   3.587   5.020  0.2175  0.4915 -1.9992
 5644SOL     OW28567   3.791   0.233   6.992 -0.0205  0.6401  0.5081
 5644SOL    HW128568   3.774   0.192   6.907 -3.0321  2.0829  0.3881
 5644SOL    HW228569   3.825   0.159   7.042 -2.4895  0.1141  1.4483
 5645SOL     OW28570   0.066   3.309   2.946 -0.5857 -0.1042 -0.0196
 5645SOL    HW128571   0.048   3.276   3.034  0.7209 -0.6271  0.0502
 5645SOL    HW228572   0.156   3.334   2.967 -0.8993  2.1144 -1.2587
 5646SOL     OW28573   3.792   3.410   9.292 -0.2971 -0.1915 -0.2885
 5646SOL    HW128574   3.736   3.366   9.228 -0.7559  0.9706 -0.6978
 5646SOL    HW228575   3.824   3.331   9.336  1.0831  0.1635 -0.6822
 5647SOL     OW28576   1.119   0.880   4.052  0.3103 -0.1908 -0.1712
 5647SOL    HW128577   1.041   0.868   3.998 -0.3994  0.0852  0.7908
 5647SOL    HW228578   1.134   0.792   4.086  2.6254  0.8168  1.4093
 5648SOL     OW28579   4.646   2.751   1.795 -1.1021 -0.2758 -0.2104
 5648SOL    HW128580   4.619   2.683   1.734 -0.1056 -0.3833 -0.5414
 5648SOL    HW228581   4.728   2.722   1.835 -1.5018 -0.5515  0.3944
 5649SOL     OW28582   1.228   3.949  12.989 -0.3525 -0.0586  0.6827
 5649SOL    HW128583   1.223   3.903  12.905 -0.6649  0.5419  0.3711
 5649SOL    HW228584   1.160   4.014  12.975 -1.2247 -1.3034 -0.8890
 5650SOL     OW28585   3.914   3.064   4.558 -0.3558 -0.0030 -0.2619
 5650SOL    HW128586   3.914   3.028   4.647 -1.0826  0.1757 -0.1927
 5650SOL    HW228587   3.988   3.012   4.525 -1.2286 -1.7485  0.5352
 5651SOL     OW28588   0.762   3.544  12.841 -0.5589 -0.8290 -0.8851
 5651SOL    HW128589   0.709   3.623  12.830 -1.0705 -0.4791  3.9690
 5651SOL    HW228590   0.783   3.549  12.934 -1.5611 -1.7862 -0.6129
 5652SOL     OW28591   0.740   2.696  15.418  0.4977 -0.0010 -0.1886
 5652SOL    HW128592   0.656   2.664  15.385 -0.4739  2.4175 -0.0075
 5652SOL    HW228593   0.755   2.771  15.360 -2.2560  0.6046 -0.1267
 5653SOL     OW28594   4.727   2.179  13.577  0.3442 -0.3731 -0.1158
 5653SOL    HW128595   4.698   2.161  13.487  0.3927  0.4163 -0.2896
 5653SOL    HW228596   4.639   2.188  13.615 -0.1700 -0.9404 -1.1678
 5654SOL     OW28597   2.682   3.943   2.028 -0.2326 -0.2982 -0.2632
 5654SOL    HW128598   2.772   3.952   2.059 -0.2895 -0.9452  0.0819
 5654SOL    HW228599   2.680   4.027   1.981 -0.6486  0.5746  1.3277
 5655SOL     OW28600   4.733   4.133   3.892  0.2251 -0.5228  0.1336
 5655SOL    HW128601   4.716   4.102   3.803  1.7288 -0.4479 -0.1789
 5655SOL    HW228602   0.077   4.084   3.918  0.5984  0.4737  0.8737
 5656SOL     OW28603   3.758   2.249   2.406 -0.3271 -0.4096 -0.6961
 5656SOL    HW128604   3.790   2.337   2.422 -1.4260 -0.3672  1.2439
 5656SOL    HW228605   3.831   2.216   2.353  0.4550 -3.1269  2.0894
 5657SOL     OW28606   0.045   4.611   7.356 -0.0100  0.6354  0.4051
 5657SOL    HW128607   4.729   4.531   7.342  0.1648  0.5565  0.2453
 5657SOL    HW228608   0.125   4.582   7.400  1.8530  0.6721 -2.9818
 5658SOL     OW28609   3.652   2.849   7.313 -0.3101 -0.3086  0.0113
 5658SOL    HW128610   3.692   2.927   7.274 -1.0822 -0.5130 -1.1858
 5658SOL    HW228611   3.687   2.856   7.402  0.2427 -1.5328 -0.1180
 5659SOL     OW28612   4.020   3.503   9.895 -0.2778 -0.0155  0.1975
 5659SOL    HW128613   3.962   3.508   9.971  0.5082  0.2432  0.7927
 5659SOL    HW228614   4.070   3.585   9.900 -1.8283  0.9363 -0.0157
 5660SOL     OW28615   1.058   1.664   4.122  0.0787 -0.0960  0.5950
 5660SOL    HW128616   1.059   1.759   4.128  1.2630 -0.1041  0.5182
 5660SOL    HW228617   1.135   1.645   4.069 -0.8837 -1.0607 -0.4633
 5661SOL     OW28618   1.339   1.813   2.571  0.2811 -0.4003 -0.0464
 5661SOL    HW128619   1.327   1.805   2.476 -2.9483 -0.3720  0.3664
 5661SOL    HW228620   1.398   1.888   2.573 -0.7126  0.4163 -1.4767
 5662SOL     OW28621   0.585   1.071   9.566 -0.3419  0.6858  0.1952
 5662SOL    HW128622   0.545   1.083   9.480  0.2365  3.3647  0.3109
 5662SOL    HW228623   0.540   0.993   9.599  0.4003 -0.3219 -1.1928
 5663SOL     OW28624   2.554   1.095  13.302 -0.0442 -0.0928 -0.2613
 5663SOL    HW128625   2.489   1.075  13.235  2.1327 -1.0035 -2.1269
 5663SOL    HW228626   2.634   1.110  13.252  0.2994  0.6707  0.5144
 5664SOL     OW28627   3.167   1.461   6.044 -0.4164  0.6898 -0.2930
 5664SOL    HW128628   3.191   1.550   6.069  0.6275  0.7462 -1.5198
 5664SOL    HW228629   3.248   1.431   6.003  0.3872  1.0879  0.9965
 5665SOL     OW28630   0.431   2.781   8.628  0.2375 -0.2511  0.0519
 5665SOL    HW128631   0.406   2.787   8.720 -1.2967 -0.9662 -0.3229
 5665SOL    HW228632   0.393   2.864   8.601 -2.1390 -0.9617  1.2739
 5666SOL     OW28633   1.646   0.300   5.816 -0.4200  0.4885 -0.0666
 5666SOL    HW128634   1.649   0.208   5.792 -2.1367  0.5961 -0.7164
 5666SOL    HW228635   1.635   0.283   5.909 -1.4484  0.2079 -0.2399
 5667SOL     OW28636   3.680   1.310   7.384 -0.0339 -0.1741  0.6994
 5667SOL    HW128637   3.664   1.340   7.474 -1.1188 -1.2753  0.8735
 5667SOL    HW228638   3.761   1.349   7.353 -0.7704  1.9372  1.3921
 5668SOL     OW28639   4.397   3.245   1.185  0.5778  0.0439  0.5561
 5668SOL    HW128640   4.409   3.332   1.223 -4.5076 -0.2983  2.9211
 5668SOL    HW228641   4.460   3.202   1.244 -0.1471 -2.4727 -0.5145
 5669SOL     OW28642   2.311   1.694   5.126  0.1013  0.0016  0.1473
 5669SOL    HW128643   2.233   1.669   5.176  0.7329 -2.3123 -0.0697
 5669SOL    HW228644   2.298   1.789   5.124  1.1689  0.1054 -2.8031
 5670SOL     OW28645   4.729   2.146   3.640  0.3581  0.2255 -0.2458
 5670SOL    HW128646   4.700   2.056   3.654  1.0012 -0.5153 -3.6878
 5670SOL    HW228647   4.704   2.181   3.726  0.2604 -0.2248 -0.0939
 5671SOL     OW28648   1.597   4.263   5.448  0.3751  0.1567  0.6392
 5671SOL    HW128649   1.654   4.191   5.420  0.4161  0.3840  0.1556
 5671SOL    HW228650   1.665   4.329   5.433 -0.7932  1.4688  1.1170
 5672SOL     OW28651   4.148   3.724   2.839 -0.1340  0.5236 -0.2285
 5672SOL    HW128652   4.124   3.632   2.834  1.0539  0.2107 -0.1553
 5672SOL    HW228653   4.142   3.746   2.932 -2.8137  0.3570 -0.3773
 5673SOL     OW28654   3.783   0.752   7.079  0.6187  0.2247 -0.3443
 5673SOL    HW128655   3.750   0.841   7.089 -0.0594 -0.2982  2.0413
 5673SOL    HW228656   3.703   0.705   7.053 -0.3332  2.3600 -1.3097
 5674SOL     OW28657   0.593   2.802   4.857  0.1434 -0.2888  0.0891
 5674SOL    HW128658   0.677   2.818   4.813 -0.8581  3.3045 -0.4823
 5674SOL    HW228659   0.630   2.768   4.939  1.4893 -1.5451 -1.0261
 5675SOL     OW28660   3.998   4.481  12.103  0.0154  0.1560  0.0810
 5675SOL    HW128661   4.079   4.529  12.119  1.3615 -1.4072 -2.0287
 5675SOL    HW228662   4.022   4.430  12.025 -0.4223  0.9919 -0.6000
 5676SOL     OW28663   0.031   4.510   5.708  0.2645 -0.4497 -0.1124
 5676SOL    HW128664   0.038   4.439   5.772  0.6052 -0.9174 -0.6673
 5676SOL    HW228665   4.675   4.495   5.678  0.7378  1.3865 -2.4520
 5677SOL     OW28666   3.652   4.184   7.748 -0.1222 -0.1178 -0.2514
 5677SOL    HW128667   3.698   4.137   7.678  2.3728 -0.2314  1.4430
 5677SOL    HW228668   3.564   4.189   7.712  0.3244  0.2369 -1.2759
 5678SOL     OW28669   3.175   4.687   4.071  0.1270 -0.0458  0.0896
 5678SOL    HW128670   3.241   0.016   4.100  0.2899  0.3772 -1.2145
 5678SOL    HW228671   3.098   0.007   4.085 -3.0507 -4.2043 -1.5250
 5679SOL     OW28672   1.910   0.041  14.731 -0.1548 -0.5911 -0.3435
 5679SOL    HW128673   1.997   0.077  14.743 -0.6423  0.3735  0.3320
 5679SOL    HW228674   1.892   4.713  14.802  3.6410 -2.1752 -0.7806
 5680SOL     OW28675   0.081   2.417   6.543  0.0703  0.3576 -0.3573
 5680SOL    HW128676   0.112   2.477   6.611  0.9916 -2.5019  1.7652
 5680SOL    HW228677   0.025   2.358   6.592 -1.1242  1.4081 -0.4557
 5681SOL     OW28678   2.829   0.941   0.752  0.2970 -0.2179  0.1315
 5681SOL    HW128679   2.862   0.885   0.823 -1.6248 -1.7925 -0.2202
 5681SOL    HW228680   2.776   0.879   0.702 -1.9959  0.9870  1.0356
 5682SOL     OW28681   2.873   1.355  16.391 -0.3604  0.0789 -0.4629
 5682SOL    HW128682   2.949   1.362  16.334 -0.5198  1.4988 -0.4994
 5682SOL    HW228683   2.914   1.337  16.476 -0.1583  1.5207 -0.2582
 5683SOL     OW28684   3.283   4.731  10.075 -0.0580  0.5277  0.2270
 5683SOL    HW128685   3.313   4.641  10.071 -3.1383 -0.4325 -1.4533
 5683SOL    HW228686   3.193   0.004  10.106 -0.0542 -0.1709  0.3719
 5684SOL     OW28687   2.182   1.326  13.813  0.3464  0.1854  0.0341
 5684SOL    HW128688   2.166   1.353  13.722 -1.9615  0.9507  0.6630
 5684SOL    HW228689   2.125   1.249  13.818  1.4010 -0.6522 -0.8596
 5685SOL     OW28690   0.798   4.630  14.516  0.0468 -0.2839 -0.3501
 5685SOL    HW128691   0.723   4.614  14.457 -0.0791 -0.8762 -0.0303
 5685SOL    HW228692   0.804   4.720  14.482 -1.9360 -0.7642 -2.0194
 5686SOL     OW28693   2.677   3.396  11.356  0.4264 -0.3268 -0.1743
 5686SOL    HW128694   2.716   3.472  11.312 -1.6434  1.0671  0.4327
 5686SOL    HW228695   2.729   3.390  11.437  1.1708 -0.9799 -0.7014
 5687SOL     OW28696   1.640   3.699   6.897 -0.0130 -0.3044 -0.6343
 5687SOL    HW128697   1.594   3.697   6.813  0.8214  2.8812 -1.1768
 5687SOL    HW228698   1.604   3.773   6.946  0.5368 -0.5876  0.1975
 5688SOL     OW28699   2.739   4.655  11.321 -0.1130  0.2399 -0.4203
 5688SOL    HW128700   2.789   4.690  11.247 -0.4368 -0.5079 -1.0049
 5688SOL    HW228701   2.650   4.689  11.309 -0.2802 -0.0420  0.0152
 5689SOL     OW28702   2.523   4.396  16.714 -0.5161  0.2663  0.2497
 5689SOL    HW128703   2.505   4.377  16.622 -1.7015 -0.4265  0.6354
 5689SOL    HW228704   2.522   4.313  16.761  1.5473 -0.5332 -1.1182
 5690SOL     OW28705   4.610   0.222   3.069 -0.4910 -0.1197 -0.0881
 5690SOL    HW128706   4.647   0.175   2.993  0.6257  2.4263 -1.1292
 5690SOL    HW228707   4.601   0.310   3.032  1.8155  0.3757  0.5474
 5691SOL     OW28708   4.497   4.606   3.638 -0.6376  0.2795  0.3850
 5691SOL    HW128709   4.525   4.562   3.718 -1.4856 -0.2615  0.3819
 5691SOL    HW228710   4.578   4.592   3.588 -1.0029 -0.7389  0.0825
 5692SOL     OW28711   0.115   4.285   7.382 -0.1526  0.0421 -0.2529
 5692SOL    HW128712   0.060   4.300   7.305 -2.3778  0.6008  1.4531
 5692SOL    HW228713   0.175   4.217   7.350  1.0549  1.4169 -0.9019
 5693SOL     OW28714   3.873   1.828   7.907  0.1398  0.3311  0.1651
 5693SOL    HW128715   3.923   1.777   7.971  2.0494  3.2219  0.9763
 5693SOL    HW228716   3.939   1.868   7.850 -0.0801 -0.3013 -0.5425
 5694SOL     OW28717   3.372   1.610   2.393 -0.3118 -0.1483  0.4768
 5694SOL    HW128718   3.276   1.600   2.394 -0.2555 -0.5117  2.0091
 5694SOL    HW228719   3.389   1.548   2.322 -2.1942 -0.3601  0.1988
 5695SOL     OW28720   1.792   2.441   6.493  0.0982  0.0920 -0.0604
 5695SOL    HW128721   1.818   2.527   6.459 -1.1178  1.3380  2.1944
 5695SOL    HW228722   1.830   2.376   6.434  1.0888 -0.3773  1.1147
 5696SOL     OW28723   2.848   2.612   8.132 -0.0388  0.0048 -0.1493
 5696SOL    HW128724   2.772   2.555   8.139  0.2968 -0.8933 -3.6471
 5696SOL    HW228725   2.889   2.584   8.050 -0.5221 -1.4164  0.1058
 5697SOL     OW28726   1.862   1.689   4.007  0.3232  0.1936  0.2520
 5697SOL    HW128727   1.842   1.627   3.936 -1.5499 -1.6281  2.3837
 5697SOL    HW228728   1.887   1.624   4.073  1.3213 -0.7775 -1.0699
 5698SOL     OW28729   1.502   2.011   3.386 -0.6735 -0.0908  0.4140
 5698SOL    HW128730   1.551   2.088   3.416  0.1009 -0.8217  1.0562
 5698SOL    HW228731   1.569   1.942   3.387 -0.7053 -0.1048  2.4973
 5699SOL     OW28732   1.856   3.445   6.207 -0.0548 -1.0374  0.5937
 5699SOL    HW128733   1.762   3.434   6.216 -0.0721 -1.9273 -0.6623
 5699SOL    HW228734   1.858   3.540   6.195 -3.1201 -1.2622 -1.8024
 5700SOL     OW28735   4.528   3.082   4.080 -0.2393  0.1394  0.1860
 5700SOL    HW128736   4.481   3.062   3.999  0.2690  2.3990 -0.6782
 5700SOL    HW228737   4.576   3.000   4.093  0.4119  0.4704 -0.1175
 5701SOL     OW28738   0.973   0.413   7.234  0.1657 -0.0313 -0.1697
 5701SOL    HW128739   0.935   0.495   7.202 -1.2290 -1.4936 -2.1918
 5701SOL    HW228740   0.895   0.358   7.235  0.2268 -0.1155 -0.0459
 5702SOL     OW28741   1.193   0.512  15.694 -0.0123  0.0209 -0.3981
 5702SOL    HW128742   1.288   0.499  15.688 -0.0645  0.2908 -1.7045
 5702SOL    HW228743   1.179   0.587  15.637 -0.7784  0.7715  0.8015
 5703SOL     OW28744   3.778   3.599  15.255  0.1721 -0.6533 -0.0324
 5703SOL    HW128745   3.863   3.603  15.213  0.9359 -2.2529  1.3517
 5703SOL    HW228746   3.724   3.669  15.218  1.2645  0.8705  1.2869
 5704SOL     OW28747   0.139   2.519   8.215  0.3506 -0.1978 -0.4572
 5704SOL    HW128748   0.056   2.519   8.169 -0.7110  1.9492  1.4855
 5704SOL    HW228749   0.192   2.587   8.172  1.1335  0.6432  1.8227
 5705SOL     OW28750   3.616   1.317   5.555  0.2455  0.3518 -0.3657
 5705SOL    HW128751   3.613   1.379   5.482  0.2164  0.7843  0.0004
 5705SOL    HW228752   3.526   1.321   5.589  0.7393 -2.0092  1.2606
 5706SOL     OW28753   4.635   2.092   2.079  0.2062  0.3649 -0.4174
 5706SOL    HW128754   4.656   2.073   2.171 -0.2914 -2.1589 -0.8129
 5706SOL    HW228755   4.641   2.187   2.076 -1.2315  0.4513 -0.3975
 5707SOL     OW28756   2.445   4.179  17.058 -0.0725 -0.3762  0.2031
 5707SOL    HW128757   2.406   4.249  17.005  2.2030  0.7403  0.0298
 5707SOL    HW228758   2.538   4.181  17.038 -0.0250 -0.3276  0.4300
 5708SOL     OW28759   0.111   3.557   6.474 -0.1834 -0.0181  0.1617
 5708SOL    HW128760   0.026   3.588   6.505 -0.6343  0.5808 -1.6772
 5708SOL    HW228761   0.092   3.464   6.480  0.1296  0.0010  1.3997
 5709SOL     OW28762   0.374   0.207   0.672 -0.0935 -0.0721 -0.2698
 5709SOL    HW128763   0.408   0.137   0.616  1.4676 -0.8636  1.6537
 5709SOL    HW228764   0.426   0.284   0.647 -1.1581  0.9324  0.5830
 5710SOL     OW28765   0.374   0.545   2.651  0.6075 -0.4142 -0.1651
 5710SOL    HW128766   0.298   0.562   2.706  1.0174  1.2279 -0.1076
 5710SOL    HW228767   0.443   0.597   2.692 -0.8689  1.7528 -0.4636
 5711SOL     OW28768   0.118   4.556   1.949 -0.6154 -0.0174 -0.0066
 5711SOL    HW128769   0.155   4.542   1.861  1.7945  1.2746  0.8005
 5711SOL    HW228770   0.135   4.650   1.958 -0.1458 -0.2363  1.2988
 5712SOL     OW28771   2.317   1.254   9.525  0.4094  0.5417 -0.3562
 5712SOL    HW128772   2.307   1.285   9.435  1.5813  2.9738  0.3398
 5712SOL    HW228773   2.254   1.309   9.572 -1.9850 -1.3145 -1.3747
 5713SOL     OW28774   1.945   1.395   5.715 -0.0900 -0.0828 -0.2472
 5713SOL    HW128775   1.910   1.484   5.723 -2.4327 -0.7928 -2.4352
 5713SOL    HW228776   1.901   1.369   5.634  1.2705  1.7218 -1.5758
 5714SOL     OW28777   2.728   0.215   3.331  0.4096  1.2855 -0.4783
 5714SOL    HW128778   2.753   0.123   3.343 -1.4986  0.5943 -1.7417
 5714SOL    HW228779   2.770   0.240   3.249  1.2439 -0.4612 -0.5777
 5715SOL     OW28780   2.841   0.456   2.586  0.5615 -0.3457 -0.4152
 5715SOL    HW128781   2.804   0.370   2.607  1.5300 -0.6118  0.2356
 5715SOL    HW228782   2.788   0.489   2.513  3.6477  1.4037 -1.8974
 5716SOL     OW28783   1.210   0.480   9.567  0.3685  0.1857  0.5972
 5716SOL    HW128784   1.252   0.522   9.492 -2.0430  0.9839 -0.3004
 5716SOL    HW228785   1.265   0.506   9.641  0.3907  0.8136  0.3623
 5717SOL     OW28786   3.752   1.717  14.389 -0.4670 -0.5241  0.2142
 5717SOL    HW128787   3.682   1.664  14.351  0.6940 -1.4368 -0.6394
 5717SOL    HW228788   3.834   1.674  14.368 -0.2461  0.1870 -0.4027
 5718SOL     OW28789   0.316   1.832   2.074 -0.6857  0.0677  0.1472
 5718SOL    HW128790   0.303   1.862   2.164  1.0052  2.1662 -0.3063
 5718SOL    HW228791   0.257   1.757   2.068 -0.1597 -0.5304  2.3711
 5719SOL     OW28792   0.653   4.675   2.492 -0.5263 -0.1732  0.5564
 5719SOL    HW128793   0.642   4.623   2.412 -3.3519  0.8127  0.3160
 5719SOL    HW228794   0.741   4.709   2.474 -0.9136 -0.6640 -2.3382
 5720SOL     OW28795   1.167   3.021   1.878 -0.0887 -0.4297  0.3301
 5720SOL    HW128796   1.090   3.022   1.821  1.3500 -0.3606 -1.5882
 5720SOL    HW228797   1.137   3.063   1.959 -1.2949 -0.0828 -0.2904
 5721SOL     OW28798   1.191   1.263  17.590  0.3253  0.3688 -0.4545
 5721SOL    HW128799   1.259   1.196  17.588  0.8158  0.8281  0.3543
 5721SOL    HW228800   1.218   1.332  17.530  2.1857  3.0871  3.4555
 5722SOL     OW28801   4.319   4.383   8.555 -0.1191 -0.1687  0.0988
 5722SOL    HW128802   4.392   4.444   8.546 -0.0425 -0.5228 -1.6216
 5722SOL    HW228803   4.252   4.443   8.588  0.9320  0.1915  1.6102
 5723SOL     OW28804   4.016   1.417   8.255 -0.0026 -0.7648 -0.3673
 5723SOL    HW128805   4.078   1.419   8.327 -0.0710  2.2637 -0.4040
 5723SOL    HW228806   4.075   1.452   8.188 -1.7937 -1.6256 -2.3955
 5724SOL     OW28807   0.345   1.397  14.294  0.2210 -0.0436  0.5802
 5724SOL    HW128808   0.437   1.388  14.271  0.8010 -0.4358  3.0923
 5724SOL    HW228809   0.322   1.487  14.271  2.1912  0.4754  0.6910
 5725SOL     OW28810   2.266   1.658   4.083  0.4701 -0.1920  0.0944
 5725SOL    HW128811   2.271   1.610   4.166  0.5569 -0.4335 -0.0490
 5725SOL    HW228812   2.211   1.604   4.025  1.7209 -0.6119 -0.6945
 5726SOL     OW28813   2.970   0.309   9.817  0.0167  0.1209 -0.2583
 5726SOL    HW128814   3.019   0.235   9.850 -0.7180 -0.4966 -0.5564
 5726SOL    HW228815   2.994   0.394   9.855 -0.5851 -0.3035  1.0459
 5727SOL     OW28816   4.063   2.511   5.144  0.5736  0.4227 -0.3118
 5727SOL    HW128817   4.064   2.541   5.053  0.0868  2.9979  0.5219
 5727SOL    HW228818   3.969   2.516   5.162  0.6103  2.3016 -0.6924
 5728SOL     OW28819   3.112   3.777  16.682  0.3769  0.2250 -0.1617
 5728SOL    HW128820   3.107   3.810  16.592  1.8495 -3.1151 -1.5021
 5728SOL    HW228821   3.161   3.695  16.673  1.8119  1.0901 -0.2081
 5729SOL     OW28822   4.557   0.430   3.357  0.4929  0.2732  0.0386
 5729SOL    HW128823   4.548   0.522   3.382 -2.1194  0.2101 -0.6630
 5729SOL    HW228824   4.501   0.388   3.422 -0.9405 -0.1158 -1.4543
 5730SOL     OW28825   4.218   0.985   2.269 -0.4347 -0.3132  0.1497
 5730SOL    HW128826   4.143   0.947   2.224  0.6331 -1.4947 -0.6224
 5730SOL    HW228827   4.272   1.024   2.200 -0.8053 -0.4425 -0.2107
 5731SOL     OW28828   0.836   2.864   4.709 -0.2934  0.2231  0.1966
 5731SOL    HW128829   0.877   2.949   4.696 -2.7978  1.5219  0.8302
 5731SOL    HW228830   0.899   2.805   4.666 -0.0055  1.2787 -0.8494
 5732SOL     OW28831   1.304   0.430  16.268 -0.1952 -0.3560  0.3492
 5732SOL    HW128832   1.311   0.393  16.180  1.1257 -1.1679  0.7767
 5732SOL    HW228833   1.211   0.448  16.275 -0.3395 -0.6788 -0.7661
 5733SOL     OW28834   3.505   4.493  16.806  0.2096  0.3790 -0.2870
 5733SOL    HW128835   3.548   4.566  16.850 -0.8839  2.1152 -2.0767
 5733SOL    HW228836   3.461   4.540  16.735  1.8507  3.7033  0.9311
 5734SOL     OW28837   0.267   0.596   8.894 -0.0741 -0.0405  0.2313
 5734SOL    HW128838   0.362   0.605   8.897 -0.2037  1.4243  0.0699
 5734SOL    HW228839   0.241   0.678   8.850 -3.7415  0.5055  3.4294
 5735SOL     OW28840   2.308   2.992   3.651  0.0540  0.1654  0.3019
 5735SOL    HW128841   2.335   2.992   3.559  1.9739  1.3930  0.8636
 5735SOL    HW228842   2.217   2.964   3.649 -0.1984  1.0820 -0.8590
 5736SOL     OW28843   1.761   1.877   6.798  0.3183  0.0232 -0.2044
 5736SOL    HW128844   1.717   1.956   6.766  0.5464 -0.4943 -1.8071
 5736SOL    HW228845   1.841   1.910   6.840  0.2516 -1.1744  0.8587
 5737SOL     OW28846   2.598   3.412   4.745 -1.0451  0.4189  0.1547
 5737SOL    HW128847   2.571   3.459   4.824 -0.0869 -2.1254  1.9856
 5737SOL    HW228848   2.649   3.483   4.705 -1.7563  0.8413 -0.0018
 5738SOL     OW28849   0.496   0.401   9.724  0.1239 -0.0850  0.1099
 5738SOL    HW128850   0.543   0.468   9.676 -0.6806  0.5124  0.1538
 5738SOL    HW228851   0.405   0.425   9.705  0.9815  2.6805 -0.5088
 5739SOL     OW28852   2.185   1.754   3.117 -0.4237  0.0296 -0.0475
 5739SOL    HW128853   2.204   1.846   3.136 -0.8224  0.0589  0.2036
 5739SOL    HW228854   2.218   1.743   3.028 -1.4848 -0.5801 -0.3734
 5740SOL     OW28855   2.946   2.341   5.351 -0.4740 -0.0720 -0.1283
 5740SOL    HW128856   2.923   2.360   5.442  2.5421  2.4982  0.0798
 5740SOL    HW228857   2.976   2.425   5.318  0.0257 -0.3898 -0.5007
 5741SOL     OW28858   0.036   4.385   6.394 -0.0354 -0.2402 -0.2577
 5741SOL    HW128859   0.092   4.422   6.462 -0.2736  0.5852 -0.5183
 5741SOL    HW228860   4.687   4.419   6.427  1.1155  2.2299  0.0612
 5742SOL     OW28861   0.809   3.173  11.332 -0.5254 -0.5241  0.2450
 5742SOL    HW128862   0.829   3.226  11.255  1.6379  0.2837  1.3550
 5742SOL    HW228863   0.811   3.092  11.281 -1.7195 -0.5838  0.2881
 5743SOL     OW28864   4.677   3.707   2.057  0.1061  0.4871 -0.3079
 5743SOL    HW128865   4.639   3.741   2.138 -0.5251 -1.2594  0.1156
 5743SOL    HW228866   0.011   3.646   2.086 -0.8495  0.2876  1.5077
 5744SOL     OW28867   3.570   3.492   3.640  0.1673  0.5829 -0.1636
 5744SOL    HW128868   3.487   3.501   3.689  0.5458 -1.0901  0.7629
 5744SOL    HW228869   3.624   3.429   3.688 -0.4520  0.6168  0.5879
 5745SOL     OW28870   2.766   4.452   8.063 -0.4467 -0.0808 -0.2172
 5745SOL    HW128871   2.731   4.537   8.036  0.6704  0.5122  0.2142
 5745SOL    HW228872   2.736   4.461   8.154 -2.6309 -1.6827 -0.7677
 5746SOL     OW28873   4.083   3.464   2.456 -0.1903 -0.0829 -0.0366
 5746SOL    HW128874   4.022   3.518   2.506 -0.3887  1.7182 -2.2210
 5746SOL    HW228875   4.168   3.488   2.493 -0.1055  1.1460 -1.0230
 5747SOL     OW28876   2.290   0.937   3.355  0.5070  0.5070 -0.3880
 5747SOL    HW128877   2.245   1.014   3.322 -0.4297  0.1785  0.1282
 5747SOL    HW228878   2.382   0.963   3.345 -0.1861  2.0410 -2.7935
 5748SOL     OW28879   3.896   2.480  11.906 -0.4051  0.4075 -0.3681
 5748SOL    HW128880   3.947   2.487  11.825  1.2391  0.6525  0.6951
 5748SOL    HW228881   3.948   2.422  11.961 -0.8272 -0.1785 -0.5865
 5749SOL     OW28882   1.935   1.329   0.754 -0.4518 -0.1674  0.5887
 5749SOL    HW128883   1.935   1.286   0.669 -2.2317  1.4241 -0.2175
 5749SOL    HW228884   1.943   1.415   0.713  2.2148 -0.6809 -0.0051
 5750SOL     OW28885   3.489   4.165   2.348 -0.1871 -0.1048  0.0979
 5750SOL    HW128886   3.430   4.198   2.280  1.9524  0.4481 -1.5027
 5750SOL    HW228887   3.550   4.134   2.280  1.8131 -0.2016  1.9461
 5751SOL     OW28888   0.290   4.534   5.858 -0.1997  0.2402 -0.2592
 5751SOL    HW128889   0.241   4.560   5.780  0.5758  0.3650 -0.7061
 5751SOL    HW228890   0.212   4.522   5.912  0.1346  0.4215  0.2632
 5752SOL     OW28891   1.442   1.852   6.259  0.0266 -0.0669 -0.0446
 5752SOL    HW128892   1.366   1.892   6.216 -1.0037 -0.6347  1.2479
 5752SOL    HW228893   1.414   1.762   6.271  1.0610 -0.2311  1.1424
 5753SOL     OW28894   0.286   3.902   2.773  0.3381  0.3015  0.2112
 5753SOL    HW128895   0.257   3.900   2.864 -0.0481  0.9439  0.1093
 5753SOL    HW228896   0.286   3.808   2.755  2.5267 -0.0328  1.9412
 5754SOL     OW28897   1.364   3.486  16.841 -0.5412 -0.3369  1.1522
 5754SOL    HW128898   1.406   3.455  16.760 -1.3838 -2.4584  1.5265
 5754SOL    HW228899   1.273   3.465  16.823 -0.8097  2.7540 -1.2441
 5755SOL     OW28900   4.550   1.079   0.343 -0.7376 -0.3535 -0.2890
 5755SOL    HW128901   4.512   1.085   0.430 -0.5190 -1.1165 -0.1441
 5755SOL    HW228902   4.596   0.996   0.353  0.4927  0.1375 -1.7072
 5756SOL     OW28903   0.192   4.180  16.245 -0.5427  0.6028  0.2097
 5756SOL    HW128904   0.201   4.116  16.174  2.0945  1.6997 -0.4572
 5756SOL    HW228905   0.185   4.119  16.317 -1.2139  0.0968 -0.2862
 5757SOL     OW28906   1.832   3.071  12.172  0.1388  0.4660 -0.0757
 5757SOL    HW128907   1.866   3.002  12.230  0.6244  0.4317 -0.3960
 5757SOL    HW228908   1.821   3.145  12.231 -1.7798 -1.5474  2.0617
 5758SOL     OW28909   3.594   2.367   1.232 -0.3642  0.1306  0.1093
 5758SOL    HW128910   3.617   2.414   1.311 -0.3199  1.4082 -0.6667
 5758SOL    HW228911   3.569   2.447   1.186  0.3813 -0.3571 -1.1407
 5759SOL     OW28912   3.479   0.816  16.220 -0.6648  0.2482 -0.4325
 5759SOL    HW128913   3.569   0.815  16.253 -0.7607 -4.7514 -0.3106
 5759SOL    HW228914   3.473   0.721  16.211  2.7958  0.3157 -3.6486
 5760SOL     OW28915   2.208   0.125  16.411 -0.2814 -0.4061 -0.4024
 5760SOL    HW128916   2.157   0.203  16.429  1.0104  0.8318 -2.1203
 5760SOL    HW228917   2.222   0.101  16.502 -1.3155  0.9042  0.0905
 5761SOL     OW28918   3.300   0.167   4.966 -0.3055  0.4621  0.2748
 5761SOL    HW128919   3.349   0.247   4.980  2.5413 -1.7063  2.6630
 5761SOL    HW228920   3.249   0.214   4.899  1.2662  1.1922 -0.4136
 5762SOL     OW28921   0.728   0.102   6.043 -0.2494  0.6238  0.5297
 5762SOL    HW128922   0.643   0.091   6.085 -0.9675  0.6572 -0.9389
 5762SOL    HW228923   0.792   0.068   6.106 -0.9676 -0.9693  0.4113
 5763SOL     OW28924   1.882   0.184   4.533 -0.4210 -0.0124 -0.1065
 5763SOL    HW128925   1.927   0.153   4.612 -1.6497 -0.5779  0.3673
 5763SOL    HW228926   1.957   0.232   4.497 -0.1348 -0.5772 -0.2491
 5764SOL     OW28927   1.421   1.676   3.523  0.1861 -0.0916  0.1917
 5764SOL    HW128928   1.402   1.750   3.465 -2.4394 -2.2796 -1.7404
 5764SOL    HW228929   1.516   1.684   3.516  0.1995  1.1083  1.7570
 5765SOL     OW28930   0.994   2.718   6.922  0.0381 -0.0478 -0.1021
 5765SOL    HW128931   1.000   2.637   6.872 -0.8386 -0.1056 -0.1169
 5765SOL    HW228932   1.085   2.745   6.920  0.4959 -1.7664 -2.0550
 5766SOL     OW28933   3.068   3.630   5.803  0.0840  0.4537  0.6967
 5766SOL    HW128934   3.118   3.705   5.770 -0.0998  1.0234  1.7015
 5766SOL    HW228935   2.988   3.677   5.825  0.6483  1.3874  0.7772
 5767SOL     OW28936   3.564   4.563   3.478  0.2133  0.3709  0.2828
 5767SOL    HW128937   3.613   4.537   3.400 -1.4481  2.2784 -1.3835
 5767SOL    HW228938   3.492   4.611   3.437  1.1622  1.8341  0.3228
 5768SOL     OW28939   0.876   3.861   7.832  0.3673  0.0433  0.3806
 5768SOL    HW128940   0.894   3.940   7.884 -0.3632  0.4256  0.0419
 5768SOL    HW228941   0.964   3.826   7.845  0.8423  1.1179  0.0990
 5769SOL     OW28942   2.314   3.512   8.102 -0.2095  0.0817 -0.1822
 5769SOL    HW128943   2.395   3.469   8.131  0.9578  1.9222 -0.6820
 5769SOL    HW228944   2.257   3.463   8.161 -0.8934  1.7842  0.5958
 5770SOL     OW28945   2.806   2.056   8.701  0.0664 -0.3623  0.1291
 5770SOL    HW128946   2.778   2.126   8.760  0.8538 -0.2012  0.3081
 5770SOL    HW228947   2.785   1.986   8.763  0.5029 -1.4285 -0.9198
 5771SOL     OW28948   0.942   1.329  12.851 -0.0977 -0.2305  0.4212
 5771SOL    HW128949   0.877   1.398  12.853 -0.9887 -1.0927  1.0031
 5771SOL    HW228950   0.974   1.315  12.940 -1.0108  2.8183  1.2144
 5772SOL     OW28951   1.701   1.143   3.599 -0.3467 -0.0154  0.5082
 5772SOL    HW128952   1.623   1.145   3.544 -1.1773  2.2454  1.7702
 5772SOL    HW228953   1.761   1.199   3.550 -1.4396  1.3544  0.7068
 5773SOL     OW28954   1.101   0.737   5.714 -0.8579  0.7402 -0.1623
 5773SOL    HW128955   1.112   0.820   5.668 -0.6514 -1.0830 -3.3927
 5773SOL    HW228956   1.163   0.679   5.670  1.0279  0.2064  3.1425
 5774SOL     OW28957   3.495   0.375   6.805  0.2316  0.0605  0.5629
 5774SOL    HW128958   3.415   0.426   6.794 -0.4754 -0.8498  1.4391
 5774SOL    HW228959   3.540   0.399   6.886 -1.0012 -0.3902  1.3697
 5775SOL     OW28960   4.639   1.042   0.681 -0.6115 -0.2588 -0.1352
 5775SOL    HW128961   4.631   0.949   0.657 -1.1802 -0.5770  1.3179
 5775SOL    HW228962   4.545   1.054   0.695 -0.6413 -1.2719  0.5214
 5776SOL     OW28963   1.544   4.305   7.888 -0.4132  0.6269 -0.1067
 5776SOL    HW128964   1.554   4.396   7.862 -1.3375  0.6650 -0.3536
 5776SOL    HW228965   1.635   4.301   7.917 -0.7448 -0.2293  0.8445
 5777SOL     OW28966   3.020   4.342   8.817 -0.1636 -0.2623  0.1082
 5777SOL    HW128967   3.084   4.380   8.877 -0.7584 -3.5759  2.8636
 5777SOL    HW228968   2.947   4.314   8.871 -0.7360  0.4334 -0.3149
 5778SOL     OW28969   1.325   2.158   7.721 -0.7063 -0.2576 -0.2868
 5778SOL    HW128970   1.307   2.179   7.813  3.1677 -1.1942  0.7081
 5778SOL    HW228971   1.413   2.194   7.710 -0.7074 -0.3646 -0.6456
 5779SOL     OW28972   2.780   0.908  12.093 -0.5073 -0.2630 -0.3443
 5779SOL    HW128973   2.749   0.933  12.006 -1.6927 -0.8075 -0.0879
 5779SOL    HW228974   2.872   0.932  12.081 -0.5878  1.3297  2.2414
 5780SOL     OW28975   1.638   2.736   7.982 -0.4102 -0.2048  0.1544
 5780SOL    HW128976   1.570   2.799   7.956  0.2522  1.8407  3.4384
 5780SOL    HW228977   1.687   2.743   7.900 -2.6999 -0.8602 -1.2878
 5781SOL     OW28978   3.048   3.515   3.279  0.5144  0.2747  0.2867
 5781SOL    HW128979   3.052   3.441   3.219  2.0674  0.2012  0.4686
 5781SOL    HW228980   3.139   3.521   3.310  0.5418  0.9968  0.0843
 5782SOL     OW28981   2.438   2.853   5.694  0.5721 -0.2383 -0.3388
 5782SOL    HW128982   2.369   2.887   5.637 -1.5252  1.6511  3.3225
 5782SOL    HW228983   2.397   2.772   5.724 -0.6093  0.3596 -0.3644
 5783SOL     OW28984   3.432   4.309   0.339  0.0429 -0.8205  0.0167
 5783SOL    HW128985   3.384   4.259   0.273  0.5385 -1.6265  0.2675
 5783SOL    HW228986   3.422   4.396   0.301  0.1632 -0.7515  0.1422
 5784SOL     OW28987   1.249   3.657   4.177 -0.5807  0.2688  0.1729
 5784SOL    HW128988   1.239   3.677   4.270 -1.4774 -1.7035  0.4873
 5784SOL    HW228989   1.190   3.727   4.146  0.1025  0.8322  0.1380
 5785SOL     OW28990   3.512   0.869  14.616  0.0794 -0.3825 -0.3496
 5785SOL    HW128991   3.507   0.964  14.606  0.5220 -0.3028  0.1292
 5785SOL    HW228992   3.606   0.853  14.604  0.3385  0.4882  0.4742
 5786SOL     OW28993   3.258   2.608   5.741 -0.3248 -0.1562  0.1182
 5786SOL    HW128994   3.180   2.661   5.755 -0.0379  0.5280 -0.9109
 5786SOL    HW228995   3.285   2.608   5.833 -0.1304  1.4821  0.0581
 5787SOL     OW28996   1.986   4.441   6.262 -0.2838 -0.1649 -0.1446
 5787SOL    HW128997   2.009   4.394   6.182 -2.7366 -1.6680  0.0094
 5787SOL    HW228998   1.924   4.376   6.295 -2.5039  1.4328 -1.0899
 5788SOL     OW28999   2.563   2.403  12.535  0.0307  0.8642 -0.1863
 5788SOL    HW129000   2.470   2.384  12.525  0.1025  1.2050 -1.4837
 5788SOL    HW229001   2.605   2.318  12.551 -1.5495  0.2718  0.8504
 5789SOL     OW29002   4.037   0.942   9.301 -0.3801  0.6384 -0.2121
 5789SOL    HW129003   4.073   1.030   9.303  1.0773  0.0280  0.5592
 5789SOL    HW229004   4.027   0.920   9.208 -1.3532  0.2879 -0.0257
 5790SOL     OW29005   2.619   3.680   8.626 -0.1925 -0.0345 -0.8015
 5790SOL    HW129006   2.589   3.738   8.556  1.2587 -0.3960 -1.7163
 5790SOL    HW229007   2.711   3.707   8.630 -0.5336  0.8962  0.9274
 5791SOL     OW29008   1.000   0.888   8.510  0.0776  0.4467 -0.0360
 5791SOL    HW129009   0.969   0.979   8.508  1.7457  1.0283  0.6323
 5791SOL    HW229010   1.080   0.906   8.559 -0.3818 -0.5479  1.0769
 5792SOL     OW29011   4.246   4.520   7.860 -0.2585 -0.4392 -0.3086
 5792SOL    HW129012   4.162   4.509   7.815 -0.3736 -1.5198  0.1582
 5792SOL    HW229013   4.260   4.429   7.887  2.0288  0.3736  1.2264
 5793SOL     OW29014   0.149   2.399   2.998  0.0857 -0.2979  0.0431
 5793SOL    HW129015   0.132   2.353   3.080  1.1846 -2.0500 -0.7086
 5793SOL    HW229016   0.144   2.487   3.035 -1.6401 -0.5308  0.3739
 5794SOL     OW29017   0.777   2.540  12.529  0.5439 -0.6310  0.8594
 5794SOL    HW129018   0.740   2.457  12.500 -0.3013  1.3496 -3.7334
 5794SOL    HW229019   0.708   2.606  12.523  0.1650 -1.3705 -2.9253
 5795SOL     OW29020   1.293   4.505   5.065  0.3316 -0.0713  0.0334
 5795SOL    HW129021   1.280   4.430   5.008  0.4190  1.0154 -1.3970
 5795SOL    HW229022   1.338   4.569   5.010  2.5233 -0.0233  1.8831
 5796SOL     OW29023   4.481   2.279   4.451 -0.0043 -0.0575 -0.1840
 5796SOL    HW129024   4.492   2.294   4.545 -0.6423  0.0636 -0.1319
 5796SOL    HW229025   4.506   2.186   4.449  0.7874  0.1697 -1.0031
 5797SOL     OW29026   3.730   0.835  14.304 -0.1535 -0.2489  0.1381
 5797SOL    HW129027   3.792   0.904  14.329  2.3785 -1.5256 -2.5855
 5797SOL    HW229028   3.773   0.754  14.331 -0.3981  0.1218  1.6249
 5798SOL     OW29029   4.121   2.143   0.311  0.6414  0.0277  0.2740
 5798SOL    HW129030   4.178   2.220   0.317 -4.0462  3.3566  1.5771
 5798SOL    HW229031   4.038   2.170   0.349  0.9511  0.6821  0.4859
 5799SOL     OW29032   0.374   1.743   4.982 -0.1055 -0.2686  0.3029
 5799SOL    HW129033   0.338   1.660   5.014  0.3715  0.1888  2.0408
 5799SOL    HW229034   0.332   1.740   4.896 -3.2797  0.4035  1.8262
 5800SOL     OW29035   3.565   2.763   3.836  0.2197  0.1078 -0.1379
 5800SOL    HW129036   3.576   2.668   3.831 -1.5148 -0.0275 -1.3356
 5800SOL    HW229037   3.638   2.784   3.894 -0.5479 -0.9362  1.2228
 5801SOL     OW29038   4.196   4.669   8.088 -0.3931  0.0066  0.5174
 5801SOL    HW129039   4.104   4.687   8.067 -0.6510 -1.2057  0.6067
 5801SOL    HW229040   4.224   4.607   8.020 -0.0675  2.4373 -1.5649
 5802SOL     OW29041   0.528   1.310   8.348  0.5708 -0.6064 -0.3078
 5802SOL    HW129042   0.433   1.317   8.332  0.2727 -1.6191  1.0792
 5802SOL    HW229043   0.567   1.258   8.278  1.7319  1.0040 -0.8439
 5803SOL     OW29044   1.800   3.705   3.378 -0.0669 -0.2555  0.4820
 5803SOL    HW129045   1.827   3.693   3.469  0.1429 -1.0031  0.3150
 5803SOL    HW229046   1.879   3.669   3.338  2.1663  1.5662  3.2028
 5804SOL     OW29047   1.222   4.283   7.541 -0.0355  0.0717  0.2752
 5804SOL    HW129048   1.166   4.235   7.481  1.4342 -0.9939 -0.2320
 5804SOL    HW229049   1.255   4.338   7.470  1.4396  0.1223  0.9979
 5805SOL     OW29050   0.676   1.311   8.903  0.1344  0.2131 -0.2850
 5805SOL    HW129051   0.685   1.399   8.866 -1.2091  0.3235 -0.3465
 5805SOL    HW229052   0.585   1.307   8.933  0.4700  0.8495  0.8311
 5806SOL     OW29053   1.824   0.299   5.247  0.1611  0.1971  0.4779
 5806SOL    HW129054   1.854   0.232   5.186 -0.5105  0.4986 -0.1728
 5806SOL    HW229055   1.805   0.366   5.183  0.4842  0.8553  1.0727
 5807SOL     OW29056   0.154   2.127   1.263  0.0759  0.1420  0.2453
 5807SOL    HW129057   0.166   2.106   1.356 -0.1971  0.5350  0.3703
 5807SOL    HW229058   0.146   2.042   1.220 -0.2752 -0.0329  0.6589
 5808SOL     OW29059   0.552   1.382   6.410 -0.4743 -0.4073  0.1841
 5808SOL    HW129060   0.568   1.300   6.363 -1.1070 -0.4821  0.0902
 5808SOL    HW229061   0.511   1.438   6.344 -0.9051 -0.9457 -0.0116
 5809SOL     OW29062   1.083   4.157   1.069  0.0244  0.5782  0.2096
 5809SOL    HW129063   1.024   4.220   1.111  0.7607  0.5688  1.2441
 5809SOL    HW229064   1.017   4.089   1.050  2.5501 -0.8708 -3.3239
 5810SOL     OW29065   0.365   1.393   7.795  0.1237  0.3145 -0.2722
 5810SOL    HW129066   0.317   1.468   7.830  1.3602  0.9460  0.0805
 5810SOL    HW229067   0.403   1.436   7.719 -0.1168  1.3349  0.1866
 5811SOL     OW29068   1.894   0.668   9.667  0.2754 -0.2603  0.8584
 5811SOL    HW129069   1.964   0.713   9.619 -0.2783 -0.6487 -0.3151
 5811SOL    HW229070   1.875   0.606   9.596  2.2082  3.5363 -2.9987
 5812SOL     OW29071   4.070   2.645   2.540 -0.0101  0.2990 -0.2217
 5812SOL    HW129072   4.016   2.705   2.591 -1.1962  1.3431 -2.7173
 5812SOL    HW229073   3.998   2.607   2.489  0.0393 -2.2704  1.6389
 5813SOL     OW29074   2.706   0.466  11.073 -0.2553  0.5941 -0.1175
 5813SOL    HW129075   2.792   0.450  11.110 -0.6899 -0.6574  0.3648
 5813SOL    HW229076   2.684   0.553  11.106  1.0657  1.1966 -0.8604
 5814SOL     OW29077   1.002   1.058   3.482  0.4697 -0.0151 -0.4334
 5814SOL    HW129078   1.089   1.086   3.512  0.0905  0.2557  0.4057
 5814SOL    HW229079   1.005   0.970   3.520 -0.3881  0.1221 -0.0542
 5815SOL     OW29080   3.661   4.069   5.811  0.2355  0.5374  0.7306
 5815SOL    HW129081   3.623   4.121   5.882  0.0857  1.6690 -0.1610
 5815SOL    HW229082   3.755   4.074   5.829  0.4065  1.0545 -0.3027
 5816SOL     OW29083   2.821   3.726   6.495  0.6761  0.2066  0.2257
 5816SOL    HW129084   2.800   3.819   6.498  0.2922  0.1793 -1.8498
 5816SOL    HW229085   2.758   3.689   6.433  2.0624  3.2964 -2.9634
 5817SOL     OW29086   3.611   3.016  12.844  0.5396 -0.0421  0.3447
 5817SOL    HW129087   3.539   3.080  12.841 -0.3104 -0.9518  1.8561
 5817SOL    HW229088   3.620   3.017  12.939 -0.3511  2.0648  0.4233
 5818SOL     OW29089   2.095   2.426   4.601  0.4451 -0.0388  0.7159
 5818SOL    HW129090   2.024   2.390   4.547  0.7248  0.2400  0.1631
 5818SOL    HW229091   2.146   2.473   4.536  0.0782 -2.2219 -1.1708
 5819SOL     OW29092   2.260   3.319   1.660 -0.2095  0.0238  0.0730
 5819SOL    HW129093   2.305   3.236   1.644  1.0221  0.7937 -0.4688
 5819SOL    HW229094   2.192   3.299   1.725  1.5135 -1.3478  1.4263
 5820SOL     OW29095   3.604   2.340   9.574 -0.0262 -0.1720  0.1422
 5820SOL    HW129096   3.677   2.320   9.632  0.2265  1.0826  0.2657
 5820SOL    HW229097   3.651   2.390   9.508 -1.8905  0.5449 -0.6565
 5821SOL     OW29098   2.264   2.814   6.715 -0.2514  0.2638 -0.3275
 5821SOL    HW129099   2.229   2.902   6.725 -0.7241  0.1570 -1.0629
 5821SOL    HW229100   2.263   2.789   6.807 -0.8922  1.5632  0.0161
 5822SOL     OW29101   0.051   1.335   4.786 -0.3535  0.3617  0.4862
 5822SOL    HW129102   0.028   1.275   4.716 -1.5649  0.9801  0.3621
 5822SOL    HW229103   0.138   1.364   4.757  0.0683 -1.6898 -0.3084
 5823SOL     OW29104   3.170   3.482   6.046 -0.4292 -0.3139 -0.0094
 5823SOL    HW129105   3.095   3.430   6.076 -0.1312 -0.0622  1.1770
 5823SOL    HW229106   3.141   3.531   5.969  0.7208 -0.5274 -0.5794
 5824SOL     OW29107   3.430   2.087   8.710  0.0471 -0.0193  0.0795
 5824SOL    HW129108   3.427   2.134   8.793  1.0958  2.7742 -1.4681
 5824SOL    HW229109   3.426   2.155   8.643  0.5453  0.4187  0.5029
 5825SOL     OW29110   3.055   2.063   3.008 -0.2275  0.7394  0.0009
 5825SOL    HW129111   3.108   2.133   2.971 -1.5859  0.3896 -2.6242
 5825SOL    HW229112   3.098   2.055   3.094 -0.1540  2.1497  0.0950
 5826SOL     OW29113   0.066   0.012   2.926 -0.1648 -0.1379 -0.1184
 5826SOL    HW129114   0.118   4.706   2.996 -0.8807  2.0223  1.6608
 5826SOL    HW229115   0.130   0.059   2.872  1.1875 -0.8929  0.8266
 5827SOL     OW29116   3.446   4.578   4.352 -0.5034 -0.3016  0.0641
 5827SOL    HW129117   3.474   4.588   4.261 -0.6854 -1.0821 -0.0711
 5827SOL    HW229118   3.522   4.605   4.404 -0.6134 -2.2407  1.2476
 5828SOL     OW29119   4.560   4.572   8.622  0.2927  0.1480  0.4399
 5828SOL    HW129120   4.640   4.521   8.636  0.9920  1.4156  1.0327
 5828SOL    HW229121   4.588   4.632   8.553 -0.0681  0.5494  0.6453
 5829SOL     OW29122   4.121   4.137  14.865 -0.4679 -0.7205  0.1055
 5829SOL    HW129123   4.108   4.218  14.913  0.7711  0.3546 -1.3552
 5829SOL    HW229124   4.151   4.163  14.778 -1.8556  0.1904 -0.0994
 5830SOL     OW29125   0.426   0.121   6.807  0.0844  0.2613  0.4078
 5830SOL    HW129126   0.404   0.192   6.747 -4.3434 -0.7604  0.8350
 5830SOL    HW229127   0.360   0.147   6.871 -0.8882 -1.0613 -0.0698
 5831SOL     OW29128   2.232   2.785   7.929 -0.2389  1.1378 -0.0557
 5831SOL    HW129129   2.181   2.771   8.009 -0.1727 -0.5972 -0.3344
 5831SOL    HW229130   2.321   2.800   7.962  0.1853  0.8974 -1.1082
 5832SOL     OW29131   1.906   0.794   8.260  0.0391  0.5481  0.1100
 5832SOL    HW129132   1.908   0.805   8.165 -0.5660 -0.4618 -0.0258
 5832SOL    HW229133   1.856   0.713   8.266  0.9694  0.0430  1.1838
 5833SOL     OW29134   3.049   1.527   3.843  0.3856  0.6510  0.3611
 5833SOL    HW129135   2.959   1.546   3.816  0.6960  0.2279 -0.9464
 5833SOL    HW229136   3.024   1.447   3.890  3.2691 -0.4640 -0.0142
 5834SOL     OW29137   0.548   1.527   0.312 -0.1669 -0.2523  0.9768
 5834SOL    HW129138   0.588   1.592   0.254 -1.6879  0.5883  0.8643
 5834SOL    HW229139   0.454   1.533   0.294 -0.2154  0.7644  1.5225
 5835SOL     OW29140   1.701   1.757   8.290  0.0028 -0.1614 -0.0840
 5835SOL    HW129141   1.627   1.815   8.307  3.1113  3.3281  1.6075
 5835SOL    HW229142   1.733   1.800   8.211  0.2006 -1.5759 -0.7707
 5836SOL     OW29143   0.454   3.515   5.690 -0.0167 -0.1286 -0.0183
 5836SOL    HW129144   0.532   3.546   5.645 -0.1632 -1.2340 -1.0341
 5836SOL    HW229145   0.403   3.516   5.610 -0.2507 -0.4706  0.1238
 5837SOL     OW29146   3.255   1.231   4.508  0.2156 -0.0386 -0.2790
 5837SOL    HW129147   3.317   1.249   4.437  2.2820  1.1149  1.8352
 5837SOL    HW229148   3.303   1.274   4.579 -1.1878 -2.0600  1.8979
 5838SOL     OW29149   3.327   2.269   5.986  0.2462 -0.1418  0.3749
 5838SOL    HW129150   3.399   2.285   6.046  0.3141  3.1642 -0.6049
 5838SOL    HW229151   3.247   2.272   6.039  1.2144  1.3354  1.7311
 5839SOL     OW29152   3.363   0.988   0.103 -0.0500 -0.0064 -0.4003
 5839SOL    HW129153   3.337   0.939   0.025 -0.2213 -1.6667  0.6981
 5839SOL    HW229154   3.334   0.936   0.177 -0.4908  0.8909  0.0520
 5840SOL     OW29155   2.994   1.853  15.080  0.6686 -0.3221 -0.3677
 5840SOL    HW129156   2.907   1.888  15.058  0.0302 -1.9172 -0.3306
 5840SOL    HW229157   2.973   1.780  15.138 -1.2497  0.4900 -0.0200
 5841SOL     OW29158   1.041   1.428   8.640  0.2800  0.0876 -0.2205
 5841SOL    HW129159   1.097   1.505   8.631  2.4163 -1.8369 -3.2256
 5841SOL    HW229160   0.994   1.428   8.557 -0.3032 -1.3142  0.1146
 5842SOL     OW29161   3.713   3.287   4.257 -0.8222 -0.9927  0.1533
 5842SOL    HW129162   3.647   3.263   4.192 -0.9243 -0.4992  0.0741
 5842SOL    HW229163   3.762   3.205   4.256  0.3496 -0.2802 -1.1832
 5843SOL     OW29164   4.532   3.298  14.390  0.0836  0.2032  0.8365
 5843SOL    HW129165   4.579   3.253  14.320 -0.8176 -1.4093  1.2903
 5843SOL    HW229166   4.451   3.333  14.353  0.7515  1.3342  0.4219
 5844SOL     OW29167   3.472   4.513  17.124 -0.0212 -0.7141  0.2375
 5844SOL    HW129168   3.503   4.577  17.060  0.1804  0.2534  1.3065
 5844SOL    HW229169   3.417   4.568  17.180  0.0361  1.6968 -2.0824
 5845SOL     OW29170   1.285   3.954   8.502 -0.1356 -0.0813 -0.2768
 5845SOL    HW129171   1.274   4.039   8.546  0.9245 -1.0753  1.8978
 5845SOL    HW229172   1.202   3.911   8.521  0.3722 -0.5678  0.8222
 5846SOL     OW29173   2.727   0.427   3.874 -0.2126 -0.1594  0.0846
 5846SOL    HW129174   2.654   0.371   3.847 -0.0176 -0.0384 -0.6743
 5846SOL    HW229175   2.766   0.439   3.788  1.7710  0.1491  1.0377
 5847SOL     OW29176   3.325   3.682   2.587  0.0267  0.0627  0.0287
 5847SOL    HW129177   3.289   3.712   2.503 -1.8329  1.8977  1.4856
 5847SOL    HW229178   3.306   3.588   2.589 -0.0974  0.0717 -0.7336
 5848SOL     OW29179   0.375   0.674   3.851  0.4614 -0.0741  0.3064
 5848SOL    HW129180   0.288   0.684   3.813  2.3255  2.7400 -3.1606
 5848SOL    HW229181   0.360   0.597   3.905 -1.3109 -0.9055 -1.3794
 5849SOL     OW29182   0.558   2.555   3.766  0.0697 -0.0312  0.7121
 5849SOL    HW129183   0.630   2.586   3.711  0.9958 -2.8044  0.3615
 5849SOL    HW229184   0.538   2.470   3.728  1.5786  0.8960 -2.2003
 5850SOL     OW29185   2.768   0.487   1.605  0.0234 -0.1739  0.0635
 5850SOL    HW129186   2.857   0.512   1.628  0.1430  0.1583 -0.7775
 5850SOL    HW229187   2.723   0.548   1.663  2.6112 -0.6789  2.5996
 5851SOL     OW29188   2.751   3.459   6.659  0.9942 -0.2959  0.3758
 5851SOL    HW129189   2.802   3.525   6.613  0.3310 -0.1555 -0.1500
 5851SOL    HW229190   2.665   3.500   6.653  0.5647 -1.2272  0.2084
 5852SOL     OW29191   2.312   0.012  11.475 -0.2452  0.1108  0.3665
 5852SOL    HW129192   2.302   0.079  11.543  0.0746  0.3538  0.1724
 5852SOL    HW229193   2.357   4.679  11.527 -1.8259 -0.6148  0.8273
 5853SOL     OW29194   3.005   1.814   3.704 -0.1389  0.2453 -0.4437
 5853SOL    HW129195   2.921   1.852   3.729  0.7082  1.0891  1.0447
 5853SOL    HW229196   2.974   1.724   3.689  2.2656 -1.1672  2.9056
 5854SOL     OW29197   1.698   0.088   7.036 -0.0466 -0.0097  0.1821
 5854SOL    HW129198   1.609   0.053   7.029 -0.3585  0.6318  1.0445
 5854SOL    HW229199   1.719   0.101   6.943 -0.0023  0.6275  0.2806
 5855SOL     OW29200   1.771   2.128   9.071  0.3601 -0.4881 -0.3022
 5855SOL    HW129201   1.717   2.057   9.036 -1.9040  0.8582  0.4770
 5855SOL    HW229202   1.854   2.109   9.028 -0.1201 -0.9733 -1.0192
 5856SOL     OW29203   4.200   2.221   7.264 -0.1573 -0.5998  0.0929
 5856SOL    HW129204   4.231   2.131   7.268  0.5769 -0.3303  0.7462
 5856SOL    HW229205   4.148   2.216   7.184 -1.2151 -1.3272  0.8351
 5857SOL     OW29206   2.778   0.548  12.595  0.2333  0.3327  0.1538
 5857SOL    HW129207   2.692   0.556  12.637  0.7187 -0.1673  1.2428
 5857SOL    HW229208   2.830   0.478  12.635 -0.0626  1.3927  2.3903
 5858SOL     OW29209   2.857   0.725   6.824  0.4442  0.4697 -0.4649
 5858SOL    HW129210   2.864   0.674   6.905 -1.0491 -3.8155 -3.0860
 5858SOL    HW229211   2.806   0.664   6.771  0.7685  0.7760 -1.1194
 5859SOL     OW29212   0.153   0.657  10.713 -0.0698  0.4990  0.9830
 5859SOL    HW129213   0.199   0.575  10.731 -1.9877 -0.5083  1.2506
 5859SOL    HW229214   0.105   0.646  10.631 -0.8482  4.2012  0.9556
 5860SOL     OW29215   4.063   4.586   3.108 -0.1034  0.3021 -0.0241
 5860SOL    HW129216   4.006   4.646   3.155 -1.1227 -1.0019  0.3910
 5860SOL    HW229217   4.004   4.582   3.033 -1.7205  1.8648  1.1951
 5861SOL     OW29218   3.989   0.087  10.377  0.4659 -0.3187  0.2176
 5861SOL    HW129219   4.022   0.124  10.295 -0.9201  1.2819  0.3968
 5861SOL    HW229220   4.026   4.733  10.369  0.0095 -0.2819 -2.4541
 5862SOL     OW29221   2.431   0.107   7.032  0.4557 -0.1642  0.2156
 5862SOL    HW129222   2.344   0.112   6.992 -0.3985 -1.7613  1.9008
 5862SOL    HW229223   2.485   0.110   6.953  1.7104  2.0051  1.1761
 5863SOL     OW29224   2.221   0.376   3.369  1.0719  1.1723  0.3777
 5863SOL    HW129225   2.272   0.432   3.428 -0.6072  3.2115 -0.1295
 5863SOL    HW229226   2.286   0.308   3.352  0.8990  1.1894 -0.3579
 5864SOL     OW29227   1.869   4.024   1.286 -0.5645  0.0037 -0.4993
 5864SOL    HW129228   1.806   3.962   1.324  1.6307 -2.0723 -0.1835
 5864SOL    HW229229   1.863   4.093   1.352 -0.1071 -1.7395  1.3678
 5865SOL     OW29230   2.188   4.088  15.627  0.1288  0.2154  0.0957
 5865SOL    HW129231   2.153   4.045  15.705 -0.0577 -2.1012 -1.2710
 5865SOL    HW229232   2.113   4.134  15.590 -0.9038 -1.5542 -0.0286
 5866SOL     OW29233   4.224   1.950   5.509  0.4766  0.0682 -0.0316
 5866SOL    HW129234   4.260   2.012   5.572 -1.5513  0.8538  0.3673
 5866SOL    HW229235   4.208   2.009   5.436 -1.1486  1.2382  1.2827
 5867SOL     OW29236   0.234   0.483   9.650  0.3623  0.3587  0.4060
 5867SOL    HW129237   0.210   0.553   9.710 -2.0759  0.7375 -1.0042
 5867SOL    HW229238   0.147   0.469   9.611 -0.1440 -1.1445  2.1121
 5868SOL     OW29239   3.607   2.719   0.237 -0.0784  0.3540  0.9639
 5868SOL    HW129240   3.546   2.718   0.164  1.3922 -2.0643 -0.2218
 5868SOL    HW229241   3.686   2.750   0.193  1.1081  0.1799  2.9814
 5869SOL     OW29242   1.526   3.158  13.560  0.4781 -0.6603 -0.0255
 5869SOL    HW129243   1.598   3.130  13.616  1.4991 -0.7598 -1.4175
 5869SOL    HW229244   1.455   3.133  13.619  0.4525  2.8840  1.4892
 5870SOL     OW29245   2.208   4.519   0.665 -0.0227 -0.0582  0.1279
 5870SOL    HW129246   2.201   4.425   0.684 -0.7961 -0.0987 -0.3302
 5870SOL    HW229247   2.269   4.528   0.592  0.6197 -0.3714  0.6340
 5871SOL     OW29248   2.253   3.642   2.346 -0.3801 -0.2019  0.2370
 5871SOL    HW129249   2.273   3.619   2.436 -0.4969 -0.0549  0.2996
 5871SOL    HW229250   2.343   3.639   2.312 -0.8993 -4.6782 -0.7845
 5872SOL     OW29251   4.545   3.068   3.238 -0.5190 -0.1665  0.1660
 5872SOL    HW129252   4.481   3.068   3.167 -1.4039  1.6800  0.9498
 5872SOL    HW229253   4.491   3.097   3.312  1.7180  1.4177  1.1994
 5873SOL     OW29254   4.279   2.633  15.932  0.0409  0.8195  0.5276
 5873SOL    HW129255   4.203   2.606  15.882  0.3795  0.5477  0.1576
 5873SOL    HW229256   4.267   2.592  16.018 -0.0192 -1.0388 -0.3704
 5874SOL     OW29257   3.262   2.299   9.168 -0.5591  0.1199  0.2844
 5874SOL    HW129258   3.217   2.327   9.248  1.9953 -1.3492  2.2147
 5874SOL    HW229259   3.352   2.324   9.189 -0.1903 -0.9106 -0.0825
 5875SOL     OW29260   0.349   4.555   6.790  0.0461 -0.1239 -0.2372
 5875SOL    HW129261   0.317   4.556   6.880  0.3032 -1.8295 -0.1455
 5875SOL    HW229262   0.387   4.641   6.772 -1.9218  0.6508 -0.7878
 5876SOL     OW29263   1.077   4.115   6.967  0.3537  0.2100 -0.4379
 5876SOL    HW129264   1.050   4.024   6.977  1.6823 -0.1977 -0.5400
 5876SOL    HW229265   1.004   4.144   7.022 -1.3757 -1.7307 -1.7420
 5877SOL     OW29266   3.012   0.585   7.381 -0.3583  0.2480  0.6662
 5877SOL    HW129267   2.986   0.657   7.437  0.0206  0.8051  0.1213
 5877SOL    HW229268   2.919   0.564   7.366  0.1002 -1.6773  0.5006
 5878SOL     OW29269   4.379   0.212   5.599  0.0907 -0.3736 -0.2190
 5878SOL    HW129270   4.296   0.167   5.614  0.2099 -1.4821 -2.9819
 5878SOL    HW229271   4.367   0.291   5.652 -1.8210 -0.8362  0.0158
 5879SOL     OW29272   1.654   4.159   2.788  0.2576  0.1356 -0.2556
 5879SOL    HW129273   1.734   4.108   2.795 -1.0938 -2.2240 -2.0653
 5879SOL    HW229274   1.689   4.248   2.794  0.3502  0.1450 -0.8983
 5880SOL     OW29275   2.520   2.283   4.599  0.2166 -0.0015 -0.5279
 5880SOL    HW129276   2.463   2.325   4.535 -2.5547 -3.2220 -0.1933
 5880SOL    HW229277   2.503   2.339   4.675  1.7593 -1.3067  0.7895
 5881SOL     OW29278   2.426   4.001   5.014  0.0496  0.1405  0.6650
 5881SOL    HW129279   2.402   3.909   5.003  2.7094 -0.7946  2.6397
 5881SOL    HW229280   2.474   3.995   5.096  0.0466  4.3905  0.9607
 5882SOL     OW29281   1.710   4.238  13.841  0.0255  0.4834 -0.3048
 5882SOL    HW129282   1.734   4.304  13.906 -0.8082  1.7934 -1.3162
 5882SOL    HW229283   1.785   4.180  13.855 -1.3486 -1.4755 -1.1436
 5883SOL     OW29284   1.301   4.721   5.877 -0.5310  0.6195  0.8455
 5883SOL    HW129285   1.215   4.714   5.918  0.1304 -2.7708  1.6308
 5883SOL    HW229286   1.287   0.040   5.798 -0.5526  0.6863  0.8934
 5884SOL     OW29287   0.974   0.645   2.775  0.0084  0.3890 -0.0193
 5884SOL    HW129288   1.001   0.596   2.853 -1.0428 -1.7254 -0.9682
 5884SOL    HW229289   1.042   0.713   2.773  1.2069 -0.7828  0.9354
 5885SOL     OW29290   3.328   0.716   6.525  0.1648 -0.7964 -0.0174
 5885SOL    HW129291   3.294   0.728   6.436  0.8273 -0.7482 -0.2595
 5885SOL    HW229292   3.253   0.733   6.582 -1.7274 -2.4388 -2.0365
 5886SOL     OW29293   1.072   4.625   9.007  0.2791  0.5628  0.4227
 5886SOL    HW129294   1.060   4.541   9.050  0.1775  1.8400  2.9236
 5886SOL    HW229295   1.153   4.594   8.967  1.3860  3.5289  0.3262
 5887SOL     OW29296   4.363   3.120  10.223  0.3380  0.3149 -0.4939
 5887SOL    HW129297   4.352   3.091  10.313 -0.7452  1.9838 -0.0954
 5887SOL    HW229298   4.289   3.073  10.183  0.4722  0.5853 -1.0583
 5888SOL     OW29299   3.631   2.145   6.679 -0.7094  0.3063  0.4473
 5888SOL    HW129300   3.578   2.165   6.756 -0.2234 -1.6370  1.2682
 5888SOL    HW229301   3.570   2.185   6.617  1.2399 -0.7158 -2.1151
 5889SOL     OW29302   3.519   2.470   6.778 -0.3123 -0.2170 -0.2108
 5889SOL    HW129303   3.440   2.458   6.831 -0.7021  2.0358 -0.2493
 5889SOL    HW229304   3.580   2.497   6.848 -0.4464  0.2752 -0.2829
 5890SOL     OW29305   1.118   3.188   2.126 -0.1081  0.1678  0.3083
 5890SOL    HW129306   1.083   3.174   2.214  2.7783  0.3837  1.4777
 5890SOL    HW229307   1.044   3.233   2.086  0.0233  1.6628  1.7373
 5891SOL     OW29308   3.087   3.904   5.973  0.3779 -0.1176 -0.6282
 5891SOL    HW129309   3.047   3.990   5.969 -1.9191 -1.2095 -1.2636
 5891SOL    HW229310   3.138   3.901   5.891  0.9148 -1.8588 -0.2361
 5892SOL     OW29311   3.598   3.724   2.521 -0.8612  0.3416  0.6735
 5892SOL    HW129312   3.506   3.698   2.533 -0.5412 -0.4993  1.2949
 5892SOL    HW229313   3.581   3.812   2.557  0.2332  0.8944 -0.1738
 5893SOL     OW29314   4.496   2.832   6.177  0.5758  0.3124 -0.3009
 5893SOL    HW129315   4.458   2.807   6.093 -0.5692 -3.7000  1.3889
 5893SOL    HW229316   4.453   2.775   6.241 -0.8878  1.6446 -0.1207
 5894SOL     OW29317   3.867   4.400   4.851  0.7408  0.1087  0.2919
 5894SOL    HW129318   3.824   4.481   4.824  0.6874  0.0279  0.1379
 5894SOL    HW229319   3.917   4.383   4.771  0.2736  1.7311 -0.3389
 5895SOL     OW29320   4.500   0.846   5.283 -0.0006  0.1426 -0.2322
 5895SOL    HW129321   4.429   0.787   5.308  1.4883 -1.7552 -0.4264
 5895SOL    HW229322   4.534   0.868   5.370 -4.7401  1.4001  1.2962
 5896SOL     OW29323   0.906   1.869   3.749  0.8957 -0.0582  0.4200
 5896SOL    HW129324   0.843   1.913   3.692  0.9724 -0.4550  0.0322
 5896SOL    HW229325   0.927   1.940   3.811 -0.0254  1.4181 -0.9569
 5897SOL     OW29326   3.665   2.658   8.778  0.2567 -0.1964  0.3814
 5897SOL    HW129327   3.617   2.576   8.774  1.3145 -0.8447  1.0149
 5897SOL    HW229328   3.699   2.672   8.689 -1.6134 -0.9667 -0.4597
 5898SOL     OW29329   4.386   2.304  15.103 -0.0278  0.4590 -0.6984
 5898SOL    HW129330   4.451   2.234  15.094 -0.4632 -0.3733  2.6101
 5898SOL    HW229331   4.410   2.346  15.186 -2.9768  0.4158  0.1722
 5899SOL     OW29332   1.959   2.204  12.240 -0.1461 -1.0570  0.3184
 5899SOL    HW129333   1.915   2.225  12.158  0.2069  0.5354  0.5439
 5899SOL    HW229334   2.035   2.260  12.228 -1.7350  0.7207 -1.5071
 5900SOL     OW29335   2.672   4.165   4.706  0.4475  0.4183 -0.2612
 5900SOL    HW129336   2.751   4.219   4.712  0.0760  0.6453  2.6907
 5900SOL    HW229337   2.668   4.157   4.611 -0.0451 -0.9774 -0.1228
 5901SOL     OW29338   4.001   0.743   4.821  0.0357  0.4468 -0.2365
 5901SOL    HW129339   4.072   0.690   4.784 -0.6673 -0.4658 -0.2704
 5901SOL    HW229340   4.028   0.747   4.913 -0.2654  0.3258 -0.1432
 5902SOL     OW29341   0.561   1.108   0.327  0.3481  0.5703 -0.1698
 5902SOL    HW129342   0.524   1.094   0.415  1.5546  2.0402  0.5605
 5902SOL    HW229343   0.532   1.026   0.286  0.2777  0.5677 -0.1161
 5903SOL     OW29344   0.576   1.178   6.232  0.1203  0.0379 -0.0960
 5903SOL    HW129345   0.630   1.137   6.163  2.3558  1.2186  0.9675
 5903SOL    HW229346   0.529   1.227   6.165  2.3339  1.2484 -0.7621
 5904SOL     OW29347   1.184   2.772   4.951 -0.0379 -0.2790  1.1630
 5904SOL    HW129348   1.221   2.720   5.021  0.3302  0.0047  1.1814
 5904SOL    HW229349   1.158   2.701   4.892  0.9147 -0.6478  1.1903
 5905SOL     OW29350   4.423   1.529   1.837 -0.2777  0.3617  0.7360
 5905SOL    HW129351   4.373   1.465   1.786  3.0803 -1.6268 -0.0561
 5905SOL    HW229352   4.351   1.588   1.859 -1.3721 -0.3424 -0.8762
 5906SOL     OW29353   3.861   2.235   4.020  0.3777 -0.1169  0.4801
 5906SOL    HW129354   3.935   2.240   3.961 -0.1902 -0.2095 -0.2376
 5906SOL    HW229355   3.785   2.239   3.962  0.6790 -0.3746  0.0705
 5907SOL     OW29356   2.203   0.745   1.310  0.4631 -0.2207  0.7315
 5907SOL    HW129357   2.143   0.724   1.239  0.4806  0.5807  0.4824
 5907SOL    HW229358   2.270   0.677   1.301 -1.0678 -1.7414  0.9959
 5908SOL     OW29359   4.464   2.123  13.720 -0.1283 -0.0714  0.2857
 5908SOL    HW129360   4.501   2.151  13.803 -0.5433  1.2089  0.0285
 5908SOL    HW229361   4.513   2.041  13.710  0.7433  0.8975 -3.3259
 5909SOL     OW29362   1.611   0.583   4.487  0.7803 -0.3692  0.2491
 5909SOL    HW129363   1.517   0.575   4.507  0.8884 -0.5847  0.6721
 5909SOL    HW229364   1.598   0.582   4.392 -0.0114 -0.7572  0.3579
 5910SOL     OW29365   2.725   1.311  11.149  0.3763 -0.1661  0.6555
 5910SOL    HW129366   2.705   1.327  11.241  0.6595  1.1695  0.4934
 5910SOL    HW229367   2.820   1.320  11.158  0.9093 -2.5479 -2.4516
 5911SOL     OW29368   1.667   4.651   1.891  0.5815  0.0030 -0.3096
 5911SOL    HW129369   1.590   4.637   1.836  1.6919 -1.5466 -1.4660
 5911SOL    HW229370   1.724   4.700   1.832  0.0396  2.2028  0.9974
 5912SOL     OW29371   0.919   1.073   6.906 -0.3540  0.0816  0.0864
 5912SOL    HW129372   0.911   1.150   6.850 -1.6030 -1.5004 -1.8791
 5912SOL    HW229373   0.891   1.085   6.997 -0.6268  0.8336 -0.0984
 5913SOL     OW29374   2.925   1.367   6.085  0.1135  0.2156  0.0066
 5913SOL    HW129375   2.953   1.347   6.175  0.6226 -0.0558 -0.2148
 5913SOL    HW229376   3.017   1.375   6.061  0.0304 -0.2274 -0.4427
 5914SOL     OW29377   0.002   4.018   8.195  0.4417  0.1533 -0.3059
 5914SOL    HW129378   4.670   3.986   8.133  0.9619  1.9058 -1.7228
 5914SOL    HW229379   4.714   3.971   8.276  3.2252 -0.2330  0.2166
 5915SOL     OW29380   4.488   3.548   8.207  0.7935  0.4025  0.0272
 5915SOL    HW129381   4.523   3.545   8.296  1.0880 -0.7410 -0.1280
 5915SOL    HW229382   4.528   3.622   8.162 -0.4587  1.3213  0.4239
 5916SOL     OW29383   1.441   4.237   1.980 -0.1970  0.2543  0.3460
 5916SOL    HW129384   1.478   4.180   1.913  0.0984 -0.0652  0.7794
 5916SOL    HW229385   1.516   4.281   2.020 -2.6429  3.2464  1.6773
 5917SOL     OW29386   3.059   3.781   7.569  0.2452 -0.2340  0.0989
 5917SOL    HW129387   3.108   3.856   7.535 -0.0623  0.6212  1.5159
 5917SOL    HW229388   3.082   3.714   7.506 -0.3272 -0.0640 -0.2882
 5918SOL     OW29389   2.040   4.409  12.667 -0.1534  0.8181 -0.5284
 5918SOL    HW129390   2.120   4.418  12.719 -0.9293 -0.8581  0.9452
 5918SOL    HW229391   1.982   4.351  12.716 -0.6165  0.8883 -0.9857
 5919SOL     OW29392   3.877   0.702   6.673  0.2048 -0.0378 -0.4994
 5919SOL    HW129393   3.942   0.735   6.735  1.9110 -0.0949 -2.2506
 5919SOL    HW229394   3.799   0.701   6.728  1.2514 -1.3542  0.9832
 5920SOL     OW29395   4.269   3.693   0.342 -0.2435 -0.3062 -0.0574
 5920SOL    HW129396   4.219   3.690   0.261  2.1734  1.9483 -1.6170
 5920SOL    HW229397   4.332   3.623   0.326  0.7645  0.4789  0.4610
 5921SOL     OW29398   1.663   0.417   1.484  0.2733 -0.2814  0.6321
 5921SOL    HW129399   1.621   0.403   1.399  1.1869 -0.4335  0.2021
 5921SOL    HW229400   1.675   0.324   1.504 -0.9050 -0.1965  1.7836
 5922SOL     OW29401   2.852   0.869   3.760 -0.3916 -0.1085  0.3749
 5922SOL    HW129402   2.882   0.875   3.669 -1.7930 -2.2008 -0.2138
 5922SOL    HW229403   2.765   0.908   3.749  0.1850  0.6857 -1.4340
 5923SOL     OW29404   3.704   1.388   4.524 -0.0404 -0.0545  0.3300
 5923SOL    HW129405   3.686   1.480   4.505 -0.4105 -0.1387  0.2718
 5923SOL    HW229406   3.628   1.356   4.573  0.0806  2.0344  1.8592
 5924SOL     OW29407   1.644   0.958   6.478  0.3695 -0.0119  0.2525
 5924SOL    HW129408   1.674   0.943   6.388  1.1611  2.3254  0.1344
 5924SOL    HW229409   1.598   1.041   6.467  0.9529  0.0728 -1.5207
 5925SOL     OW29410   3.595   0.499   5.269 -0.4737  0.0241 -0.2697
 5925SOL    HW129411   3.656   0.540   5.208 -0.5765 -0.9206 -1.0013
 5925SOL    HW229412   3.603   0.562   5.341  0.6688  0.5400 -0.8494
 5926SOL     OW29413   2.666   2.569   5.988 -0.0008  0.0702  0.0082
 5926SOL    HW129414   2.751   2.602   6.020  0.5738 -0.0142 -1.4330
 5926SOL    HW229415   2.669   2.574   5.893  1.0426  0.5571  0.0585
 5927SOL     OW29416   0.922   2.904   8.898 -0.0555 -0.0499 -0.3197
 5927SOL    HW129417   0.854   2.836   8.899 -0.1930  0.0874 -0.6898
 5927SOL    HW229418   0.891   2.976   8.952  0.1519  1.5066 -2.2992
 5928SOL     OW29419   4.188   0.410   9.698  0.2871  0.3130  0.3138
 5928SOL    HW129420   4.167   0.321   9.669  1.0588 -0.6638  2.7201
 5928SOL    HW229421   4.117   0.455   9.652 -0.6680 -0.6290  0.8659
 5929SOL     OW29422   1.557   2.203  11.676 -0.3110 -0.1946 -0.8590
 5929SOL    HW129423   1.547   2.174  11.585 -0.7651  0.1389 -0.9173
 5929SOL    HW229424   1.638   2.255  11.675  0.3539 -1.2266 -0.1446
 5930SOL     OW29425   0.037   4.599  15.563  0.5949  0.5434  0.3876
 5930SOL    HW129426   4.685   4.564  15.586  1.6471 -1.3505  1.5272
 5930SOL    HW229427   0.006   4.660  15.497 -1.1109 -1.2032 -0.4333
 5931SOL     OW29428   3.192   4.020   3.702 -0.2354 -0.5496  0.0241
 5931SOL    HW129429   3.152   4.099   3.739  0.7008 -2.0862  4.2955
 5931SOL    HW229430   3.179   3.951   3.766 -2.5205  0.3082  0.5164
 5932SOL     OW29431   2.740   4.507   3.596 -0.0831  0.0618 -0.2451
 5932SOL    HW129432   2.719   4.418   3.569  2.4829 -0.9142  1.0026
 5932SOL    HW229433   2.799   4.505   3.671 -0.7185  1.6822  0.2953
 5933SOL     OW29434   0.207   0.755  13.526  0.0913  0.4125  0.1438
 5933SOL    HW129435   0.246   0.840  13.545  0.4607  0.2373  0.1620
 5933SOL    HW229436   0.131   0.754  13.584  0.4739 -2.4784  0.5752
 5934SOL     OW29437   1.505   3.951   1.297 -0.3414  0.3043 -0.2024
 5934SOL    HW129438   1.555   4.027   1.327  0.1903 -0.5715  1.1495
 5934SOL    HW229439   1.425   3.964   1.246 -0.2640  0.7653 -0.2078
 5935SOL     OW29440   0.027   0.827   4.781 -0.3324 -0.7927  0.6902
 5935SOL    HW129441   0.034   0.732   4.793 -1.3218 -0.7213  1.8109
 5935SOL    HW229442   0.064   0.856   4.864 -1.4654 -1.0847  1.2954
 5936SOL     OW29443   4.639   3.869   9.396  0.3356  0.9156  0.1927
 5936SOL    HW129444   4.710   3.827   9.347 -0.6185 -0.6221  0.1025
 5936SOL    HW229445   4.585   3.790   9.395  1.6097  0.0211  1.7322
 5937SOL     OW29446   3.158   0.338   8.995  0.9604 -0.3858  0.3189
 5937SOL    HW129447   3.151   0.244   9.009 -1.0457 -0.3760 -0.6060
 5937SOL    HW229448   3.197   0.347   8.908 -0.9100 -0.0056 -0.4997
 5938SOL     OW29449   3.224   2.178   4.431  0.2057 -0.2578  0.5572
 5938SOL    HW129450   3.168   2.206   4.503  0.9623 -1.2631  1.5193
 5938SOL    HW229451   3.249   2.260   4.390  1.7184 -0.4134  1.2015
 5939SOL     OW29452   2.724   0.750   5.872  0.1512  0.1625 -0.2440
 5939SOL    HW129453   2.779   0.723   5.945 -1.5690  0.9567  1.3272
 5939SOL    HW229454   2.642   0.728   5.917 -1.1835  0.0456 -2.6737
 5940SOL     OW29455   2.690   2.130   2.629  0.4761 -0.3711  0.2276
 5940SOL    HW129456   2.719   2.097   2.714  0.2646  2.0121  1.2231
 5940SOL    HW229457   2.765   2.187   2.609  0.5895 -0.5293  0.2038
 5941SOL     OW29458   4.676   1.248   2.965  0.0377  0.1891  0.1757
 5941SOL    HW129459   0.036   1.259   2.981 -0.2493  0.5533  1.6615
 5941SOL    HW229460   4.646   1.321   3.019  0.8778  0.1930  0.6383
 5942SOL     OW29461   3.593   3.926   3.439 -0.5698 -0.0805 -0.1708
 5942SOL    HW129462   3.629   3.867   3.506 -0.2378 -0.8190 -0.9954
 5942SOL    HW229463   3.567   3.861   3.374 -0.3081 -0.4111  0.0541
 5943SOL     OW29464   0.801   1.196   9.910 -0.1751 -0.1785  0.3694
 5943SOL    HW129465   0.780   1.169   9.820  0.4901  0.3744  0.0457
 5943SOL    HW229466   0.897   1.191   9.913 -0.1048  0.1866 -1.3515
 5944SOL     OW29467   1.686   2.936  16.808  0.3657  0.0073  0.3674
 5944SOL    HW129468   1.627   3.009  16.788  1.9086  0.8673 -1.0286
 5944SOL    HW229469   1.676   2.948  16.903  0.9484 -1.1242  0.5691
 5945SOL     OW29470   1.145   3.687   2.193  0.3773 -0.0192  0.2842
 5945SOL    HW129471   1.185   3.767   2.228 -1.3513  1.3773 -0.9981
 5945SOL    HW229472   1.082   3.730   2.136 -0.5401  0.2545  1.4931
 5946SOL     OW29473   1.487   4.665   6.980  0.1352  0.3944 -0.1518
 5946SOL    HW129474   1.427   4.649   7.054  0.6125 -1.3578 -0.1484
 5946SOL    HW229475   1.480   4.581   6.935 -0.6761  0.7330 -0.6497
 5947SOL     OW29476   3.462   0.622  14.746  0.1239 -1.0332 -0.5361
 5947SOL    HW129477   3.502   0.564  14.681  2.5361  0.8895 -0.7471
 5947SOL    HW229478   3.474   0.709  14.708 -0.4058 -0.3267  0.9641
 5948SOL     OW29479   2.575   2.747   0.914 -0.0241 -0.2355  0.2175
 5948SOL    HW129480   2.533   2.706   0.838  0.7157 -0.4409 -0.0819
 5948SOL    HW229481   2.645   2.805   0.883 -0.0682  0.3153  1.1547
 5949SOL     OW29482   3.674   3.030  13.098  0.5880 -0.0795 -0.6159
 5949SOL    HW129483   3.618   3.072  13.163  2.3479  1.5681 -0.1761
 5949SOL    HW229484   3.750   3.087  13.111  0.0562  0.7559 -1.2325
 5950SOL     OW29485   3.549   3.087   2.337 -0.1324 -0.6853  0.0727
 5950SOL    HW129486   3.643   3.076   2.349  0.0353  1.2250  0.4530
 5950SOL    HW229487   3.544   3.156   2.272 -0.5307  0.6087  1.4802
 5951SOL     OW29488   3.510   3.877  16.966 -0.5097 -0.4756 -0.8517
 5951SOL    HW129489   3.556   3.928  17.032 -2.6028  0.7881 -0.3590
 5951SOL    HW229490   3.423   3.918  16.966 -0.7300 -0.9478  0.0032
 5952SOL     OW29491   0.929   2.108  13.984 -0.1087  0.4865  0.7136
 5952SOL    HW129492   0.878   2.091  13.905 -0.6302  0.3432  1.0864
 5952SOL    HW229493   0.900   2.197  14.004 -0.1023  0.8050 -0.7430
 5953SOL     OW29494   2.264   2.438   6.729  0.4264 -0.8377 -0.5623
 5953SOL    HW129495   2.203   2.510   6.714 -1.1093 -1.8698  0.8734
 5953SOL    HW229496   2.349   2.480   6.712  0.1047 -0.4399 -1.2062
 5954SOL     OW29497   2.766   3.317   5.243  0.5032  0.3094 -0.8583
 5954SOL    HW129498   2.849   3.272   5.258 -0.1542 -0.3853  0.7333
 5954SOL    HW229499   2.702   3.251   5.269  1.5426 -0.4175 -0.1691
 5955SOL     OW29500   2.977   3.526   7.664 -0.6698 -0.6530 -0.0441
 5955SOL    HW129501   2.965   3.620   7.649  2.4905 -0.6198 -2.3221
 5955SOL    HW229502   2.910   3.488   7.607  1.7657 -4.0601 -0.6389
 5956SOL     OW29503   2.876   0.156  14.000 -0.4928 -0.2832  0.1235
 5956SOL    HW129504   2.867   0.187  14.090  0.9895 -3.5178  1.3623
 5956SOL    HW229505   2.801   0.098  13.988  0.1335 -1.0205 -0.2561
 5957SOL     OW29506   3.135   3.463   8.185  0.2319  0.0832 -0.7927
 5957SOL    HW129507   3.065   3.491   8.244  0.6392  0.8792 -0.6888
 5957SOL    HW229508   3.086   3.399   8.133 -2.4709 -0.8075  2.8474
 5958SOL     OW29509   3.955   0.119  15.076  0.6307 -0.5418  0.1361
 5958SOL    HW129510   3.990   0.201  15.112 -0.0946  0.5315 -1.5524
 5958SOL    HW229511   3.932   0.069  15.154  0.5822 -0.7933 -0.0390
 5959SOL     OW29512   0.539   2.169   8.149  0.1495  0.4360  0.3031
 5959SOL    HW129513   0.579   2.248   8.112  0.1051  0.7391  0.8990
 5959SOL    HW229514   0.458   2.207   8.183  1.7935  2.5479  1.8676
 5960SOL     OW29515   2.515   0.339   1.672 -0.3624  0.7579  0.2886
 5960SOL    HW129516   2.545   0.344   1.762 -3.9230  0.1063  1.4908
 5960SOL    HW229517   2.573   0.407   1.637  2.4618 -1.1454  1.3124
 5961SOL     OW29518   0.911   0.139   7.033  0.5532 -0.1293  0.4505
 5961SOL    HW129519   0.985   0.093   6.992  1.7540  2.2173 -0.0027
 5961SOL    HW229520   0.839   0.134   6.970  0.5489  0.2625  0.4278
 5962SOL     OW29521   3.186   4.491   8.118  0.0941 -0.1541 -0.1304
 5962SOL    HW129522   3.173   4.524   8.206 -0.1630  3.3040 -1.4712
 5962SOL    HW229523   3.248   4.556   8.085  0.0135  0.0068  0.0391
 5963SOL     OW29524   1.443   1.382   8.707  0.0471 -0.2003  0.2216
 5963SOL    HW129525   1.368   1.401   8.651  0.3539 -0.0580 -0.1409
 5963SOL    HW229526   1.397   1.361   8.788 -1.6007 -1.2598 -0.9896
 5964SOL     OW29527   0.593   2.467  12.969  0.4499 -0.0767  0.2634
 5964SOL    HW129528   0.665   2.491  12.912 -0.9809 -0.0956 -1.5364
 5964SOL    HW229529   0.629   2.401  13.028  0.6322  0.6003  0.9159
 5965SOL     OW29530   1.070   1.247   8.212  0.0696 -0.3815 -0.1504
 5965SOL    HW129531   1.104   1.231   8.300  1.3135 -0.6578 -0.6905
 5965SOL    HW229532   1.041   1.338   8.219  1.0313 -0.0488 -0.5386
 5966SOL     OW29533   1.451   2.532   5.447  0.4999 -0.0611 -0.0688
 5966SOL    HW129534   1.371   2.486   5.471  0.9684 -0.2621  1.0983
 5966SOL    HW229535   1.472   2.495   5.361  2.1758 -0.1653  0.3860
 5967SOL     OW29536   3.518   2.323   9.249 -0.1080 -0.5794 -0.2173
 5967SOL    HW129537   3.536   2.262   9.321 -2.6307  0.4144  1.2794
 5967SOL    HW229538   3.605   2.326   9.209 -0.1836 -0.5556 -0.3775
 5968SOL     OW29539   1.080   4.725   4.376 -0.0165  0.1771  0.0987
 5968SOL    HW129540   1.051   4.640   4.342  1.7557 -0.9735  1.4782
 5968SOL    HW229541   1.174   4.711   4.367  0.3147  0.1735  3.4254
 5969SOL     OW29542   2.751   4.590   0.179  0.0511 -0.7207  0.5473
 5969SOL    HW129543   2.687   4.606   0.110  0.2678  1.1895  0.7868
 5969SOL    HW229544   2.728   4.670   0.226  2.4295 -1.9138  3.7879
 5970SOL     OW29545   1.783   2.295   9.315 -0.3878  0.1445 -0.4434
 5970SOL    HW129546   1.765   2.240   9.392 -1.2320  0.1743 -0.6232
 5970SOL    HW229547   1.799   2.225   9.251  0.8250 -1.1519  1.2742
 5971SOL     OW29548   0.565   1.401  10.474  0.4250  0.1810  0.5043
 5971SOL    HW129549   0.535   1.417  10.385  1.0440 -0.7404  0.1296
 5971SOL    HW229550   0.560   1.306  10.484  1.5676 -0.1238 -1.9004
 5972SOL     OW29551   0.991   1.671   7.625 -0.4546 -0.8732  0.2888
 5972SOL    HW129552   1.013   1.694   7.716 -2.5232 -0.7906  0.7574
 5972SOL    HW229553   0.998   1.575   7.626 -0.9638 -0.9185 -0.7898
 5973SOL     OW29554   1.309   3.318  13.176 -0.2929 -0.4368 -0.3437
 5973SOL    HW129555   1.316   3.228  13.207 -0.3985 -0.9084 -1.6857
 5973SOL    HW229556   1.219   3.316  13.144 -0.0648  1.0070 -1.1019
 5974SOL     OW29557   3.904   1.752   8.819  0.1089  0.4667  0.5135
 5974SOL    HW129558   3.837   1.728   8.883 -1.1934 -1.3086 -1.5209
 5974SOL    HW229559   3.937   1.667   8.789 -1.4426 -0.0419  0.2764
 5975SOL     OW29560   2.184   3.803  12.453 -0.0878  0.1825 -0.3430
 5975SOL    HW129561   2.175   3.888  12.411 -0.6536  0.4903  0.4077
 5975SOL    HW229562   2.248   3.773  12.388 -0.5051  1.0287 -1.1381
 5976SOL     OW29563   3.890   2.684  13.542  0.9141 -0.3221  0.0082
 5976SOL    HW129564   3.830   2.749  13.578  1.2412 -0.7520  1.3376
 5976SOL    HW229565   3.844   2.616  13.590 -0.6607  0.4130 -0.4483
 5977SOL     OW29566   0.482   2.180   2.464 -0.2238  0.1768 -0.0420
 5977SOL    HW129567   0.496   2.131   2.383 -0.9716  0.1934 -0.1770
 5977SOL    HW229568   0.562   2.232   2.472  0.1057 -0.8135  3.2460
 5978SOL     OW29569   0.035   3.608   6.032 -0.3604  0.3852  0.1267
 5978SOL    HW129570   4.731   3.521   6.047  0.9933 -0.1067  0.7520
 5978SOL    HW229571   0.071   3.630   6.118 -4.8686 -0.9585  2.3050
 5979SOL     OW29572   0.985   3.894  12.036 -0.3042 -0.6083  0.0772
 5979SOL    HW129573   0.969   3.989  12.041 -0.4455 -0.4658 -3.0609
 5979SOL    HW229574   1.054   3.900  11.970  0.0442 -2.0754  0.3157
 5980SOL     OW29575   3.322   3.169   5.265  0.5112 -0.5604  0.3360
 5980SOL    HW129576   3.408   3.209   5.260  0.0280  0.2190 -1.7455
 5980SOL    HW229577   3.301   3.164   5.358 -1.2858  0.8566  0.0214
 5981SOL     OW29578   4.359   2.266   6.734  0.4003  0.2569 -0.1559
 5981SOL    HW129579   4.311   2.209   6.675  0.8624 -1.6811  1.3635
 5981SOL    HW229580   4.336   2.217   6.812 -3.3817 -0.4390 -1.7092
 5982SOL     OW29581   3.201   4.186   0.049 -0.5365 -0.4187  0.1263
 5982SOL    HW129582   3.169   4.099   0.028 -2.3574 -0.0155  1.1742
 5982SOL    HW229583   3.282   4.164   0.094  0.8256 -1.8855 -3.0621
 5983SOL     OW29584   1.208   3.021   4.833  0.1373 -0.3199 -0.5091
 5983SOL    HW129585   1.179   3.059   4.916 -2.2227 -0.0807 -1.4485
 5983SOL    HW229586   1.208   2.931   4.865 -0.9353 -0.5136 -1.0706
 5984SOL     OW29587   1.047   2.409   6.578  0.2358  0.2367  0.3197
 5984SOL    HW129588   0.955   2.420   6.601 -0.6896 -3.0383 -1.8007
 5984SOL    HW229589   1.089   2.488   6.613 -3.0986  1.2844  2.0297
 5985SOL     OW29590   2.071   0.448   4.573  0.2362  0.4598  0.9043
 5985SOL    HW129591   2.109   0.397   4.502  1.9505  1.1236  1.3482
 5985SOL    HW229592   2.121   0.527   4.557  0.3156  0.1972 -0.1207
 5986SOL     OW29593   0.678   2.517   7.528  0.0955  0.0629  0.5236
 5986SOL    HW129594   0.705   2.608   7.529  0.5840 -0.0765  0.0160
 5986SOL    HW229595   0.711   2.479   7.446 -0.3658  2.0057 -0.5632
 5987SOL     OW29596   1.284   1.469   8.112 -0.4370  0.5086  0.1870
 5987SOL    HW129597   1.311   1.451   8.202  0.5130 -0.3970 -0.2756
 5987SOL    HW229598   1.320   1.392   8.067  0.3192  0.0033  1.6586
 5988SOL     OW29599   3.252   2.979   5.087 -0.0190 -0.6380 -0.0036
 5988SOL    HW129600   3.156   2.977   5.085  0.0344 -1.3158 -2.0510
 5988SOL    HW229601   3.274   3.049   5.148  0.2198 -0.1575 -0.6522
 5989SOL     OW29602   3.479   4.329   9.610  0.2081  0.4405 -0.3065
 5989SOL    HW129603   3.387   4.317   9.635  0.2601 -0.8201 -0.7273
 5989SOL    HW229604   3.481   4.260   9.544  0.1340 -0.5996  0.7770
 5990SOL     OW29605   3.393   2.089  14.772 -0.3467 -0.0801 -0.2239
 5990SOL    HW129606   3.487   2.072  14.774 -0.3979 -0.4592 -1.2918
 5990SOL    HW229607   3.362   2.006  14.807  1.5990 -0.3287  0.9223
 5991SOL     OW29608   2.014   3.041   1.724 -0.1102  0.0525 -0.4620
 5991SOL    HW129609   2.078   3.084   1.781 -1.2683 -1.2486  1.8492
 5991SOL    HW229610   1.950   3.003   1.785  0.6036 -0.5416 -0.0812
 5992SOL     OW29611   2.844   1.741   5.913 -0.5363 -0.0925  0.6447
 5992SOL    HW129612   2.828   1.763   5.822 -1.0307  0.6397  0.9149
 5992SOL    HW229613   2.895   1.809   5.958 -0.9758  0.7526 -0.1529
 5993SOL     OW29614   4.050   2.907   9.904  0.3200  0.1381  0.5672
 5993SOL    HW129615   3.963   2.941   9.885  0.5529  0.2793 -0.2276
 5993SOL    HW229616   4.051   2.816   9.876  0.0572  0.3824 -0.2173
 5994SOL     OW29617   1.805   0.595   2.127 -0.4910 -0.2585 -0.0580
 5994SOL    HW129618   1.808   0.656   2.201  1.7124 -0.2938 -0.1060
 5994SOL    HW229619   1.805   0.658   2.055  1.4807 -1.0035 -0.7314
 5995SOL     OW29620   0.115   4.102  15.576  0.4541 -0.0378 -0.3277
 5995SOL    HW129621   0.095   4.180  15.525  0.6384  0.1001 -0.1904
 5995SOL    HW229622   0.200   4.071  15.543  0.4068 -1.4199  0.8153
 5996SOL     OW29623   2.073   2.213   4.809  0.5348  0.1776 -0.1138
 5996SOL    HW129624   2.104   2.253   4.728 -1.4888  0.7537 -0.5886
 5996SOL    HW229625   2.132   2.138   4.808 -0.7747 -0.8933  2.2754
 5997SOL     OW29626   1.305   3.947   6.356  0.0837 -0.3390 -0.0283
 5997SOL    HW129627   1.234   3.994   6.400  1.1404 -0.7443  2.0577
 5997SOL    HW229628   1.262   3.925   6.273 -0.1423 -1.5050  0.3994
 5998SOL     OW29629   3.492   3.754  12.018  0.2685 -0.3637 -0.0528
 5998SOL    HW129630   3.572   3.717  11.981  0.4199  0.7721 -0.8896
 5998SOL    HW229631   3.524   3.844  12.020  3.5329 -1.5718  0.3430
 5999SOL     OW29632   4.436   0.460  12.526 -0.6098 -0.0032  0.0444
 5999SOL    HW129633   4.341   0.458  12.515 -0.5386  2.0643 -0.9650
 5999SOL    HW229634   4.453   0.384  12.471  1.6897  0.0566  0.6812
 6000SOL     OW29635   1.385   1.931   7.372  0.1961 -0.6223 -0.3958
 6000SOL    HW129636   1.463   1.880   7.393  0.3028  0.8055  2.7634
 6000SOL    HW229637   1.335   1.884   7.306  0.6865  0.6174 -1.6682
 6001SOL     OW29638   3.292   1.136  15.118 -0.5269  0.4887  0.2729
 6001SOL    HW129639   3.318   1.180  15.198  3.7386 -0.0855 -0.8063
 6001SOL    HW229640   3.277   1.205  15.053 -2.2802  0.9931  1.2069
 6002SOL     OW29641   2.950   1.939   2.612  0.2363 -0.0698  0.1421
 6002SOL    HW129642   2.953   1.926   2.517  2.0397  2.5463 -0.1554
 6002SOL    HW229643   3.027   1.886   2.635  0.3108 -1.6474 -3.5744
 6003SOL     OW29644   1.873   0.402   4.762  0.3631 -0.0886 -0.7353
 6003SOL    HW129645   1.860   0.309   4.744  0.1795 -0.6182  2.1820
 6003SOL    HW229646   1.941   0.422   4.697  1.0213 -0.2480 -0.0998
 6004SOL     OW29647   1.988   1.108   0.086 -0.1463  0.4440  0.1510
 6004SOL    HW129648   2.083   1.107   0.093  0.0346 -3.2151 -2.3161
 6004SOL    HW229649   1.974   1.084  17.728 -2.7037  0.5681  0.4908
 6005SOL     OW29650   1.091   4.068   4.848 -0.7463  0.5572  0.5131
 6005SOL    HW129651   1.168   4.019   4.820 -1.1059  1.9668 -3.0768
 6005SOL    HW229652   1.055   3.993   4.895 -0.7333 -0.8323 -1.6992
 6006SOL     OW29653   2.062   4.102   7.521  0.8147 -0.2730 -0.2765
 6006SOL    HW129654   2.154   4.130   7.523 -0.3011  3.5961 -2.1088
 6006SOL    HW229655   2.035   4.082   7.611  2.3000 -1.9622 -0.2134
 6007SOL     OW29656   1.600   0.850   8.015 -0.3822 -0.0351  0.5438
 6007SOL    HW129657   1.677   0.902   8.036 -0.1033 -0.2257 -0.0201
 6007SOL    HW229658   1.644   0.790   7.955  0.6160  0.7897  0.4705
 6008SOL     OW29659   2.797   0.423  11.954  0.2256 -0.1929 -0.3292
 6008SOL    HW129660   2.856   0.483  11.909 -1.2752  0.9496 -0.7546
 6008SOL    HW229661   2.856   0.405  12.028 -1.7538 -0.6028  1.1431
 6009SOL     OW29662   4.320   3.334   9.389  0.4508  0.0781  0.0666
 6009SOL    HW129663   4.225   3.342   9.403  0.3966  0.2775 -0.4287
 6009SOL    HW229664   4.343   3.285   9.468  1.7874  1.0894  0.2891
 6010SOL     OW29665   2.886   3.594   5.337 -0.4512  0.5037  0.0845
 6010SOL    HW129666   2.909   3.501   5.347  0.1232  0.7885  1.4211
 6010SOL    HW229667   2.854   3.594   5.247 -1.3608  1.5853  0.4208
 6011SOL     OW29668   3.521   1.119  14.974  0.2887 -0.0923  0.5258
 6011SOL    HW129669   3.433   1.125  15.011  0.8353 -0.0169  1.8277
 6011SOL    HW229670   3.578   1.122  15.052  1.2809  1.1702 -0.2366
 6012SOL     OW29671   3.795   1.468   1.748 -0.3303 -0.1679  0.0948
 6012SOL    HW129672   3.878   1.431   1.779 -0.1984  0.1149  0.0807
 6012SOL    HW229673   3.740   1.458   1.825 -0.9047  0.7128 -0.2076
 6013SOL     OW29674   1.533   1.609   0.594 -0.4937  0.8448 -0.3434
 6013SOL    HW129675   1.492   1.692   0.567  0.3838  1.8647  1.5174
 6013SOL    HW229676   1.624   1.638   0.595 -0.1188 -0.3065 -1.1433
 6014SOL     OW29677   3.228   1.707   7.546 -0.3560 -0.2457 -0.2090
 6014SOL    HW129678   3.141   1.691   7.510 -0.7455  1.5843 -0.0659
 6014SOL    HW229679   3.289   1.701   7.473 -0.5440 -0.5257 -0.3420
 6015SOL     OW29680   0.230   0.644   5.426  0.3236  0.1322  0.3468
 6015SOL    HW129681   0.166   0.606   5.486 -0.6352 -0.8663 -1.3416
 6015SOL    HW229682   0.229   0.591   5.346  0.7759 -2.0804  1.7942
 6016SOL     OW29683   1.070   0.463   5.290 -0.0922 -0.1486  0.4911
 6016SOL    HW129684   0.991   0.449   5.342 -0.2240  0.8237  0.5601
 6016SOL    HW229685   1.090   0.555   5.304  3.6729 -0.7347 -1.0140
 6017SOL     OW29686   4.674   4.689   8.360 -0.0338  0.4218  0.1657
 6017SOL    HW129687   4.690   4.658   8.271 -2.6486  2.2159 -0.9182
 6017SOL    HW229688   0.030   4.713   8.384  0.5771  0.3195 -2.0152
 6018SOL     OW29689   3.861   3.842   5.234  0.1922  0.6046  0.5926
 6018SOL    HW129690   3.913   3.913   5.272  0.8675  1.7803 -2.5038
 6018SOL    HW229691   3.778   3.882   5.207  1.2493  2.6068  0.3080
 6019SOL     OW29692   3.887   4.706  15.906 -0.3044 -0.3497  0.2792
 6019SOL    HW129693   3.977   4.705  15.874  0.1426 -1.4362  1.6026
 6019SOL    HW229694   3.905   0.035  15.976 -2.0876 -0.1719  0.5849
 6020SOL     OW29695   3.391   0.096   4.147  0.2210 -0.5500  0.1001
 6020SOL    HW129696   3.485   0.101   4.165  0.2481 -3.2398  0.6767
 6020SOL    HW229697   3.383   0.170   4.087  0.3352 -0.5168  0.1263
 6021SOL     OW29698   0.508   2.681  12.164  0.5225 -0.3851  0.3018
 6021SOL    HW129699   0.526   2.768  12.200 -3.2999  0.9924 -1.1739
 6021SOL    HW229700   0.591   2.634  12.172  0.1664 -0.9072  0.9324
 6022SOL     OW29701   2.952   3.040  16.754 -0.2474  0.4797 -0.1325
 6022SOL    HW129702   2.899   3.118  16.775 -0.1220  0.1108  1.5095
 6022SOL    HW229703   2.925   3.021  16.664 -0.4223 -1.8844  0.4363
 6023SOL     OW29704   3.105   4.706   5.022  0.4257  0.1985  0.6160
 6023SOL    HW129705   3.034   0.035   5.026 -1.2702 -1.6336 -0.4885
 6023SOL    HW229706   3.178   0.032   5.007  1.1580 -1.0724 -0.9204
 6024SOL     OW29707   4.570   3.472  10.209 -0.2167  0.0797 -0.6004
 6024SOL    HW129708   4.642   3.485  10.270  0.1074  0.9860 -1.1667
 6024SOL    HW229709   4.515   3.550  10.217 -1.3827 -0.7585 -0.3686
 6025SOL     OW29710   2.297   1.115   6.957 -0.2450  0.4803 -0.1670
 6025SOL    HW129711   2.283   1.055   7.030  0.4655 -0.5446 -0.8770
 6025SOL    HW229712   2.229   1.179   6.980  0.5773  0.9639  0.9672
 6026SOL     OW29713   1.494   2.386   3.460  0.7156 -0.3818  0.2219
 6026SOL    HW129714   1.548   2.455   3.422  0.7879 -0.4161  0.2606
 6026SOL    HW229715   1.561   2.317   3.466  1.0748  0.2048  2.9972
 6027SOL     OW29716   3.849   0.989  17.430 -0.1975  0.0023 -0.0986
 6027SOL    HW129717   3.823   0.933  17.357 -0.3811  0.5101 -0.4154
 6027SOL    HW229718   3.805   1.066  17.395 -1.4094  0.0483  1.4809
 6028SOL     OW29719   4.593   4.050   4.482 -0.2188 -0.2805 -0.3823
 6028SOL    HW129720   4.603   4.071   4.389  1.2476 -0.2739 -0.2328
 6028SOL    HW229721   4.554   4.131   4.515  0.6074  0.5137 -1.3304
 6029SOL     OW29722   4.419   1.417   2.098  0.2143 -0.5212 -0.1663
 6029SOL    HW129723   4.451   1.436   2.010  1.3436  0.6921  0.5026
 6029SOL    HW229724   4.499   1.436   2.147  0.1598  1.0817 -0.7124
 6030SOL     OW29725   1.717   2.286   4.018  0.2124 -0.4558  0.0614
 6030SOL    HW129726   1.730   2.196   3.987  2.1575  0.1233 -0.7478
 6030SOL    HW229727   1.643   2.288   4.080 -0.5622 -1.4043 -0.8240
 6031SOL     OW29728   2.211   3.447   9.186  0.6433  0.1147  0.5194
 6031SOL    HW129729   2.223   3.352   9.195 -0.4631 -0.2710 -1.9426
 6031SOL    HW229730   2.302   3.478   9.189  0.1637  1.5195  0.6313
 6032SOL     OW29731   1.419   4.355  10.403  0.2857  0.0679 -0.7849
 6032SOL    HW129732   1.498   4.400  10.432 -0.8612  1.3619  0.4003
 6032SOL    HW229733   1.363   4.354  10.481 -0.5236  0.0257 -1.3605
 6033SOL     OW29734   3.078   4.347  16.661  0.5149 -0.0905 -0.2867
 6033SOL    HW129735   3.034   4.429  16.684 -1.6741 -1.1054 -0.7907
 6033SOL    HW229736   3.029   4.331  16.580 -2.0218 -0.6005  1.3526
 6034SOL     OW29737   2.511   2.331   9.338 -0.6025  0.0524  0.5502
 6034SOL    HW129738   2.447   2.350   9.407 -0.9057 -1.7340  0.7507
 6034SOL    HW229739   2.477   2.371   9.258  1.8148  2.1303  0.5619
 6035SOL     OW29740   4.106   1.772   3.106 -0.1788 -0.2771 -0.3043
 6035SOL    HW129741   4.193   1.740   3.085  0.4998  0.9607  0.6194
 6035SOL    HW229742   4.121   1.855   3.152  0.8583 -0.4938 -0.2637
 6036SOL     OW29743   0.136   4.428   2.709  0.1736 -0.5252 -0.1500
 6036SOL    HW129744   0.045   4.439   2.737  0.7757  2.8460  0.4272
 6036SOL    HW229745   0.139   4.367   2.634  2.1100 -0.8934  0.2144
 6037SOL     OW29746   1.772   4.020   8.011  0.4856  0.3359  0.5304
 6037SOL    HW129747   1.687   4.001   7.972  2.4612 -3.2083 -2.0954
 6037SOL    HW229748   1.825   3.955   7.965  1.8549  0.9620  1.2079
 6038SOL     OW29749   3.523   3.677   2.274 -0.0263 -0.1021 -0.5351
 6038SOL    HW129750   3.552   3.715   2.357  1.6121  1.3359 -1.7740
 6038SOL    HW229751   3.470   3.749   2.239  0.5174 -0.5245 -2.2492
 6039SOL     OW29752   0.187   0.481   6.654 -0.0954  0.0043  0.5943
 6039SOL    HW129753   0.169   0.575   6.649 -0.0936 -0.0758 -1.0303
 6039SOL    HW229754   0.128   0.448   6.586 -0.9030 -0.2713  1.4424
 6040SOL     OW29755   1.003   0.791   4.712 -0.0342  0.2882 -0.9871
 6040SOL    HW129756   0.988   0.728   4.783  1.3967  1.3243  0.2353
 6040SOL    HW229757   0.991   0.733   4.637  2.5566  1.3883 -2.2547
 6041SOL     OW29758   3.693   4.509  15.899 -0.1262  0.2313  0.4033
 6041SOL    HW129759   3.671   4.546  15.985 -0.8231 -2.2822  1.3306
 6041SOL    HW229760   3.753   4.581  15.878  1.4212 -1.6636 -1.6594
 6042SOL     OW29761   3.430   0.650   4.767  0.2974 -0.4493 -0.3022
 6042SOL    HW129762   3.499   0.585   4.776  1.1284  0.0545 -3.0278
 6042SOL    HW229763   3.456   0.717   4.830  1.1037 -0.2756 -0.8165
 6043SOL     OW29764   0.139   1.859   9.064 -0.1033  0.4860 -0.1564
 6043SOL    HW129765   0.109   1.853   8.974  2.2239 -0.4003 -0.8669
 6043SOL    HW229766   0.059   1.870   9.115 -0.4139 -0.2893 -0.4782
 6044SOL     OW29767   4.098   1.859   9.753 -0.5509  0.5032 -0.2114
 6044SOL    HW129768   4.104   1.848   9.848 -3.2507 -0.2668 -0.1560
 6044SOL    HW229769   4.061   1.946   9.735 -0.9427 -0.1525 -2.6220
 6045SOL     OW29770   2.054   4.508   8.067 -0.0853 -0.1926  0.2774
 6045SOL    HW129771   2.149   4.498   8.055 -0.3564 -2.6316  0.2022
 6045SOL    HW229772   2.051   4.537   8.158  1.7801 -0.1345  0.3280
 6046SOL     OW29773   2.308   3.637   1.127 -0.1860 -0.2710  0.6403
 6046SOL    HW129774   2.386   3.671   1.083  0.0250 -0.7792  0.6183
 6046SOL    HW229775   2.342   3.596   1.207  1.2428 -0.3874 -0.0115
 6047SOL     OW29776   2.860   3.303   3.494  0.1447 -0.1488  0.2755
 6047SOL    HW129777   2.955   3.290   3.496  0.0132 -0.7713  2.2683
 6047SOL    HW229778   2.837   3.354   3.572  1.0680 -0.0926  0.5185
 6048SOL     OW29779   4.096   2.273   8.060  0.0869 -0.1710 -0.1907
 6048SOL    HW129780   4.132   2.247   8.144  2.1839  0.5202 -0.8751
 6048SOL    HW229781   4.005   2.298   8.076  0.0815 -0.2830 -0.0479
 6049SOL     OW29782   3.502   2.459   4.949 -0.5889 -0.2879  0.4693
 6049SOL    HW129783   3.517   2.539   4.999 -0.9360 -0.8876  1.5279
 6049SOL    HW229784   3.527   2.477   4.858  0.5407 -1.5334  0.5275
 6050SOL     OW29785   3.486   3.320  14.276 -0.8062 -0.1010 -0.1739
 6050SOL    HW129786   3.565   3.284  14.315  0.1285  0.1491 -1.8164
 6050SOL    HW229787   3.513   3.347  14.188  0.5849 -0.1665  0.2351
 6051SOL     OW29788   4.194   3.045   7.436  0.0430 -0.7655  0.1538
 6051SOL    HW129789   4.212   3.112   7.503 -1.8363  1.3808 -1.4938
 6051SOL    HW229790   4.213   3.077   7.348  1.3560 -1.5520  0.1601
 6052SOL     OW29791   2.266   3.349   7.024  0.3414 -0.3241 -0.9678
 6052SOL    HW129792   2.235   3.439   7.007 -2.4593 -1.1254 -0.2127
 6052SOL    HW229793   2.263   3.346   7.120  0.9975  1.6402 -0.8719
 6053SOL     OW29794   3.245   3.758  10.560 -0.1882 -0.2654 -0.2280
 6053SOL    HW129795   3.182   3.830  10.571  0.7974  0.5851 -0.1035
 6053SOL    HW229796   3.236   3.711  10.642 -0.0173 -2.1445 -1.2982
 6054SOL     OW29797   2.105   3.466   3.384 -0.9102  0.1666 -0.4996
 6054SOL    HW129798   2.060   3.382   3.385 -1.2044  0.3279  1.2117
 6054SOL    HW229799   2.042   3.521   3.338 -1.6888 -0.0833  0.2651
 6055SOL     OW29800   2.231   0.679  11.307 -0.2650  0.7252  0.6031
 6055SOL    HW129801   2.197   0.591  11.290 -0.2763  1.0181 -0.9594
 6055SOL    HW229802   2.153   0.730  11.328 -0.8294  0.9847 -2.0513
 6056SOL     OW29803   0.988   4.723   8.692  1.0548  0.0507  0.1084
 6056SOL    HW129804   1.007   0.003   8.785  0.0323  0.0188  0.3246
 6056SOL    HW229805   0.913   4.666   8.678  0.9740  0.0128  0.6975
 6057SOL     OW29806   2.354   2.501   7.563  0.0805  0.6065  0.4344
 6057SOL    HW129807   2.327   2.478   7.652 -0.9672 -2.3628 -0.6306
 6057SOL    HW229808   2.408   2.576   7.586  2.0996 -1.4042  2.1991
 6058SOL     OW29809   3.282   1.541  15.242 -0.0745 -0.4850  0.1540
 6058SOL    HW129810   3.188   1.543  15.260  0.3498  0.6010  2.2970
 6058SOL    HW229811   3.283   1.490  15.161  0.0109  0.4067 -0.4005
 6059SOL     OW29812   1.405   2.658   2.958  0.4845 -0.0827 -0.1398
 6059SOL    HW129813   1.452   2.626   2.881  1.0356 -0.0307  0.1689
 6059SOL    HW229814   1.478   2.704   3.001  1.1988 -1.0042 -0.3624
 6060SOL     OW29815   2.340   3.122  16.336 -0.1155 -0.7165  0.0011
 6060SOL    HW129816   2.317   3.214  16.344  0.2771 -0.4039 -2.3029
 6060SOL    HW229817   2.270   3.084  16.389  0.0140  1.8322  1.9955
 6061SOL     OW29818   3.723   2.246   8.675 -0.0142  0.7179 -0.2998
 6061SOL    HW129819   3.791   2.236   8.608  1.4448  0.5525  1.2239
 6061SOL    HW229820   3.736   2.163   8.721 -2.6831  0.8417  0.6707
 6062SOL     OW29821   1.376   2.280   1.830  0.5032 -0.1959 -0.3221
 6062SOL    HW129822   1.471   2.270   1.824  0.5727 -1.2041  2.6823
 6062SOL    HW229823   1.358   2.346   1.762 -1.6221 -2.8498 -2.3368
 6063SOL     OW29824   4.070   3.355   6.000 -0.3277 -0.2228  0.0046
 6063SOL    HW129825   4.086   3.445   6.030 -0.3419  0.1458 -1.0952
 6063SOL    HW229826   3.995   3.328   6.052 -1.6103  0.3846 -1.5486
 6064SOL     OW29827   0.416   0.877   2.615  0.4344  0.4036 -0.1028
 6064SOL    HW129828   0.417   0.808   2.681 -1.1484 -0.7972 -1.3124
 6064SOL    HW229829   0.323   0.865   2.591 -0.0201  1.6150  1.0898
 6065SOL     OW29830   4.648   0.427   9.187  0.0704 -0.1680 -0.4567
 6065SOL    HW129831   0.005   0.452   9.167  0.8298 -1.4474  1.3435
 6065SOL    HW229832   4.597   0.490   9.136 -1.5354  0.5991  2.0600
 6066SOL     OW29833   2.676   1.373  11.417 -0.3356 -0.2655  0.1253
 6066SOL    HW129834   2.635   1.457  11.439  2.4569  0.9832  0.5142
 6066SOL    HW229835   2.619   1.327  11.478 -0.7121 -0.9273 -0.7183
 6067SOL     OW29836   0.822   2.129   6.062  0.0172  0.0730 -0.3687
 6067SOL    HW129837   0.779   2.159   5.981 -0.9041  1.2330  0.5597
 6067SOL    HW229838   0.842   2.212   6.104  1.4125 -0.4329 -0.0539
 6068SOL     OW29839   0.426   1.293   0.133  0.4045  0.3177  0.3467
 6068SOL    HW129840   0.517   1.320   0.121 -0.6133  3.1241 -1.1356
 6068SOL    HW229841   0.431   1.259   0.223  0.8629 -0.2362  0.1104
 6069SOL     OW29842   1.853   4.680   2.334 -0.2060  0.4927 -0.0309
 6069SOL    HW129843   1.825   4.727   2.256  1.8910  2.7161  0.5535
 6069SOL    HW229844   1.795   4.604   2.335 -2.2474  2.0561 -0.0643
 6070SOL     OW29845   0.185   1.759   2.966 -0.6293 -0.4633 -0.3981
 6070SOL    HW129846   0.224   1.696   2.907  0.6037  0.2051 -0.3016
 6070SOL    HW229847   0.092   1.757   2.943 -0.6867 -0.0451 -0.2061
 6071SOL     OW29848   2.957   1.556   1.769  0.1738 -0.6597  0.0023
 6071SOL    HW129849   2.897   1.619   1.728 -0.6763 -2.5360 -1.6111
 6071SOL    HW229850   2.982   1.605   1.848 -2.6620  1.6034 -0.5026
 6072SOL     OW29851   4.068   1.084  12.975  0.2761 -0.0510  0.7893
 6072SOL    HW129852   4.055   1.014  13.038  0.3269 -0.5226  0.2707
 6072SOL    HW229853   4.153   1.118  13.004 -0.8980  1.9566  1.9209
 6073SOL     OW29854   4.025   2.556   3.723  0.5919  0.1222  0.3579
 6073SOL    HW129855   3.933   2.579   3.736  0.8370  2.0348 -1.1940
 6073SOL    HW229856   4.058   2.623   3.783 -1.4263  0.9504  0.5369
 6074SOL     OW29857   1.317   1.019  17.384  0.5789  0.0721  0.1334
 6074SOL    HW129858   1.362   0.983  17.307 -0.2221  0.3726 -0.4687
 6074SOL    HW229859   1.355   1.107  17.379  0.4070  0.0947 -0.6792
 6075SOL     OW29860   3.345   4.670  16.658 -0.0004 -0.2078  0.5433
 6075SOL    HW129861   3.270   4.656  16.716 -0.8064  1.5004 -0.0734
 6075SOL    HW229862   3.308   4.705  16.577  0.7016 -1.1362 -0.1814
 6076SOL     OW29863   4.259   1.812   4.441 -0.0282 -0.2072 -0.6314
 6076SOL    HW129864   4.212   1.729   4.429 -0.4648 -0.2122  1.1067
 6076SOL    HW229865   4.332   1.779   4.493  0.7828  1.0120 -1.0051
 6077SOL     OW29866   0.232   1.141   5.050 -0.1800  0.0214 -0.6682
 6077SOL    HW129867   0.307   1.134   4.992 -0.2981 -0.5857 -0.7431
 6077SOL    HW229868   0.276   1.148   5.135 -1.8823 -1.4266  0.3229
 6078SOL     OW29869   1.226   1.333   2.691 -0.0179 -0.1295  0.4917
 6078SOL    HW129870   1.265   1.331   2.778  0.5836  0.3595  0.2252
 6078SOL    HW229871   1.227   1.428   2.688 -1.2275 -0.1217 -0.0311
 6079SOL     OW29872   3.233   2.494  14.532  0.2154  0.1130  0.2791
 6079SOL    HW129873   3.259   2.571  14.582 -1.2248  0.6618  0.1679
 6079SOL    HW229874   3.288   2.425  14.570 -0.8273 -0.3403  0.9331
 6080SOL     OW29875   0.177   2.091   4.666 -0.5798 -0.0724 -0.1737
 6080SOL    HW129876   0.249   2.099   4.728  0.9230 -2.5546 -1.6087
 6080SOL    HW229877   0.099   2.067   4.716  0.4004  2.1106  2.3875
 6081SOL     OW29878   0.563   0.775   7.741  0.0154  0.2000 -0.9688
 6081SOL    HW129879   0.656   0.778   7.719  0.3953  0.3460  0.6114
 6081SOL    HW229880   0.555   0.742   7.831  0.5576 -1.1088 -1.4009
 6082SOL     OW29881   0.633   3.054   5.150 -0.5419 -0.2016  0.3433
 6082SOL    HW129882   0.612   3.049   5.056  0.8854  0.4785 -0.0152
 6082SOL    HW229883   0.547   3.067   5.189 -1.5725 -0.8304 -1.6840
 6083SOL     OW29884   0.001   0.676   5.145 -1.3582  0.0155 -0.3886
 6083SOL    HW129885   4.689   0.751   5.181 -0.6182  0.8998 -1.2731
 6083SOL    HW229886   0.021   0.705   5.056 -2.2374 -1.5356 -1.1043
 6084SOL     OW29887   3.014   2.039   5.150  0.3985  0.1621  0.1995
 6084SOL    HW129888   3.001   1.944   5.143  1.2482  0.2387 -2.5884
 6084SOL    HW229889   2.923   2.066   5.138  0.2109 -0.7618 -0.4790
 6085SOL     OW29890   3.770   1.996  13.483  0.4373 -0.0820  0.7377
 6085SOL    HW129891   3.793   2.084  13.512  1.0186  0.5472 -1.6318
 6085SOL    HW229892   3.679   2.013  13.508  0.1377 -0.5648 -0.0165
 6086SOL     OW29893   2.390   3.748   4.577  0.5425 -0.3344 -0.3050
 6086SOL    HW129894   2.428   3.802   4.507 -1.3356 -0.2114 -1.2386
 6086SOL    HW229895   2.443   3.803   4.635  0.6851 -0.8072  0.0120
 6087SOL     OW29896   2.140   3.713  12.710 -0.6327 -0.7578  0.5271
 6087SOL    HW129897   2.230   3.690  12.729  0.7881  4.0101 -0.2428
 6087SOL    HW229898   2.154   3.751  12.623  1.4914  1.9181  2.0148
 6088SOL     OW29899   1.175   0.550   7.686  0.0886 -0.0500 -0.1170
 6088SOL    HW129900   1.213   0.477   7.736  1.2706  0.7410  0.1233
 6088SOL    HW229901   1.090   0.551   7.731 -0.6818  0.2264 -1.5783
 6089SOL     OW29902   2.641   0.060   4.017  0.3870 -0.0663 -0.3239
 6089SOL    HW129903   2.577   0.128   3.993 -0.6930 -1.3110 -0.9546
 6089SOL    HW229904   2.704   0.076   3.946  0.0287  0.5322 -0.5086
 6090SOL     OW29905   4.499   3.127   7.504  0.1339 -0.2104 -0.1286
 6090SOL    HW129906   4.472   3.218   7.493 -3.1289 -1.0388  1.0968
 6090SOL    HW229907   4.561   3.115   7.432 -0.2334 -1.5883 -0.2174
 6091SOL     OW29908   0.599   1.138  10.393 -0.2871  0.4791  0.0357
 6091SOL    HW129909   0.642   1.087  10.462  1.1527  1.3161 -0.2276
 6091SOL    HW229910   0.624   1.100  10.309  0.7831  2.0072 -0.3424
 6092SOL     OW29911   0.589   4.331   4.633  0.4881 -0.1572 -0.4424
 6092SOL    HW129912   0.599   4.283   4.550 -0.4329 -0.8282 -0.1570
 6092SOL    HW229913   0.521   4.392   4.606  0.2535 -0.4658 -0.5504
 6093SOL     OW29914   4.208   2.232   4.336  0.0364 -0.2195 -0.2272
 6093SOL    HW129915   4.160   2.230   4.253 -3.1191 -1.2181  1.6511
 6093SOL    HW229916   4.299   2.252   4.311  0.0247 -0.8289 -0.7530
 6094SOL     OW29917   2.576   2.952   8.803  0.3256 -0.7647 -0.2049
 6094SOL    HW129918   2.626   3.034   8.801  0.9877 -1.1764 -0.4890
 6094SOL    HW229919   2.526   2.976   8.725  1.9042  1.1508 -0.6315
 6095SOL     OW29920   2.779   3.262   7.624 -0.2796 -0.1485 -0.6265
 6095SOL    HW129921   2.757   3.322   7.553 -0.1190 -0.8772 -1.2932
 6095SOL    HW229922   2.723   3.185   7.613  0.4263 -0.6220 -0.9620
 6096SOL     OW29923   2.982   2.925   5.057  0.3619  0.1383 -0.9322
 6096SOL    HW129924   2.962   2.996   4.996  0.5028 -1.2333 -2.5581
 6096SOL    HW229925   2.989   2.849   4.999  0.7642 -2.5867  2.6563
 6097SOL     OW29926   0.872   0.140  15.795  0.4292 -0.1684  0.3324
 6097SOL    HW129927   0.803   0.103  15.740 -0.3825 -2.1554  2.6732
 6097SOL    HW229928   0.942   0.137  15.729 -2.0326  4.3689 -2.4569
 6098SOL     OW29929   2.836   1.972  12.797 -0.2136 -0.1195 -0.4375
 6098SOL    HW129930   2.783   1.895  12.819 -0.8985  0.0525 -1.4686
 6098SOL    HW229931   2.883   1.946  12.718  0.6084 -0.2738  0.1048
 6099SOL     OW29932   3.054   3.882   4.988  0.7125  0.3026  0.2412
 6099SOL    HW129933   3.106   3.907   5.065 -0.4270  0.0011  1.1065
 6099SOL    HW229934   3.079   3.790   4.984 -1.9187 -0.3144 -2.0225
 6100SOL     OW29935   3.751   2.551   4.839 -0.0781  0.0807 -0.0732
 6100SOL    HW129936   3.767   2.580   4.928 -3.3866 -1.4381  1.0109
 6100SOL    HW229937   3.828   2.510   4.799  0.5468 -1.4315  2.6652
 6101SOL     OW29938   2.500   3.890   3.079  0.1857  0.4372  0.2155
 6101SOL    HW129939   2.472   3.884   3.170 -0.2160  2.1805  0.2033
 6101SOL    HW229940   2.584   3.848   3.092  0.5149  1.2793  0.7602
 6102SOL     OW29941   4.080   2.730   3.499 -0.4253  0.1848  0.0110
 6102SOL    HW129942   4.042   2.697   3.580  1.1864  0.1481  0.7338
 6102SOL    HW229943   3.995   2.735   3.455  0.8671  0.6616 -2.4375
 6103SOL     OW29944   1.620   3.072   3.411  0.1184 -0.4699 -0.8231
 6103SOL    HW129945   1.564   3.101   3.338  0.5129 -1.9542 -1.7134
 6103SOL    HW229946   1.559   3.090   3.482 -0.8124 -3.3634 -0.9022
 6104SOL     OW29947   4.276   3.657   1.429  0.5362 -0.4194 -0.3758
 6104SOL    HW129948   4.188   3.693   1.438  0.7999  0.1190  0.0796
 6104SOL    HW229949   4.295   3.654   1.523  1.5926 -1.7284 -0.6272
 6105SOL     OW29950   1.333   3.622  14.723 -0.7605 -0.3806 -0.0065
 6105SOL    HW129951   1.306   3.609  14.814 -0.3745  1.8613  0.4446
 6105SOL    HW229952   1.280   3.699  14.702 -1.1531 -0.2588  1.4726
 6106SOL     OW29953   3.266   2.671   6.038 -0.4173  0.1453 -0.6421
 6106SOL    HW129954   3.324   2.635   6.106  0.6004 -1.1377 -2.2081
 6106SOL    HW229955   3.194   2.695   6.097  1.8458  1.8858  1.4487
 6107SOL     OW29956   4.089   1.421  16.307  0.0728  0.0567 -0.1766
 6107SOL    HW129957   4.044   1.505  16.299 -0.1786 -0.0307  0.3403
 6107SOL    HW229958   4.175   1.445  16.343  0.4783  0.3412 -1.3460
 6108SOL     OW29959   0.223   3.591   2.603 -0.4997  0.4034 -0.3410
 6108SOL    HW129960   0.128   3.580   2.608 -0.2147 -1.6742  0.3644
 6108SOL    HW229961   0.258   3.506   2.629 -0.7580 -0.1527 -1.8023
 6109SOL     OW29962   4.248   3.618   9.593 -0.2157 -0.0399  0.5392
 6109SOL    HW129963   4.237   3.552   9.662 -0.5393 -0.4601  0.0840
 6109SOL    HW229964   4.192   3.589   9.521 -0.2228  1.1938  0.0564
 6110SOL     OW29965   0.520   1.178   7.886 -0.6964 -0.2550 -0.2596
 6110SOL    HW129966   0.564   1.130   7.817  0.5954  1.7663 -0.8276
 6110SOL    HW229967   0.493   1.257   7.840 -0.7085 -0.3057 -0.3392
 6111SOL     OW29968   0.234   0.315   5.446 -0.2369  0.2867 -0.6322
 6111SOL    HW129969   0.246   0.243   5.507  2.4888  2.5098  1.4563
 6111SOL    HW229970   0.148   0.300   5.406  1.0216 -1.3791 -2.7814
 6112SOL     OW29971   0.254   1.162  14.137 -0.4216 -0.3495 -0.2266
 6112SOL    HW129972   0.165   1.157  14.171 -0.3101  2.4713  0.4929
 6112SOL    HW229973   0.275   1.250  14.168  0.6963 -0.9669  0.7855
 6113SOL     OW29974   1.396   0.051  15.270 -0.0037 -0.7255 -0.1099
 6113SOL    HW129975   1.367   4.697  15.246 -0.3077 -0.9859  1.1770
 6113SOL    HW229976   1.490   0.045  15.283 -0.1114 -1.2219  0.4358
 6114SOL     OW29977   3.487   0.817   7.595 -0.8322 -0.1376  0.1711
 6114SOL    HW129978   3.398   0.838   7.622 -0.1227  1.3797  1.2798
 6114SOL    HW229979   3.465   0.724   7.586 -1.5577  0.1542 -1.1585
 6115SOL     OW29980   2.356   2.569   8.271 -0.0049 -0.0803 -0.1393
 6115SOL    HW129981   2.399   2.651   8.248  0.6687 -0.7542 -1.2465
 6115SOL    HW229982   2.263   2.591   8.269  0.1388  0.5289 -0.1292
 6116SOL     OW29983   0.282   2.145   2.869 -0.0518 -0.0831  0.3887
 6116SOL    HW129984   0.248   2.218   2.921  1.5662 -0.2482  1.6850
 6116SOL    HW229985   0.203   2.097   2.845  1.0077 -1.0951 -1.0844
 6117SOL     OW29986   1.353   1.207  12.121  0.4613 -0.7539 -0.2155
 6117SOL    HW129987   1.266   1.184  12.086 -0.0652  0.4736  0.2723
 6117SOL    HW229988   1.412   1.160  12.063  0.5871  0.0276 -0.7241
 6118SOL     OW29989   1.137   0.546   8.083  0.0366  0.6196  0.1713
 6118SOL    HW129990   1.226   0.552   8.048  0.9501 -1.3556  2.1917
 6118SOL    HW229991   1.131   0.628   8.132 -0.0128  0.5322  0.3084
 6119SOL     OW29992   1.338   0.708   1.915 -0.2588  0.2830  0.2882
 6119SOL    HW129993   1.354   0.720   1.822 -2.9859  2.4538  0.0873
 6119SOL    HW229994   1.261   0.652   1.907  0.8988 -1.0530 -1.3797
 6120SOL     OW29995   4.047   3.961   7.370 -0.2911  0.6644  0.5354
 6120SOL    HW129996   3.985   3.936   7.439 -0.9754 -2.1785 -1.1380
 6120SOL    HW229997   4.102   4.025   7.416  0.9987 -0.6537  0.8096
 6121SOL     OW29998   4.019   2.900  11.792  0.3977  0.4441  0.3582
 6121SOL    HW129999   3.992   2.859  11.875 -0.1256 -1.1270 -0.5713
 6121SOL    HW230000   4.071   2.973  11.825  0.1907  0.3875  0.8080
 6122SOL     OW30001   1.613   3.136   5.600 -0.2929 -0.1326  0.1167
 6122SOL    HW130002   1.568   3.105   5.522  0.5618  0.6059 -0.6738
 6122SOL    HW230003   1.547   3.183   5.652  0.4182  0.0671  0.8436
 6123SOL     OW30004   4.039   4.711   6.726  0.1793  0.1029 -0.7055
 6123SOL    HW130005   4.038   4.626   6.769 -2.0492  1.2624  1.5733
 6123SOL    HW230006   4.096   0.027   6.783 -0.1926  0.3921 -0.5825
 6124SOL     OW30007   3.583   2.791  16.175  0.7765  0.1306 -0.2005
 6124SOL    HW130008   3.604   2.882  16.197  0.2626  0.0016  0.8592
 6124SOL    HW230009   3.504   2.826  16.135  1.2819  1.4038 -0.0807
 6125SOL     OW30010   4.125   2.960   5.185  0.1434 -0.0360 -0.4549
 6125SOL    HW130011   4.061   3.012   5.135 -0.2760 -0.3890 -0.2827
 6125SOL    HW230012   4.077   2.923   5.259 -1.3605  0.4656 -1.1792
 6126SOL     OW30013   2.744   1.255   8.937 -0.3521  0.2143 -0.2117
 6126SOL    HW130014   2.796   1.182   8.970 -0.8136  1.2176  2.7252
 6126SOL    HW230015   2.733   1.242   8.842  0.6389 -0.1212 -0.2888
 6127SOL     OW30016   2.407   2.013   2.700  0.4349  0.4374  0.1089
 6127SOL    HW130017   2.395   2.098   2.658  0.1328  0.2253 -0.2357
 6127SOL    HW230018   2.494   1.979   2.678  0.5364  0.7337  0.0592
 6128SOL     OW30019   2.515   3.852   8.430  0.1915  0.5116 -0.4286
 6128SOL    HW130020   2.513   3.944   8.403 -0.9928  1.2016  2.0437
 6128SOL    HW230021   2.423   3.850   8.456  0.2401 -1.7218 -0.4461
 6129SOL     OW30022   0.424   1.873   3.496  0.4296 -0.3706  0.0106
 6129SOL    HW130023   0.372   1.953   3.502  2.7599  1.2067 -1.0467
 6129SOL    HW230024   0.353   1.811   3.480 -0.0368  0.3209 -0.5827
 6130SOL     OW30025   2.146   0.173   1.580 -0.0365  0.6349  0.2173
 6130SOL    HW130026   2.239   0.154   1.591 -0.5391 -1.2019  1.3578
 6130SOL    HW230027   2.129   0.230   1.655 -0.4410  1.9844 -0.8974
 6131SOL     OW30028   0.898   0.007   6.255  0.5163  0.5152 -0.1723
 6131SOL    HW130029   0.955   0.072   6.295  2.0431  0.3184 -1.9946
 6131SOL    HW230030   0.965   4.686   6.212  1.2091  0.4667  0.9780
 6132SOL     OW30031   3.300   1.874  15.686  0.0391  0.2944  0.0749
 6132SOL    HW130032   3.347   1.920  15.617  1.4466 -2.6454 -0.8965
 6132SOL    HW230033   3.209   1.880  15.658  0.0240 -2.2050 -0.4252
 6133SOL     OW30034   4.406   3.445   3.923 -0.0207  0.7947  0.0266
 6133SOL    HW130035   4.388   3.539   3.921  0.2562  0.8156 -1.3964
 6133SOL    HW230036   4.323   3.398   3.912  1.2275 -1.4285  0.0088
 6134SOL     OW30037   0.811   3.442   4.052  0.7998 -0.5330 -0.0976
 6134SOL    HW130038   0.867   3.515   4.078 -1.1986  1.2785 -0.8532
 6134SOL    HW230039   0.822   3.451   3.957  1.2994  0.2771  0.0364
 6135SOL     OW30040   1.314   1.040   6.452  0.8862  0.3057 -0.2865
 6135SOL    HW130041   1.378   1.038   6.523  1.3150  2.1056 -0.6292
 6135SOL    HW230042   1.346   0.954   6.424  0.7853  0.2275 -0.1608
 6136SOL     OW30043   1.383   2.524   6.461  0.1519 -0.3379 -0.1956
 6136SOL    HW130044   1.298   2.561   6.487 -0.3553 -1.6886  0.0832
 6136SOL    HW230045   1.404   2.583   6.388 -0.0785  2.5864  2.0772
 6137SOL     OW30046   1.546   3.666   5.782  0.0175  0.7453  0.0387
 6137SOL    HW130047   1.483   3.734   5.754 -0.0753  1.2481  1.4877
 6137SOL    HW230048   1.493   3.624   5.850 -0.6137 -0.6580 -1.3097
 6138SOL     OW30049   2.123   1.854  13.826  0.9116  0.3230  0.2972
 6138SOL    HW130050   2.162   1.777  13.784 -3.2994 -2.3716  1.3437
 6138SOL    HW230051   2.131   1.826  13.917 -0.2442 -0.7315  0.0748
 6139SOL     OW30052   1.373   1.480   8.402 -0.7026  0.3269  0.1608
 6139SOL    HW130053   1.384   1.569   8.371  1.2376  0.3027  0.7762
 6139SOL    HW230054   1.347   1.505   8.491 -0.0866  1.0205  0.1408
 6140SOL     OW30055   2.904   3.101   1.743  0.5438  0.1602 -0.2799
 6140SOL    HW130056   2.932   3.053   1.821  1.2875 -1.0902 -1.3347
 6140SOL    HW230057   2.935   3.054   1.666 -1.1592  0.4015 -1.1139
 6141SOL     OW30058   4.539   2.941   5.827 -0.2637  0.5383  0.3174
 6141SOL    HW130059   4.485   2.863   5.845 -0.2029  0.2581 -0.7279
 6141SOL    HW230060   4.489   2.979   5.755 -0.5176 -0.8875 -0.2668
 6142SOL     OW30061   4.248   4.576   5.618 -0.1987 -0.1810  0.1448
 6142SOL    HW130062   4.205   4.655   5.584 -0.0083  0.0220  0.3810
 6142SOL    HW230063   4.203   4.513   5.562 -0.4296  1.1311 -1.1699
 6143SOL     OW30064   4.281   1.504   6.948 -0.2996 -0.0676  0.3687
 6143SOL    HW130065   4.287   1.518   7.042  0.2878  0.4235  0.2621
 6143SOL    HW230066   4.215   1.571   6.930 -1.6116 -0.6368  3.2141
 6144SOL     OW30067   1.537   2.223   9.545 -0.0681  0.3391 -0.1907
 6144SOL    HW130068   1.552   2.275   9.624  2.0156  0.3342 -0.5898
 6144SOL    HW230069   1.515   2.135   9.579  1.6531  0.9281  2.4543
 6145SOL     OW30070   0.427   3.254   4.256 -0.3967 -0.2286 -0.1718
 6145SOL    HW130071   0.522   3.260   4.258 -0.2741 -2.1844  0.4899
 6145SOL    HW230072   0.415   3.230   4.348 -1.7190  0.2532 -0.2145
 6146SOL     OW30073   0.593   2.620   9.314  0.3041 -0.4833  0.3595
 6146SOL    HW130074   0.670   2.670   9.342 -0.1550  1.8836 -2.5768
 6146SOL    HW230075   0.637   2.553   9.263 -1.2684 -1.4230  0.2438
 6147SOL     OW30076   2.103   1.377   3.657  0.5233 -0.2804 -0.2740
 6147SOL    HW130077   2.113   1.295   3.609  1.9816  0.1728 -0.7272
 6147SOL    HW230078   2.094   1.439   3.585  0.7228  1.8690  1.5179
 6148SOL     OW30079   3.119   1.855   5.671 -0.0575  0.3525  0.0468
 6148SOL    HW130080   3.206   1.892   5.684 -0.2112 -0.2688  2.8904
 6148SOL    HW230081   3.077   1.897   5.746 -1.0433 -2.3462  1.0179
 6149SOL     OW30082   0.953   3.142   8.136  0.5785  0.0039  0.4635
 6149SOL    HW130083   1.041   3.152   8.170  0.8163 -1.4825  0.2602
 6149SOL    HW230084   0.904   3.145   8.218 -1.7452  0.3879 -0.9187
 6150SOL     OW30085   0.572   3.012   2.044  1.0393  0.1731  0.3687
 6150SOL    HW130086   0.516   2.991   2.118  1.4330 -0.5564  0.4655
 6150SOL    HW230087   0.556   3.104   2.022 -0.2471  0.1511  1.2391
 6151SOL     OW30088   2.330   0.487   3.053  0.3539  0.7287  0.0237
 6151SOL    HW130089   2.364   0.505   2.965 -3.0950  2.1385 -1.0449
 6151SOL    HW230090   2.414   0.476   3.097 -0.2180 -2.5358  0.3260
 6152SOL     OW30091   2.644   0.827  13.313  0.3278 -0.2765  0.4944
 6152SOL    HW130092   2.650   0.832  13.409  0.0768  3.0067  0.3417
 6152SOL    HW230093   2.628   0.918  13.289  0.3470 -0.5145 -0.3919
 6153SOL     OW30094   3.895   2.080   3.664 -0.0388  0.3742  0.1266
 6153SOL    HW130095   3.890   2.018   3.591 -2.0966  2.5949 -1.6129
 6153SOL    HW230096   3.919   2.020   3.734 -1.2680 -0.5350 -0.2344
 6154SOL     OW30097   2.568   3.156   6.671  0.0315  0.2331  0.2215
 6154SOL    HW130098   2.478   3.182   6.650  0.7673 -0.4252 -3.7365
 6154SOL    HW230099   2.552   3.063   6.657  2.9244 -0.0151 -1.5386
 6155SOL     OW30100   3.253   3.246   3.866 -0.0952  0.1092  0.3705
 6155SOL    HW130101   3.230   3.201   3.947 -0.5025  0.0447  0.2198
 6155SOL    HW230102   3.320   3.186   3.835 -1.2889 -1.0250 -0.0502
 6156SOL     OW30103   2.932   3.300   5.451 -0.0474  0.3372  0.2238
 6156SOL    HW130104   2.876   3.329   5.523 -1.2347  1.9828 -1.3665
 6156SOL    HW230105   3.001   3.365   5.463  1.8226 -1.5351 -0.4683
 6157SOL     OW30106   0.808   4.359  15.925  0.0101 -0.0302 -0.2394
 6157SOL    HW130107   0.802   4.308  16.005 -0.0213 -1.4116 -1.1196
 6157SOL    HW230108   0.868   4.427  15.956  0.2579 -0.0094 -0.7613
 6158SOL     OW30109   0.483   3.722   4.329 -0.2812  0.0106 -0.0079
 6158SOL    HW130110   0.508   3.665   4.256 -2.8131 -0.9623 -0.1237
 6158SOL    HW230111   0.394   3.694   4.349 -0.1094  0.6615  1.6218
 6159SOL     OW30112   3.733   4.137   6.309  0.0511  0.0976  0.6221
 6159SOL    HW130113   3.794   4.101   6.245  0.7433 -1.1465  2.0065
 6159SOL    HW230114   3.760   4.228   6.294  0.0125  0.1636  0.9607
 6160SOL     OW30115   2.527   3.044   5.893  0.4048 -0.4632  0.0942
 6160SOL    HW130116   2.511   2.984   5.821  1.8266  0.8210 -1.2766
 6160SOL    HW230117   2.459   3.017   5.955  1.3767  0.2808  1.4883
 6161SOL     OW30118   1.176   2.106   0.706  0.0045 -0.3045 -0.1662
 6161SOL    HW130119   1.170   2.059   0.623  0.4712 -0.6395 -0.0087
 6161SOL    HW230120   1.115   2.178   0.689  0.0269  0.0893  1.3902
 6162SOL     OW30121   1.864   4.253   1.919  0.8380  0.3081  0.3175
 6162SOL    HW130122   1.928   4.322   1.906  1.7122 -0.5086  0.2627
 6162SOL    HW230123   1.800   4.291   1.979  1.0545  0.7275  0.2795
 6163SOL     OW30124   1.384   0.754   7.344  0.5376  0.1388 -0.6721
 6163SOL    HW130125   1.302   0.784   7.383 -0.2842 -0.6921 -1.7458
 6163SOL    HW230126   1.430   0.837   7.355  1.0930  0.1833 -3.1930
 6164SOL     OW30127   1.903   1.498   8.956 -0.1537 -0.1609  0.7513
 6164SOL    HW130128   1.986   1.450   8.954  0.7253  1.4579 -1.1973
 6164SOL    HW230129   1.893   1.505   8.861 -2.5634  1.2230  1.0928
 6165SOL     OW30130   1.833   2.155  11.531  0.5055 -0.0491  0.0298
 6165SOL    HW130131   1.740   2.174  11.522  0.9045  0.9428 -1.9708
 6165SOL    HW230132   1.850   2.090  11.463  2.0446  0.7853 -0.3856
 6166SOL     OW30133   2.506   3.152   3.014 -0.0635 -0.7943  0.0048
 6166SOL    HW130134   2.519   3.241   2.982 -1.3755  0.1346  2.0569
 6166SOL    HW230135   2.520   3.100   2.935 -1.6764 -0.6375 -0.3796
 6167SOL     OW30136   4.494   1.434   5.709 -0.0781 -0.2011 -0.2127
 6167SOL    HW130137   4.457   1.522   5.702 -1.6360 -0.9567 -1.5072
 6167SOL    HW230138   4.410   1.388   5.705 -0.4190  0.2140  1.9136
 6168SOL     OW30139   3.217   3.659  12.246  0.0067 -0.0125  0.1694
 6168SOL    HW130140   3.211   3.611  12.329  4.5589  0.4208  0.7393
 6168SOL    HW230141   3.138   3.712  12.252 -0.5664 -0.5691 -2.5433
 6169SOL     OW30142   1.948   2.933   8.580 -0.2901 -0.5955  0.5237
 6169SOL    HW130143   1.912   2.861   8.528  1.2310 -0.5058 -0.6690
 6169SOL    HW230144   1.897   3.007   8.549 -2.4288 -2.1892  0.2257
 6170SOL     OW30145   0.600   3.119   2.891  0.0737 -0.0438 -0.5272
 6170SOL    HW130146   0.681   3.127   2.841  0.4851  1.6966  0.4162
 6170SOL    HW230147   0.553   3.200   2.871  1.1853  0.6497 -0.3273
 6171SOL     OW30148   2.919   1.039   2.944  0.5699  0.1602  0.1544
 6171SOL    HW130149   2.948   1.114   2.997  1.5499 -0.0578 -0.0832
 6171SOL    HW230150   2.902   0.977   3.015 -1.4752  0.5341  0.0063
 6172SOL     OW30151   1.145   1.712   8.118  0.7603 -0.2353  0.4607
 6172SOL    HW130152   1.137   1.758   8.035 -1.1436  1.1815  1.4007
 6172SOL    HW230153   1.159   1.625   8.081  0.4447 -0.4301  0.7935
 6173SOL     OW30154   3.595   0.295   1.015 -0.0165  0.3374  0.2515
 6173SOL    HW130155   3.522   0.238   0.993  0.8146 -0.9502  0.8323
 6173SOL    HW230156   3.542   0.374   1.003 -0.3574  0.3774  2.0790
 6174SOL     OW30157   0.990   3.341   7.358  0.1298 -0.0940 -0.2072
 6174SOL    HW130158   0.901   3.374   7.345 -0.5943 -1.9598 -0.0367
 6174SOL    HW230159   1.000   3.261   7.306 -2.0901 -0.2689 -0.3730
 6175SOL     OW30160   0.471   1.080   2.786 -0.3897  0.0980  0.0872
 6175SOL    HW130161   0.441   1.016   2.721 -2.5718 -1.0221  2.2120
 6175SOL    HW230162   0.399   1.079   2.848 -0.1324  3.5345  0.4760
 6176SOL     OW30163   4.654   4.427  14.859 -0.1868  0.3767  0.3387
 6176SOL    HW130164   4.561   4.416  14.842 -0.3427  0.9196  0.8495
 6176SOL    HW230165   4.638   4.489  14.930 -0.9892 -0.7745  1.1545
 6177SOL     OW30166   2.804   3.748   2.326 -0.0054  0.3233 -0.5574
 6177SOL    HW130167   2.874   3.740   2.261 -0.5292  1.2818 -1.2474
 6177SOL    HW230168   2.826   3.835   2.360 -2.1346  1.6786 -2.6153
 6178SOL     OW30169   0.658   4.697  11.183  0.0686 -0.1186 -0.6011
 6178SOL    HW130170   0.716   0.038  11.197  1.7740 -1.1189 -2.3715
 6178SOL    HW230171   0.574   4.733  11.211  1.9846  3.7479  0.2364
 6179SOL     OW30172   0.498   0.427   3.998 -0.2112  0.1578 -0.4598
 6179SOL    HW130173   0.525   0.347   4.043  1.4259  1.5952  1.0900
 6179SOL    HW230174   0.561   0.427   3.925  1.0224 -0.5307  0.6088
 6180SOL     OW30175   1.106   1.266  12.311  0.0158  0.3571  0.1051
 6180SOL    HW130176   1.091   1.238  12.401 -1.0975  3.2055  0.8125
 6180SOL    HW230177   1.097   1.181  12.266  3.2239  0.6541 -1.0552
 6181SOL     OW30178   2.492   3.426   3.297  0.3098 -0.1399  0.0170
 6181SOL    HW130179   2.563   3.384   3.249  0.6256  0.9313 -0.4435
 6181SOL    HW230180   2.497   3.368   3.373  0.5688  0.4934  0.4800
 6182SOL     OW30181   1.088   3.797   8.124 -0.1631  0.2630  0.1936
 6182SOL    HW130182   1.170   3.841   8.145  0.0090  0.1502 -0.2467
 6182SOL    HW230183   1.103   3.810   8.030 -0.0119  0.4342  0.2412
 6183SOL     OW30184   1.007   2.263  13.032 -0.6065 -0.4873 -0.0404
 6183SOL    HW130185   1.012   2.329  13.101 -1.4002  0.4895 -0.9141
 6183SOL    HW230186   0.913   2.249  13.026 -0.1565 -3.8182  0.4616
 6184SOL     OW30187   0.126   0.929  10.602 -0.3256  0.2201 -0.0022
 6184SOL    HW130188   0.046   0.966  10.565  0.1856  0.8211 -0.4904
 6184SOL    HW230189   0.095   0.859  10.660  1.5774 -0.6222 -0.0071
 6185SOL     OW30190   4.643   2.579   8.104  0.2489 -0.0304  0.0600
 6185SOL    HW130191   4.607   2.667   8.113 -0.3664 -0.3759  0.9452
 6185SOL    HW230192   4.583   2.532   8.047  0.0487 -2.2578  2.1043
 6186SOL     OW30193   4.662   3.561  12.437 -0.0965  0.0027 -0.4689
 6186SOL    HW130194   4.632   3.474  12.413  0.5053 -0.4618  0.4560
 6186SOL    HW230195   0.016   3.568  12.400 -0.5337 -1.9013 -1.8644
 6187SOL     OW30196   0.608   1.210   5.414 -0.2759  0.0633 -0.9102
 6187SOL    HW130197   0.592   1.120   5.442  4.1438 -0.3368  0.3979
 6187SOL    HW230198   0.541   1.228   5.349 -0.8884  0.6923 -0.1069
 6188SOL     OW30199   2.395   3.532   2.557  0.3773 -0.4498  0.1951
 6188SOL    HW130200   2.475   3.585   2.555 -0.4807  0.7988 -1.0239
 6188SOL    HW230201   2.440   3.454   2.524 -3.0490 -2.6483  0.7185
 6189SOL     OW30202   4.722   3.414   2.673  0.4525 -0.3186 -0.2789
 6189SOL    HW130203   0.015   3.388   2.761  0.5241  0.0516 -0.1944
 6189SOL    HW230204   4.662   3.343   2.648 -1.5090  1.9841 -2.1804
 6190SOL     OW30205   4.703   1.712   1.345 -0.5377 -0.4083 -0.3190
 6190SOL    HW130206   4.730   1.657   1.419  1.8141  0.0864 -0.8389
 6190SOL    HW230207   4.611   1.689   1.329 -0.0469 -2.9351  0.4378
 6191SOL     OW30208   1.269   1.102   7.748  0.7726 -0.2622  0.1142
 6191SOL    HW130209   1.343   1.088   7.690  0.5110  0.3223 -0.3715
 6191SOL    HW230210   1.257   1.016   7.788  0.3109 -0.5379 -0.6192
 6192SOL     OW30211   3.189   3.450   5.162  0.1637  0.4329  0.3447
 6192SOL    HW130212   3.115   3.392   5.179 -1.9378  3.0557  0.1605
 6192SOL    HW230213   3.254   3.388   5.196 -1.1511 -0.6482  0.8660
 6193SOL     OW30214   0.953   3.582  15.192 -0.1405 -0.0420  0.1544
 6193SOL    HW130215   0.951   3.504  15.137  1.9762  1.3468 -1.8597
 6193SOL    HW230216   1.048   3.595  15.197  0.0077 -1.0194 -0.2127
 6194SOL     OW30217   4.503   4.571  14.080 -0.1145 -0.2352 -0.0502
 6194SOL    HW130218   4.454   4.621  14.015 -1.4389 -2.5418 -0.8172
 6194SOL    HW230219   4.575   4.632  14.098 -0.5004  0.7608 -1.8097
 6195SOL     OW30220   3.673   2.285  11.187 -0.4125 -0.2068  0.0482
 6195SOL    HW130221   3.621   2.219  11.232  1.1921  0.3870  2.7025
 6195SOL    HW230222   3.715   2.333  11.258 -0.9893  1.2983 -0.6265
 6196SOL     OW30223   1.838   2.605   2.778 -0.3194  0.0359  0.3426
 6196SOL    HW130224   1.824   2.574   2.868  2.3924 -1.8803  0.0838
 6196SOL    HW230225   1.774   2.676   2.768 -0.1205  0.0554 -0.7426
 6197SOL     OW30226   4.554   1.097   2.082  0.0464  0.0988 -0.5104
 6197SOL    HW130227   4.566   1.141   1.998 -0.0934 -0.9777 -1.0884
 6197SOL    HW230228   4.643   1.084   2.115 -0.2823 -0.2567  0.2410
 6198SOL     OW30229   3.865   0.932   3.501 -0.1212  0.2663  0.3362
 6198SOL    HW130230   3.894   0.978   3.422 -0.2368  0.2213  0.2670
 6198SOL    HW230231   3.881   0.842   3.473 -0.1117  0.3567  0.0554
 6199SOL     OW30232   3.697   0.196  17.531 -0.0457  1.0432 -0.0227
 6199SOL    HW130233   3.626   0.202  17.595  1.8412 -2.1394  2.3551
 6199SOL    HW230234   3.741   0.277  17.558  1.2796  0.8865 -1.7037
 6200SOL     OW30235   2.504   3.738   0.991  0.5085  0.1819 -0.2217
 6200SOL    HW130236   2.566   3.805   1.020 -0.6385  0.3103  1.9438
 6200SOL    HW230237   2.538   3.713   0.905 -0.0690  1.4318 -0.8270
 6201SOL     OW30238   3.009   3.111  10.771  0.0038 -0.2025  0.0282
 6201SOL    HW130239   3.081   3.145  10.824  0.3967 -1.3374  0.2222
 6201SOL    HW230240   2.932   3.154  10.807  0.3719 -1.5280  2.3729
 6202SOL     OW30241   1.597   3.614   0.684  0.4808 -0.1210 -0.7630
 6202SOL    HW130242   1.533   3.616   0.613  0.8274 -1.3234 -1.1095
 6202SOL    HW230243   1.668   3.599   0.620 -0.5760  2.9310 -2.6650
 6203SOL     OW30244   0.094   0.497   5.616 -0.3776  0.0558 -0.1224
 6203SOL    HW130245   0.178   0.496   5.661 -1.7560 -1.8280  2.4305
 6203SOL    HW230246   0.073   0.404   5.607 -3.2670  0.7363 -0.5442
 6204SOL     OW30247   2.223   2.083  10.999 -0.2651 -0.2799 -0.4371
 6204SOL    HW130248   2.150   2.142  10.981  1.5896  1.6220 -1.7292
 6204SOL    HW230249   2.270   2.087  10.916 -0.0431 -2.8631 -0.4201
 6205SOL     OW30250   3.517   3.737   3.256  0.4915  0.6972  0.5739
 6205SOL    HW130251   3.455   3.699   3.194 -0.0209 -0.0096  1.5175
 6205SOL    HW230252   3.594   3.724   3.201  0.3784 -0.9005  0.7956
 6206SOL     OW30253   3.208   0.038   9.657 -0.9098 -0.1339 -0.5253
 6206SOL    HW130254   3.145   0.044   9.729 -1.4616 -0.5237 -0.9688
 6206SOL    HW230255   3.151   4.733   9.590  1.1801 -0.2712 -2.2278
 6207SOL     OW30256   3.010   3.288   6.399 -0.1639 -0.4151  0.2459
 6207SOL    HW130257   3.020   3.383   6.400  1.0778 -0.5109 -2.0222
 6207SOL    HW230258   2.925   3.257   6.429 -1.1216  1.6330 -0.3808
 6208SOL     OW30259   1.521   1.803   7.874 -0.4865  0.2588  0.5055
 6208SOL    HW130260   1.522   1.759   7.959 -1.2284 -1.0052 -0.1283
 6208SOL    HW230261   1.429   1.829   7.868 -0.6186 -0.5424 -1.0401
 6209SOL     OW30262   1.814   1.309   9.276 -0.0133 -0.0129 -0.4770
 6209SOL    HW130263   1.872   1.386   9.274 -0.3307  0.2222 -0.6258
 6209SOL    HW230264   1.871   1.257   9.333 -1.4037  0.3380  1.2300
 6210SOL     OW30265   3.187   0.422   7.547 -0.0012  0.0046 -0.1694
 6210SOL    HW130266   3.135   0.482   7.492 -0.8677  1.6039  2.3645
 6210SOL    HW230267   3.123   0.384   7.607  0.7908  0.6436  1.0688
 6211SOL     OW30268   0.396   2.290  14.921  0.5906 -0.0750  0.1219
 6211SOL    HW130269   0.313   2.336  14.911  1.2673  0.7550 -1.7774
 6211SOL    HW230270   0.370   2.250  15.004 -1.5951  2.9611  0.8872
 6212SOL     OW30271   0.862   4.424  12.262 -0.8008  0.5000 -0.5970
 6212SOL    HW130272   0.870   4.510  12.303 -4.1785  1.1455 -1.2892
 6212SOL    HW230273   0.851   4.451  12.171  0.0790 -0.2660 -0.9287
 6213SOL     OW30274   0.415   1.000   2.294  0.5445  0.2886 -0.1926
 6213SOL    HW130275   0.491   0.965   2.341 -1.4551 -1.1933  1.9490
 6213SOL    HW230276   0.376   0.923   2.254 -0.6588  1.8098 -1.9654
 6214SOL     OW30277   0.881   3.247   2.278  0.3811  0.0437 -0.2609
 6214SOL    HW130278   0.900   3.341   2.269  0.7958  0.1605  1.6730
 6214SOL    HW230279   0.903   3.226   2.369  3.6426  3.9547 -0.1066
 6215SOL     OW30280   4.531   4.376   7.991 -0.0268 -0.0082  0.1832
 6215SOL    HW130281   4.511   4.436   7.919 -1.8300  0.7403  1.3302
 6215SOL    HW230282   4.520   4.443   8.058 -1.6821 -0.1700  0.0582
 6216SOL     OW30283   0.628   4.423   9.176 -0.1799 -0.5201 -0.2999
 6216SOL    HW130284   0.558   4.407   9.240  0.1608  1.2158  0.5146
 6216SOL    HW230285   0.707   4.442   9.226  0.3344 -2.8256 -0.2688
 6217SOL     OW30286   2.237   1.984   4.888 -0.2642  0.0964 -0.0525
 6217SOL    HW130287   2.182   1.909   4.865  0.1121 -0.2320  0.1203
 6217SOL    HW230288   2.254   1.985   4.982 -0.9355  0.6950  0.0640
 6218SOL     OW30289   3.008   4.526   4.832 -0.7138  0.0049 -0.2574
 6218SOL    HW130290   3.036   4.585   4.903 -0.8203 -1.5906  1.1191
 6218SOL    HW230291   3.002   4.585   4.756  1.3452  0.7996  0.2087
 6219SOL     OW30292   0.957   4.120   4.297 -0.2988 -0.2855  0.4599
 6219SOL    HW130293   1.007   4.191   4.337 -0.2925 -0.1087  0.1407
 6219SOL    HW230294   0.867   4.147   4.313 -0.4516 -0.3866 -0.2229
 6220SOL     OW30295   4.500   0.489   8.400  0.2334 -0.0960 -0.1829
 6220SOL    HW130296   4.579   0.442   8.427 -0.2754 -1.1086 -0.4913
 6220SOL    HW230297   4.431   0.457   8.458  0.0024 -0.3532 -0.6006
 6221SOL     OW30298   1.618   0.470  11.177 -0.1935 -0.1460 -0.3008
 6221SOL    HW130299   1.551   0.504  11.118 -1.2208  0.7323  1.3386
 6221SOL    HW230300   1.693   0.464  11.119 -2.0458  0.9170 -2.7868
 6222SOL     OW30301   3.268   0.232   2.099  0.1489  0.9950 -0.1301
 6222SOL    HW130302   3.312   0.210   2.017  1.0150 -0.1085  0.6300
 6222SOL    HW230303   3.324   0.190   2.165 -0.2509 -1.9374 -1.6865
 6223SOL     OW30304   2.482   3.438   2.057 -0.6771 -0.3773  0.5289
 6223SOL    HW130305   2.483   3.471   1.968  0.1819 -2.8172 -0.3612
 6223SOL    HW230306   2.471   3.521   2.103  2.9612 -0.4029  1.4338
 6224SOL     OW30307   1.661   1.111  13.708 -0.0620 -0.5930  0.4961
 6224SOL    HW130308   1.659   1.074  13.796  0.4903  1.3483  1.3234
 6224SOL    HW230309   1.569   1.092  13.688 -0.6249  1.2641  1.3347
 6225SOL     OW30310   2.967   3.304   7.828  0.1965 -0.3637 -0.1372
 6225SOL    HW130311   2.981   3.387   7.782 -2.0622 -0.9323 -1.8413
 6225SOL    HW230312   2.887   3.267   7.791  1.0400 -1.7001 -0.6050
 6226SOL     OW30313   0.744   4.250   6.833 -0.3979  0.0077  0.2317
 6226SOL    HW130314   0.670   4.285   6.783 -0.7288 -0.1870  0.5887
 6226SOL    HW230315   0.736   4.157   6.814  0.9291 -0.0778  0.0856
 6227SOL     OW30316   1.216   2.653  12.722 -0.9461  0.1761  0.5676
 6227SOL    HW130317   1.267   2.594  12.667 -0.2668  1.1045  0.1905
 6227SOL    HW230318   1.190   2.601  12.798  0.2960  0.7031  1.3539
 6228SOL     OW30319   3.069   2.248   3.654  0.3294 -0.1646  0.9668
 6228SOL    HW130320   3.096   2.166   3.696  0.5534 -0.4218  0.3300
 6228SOL    HW230321   3.062   2.303   3.732 -0.0388 -1.2734  1.7158
 6229SOL     OW30322   1.425   2.850  14.730  0.0993  0.1664  0.3079
 6229SOL    HW130323   1.330   2.839  14.741  0.0583  0.2956  0.0628
 6229SOL    HW230324   1.427   2.874  14.638  2.1964  4.3656  1.4749
 6230SOL     OW30325   4.315   0.733  14.906  0.1812  0.1016  0.2288
 6230SOL    HW130326   4.253   0.662  14.890 -1.6679  1.5231  1.1974
 6230SOL    HW230327   4.287   0.801  14.845 -0.0487  0.9319  1.2559
 6231SOL     OW30328   2.912   1.051   7.100  0.1211  0.6496  0.3666
 6231SOL    HW130329   2.840   1.113   7.088 -0.5513 -0.5312 -1.7464
 6231SOL    HW230330   2.885   1.016   7.185 -0.8227  2.2190  0.7317
 6232SOL     OW30331   3.319   3.782   3.595  0.7169 -0.5820  0.4019
 6232SOL    HW130332   3.334   3.876   3.604 -0.5451 -0.4515  1.1239
 6232SOL    HW230333   3.344   3.770   3.687  3.6434  0.4523 -0.2709
 6233SOL     OW30334   3.643   1.079  10.125  0.5973  0.2223  0.5503
 6233SOL    HW130335   3.553   1.103  10.148  0.4116 -0.4065  0.4743
 6233SOL    HW230336   3.650   1.115  10.037  1.9451 -1.6676 -0.1065
 6234SOL     OW30337   0.881   2.146  12.440  0.0414 -0.0220  0.0403
 6234SOL    HW130338   0.811   2.203  12.472 -0.1060 -1.2818  1.9698
 6234SOL    HW230339   0.934   2.210  12.394  0.8544 -0.8523 -0.1796
 6235SOL     OW30340   3.983   0.706   3.174 -0.3256 -0.0238  0.3148
 6235SOL    HW130341   4.067   0.717   3.128  0.2017  0.2930  1.3624
 6235SOL    HW230342   3.914   0.748   3.122 -0.6554 -1.3771 -0.3356
 6236SOL     OW30343   4.449   4.278   1.941 -0.2750 -0.1571 -0.0793
 6236SOL    HW130344   4.388   4.278   2.014 -1.2381  2.1851 -0.8843
 6236SOL    HW230345   4.470   4.370   1.925  0.4039 -0.2585  0.2400
 6237SOL     OW30346   2.435   0.454  14.294 -0.2194  0.8167 -0.3798
 6237SOL    HW130347   2.352   0.496  14.317 -1.0673  0.9051 -3.7040
 6237SOL    HW230348   2.410   0.406  14.216 -1.8726 -0.2180  0.7832
 6238SOL     OW30349   2.809   4.105   8.625 -0.2745  0.0829 -0.6285
 6238SOL    HW130350   2.852   4.119   8.709 -0.4421  0.2076 -0.5653
 6238SOL    HW230351   2.835   4.014   8.608  2.6387  1.1495 -1.9755
 6239SOL     OW30352   4.299   3.684   2.622  0.2311 -0.2214 -0.3325
 6239SOL    HW130353   4.237   3.757   2.609 -0.2030 -0.5485 -0.1046
 6239SOL    HW230354   4.295   3.677   2.717  3.1742 -0.4689 -0.2532
 6240SOL     OW30355   3.798   3.138  15.406 -0.0435 -1.0395 -0.6654
 6240SOL    HW130356   3.886   3.115  15.379  0.2736  2.0007 -2.3175
 6240SOL    HW230357   3.755   3.056  15.380  0.4847 -1.3597 -0.5096
 6241SOL     OW30358   1.283   2.197   9.900 -0.4823  0.4521 -0.4290
 6241SOL    HW130359   1.266   2.103   9.897  1.3941  0.0599  1.3855
 6241SOL    HW230360   1.222   2.231   9.965  0.8512 -0.7951  1.4745
 6242SOL     OW30361   3.634   1.230   6.659  0.7570 -0.4117  0.7294
 6242SOL    HW130362   3.538   1.232   6.668  1.0514  2.9647  3.1974
 6242SOL    HW230363   3.659   1.263   6.745  1.0915 -2.8391  1.5540
 6243SOL     OW30364   1.634   0.289   6.578 -0.7800 -0.8605  0.4028
 6243SOL    HW130365   1.700   0.234   6.622 -1.7702  0.5678  3.6837
 6243SOL    HW230366   1.575   0.314   6.649 -2.4925 -0.0991 -1.3059
 6244SOL     OW30367   4.102   3.814   4.834  0.4184  0.0456 -0.9201
 6244SOL    HW130368   4.165   3.850   4.896  1.7461 -0.8467 -1.7702
 6244SOL    HW230369   4.048   3.760   4.892  0.6328  0.2149 -0.5607
 6245SOL     OW30370   2.698   2.679   4.279 -0.2902  0.5948  0.5146
 6245SOL    HW130371   2.674   2.600   4.231 -1.0096  1.5955 -0.7798
 6245SOL    HW230372   2.772   2.705   4.224  0.8125 -3.1086  0.2379
 6246SOL     OW30373   4.332   3.927   7.480 -0.1450 -0.0404  0.3873
 6246SOL    HW130374   4.397   3.992   7.453  0.4386 -0.6732  0.2789
 6246SOL    HW230375   4.310   3.961   7.567 -1.0532 -0.1607  0.2024
 6247SOL     OW30376   0.919   4.681   2.977 -0.1449  0.1332 -0.7915
 6247SOL    HW130377   0.958   0.014   2.920 -0.2069  1.6748  0.9717
 6247SOL    HW230378   0.840   4.666   2.926  0.0894 -2.0412 -0.5271
 6248SOL     OW30379   0.571   2.643   5.947 -0.1142 -0.6490 -0.4157
 6248SOL    HW130380   0.591   2.736   5.940  0.6706 -0.9053 -1.5574
 6248SOL    HW230381   0.485   2.635   5.906 -0.7401 -0.5702  0.9081
 6249SOL     OW30382   4.709   0.333   6.269  0.3506  0.0184  0.4631
 6249SOL    HW130383   4.676   0.272   6.203  1.9059  0.5314 -0.7910
 6249SOL    HW230384   4.633   0.338   6.327 -1.7764  0.9666 -2.3669
 6250SOL     OW30385   3.740   2.010   2.957  0.2398 -0.1168  0.2615
 6250SOL    HW130386   3.661   1.998   3.009 -0.0177 -2.3707 -0.6555
 6250SOL    HW230387   3.725   2.099   2.926  1.0323 -0.4312 -1.0398
 6251SOL     OW30388   1.694   2.982   8.957 -0.2430  0.2209 -0.2260
 6251SOL    HW130389   1.772   2.927   8.948  0.0257  0.5135  0.3151
 6251SOL    HW230390   1.657   2.938   9.033 -0.7716 -1.2397 -1.3198
 6252SOL     OW30391   4.095   3.765   5.749 -0.1373 -0.1086 -0.0431
 6252SOL    HW130392   4.000   3.765   5.758  0.1097  0.8090  2.5619
 6252SOL    HW230393   4.128   3.848   5.782 -1.2590 -0.3482  1.6848
 6253SOL     OW30394   1.810   0.559   3.122  0.0220 -0.3398  0.9286
 6253SOL    HW130395   1.759   0.615   3.180 -1.8032 -0.7045 -0.3464
 6253SOL    HW230396   1.870   0.527   3.190 -0.2767 -0.5930  1.0730
 6254SOL     OW30397   2.720   0.978   8.654 -0.3101  0.0776  0.1324
 6254SOL    HW130398   2.751   0.929   8.578 -1.4278  0.9817 -0.9112
 6254SOL    HW230399   2.767   1.060   8.644  0.5701 -0.4468 -0.0511
 6255SOL     OW30400   3.132   2.278   7.016  0.0725 -0.1708 -0.0244
 6255SOL    HW130401   3.059   2.252   6.961 -0.7556  0.4445  0.8011
 6255SOL    HW230402   3.174   2.192   7.022 -0.5505 -0.4675  0.0514
 6256SOL     OW30403   3.489   2.182   6.909 -0.3394 -0.0646 -0.3130
 6256SOL    HW130404   3.425   2.121   6.946 -1.4011  1.3084  0.1004
 6256SOL    HW230405   3.493   2.249   6.977  0.5526  0.2630 -0.6906
 6257SOL     OW30406   0.798   3.472   8.460 -0.4116 -0.1171  0.0669
 6257SOL    HW130407   0.726   3.522   8.421 -0.8100 -0.1595  0.7537
 6257SOL    HW230408   0.806   3.405   8.393  1.8062 -2.0511  2.2842
 6258SOL     OW30409   3.859   2.027   1.187 -0.2518 -0.0399  0.5243
 6258SOL    HW130410   3.908   2.080   1.250 -2.4817  1.5628  0.9324
 6258SOL    HW230411   3.773   2.024   1.230 -0.7854 -1.9120 -0.6952
 6259SOL     OW30412   0.197   3.867  16.860 -0.1114 -0.0511  0.7387
 6259SOL    HW130413   0.154   3.933  16.914 -1.9928  0.5150 -1.4646
 6259SOL    HW230414   0.187   3.794  16.922  1.2209  0.1405  1.1925
 6260SOL     OW30415   4.245   1.901   7.408  0.1487 -0.1885 -0.6303
 6260SOL    HW130416   4.287   1.907   7.493 -1.5271 -0.5172  0.2327
 6260SOL    HW230417   4.161   1.860   7.433 -0.3682  1.4042  0.2435
 6261SOL     OW30418   3.681   0.206   5.948  0.4282  0.5051  0.5788
 6261SOL    HW130419   3.610   0.184   5.887  1.5417  0.9163 -0.8808
 6261SOL    HW230420   3.681   0.301   5.937 -1.0701  0.2423 -1.7414
 6262SOL     OW30421   0.746   1.693   0.198 -0.1660  0.4179 -0.2889
 6262SOL    HW130422   0.788   1.662   0.279  0.6091  0.6700 -0.5902
 6262SOL    HW230423   0.759   1.788   0.203 -0.4997  0.4411  0.1482
 6263SOL     OW30424   0.166   1.145   6.599 -0.3682 -0.4773 -0.0033
 6263SOL    HW130425   0.171   1.064   6.547  1.3939 -0.3088 -0.0864
 6263SOL    HW230426   0.239   1.130   6.658  0.5717  2.5162 -0.4424
 6264SOL     OW30427   4.545   4.282   6.756 -0.1864 -0.3112  0.7319
 6264SOL    HW130428   4.458   4.271   6.716  0.0961  2.4582 -0.6524
 6264SOL    HW230429   4.606   4.257   6.687  0.4719  1.2044  0.7516
 6265SOL     OW30430   3.513   4.604   2.974  0.1703  0.0665  0.8644
 6265SOL    HW130431   3.429   4.619   3.017 -0.4152  0.4217 -0.4248
 6265SOL    HW230432   3.497   4.632   2.885  0.6737 -0.5388  0.5806
 6266SOL     OW30433   3.906   1.031   3.768 -0.0386 -0.1982  0.0179
 6266SOL    HW130434   3.921   0.997   3.680 -1.1541  0.4690 -0.4360
 6266SOL    HW230435   3.922   1.124   3.755 -1.3650 -0.1357 -1.1442
 6267SOL     OW30436   0.887   1.353   0.321 -0.5461 -0.0064  0.1081
 6267SOL    HW130437   0.948   1.338   0.249 -1.4643 -0.4962 -0.5594
 6267SOL    HW230438   0.891   1.276   0.377 -0.4624 -0.1015 -0.0269
 6268SOL     OW30439   4.330   2.503  13.314  0.1674  0.2311 -0.4382
 6268SOL    HW130440   4.327   2.416  13.274 -1.9102  1.0860 -2.1329
 6268SOL    HW230441   4.388   2.486  13.389 -1.7891 -0.0423  1.0095
 6269SOL     OW30442   3.138   4.223   8.028 -0.2896  0.5683  0.4909
 6269SOL    HW130443   3.165   4.218   7.936 -1.5352  3.4927 -0.0322
 6269SOL    HW230444   3.131   4.316   8.048 -0.8012 -0.1030  3.3741
 6270SOL     OW30445   0.103   4.623   3.974  0.3209 -0.1906  0.1245
 6270SOL    HW130446   0.137   4.619   3.885 -0.6107 -0.3370 -0.2297
 6270SOL    HW230447   0.177   4.662   4.019 -0.5298  1.4410  0.1090
 6271SOL     OW30448   3.369   3.473  14.466  0.5628  0.1469 -0.4214
 6271SOL    HW130449   3.396   3.561  14.438  1.3717  0.1715  0.4235
 6271SOL    HW230450   3.402   3.423  14.391 -1.2067  1.8614 -2.3620
 6272SOL     OW30451   0.774   1.379   6.569  0.0129 -0.3466 -0.8232
 6272SOL    HW130452   0.696   1.397   6.516 -1.8613 -0.0805  1.9618
 6272SOL    HW230453   0.734   1.350   6.651 -0.7086  1.9549 -0.3541
 6273SOL     OW30454   0.527   2.280   7.178 -0.7577  0.3127 -0.6647
 6273SOL    HW130455   0.510   2.205   7.121 -1.4326 -2.3106  3.0469
 6273SOL    HW230456   0.523   2.355   7.118 -2.3928  2.3485  1.9957
 6274SOL     OW30457   2.232   4.057   9.762 -0.1648  0.2236 -0.5515
 6274SOL    HW130458   2.280   4.138   9.782  0.4064 -0.3916  0.6087
 6274SOL    HW230459   2.184   4.040   9.843  0.5029 -0.7001 -0.3449
 6275SOL     OW30460   1.920   1.274   5.951  0.0319  0.4728  0.9193
 6275SOL    HW130461   1.969   1.329   6.011  1.7307  2.8493 -2.6013
 6275SOL    HW230462   1.924   1.330   5.873  1.7509  0.7728  1.2121
 6276SOL     OW30463   1.675   0.180   3.282  0.1164  0.0404  0.2046
 6276SOL    HW130464   1.616   0.109   3.256  1.4662 -0.9312 -0.1971
 6276SOL    HW230465   1.765   0.157   3.258  0.1590  1.6116 -1.1824
 6277SOL     OW30466   0.028   4.315  11.381  0.6130  0.0914 -0.3133
 6277SOL    HW130467   0.010   4.406  11.405  2.3663  0.7637 -1.4970
 6277SOL    HW230468   0.096   4.286  11.442 -0.2952 -0.0632  0.6232
 6278SOL     OW30469   1.411   3.321  16.616 -0.1670  0.0356 -0.4689
 6278SOL    HW130470   1.431   3.228  16.610  0.0390  0.1262 -1.2218
 6278SOL    HW230471   1.374   3.333  16.528 -0.0121  0.4101 -0.4846
 6279SOL     OW30472   2.341   2.496  14.344 -0.1074 -0.5534  1.0058
 6279SOL    HW130473   2.266   2.512  14.401 -1.4145 -0.1725 -0.8118
 6279SOL    HW230474   2.304   2.444  14.273  1.7540 -0.0193 -0.3567
 6280SOL     OW30475   0.030   4.500  13.868 -0.3139  0.5053 -0.5897
 6280SOL    HW130476   4.701   4.440  13.908 -2.0589  1.0262 -2.5493
 6280SOL    HW230477   4.701   4.570  13.852 -0.7649  0.1903 -0.2071
 6281SOL     OW30478   2.345   3.093   4.380 -0.2791 -0.4518 -0.2868
 6281SOL    HW130479   2.383   3.009   4.356 -0.7154 -1.0404  1.0670
 6281SOL    HW230480   2.399   3.151   4.327 -3.7276  1.8668 -1.2698
 6282SOL     OW30481   4.368   1.793   6.750 -0.6499  0.1314  0.7625
 6282SOL    HW130482   4.354   1.814   6.658 -2.3091 -0.5973  0.8524
 6282SOL    HW230483   4.289   1.742   6.771 -1.4080  1.4668  1.1945
 6283SOL     OW30484   0.342   0.906   7.827  0.4029 -0.3856 -0.1194
 6283SOL    HW130485   0.283   0.881   7.756 -1.4063 -0.7917  1.5315
 6283SOL    HW230486   0.417   0.856   7.795 -1.1034 -2.4846 -0.3801
 6284SOL     OW30487   4.258   4.714   1.952  0.1380  0.0941 -0.6409
 6284SOL    HW130488   4.330   4.655   1.931  1.6110  1.2925  1.1193
 6284SOL    HW230489   4.298   0.065   1.968 -1.6873  0.7068  0.7166
 6285SOL     OW30490   2.244   1.080   9.105 -0.1293 -0.3713  0.0982
 6285SOL    HW130491   2.160   1.106   9.068 -0.3769 -1.3836 -0.0622
 6285SOL    HW230492   2.276   1.042   9.023  0.3990  0.3903 -0.0421
 6286SOL     OW30493   2.958   0.503   8.957 -0.1286  0.0638  0.1273
 6286SOL    HW130494   2.897   0.430   8.942 -1.6835  1.3862 -0.0820
 6286SOL    HW230495   3.038   0.458   8.982 -0.4530 -0.4540  0.2337
 6287SOL     OW30496   2.562   0.895   3.586 -0.2806 -0.0114 -0.2713
 6287SOL    HW130497   2.553   0.824   3.650 -2.9447  1.0095  0.4576
 6287SOL    HW230498   2.552   0.975   3.637  1.0928 -0.5524  0.8275
 6288SOL     OW30499   4.234   3.976   7.725 -0.5127 -0.8028 -0.2233
 6288SOL    HW130500   4.180   4.050   7.753  0.3271 -0.6258  0.9328
 6288SOL    HW230501   4.279   3.952   7.806 -0.9725 -0.8898  0.0068
 6289SOL     OW30502   0.260   4.067   7.334 -0.3831 -0.2215  0.0040
 6289SOL    HW130503   0.216   4.002   7.389 -2.7486  0.8101 -0.6609
 6289SOL    HW230504   0.318   4.013   7.281 -0.6229 -0.4235 -0.0509
 6290SOL     OW30505   0.405   2.695  14.945 -0.1482  0.0249  0.1459
 6290SOL    HW130506   0.365   2.744  14.874 -1.0249  1.6114  1.7329
 6290SOL    HW230507   0.364   2.727  15.025 -1.4058 -1.8241  0.2406
 6291SOL     OW30508   3.468   0.313   8.729 -0.3927  0.1229  0.0366
 6291SOL    HW130509   3.487   0.364   8.808  0.3378  1.8477 -1.2631
 6291SOL    HW230510   3.525   0.237   8.742  0.0037  0.6536  1.4326
 6292SOL     OW30511   3.634   4.362   1.987  0.1242 -0.4128  0.1169
 6292SOL    HW130512   3.656   4.275   2.020  3.3346  0.2158 -0.3702
 6292SOL    HW230513   3.559   4.332   1.935  0.0348  0.6554 -0.3706
 6293SOL     OW30514   3.144   0.424   5.387  0.0768 -0.5544  0.8481
 6293SOL    HW130515   3.112   0.386   5.305  4.0165 -2.5911  0.2109
 6293SOL    HW230516   3.103   0.365   5.449 -2.4902  1.5747  1.1540
 6294SOL     OW30517   0.986   4.570  10.978  0.6263 -0.0817 -0.1123
 6294SOL    HW130518   0.904   4.522  10.988  0.2342  0.6644  0.2769
 6294SOL    HW230519   0.957   4.652  10.939 -0.6554  1.1723  3.4362
 6295SOL     OW30520   3.498   3.629  15.810  0.1226  0.2321  0.2129
 6295SOL    HW130521   3.573   3.676  15.774  0.3809  0.3340  0.8910
 6295SOL    HW230522   3.478   3.564  15.743  1.6167 -2.3177  2.2431
 6296SOL     OW30523   1.171   0.768  15.532 -0.4872  0.1565 -0.3934
 6296SOL    HW130524   1.101   0.727  15.480 -2.1215  0.6375  1.4300
 6296SOL    HW230525   1.112   0.805  15.598  1.0598  1.5814  0.1556
 6297SOL     OW30526   3.689   3.071   0.914  0.2155 -0.7395 -0.4601
 6297SOL    HW130527   3.722   3.132   0.848  1.1740 -1.5122 -0.6860
 6297SOL    HW230528   3.662   2.994   0.865  0.2902 -1.8817  1.2944
 6298SOL     OW30529   3.913   1.264   3.579 -0.4736 -0.2341 -0.0277
 6298SOL    HW130530   3.973   1.267   3.504 -1.3025 -0.5589 -0.7041
 6298SOL    HW230531   3.934   1.347   3.621 -0.2298  0.0931 -0.8059
 6299SOL     OW30532   4.299   4.146   8.665 -0.1353 -0.0065 -0.3719
 6299SOL    HW130533   4.300   4.238   8.637  0.4960  0.7996  2.2493
 6299SOL    HW230534   4.322   4.151   8.758 -0.9112  2.0892 -0.2847
 6300SOL     OW30535   1.541   2.405   3.021  0.0386 -0.6176 -0.3156
 6300SOL    HW130536   1.605   2.337   3.044 -0.5613 -1.4181 -1.0348
 6300SOL    HW230537   1.481   2.401   3.096  0.0694  2.1439 -0.1662
 6301SOL     OW30538   1.630   3.272   6.308 -0.1824 -0.6678  0.0937
 6301SOL    HW130539   1.614   3.225   6.390  2.8700 -0.2860  0.8951
 6301SOL    HW230540   1.541   3.303   6.289 -0.5132  0.1091  2.8786
 6302SOL     OW30541   2.383   3.066   8.074 -0.0599 -0.0484  0.0513
 6302SOL    HW130542   2.356   3.049   8.165  2.6558 -0.7004  0.7349
 6302SOL    HW230543   2.302   3.095   8.032 -1.0868 -0.0146  2.0534
 6303SOL     OW30544   3.224   2.984   2.736 -0.1453  0.0786 -0.5440
 6303SOL    HW130545   3.299   2.924   2.739  0.0945  0.3994 -0.0399
 6303SOL    HW230546   3.204   2.954   2.648 -3.2217 -0.2790  0.2814
 6304SOL     OW30547   4.655   3.018  13.466  0.2743  0.6118  0.1762
 6304SOL    HW130548   4.608   3.078  13.523 -0.9517 -0.7688  0.6114
 6304SOL    HW230549   4.655   3.064  13.382 -2.4650  1.0073  0.3776
 6305SOL     OW30550   0.827   0.728   2.577  0.1582  0.4158 -0.6347
 6305SOL    HW130551   0.849   0.696   2.665 -1.4226 -0.7043 -0.6586
 6305SOL    HW230552   0.902   0.784   2.558  1.0843  0.4342  3.0301
 6306SOL     OW30553   0.397   1.831   9.172  0.4068 -0.1450 -0.2967
 6306SOL    HW130554   0.453   1.901   9.140 -0.2829 -0.4523 -2.1647
 6306SOL    HW230555   0.314   1.843   9.126  0.7076 -0.6323 -0.9572
 6307SOL     OW30556   4.282   1.123  16.450  0.6570 -0.9800  0.3082
 6307SOL    HW130557   4.196   1.135  16.412  0.9979 -0.1100 -0.1818
 6307SOL    HW230558   4.324   1.117  16.364 -0.1958  0.5686 -0.2125
 6308SOL     OW30559   1.204   4.389   8.474  0.3030 -0.0298 -0.4618
 6308SOL    HW130560   1.110   4.389   8.491  0.1499  0.9061 -1.3028
 6308SOL    HW230561   1.204   4.343   8.390  0.4402  0.2554 -0.6213
 6309SOL     OW30562   2.435   1.458  15.326 -0.1209 -0.0380  0.1081
 6309SOL    HW130563   2.387   1.379  15.302 -1.6139  0.5618  1.0764
 6309SOL    HW230564   2.428   1.509  15.245  0.3497  1.4101  0.9892
 6310SOL     OW30565   3.610   3.292   9.126  0.4578  0.4076 -0.1300
 6310SOL    HW130566   3.638   3.206   9.094 -0.1229  0.2757 -0.2742
 6310SOL    HW230567   3.578   3.328   9.043 -0.5083  0.5279  0.3013
 6311SOL     OW30568   2.439   0.158  14.879  1.2679  1.2432  0.0535
 6311SOL    HW130569   2.484   0.085  14.921  0.7324  2.3175  2.4761
 6311SOL    HW230570   2.513   0.218  14.873  1.3918  0.8399 -2.4842
 6312SOL     OW30571   2.993   2.745   6.888 -0.0653 -0.0268  0.1417
 6312SOL    HW130572   3.022   2.761   6.978  0.4769 -0.3998  0.0348
 6312SOL    HW230573   2.934   2.820   6.877  1.5858  1.4533  1.3144
 6313SOL     OW30574   2.860   2.453   1.803 -0.0954  0.0017 -0.1530
 6313SOL    HW130575   2.864   2.362   1.771  0.4109  0.3484 -1.0584
 6313SOL    HW230576   2.930   2.496   1.754  1.3236  0.7496  2.5348
 6314SOL     OW30577   2.981   0.302  16.976  0.0514 -0.1818 -0.3974
 6314SOL    HW130578   3.002   0.327  17.066  0.0415 -2.5739  0.2510
 6314SOL    HW230579   2.888   0.319  16.968 -0.1763 -1.7835 -1.2027
 6315SOL     OW30580   2.430   1.924  16.099  0.0161 -0.8343 -0.0613
 6315SOL    HW130581   2.508   1.975  16.120  1.0395 -2.4945  0.1428
 6315SOL    HW230582   2.372   1.999  16.084 -0.2102 -0.6682  1.6986
 6316SOL     OW30583   3.050   2.700   4.907  0.6641 -0.2157 -0.2769
 6316SOL    HW130584   3.132   2.737   4.939  0.2337  0.9580 -0.5145
 6316SOL    HW230585   3.087   2.612   4.903 -1.6462 -1.1662 -0.9271
 6317SOL     OW30586   3.351   2.621   3.444 -0.6059  0.5704  0.0271
 6317SOL    HW130587   3.404   2.541   3.448  0.4786  1.2751 -0.3888
 6317SOL    HW230588   3.345   2.636   3.350 -2.0138 -1.8097 -0.2889
 6318SOL     OW30589   0.720   2.776   7.836  0.4622  0.1483 -0.6453
 6318SOL    HW130590   0.740   2.825   7.917 -0.5810  2.0045 -1.4963
 6318SOL    HW230591   0.797   2.720   7.842 -1.7296 -2.7728 -0.0889
 6319SOL     OW30592   0.811   3.730   1.405  0.3670 -0.2356 -0.0490
 6319SOL    HW130593   0.727   3.709   1.445 -0.2014  0.6497 -0.7792
 6319SOL    HW230594   0.859   3.753   1.484 -1.2893  2.2064  0.2449
 6320SOL     OW30595   2.919   3.460   2.420  0.1786 -0.0383 -0.6396
 6320SOL    HW130596   2.966   3.378   2.401  0.1963 -0.1033 -0.3142
 6320SOL    HW230597   2.882   3.484   2.335 -0.7092 -1.1015 -0.5587
 6321SOL     OW30598   1.182   2.706  10.741  0.3748 -0.6384  0.0428
 6321SOL    HW130599   1.236   2.735  10.667 -0.8401 -0.4535 -0.7776
 6321SOL    HW230600   1.098   2.744  10.716  0.5092 -0.0336  0.4942
 6322SOL     OW30601   0.539   0.198   4.137  0.1217 -0.3784 -0.1421
 6322SOL    HW130602   0.549   0.257   4.211  0.7491 -1.1877  0.4203
 6322SOL    HW230603   0.597   0.127   4.166 -1.3551 -1.9768 -1.0627
 6323SOL     OW30604   2.905   0.045   2.830  0.0129 -0.2730  0.6061
 6323SOL    HW130605   2.865   0.060   2.744 -0.4691 -0.5503  0.7802
 6323SOL    HW230606   2.904   0.132   2.868  0.8701 -0.9228  2.1070
 6324SOL     OW30607   1.356   0.997   4.881 -0.5374  0.3930 -0.3977
 6324SOL    HW130608   1.430   0.945   4.912 -1.0726  0.8744  1.6991
 6324SOL    HW230609   1.289   0.994   4.949  0.9947  1.0322  1.1444
 6325SOL     OW30610   1.380   4.257   4.543 -0.2400  0.0711 -0.1738
 6325SOL    HW130611   1.428   4.253   4.460 -0.5947 -2.9659 -0.2383
 6325SOL    HW230612   1.449   4.294   4.598  0.8306 -0.1316 -1.3570
 6326SOL     OW30613   4.019   2.005   1.895 -0.0672 -0.2388 -0.0816
 6326SOL    HW130614   3.968   1.958   1.829  0.4642 -0.0284 -0.6494
 6326SOL    HW230615   3.974   2.089   1.896  1.9481  0.8386 -0.6191
 6327SOL     OW30616   1.640   2.089   6.642 -0.1896 -0.2903 -0.0022
 6327SOL    HW130617   1.603   2.038   6.570 -2.6272  0.2398  0.8420
 6327SOL    HW230618   1.639   2.175   6.600 -1.5049 -0.5932 -0.5859
 6328SOL     OW30619   2.195   0.241   3.674  0.1787  0.2007 -0.4244
 6328SOL    HW130620   2.107   0.235   3.638  0.4570 -3.2209 -0.5175
 6328SOL    HW230621   2.246   0.213   3.598 -2.2199 -1.5096 -1.3907
 6329SOL     OW30622   3.006   0.081   7.367  0.7213 -0.7411  0.6931
 6329SOL    HW130623   3.022   4.721   7.375  2.0615 -0.6387 -0.7601
 6329SOL    HW230624   3.096   0.101   7.344  0.8099  0.9249  2.4346
 6330SOL     OW30625   4.067   2.358   8.986  0.1137 -0.1711  0.1541
 6330SOL    HW130626   4.052   2.444   8.947 -0.5581  0.1288  1.0706
 6330SOL    HW230627   4.162   2.350   8.981  0.0455 -1.2039  0.5467
 6331SOL     OW30628   2.954   4.577  15.439  0.6106 -0.1140  0.0443
 6331SOL    HW130629   2.896   4.644  15.472  3.1252  0.2030  3.7684
 6331SOL    HW230630   3.031   4.598  15.492  1.0734  3.1989 -1.9469
 6332SOL     OW30631   0.316   4.006   9.053  0.3595 -0.2398  0.2452
 6332SOL    HW130632   0.245   3.949   9.023  0.2512  0.2230 -0.3791
 6332SOL    HW230633   0.336   4.068   8.982 -1.4257 -0.2996 -0.3264
 6333SOL     OW30634   2.801   0.123  15.016  0.2881  0.7153 -0.6459
 6333SOL    HW130635   2.741   0.166  14.955 -0.6468 -0.1937 -0.3750
 6333SOL    HW230636   2.858   0.200  15.022  2.0917 -0.7270  0.3700
 6334SOL     OW30637   1.182   1.319   0.246 -0.3894 -0.0638  0.4472
 6334SOL    HW130638   1.242   1.375   0.297  0.9124  1.0008 -2.2852
 6334SOL    HW230639   1.188   1.239   0.298  2.8168  0.3563  0.7350
 6335SOL     OW30640   3.382   0.233  16.995  0.2562  0.1456 -0.2535
 6335SOL    HW130641   3.451   0.299  16.984  3.3440 -3.1226 -0.6923
 6335SOL    HW230642   3.336   0.278  17.066  2.3206  1.3441  0.3288
 6336SOL     OW30643   0.208   2.902   5.086 -0.2941  0.2774 -0.4494
 6336SOL    HW130644   0.268   2.976   5.093  0.3993 -0.5752  2.6369
 6336SOL    HW230645   0.150   2.922   5.012 -1.1908  0.7735  0.3729
 6337SOL     OW30646   0.962   1.473  16.983  0.2175 -0.0419 -0.0573
 6337SOL    HW130647   0.999   1.408  17.042  0.1059  0.1228  0.1971
 6337SOL    HW230648   0.885   1.419  16.964  0.6690 -1.0658  1.0110
 6338SOL     OW30649   4.187   0.013  11.124 -0.2898  0.5193 -0.5323
 6338SOL    HW130650   4.225   0.089  11.167  1.7267 -0.4902 -0.5653
 6338SOL    HW230651   4.240   0.018  11.045  1.5458  0.0043  0.6629
 6339SOL     OW30652   4.005   4.064   5.287  0.1485 -0.0529 -0.0069
 6339SOL    HW130653   3.967   4.138   5.334 -0.0667 -1.2372  1.7108
 6339SOL    HW230654   4.082   4.045   5.342  0.5630  1.6201 -0.0119
 6340SOL     OW30655   0.011   3.754  16.314 -0.6836 -0.5379 -0.2926
 6340SOL    HW130656   0.095   3.797  16.298 -0.9690  0.2182  0.1983
 6340SOL    HW230657   0.037   3.704  16.391 -3.2901 -2.2915 -0.5473
 6341SOL     OW30658   3.661   4.270  16.019  0.3871 -0.0528 -0.1393
 6341SOL    HW130659   3.736   4.230  16.063  0.7906  1.4657  0.5577
 6341SOL    HW230660   3.691   4.352  15.981  5.1966 -1.2369  1.0973
 6342SOL     OW30661   3.280   3.803   9.064  0.2298  0.0408  0.6357
 6342SOL    HW130662   3.199   3.840   9.028 -0.3989 -0.2116  1.7666
 6342SOL    HW230663   3.327   3.796   8.981 -0.7322 -0.4519  0.1273
 6343SOL     OW30664   1.664   4.724   6.697  0.6558  0.1318  0.1399
 6343SOL    HW130665   1.570   4.722   6.680  0.7521 -1.6922 -0.2275
 6343SOL    HW230666   1.705   4.674   6.626  0.8410  1.0127 -0.3793
 6344SOL     OW30667   3.092   4.239  12.747 -0.1915 -0.6222  0.4882
 6344SOL    HW130668   3.062   4.251  12.837 -1.4082  1.1537 -0.1731
 6344SOL    HW230669   3.132   4.321  12.720 -0.3222 -0.9422 -0.6789
 6345SOL     OW30670   4.201   2.069   2.364 -0.2872  0.1058 -0.0121
 6345SOL    HW130671   4.244   2.074   2.449 -0.1985 -2.2893  0.1049
 6345SOL    HW230672   4.185   2.160   2.340 -0.9442 -0.3877 -1.4937
 6346SOL     OW30673   4.579   0.894   5.535 -0.3105  0.4318  0.3446
 6346SOL    HW130674   4.618   0.808   5.550 -2.1864 -0.4426  0.2051
 6346SOL    HW230675   4.597   0.924   5.624  0.6415 -0.0545  0.3195
 6347SOL     OW30676   2.050   4.425   3.715 -0.3245 -0.1634 -0.3318
 6347SOL    HW130677   1.960   4.432   3.749  0.4806  2.2762  1.3220
 6347SOL    HW230678   2.084   4.513   3.734  1.4201 -1.1357  1.0091
 6348SOL     OW30679   4.200   2.565   5.725 -0.4648  0.7633 -0.6325
 6348SOL    HW130680   4.240   2.490   5.681  0.5109  0.5708  0.5831
 6348SOL    HW230681   4.181   2.613   5.644  0.1406  0.1612 -1.1359
 6349SOL     OW30682   2.036   1.411   5.127 -0.0162  0.2517 -0.2785
 6349SOL    HW130683   2.103   1.352   5.094  1.3543  1.0696  1.0303
 6349SOL    HW230684   2.001   1.447   5.045 -1.9997 -0.4020  0.2865
 6350SOL     OW30685   0.958   1.340  11.866 -0.6790 -0.2684 -0.3409
 6350SOL    HW130686   1.047   1.312  11.889 -1.8029 -4.7847 -1.4969
 6350SOL    HW230687   0.978   1.395  11.790 -1.6370  1.1334  0.4338
 6351SOL     OW30688   3.363   4.677  17.370  0.3299  0.0898  0.7059
 6351SOL    HW130689   3.270   4.699  17.357  0.4286 -1.7866 -3.0334
 6351SOL    HW230690   3.380   0.013  17.434 -0.9170 -0.3516  1.5264
 6352SOL     OW30691   0.783   4.710   7.656 -0.5274  0.4533 -0.6662
 6352SOL    HW130692   0.805   0.064   7.689  0.4246  0.2159 -0.6564
 6352SOL    HW230693   0.698   4.724   7.614  0.5663  0.0132 -3.0270
 6353SOL     OW30694   4.271   2.691  16.804  0.1179  0.3514  0.4764
 6353SOL    HW130695   4.274   2.749  16.880  1.5537  0.4443  0.3383
 6353SOL    HW230696   4.353   2.716  16.762  1.1301 -0.8892  1.7063
 6354SOL     OW30697   4.093   3.420   5.461  0.0510 -0.1068 -0.5966
 6354SOL    HW130698   4.038   3.495   5.437 -2.5126 -1.3855  1.2554
 6354SOL    HW230699   4.123   3.442   5.550 -0.0074  0.0941 -0.6254
 6355SOL     OW30700   1.072   2.615   3.466  0.3617 -0.3264 -0.0194
 6355SOL    HW130701   1.045   2.537   3.516 -0.3121  1.5195  2.4895
 6355SOL    HW230702   1.015   2.601   3.390 -0.7662 -2.8963  1.2860
 6356SOL     OW30703   3.135   3.596  11.287 -0.2547  0.0922  0.2075
 6356SOL    HW130704   3.059   3.635  11.329  0.9461  1.4113  1.1413
 6356SOL    HW230705   3.099   3.510  11.267 -2.7527  0.8617  1.4527
 6357SOL     OW30706   1.123   2.678   9.148  0.2528  0.5816  0.5308
 6357SOL    HW130707   1.203   2.719   9.116 -0.6176  1.9822  0.1615
 6357SOL    HW230708   1.139   2.675   9.242  0.0114 -0.0682  0.5544
 6358SOL     OW30709   0.879   3.692   3.381 -0.7692  0.4607 -0.0310
 6358SOL    HW130710   0.854   3.725   3.295 -3.8790  1.7020  1.3503
 6358SOL    HW230711   0.930   3.767   3.414  1.4345 -0.9677 -0.1902
 6359SOL     OW30712   2.559   4.601   6.619  0.3903  0.2862 -0.2825
 6359SOL    HW130713   2.566   4.518   6.666 -1.2148 -0.1272 -0.7764
 6359SOL    HW230714   2.613   4.580   6.543  1.4140 -0.5788  0.6843
 6360SOL     OW30715   1.519   0.312   4.268 -0.2503  0.3485 -0.2377
 6360SOL    HW130716   1.433   0.299   4.226  0.5329  2.9435 -2.6311
 6360SOL    HW230717   1.541   0.404   4.257  0.9093  0.1099  0.1266
 6361SOL     OW30718   1.716   1.289   4.756  0.1018 -0.2875  0.2441
 6361SOL    HW130719   1.750   1.244   4.679 -3.2500 -3.0205  0.3878
 6361SOL    HW230720   1.644   1.343   4.723 -0.5794  0.0839  2.3460
 6362SOL     OW30721   0.303   0.469   3.024  0.1757 -0.4053 -0.4385
 6362SOL    HW130722   0.382   0.428   2.990  0.6327  0.4358 -0.3766
 6362SOL    HW230723   0.257   0.397   3.068 -0.9916  0.4821 -0.2002
 6363SOL     OW30724   2.062   3.897   5.449  0.2662  0.5894 -0.6720
 6363SOL    HW130725   2.129   3.874   5.384  0.9100 -1.1836  0.6042
 6363SOL    HW230726   2.083   3.989   5.463 -0.7184  0.5131  1.2958
 6364SOL     OW30727   2.597   2.305   4.042  0.2726  0.5064  0.1290
 6364SOL    HW130728   2.508   2.270   4.051 -0.1505  2.1251  2.3975
 6364SOL    HW230729   2.593   2.346   3.955  1.4722 -0.5299 -0.4035
 6365SOL     OW30730   4.560   0.214  12.763  0.5649 -0.1520 -0.1601
 6365SOL    HW130731   4.525   0.131  12.732 -0.8428 -0.1769  1.5063
 6365SOL    HW230732   4.484   0.268  12.740  0.3471 -0.4159 -0.0598
 6366SOL     OW30733   3.101   0.693  16.985  0.0281  0.5067  0.5302
 6366SOL    HW130734   3.085   0.780  16.947 -0.6166 -0.1117 -0.6228
 6366SOL    HW230735   3.191   0.674  16.958 -0.6913 -1.6799 -0.3183
 6367SOL     OW30736   0.151   2.553   6.035  0.0801  0.8627  0.1962
 6367SOL    HW130737   0.155   2.502   6.116 -2.4733 -0.3073 -0.3869
 6367SOL    HW230738   0.063   2.529   6.005 -0.0230  0.9762  0.4057
 6368SOL     OW30739   2.187   1.894   1.341  0.5228  0.7671  0.4673
 6368SOL    HW130740   2.247   1.820   1.350 -2.4735 -1.7336  0.0393
 6368SOL    HW230741   2.161   1.886   1.250  0.5470 -1.6552  0.6818
 6369SOL     OW30742   1.827   3.383   0.674 -0.4900  0.0140 -0.0764
 6369SOL    HW130743   1.786   3.417   0.594  0.0205 -0.5888 -0.5914
 6369SOL    HW230744   1.758   3.322   0.699 -1.6462  0.0586 -3.1651
 6370SOL     OW30745   3.920   3.400   3.137 -0.6518 -0.3311 -0.1723
 6370SOL    HW130746   4.006   3.431   3.163 -0.4755  2.1123 -3.5478
 6370SOL    HW230747   3.880   3.442   3.213 -1.0279 -2.0385  0.5667
 6371SOL     OW30748   2.381   2.447   1.695  0.8294  0.6702  0.3988
 6371SOL    HW130749   2.327   2.525   1.682  1.7257  1.1725 -0.2645
 6371SOL    HW230750   2.439   2.445   1.619  0.2100 -2.6805  0.0193
 6372SOL     OW30751   3.628   1.608  13.161 -0.5046 -0.5943 -0.3627
 6372SOL    HW130752   3.636   1.545  13.090 -1.1875 -0.9728 -0.1005
 6372SOL    HW230753   3.717   1.610  13.197  0.8395  1.9784 -3.7877
 6373SOL     OW30754   3.461   3.400   4.850  0.2102  0.1789  0.1105
 6373SOL    HW130755   3.514   3.323   4.832  0.6002 -0.1689  2.7671
 6373SOL    HW230756   3.379   3.366   4.888 -0.0530  0.7060  0.0103
 6374SOL     OW30757   1.429   4.028  10.243  0.4910  0.0770 -0.0732
 6374SOL    HW130758   1.464   3.939  10.236 -0.2113  0.0487 -3.0362
 6374SOL    HW230759   1.366   4.013  10.315 -0.3011  0.2579 -0.7244
 6375SOL     OW30760   3.038   3.145  14.867  0.0286  0.4200 -0.5234
 6375SOL    HW130761   3.067   3.231  14.838  0.4971 -0.2353 -2.0155
 6375SOL    HW230762   3.017   3.166  14.957 -0.7007 -1.2850 -0.2935
 6376SOL     OW30763   0.108   2.264   0.531 -0.2229  0.7404  0.1160
 6376SOL    HW130764   0.146   2.338   0.577 -2.4553  1.0005  1.5186
 6376SOL    HW230765   0.117   2.195   0.597  1.9816  0.0206 -0.9084
 6377SOL     OW30766   0.438   2.136  11.357 -0.8833  0.0444  0.0456
 6377SOL    HW130767   0.429   2.041  11.370 -1.1969  0.2423  1.2811
 6377SOL    HW230768   0.505   2.151  11.291  1.7947 -1.7168  2.3366
 6378SOL     OW30769   1.030   3.305   6.116  0.1941  0.3721  0.1173
 6378SOL    HW130770   1.008   3.323   6.207  0.0443 -0.1886  0.1907
 6378SOL    HW230771   1.048   3.392   6.081  0.8837 -0.0413 -0.5607
 6379SOL     OW30772   4.353   2.586   3.826 -0.1771 -0.5461  0.2958
 6379SOL    HW130773   4.391   2.597   3.913  0.3121  2.9711 -0.3472
 6379SOL    HW230774   4.381   2.497   3.805 -0.5055 -0.2795 -1.2580
 6380SOL     OW30775   1.347   2.925   4.040 -0.5358  0.0326  0.3459
 6380SOL    HW130776   1.271   2.887   4.085  0.0024 -1.4109  0.0365
 6380SOL    HW230777   1.327   2.913   3.948 -0.1747 -1.1322  0.4290
 6381SOL     OW30778   3.226   3.530   7.570  1.0089  0.3053 -0.7104
 6381SOL    HW130779   3.260   3.443   7.590  0.3823  0.3869  0.7093
 6381SOL    HW230780   3.151   3.524   7.629  1.3186  1.4109 -0.2154
 6382SOL     OW30781   1.350   1.985   6.580 -0.5113 -0.8813 -0.1287
 6382SOL    HW130782   1.379   2.074   6.561  0.9928 -1.3588 -0.0631
 6382SOL    HW230783   1.419   1.927   6.550 -0.3830  0.0718 -1.6675
 6383SOL     OW30784   1.025   0.940   9.516  0.4991  0.0145 -0.7776
 6383SOL    HW130785   1.056   0.886   9.443  0.8817  0.3857 -0.8838
 6383SOL    HW230786   1.096   1.004   9.514  0.5313  0.0381  0.8266
 6384SOL     OW30787   3.667   0.579  13.166  0.7091 -0.4872 -1.0138
 6384SOL    HW130788   3.659   0.630  13.246 -4.0573 -1.4079 -0.9275
 6384SOL    HW230789   3.677   0.488  13.193 -0.3620 -0.4079 -0.3607
 6385SOL     OW30790   1.302   3.578   6.892 -0.9096  0.1524  0.7495
 6385SOL    HW130791   1.283   3.532   6.974  1.5938  0.4053  1.4767
 6385SOL    HW230792   1.353   3.654   6.919 -0.9213  0.2352  0.5384
 6386SOL     OW30793   2.719   3.419   5.625 -0.1850 -0.0608 -0.7596
 6386SOL    HW130794   2.660   3.373   5.565 -1.4526 -3.0352  2.8492
 6386SOL    HW230795   2.695   3.505   5.589  2.4982  1.2421  0.5603
 6387SOL     OW30796   0.752   2.293   2.547  0.0692 -0.3654 -0.0275
 6387SOL    HW130797   0.772   2.253   2.632  1.1800 -0.9227 -0.5502
 6387SOL    HW230798   0.836   2.296   2.500 -0.5508 -0.2622 -1.1295
 6388SOL     OW30799   2.605   2.653   3.919  0.1743 -0.4081  0.1736
 6388SOL    HW130800   2.625   2.721   3.854  0.0247 -0.4438  0.0888
 6388SOL    HW230801   2.664   2.579   3.908 -0.7291 -1.0615 -0.3443
 6389SOL     OW30802   1.491   3.826  15.806 -0.1229  0.5160  0.3288
 6389SOL    HW130803   1.527   3.862  15.887  2.5184 -1.6965  0.1389
 6389SOL    HW230804   1.570   3.820  15.752 -1.4522  0.4391 -1.6025
 6390SOL     OW30805   3.415   1.841   4.662  0.2567  0.3404 -0.2661
 6390SOL    HW130806   3.490   1.787   4.636  0.3737 -0.4598  1.7819
 6390SOL    HW230807   3.408   1.892   4.581  2.0569  0.0568 -0.6065
 6391SOL     OW30808   4.196   3.355   0.328  0.2691 -0.5033  0.0827
 6391SOL    HW130809   4.107   3.330   0.352  0.3286 -0.5932  0.2064
 6391SOL    HW230810   4.218   3.389   0.415 -0.5325 -2.5308  1.0580
 6392SOL     OW30811   4.197   0.439   2.963 -0.4956  0.5988  0.7612
 6392SOL    HW130812   4.191   0.351   3.000 -2.9367  0.8290  0.8981
 6392SOL    HW230813   4.184   0.436   2.869  0.3137  1.4959  0.6162
 6393SOL     OW30814   1.420   2.989   7.628 -0.0972  0.2274  0.7086
 6393SOL    HW130815   1.504   2.989   7.672  0.0267 -1.9107  0.4521
 6393SOL    HW230816   1.398   2.900   7.654 -2.3669  0.4888 -0.2722
 6394SOL     OW30817   2.266   3.820   5.230  0.1092 -0.1454  0.8790
 6394SOL    HW130818   2.359   3.822   5.253 -0.2097  1.7464  2.1021
 6394SOL    HW230819   2.243   3.742   5.281  0.2582 -0.6182  0.2213
 6395SOL     OW30820   1.894   2.424  11.580  0.3788 -0.4407 -0.0207
 6395SOL    HW130821   1.979   2.436  11.623 -0.6445  1.7508  1.4215
 6395SOL    HW230822   1.900   2.330  11.562 -0.0772 -0.7918  1.6029
 6396SOL     OW30823   3.532   2.342  16.788 -0.4105  0.2860 -0.0624
 6396SOL    HW130824   3.476   2.392  16.728  1.6458  0.4498 -1.8848
 6396SOL    HW230825   3.620   2.366  16.757 -1.2222  1.9029 -1.1420
 6397SOL     OW30826   0.249   2.228   3.875 -0.0641 -0.2237 -0.2435
 6397SOL    HW130827   0.308   2.271   3.937  0.8250 -0.3818 -0.9663
 6397SOL    HW230828   0.241   2.143   3.919 -0.0120  0.8659  1.8643
 6398SOL     OW30829   0.960   1.420   7.718  0.5799 -0.0505  0.1885
 6398SOL    HW130830   0.950   1.379   7.633  1.4830  1.0208 -0.4212
 6398SOL    HW230831   1.024   1.367   7.766 -0.3215 -0.4724  0.9362
 6399SOL     OW30832   2.350   0.284   4.758  0.1168  0.0750  0.0212
 6399SOL    HW130833   2.384   0.196   4.772 -1.0512 -0.7750 -2.3539
 6399SOL    HW230834   2.257   0.274   4.779  0.5570 -2.2279  0.9041
 6400SOL     OW30835   1.941   1.865  15.692 -0.4625  0.3647 -0.1008
 6400SOL    HW130836   1.902   1.844  15.607 -0.4049  0.2081 -0.0894
 6400SOL    HW230837   2.009   1.798  15.700 -0.0812  1.1576  3.4514
 6401SOL     OW30838   1.454   3.095  13.010 -0.2457  0.3899  0.4718
 6401SOL    HW130839   1.480   3.153  12.939 -0.7364  0.6983  0.5454
 6401SOL    HW230840   1.361   3.116  13.014 -0.5527 -0.8317 -0.2847
 6402SOL     OW30841   4.587   2.620   4.605  0.6670  0.0423 -0.0028
 6402SOL    HW130842   4.674   2.592   4.632 -0.2961 -2.5168  0.4197
 6402SOL    HW230843   4.602   2.663   4.521 -0.4006  0.7954  0.1773
 6403SOL     OW30844   2.622   4.652  17.172 -0.4073 -0.1808 -0.0816
 6403SOL    HW130845   2.659   4.590  17.108 -0.2666 -0.7227  0.5230
 6403SOL    HW230846   2.604   4.731  17.121 -3.6181  0.3712  1.9525
 6404SOL     OW30847   3.078   2.121   9.873  0.3515  0.2807  0.0547
 6404SOL    HW130848   3.038   2.205   9.850 -0.9739  0.1974  2.0759
 6404SOL    HW230849   3.034   2.066   9.809 -0.7440 -0.4019  1.4232
 6405SOL     OW30850   4.320   3.050   9.241 -0.2917  0.2779  0.0187
 6405SOL    HW130851   4.233   3.071   9.274  0.5387  0.7797  1.8745
 6405SOL    HW230852   4.315   3.088   9.153  0.4064  0.6682  0.1440
 6406SOL     OW30853   3.411   2.243   4.102  0.3954 -0.4779 -0.8434
 6406SOL    HW130854   3.350   2.271   4.170 -1.8356  0.6891 -3.3174
 6406SOL    HW230855   3.385   2.151   4.093 -1.4992 -0.2708  2.5249
 6407SOL     OW30856   0.017   4.000   6.265  0.8788 -0.4154 -0.2211
 6407SOL    HW130857   0.027   3.936   6.195 -0.2524 -0.5434 -0.2778
 6407SOL    HW230858   0.073   3.968   6.336 -2.0925 -0.6547  2.0551
 6408SOL     OW30859   4.515   1.616   8.901  0.2153  0.0743  0.0543
 6408SOL    HW130860   4.492   1.542   8.844  1.0292  0.5664 -0.9066
 6408SOL    HW230861   4.604   1.633   8.870  0.1381  2.7791  1.2482
 6409SOL     OW30862   0.147   0.422   1.588 -0.1048  0.5020 -0.2341
 6409SOL    HW130863   0.082   0.357   1.563 -0.3519  1.0414 -0.9912
 6409SOL    HW230864   0.093   0.496   1.613 -1.7566 -0.6481 -0.4214
 6410SOL     OW30865   2.877   2.640  16.214 -0.4680  0.2158  0.0443
 6410SOL    HW130866   2.954   2.670  16.262  0.4650  0.1854 -1.4169
 6410SOL    HW230867   2.886   2.694  16.136  2.4913  2.3610  1.8591
 6411SOL     OW30868   3.382   4.139   3.523  0.2369 -0.4396 -0.3363
 6411SOL    HW130869   3.425   4.061   3.485  1.1140 -0.7665  1.3600
 6411SOL    HW230870   3.288   4.127   3.510  0.1241  0.0605  0.0491
 6412SOL     OW30871   3.342   4.609   4.634 -0.2307  0.2365  0.3879
 6412SOL    HW130872   3.362   4.517   4.652 -1.3837 -0.1536 -0.3268
 6412SOL    HW230873   3.323   4.613   4.540 -0.7399  2.8933  0.6096
 6413SOL     OW30874   1.900   3.094  14.250 -0.0908  0.0073 -0.3217
 6413SOL    HW130875   1.913   3.166  14.312 -0.1206  0.0504 -0.3648
 6413SOL    HW230876   1.922   3.013  14.295 -1.1814  0.3602  0.8501
 6414SOL     OW30877   2.859   3.530   6.975  0.3640  0.5150 -0.4199
 6414SOL    HW130878   2.893   3.577   6.899 -0.9935  1.4868 -0.4177
 6414SOL    HW230879   2.766   3.550   6.962  0.2974 -0.1049 -0.9200
 6415SOL     OW30880   1.160   1.219   2.178  0.1521  0.3867 -0.8216
 6415SOL    HW130881   1.214   1.264   2.242 -0.0439 -3.1088  1.8078
 6415SOL    HW230882   1.231   1.214   2.114  0.7149  0.1957 -0.1785
 6416SOL     OW30883   1.191   0.071   3.276  0.1901  0.8848  0.0206
 6416SOL    HW130884   1.209   0.144   3.335  0.7665  0.7629 -0.0109
 6416SOL    HW230885   1.144   0.118   3.208  0.1175 -2.2792 -2.1492
 6417SOL     OW30886   4.456   1.430  12.928 -0.2467  0.2737 -0.0326
 6417SOL    HW130887   4.520   1.399  12.864 -0.0158  0.0737  0.2931
 6417SOL    HW230888   4.468   1.525  12.919  2.1599  0.2494  2.7213
 6418SOL     OW30889   0.222   0.513  12.391 -0.0516  0.2053  0.1929
 6418SOL    HW130890   0.233   0.591  12.338  2.9094  0.2166  0.8056
 6418SOL    HW230891   0.129   0.523  12.409 -0.2531 -1.0644 -0.1028
 6419SOL     OW30892   1.900   0.484   5.557 -0.0554 -0.3246  0.1795
 6419SOL    HW130893   1.879   0.557   5.498 -0.5958 -0.0853  0.6647
 6419SOL    HW230894   1.860   0.508   5.641 -0.3322  1.3268 -0.4167
 6420SOL     OW30895   1.996   1.616   7.243  0.2695 -0.0934  0.0065
 6420SOL    HW130896   1.989   1.668   7.323  1.1113 -0.8546  0.5689
 6420SOL    HW230897   1.912   1.571   7.230 -0.4291  1.4414 -0.8140
 6421SOL     OW30898   0.011   4.556   9.253  0.4521 -0.6744  0.5988
 6421SOL    HW130899   4.708   4.518   9.333 -1.4739 -0.6752 -0.2761
 6421SOL    HW230900   4.662   4.559   9.204  0.9792 -0.3966 -0.2641
 6422SOL     OW30901   1.483   3.462  14.540 -0.6223  0.5947  0.2006
 6422SOL    HW130902   1.420   3.524  14.576  0.6919  1.6230  0.7666
 6422SOL    HW230903   1.496   3.409  14.618  2.7105  1.0426 -0.0118
 6423SOL     OW30904   3.551   2.829   9.463 -0.5957  0.3835  0.2067
 6423SOL    HW130905   3.461   2.848   9.490 -0.1244  2.8541  0.0601
 6423SOL    HW230906   3.595   2.795   9.540  1.6121 -0.5247 -1.4578
 6424SOL     OW30907   3.150   0.577  12.601  0.3207  0.6311 -0.0423
 6424SOL    HW130908   3.108   0.650  12.555  1.8700  0.9280 -1.0058
 6424SOL    HW230909   3.226   0.621  12.640 -0.0795 -0.7224  2.2049
 6425SOL     OW30910   2.514   2.054   4.956  0.0027 -0.3377  0.0445
 6425SOL    HW130911   2.436   2.001   4.941  0.5318 -1.0364 -0.1890
 6425SOL    HW230912   2.479   2.135   4.995  0.2734  0.2784 -1.0023
 6426SOL     OW30913   3.252   0.552   0.757  0.6355  0.4706  0.2537
 6426SOL    HW130914   3.197   0.508   0.822 -0.0354  0.1266 -0.5401
 6426SOL    HW230915   3.314   0.485   0.730  0.8820  0.7204  0.1994
 6427SOL     OW30916   2.501   1.709   8.335  0.2545  0.2266 -0.5157
 6427SOL    HW130917   2.593   1.685   8.347 -0.7583 -1.9842  3.0069
 6427SOL    HW230918   2.469   1.650   8.268 -1.8960 -2.0085  2.4796
 6428SOL     OW30919   3.022   0.722  16.293  0.8398  0.7847  0.5845
 6428SOL    HW130920   3.075   0.796  16.264 -0.1320  1.6968  1.0978
 6428SOL    HW230921   2.942   0.763  16.327  1.9497  0.6298  3.3441
 6429SOL     OW30922   2.803   4.709   6.795  0.6195  0.1734 -0.5520
 6429SOL    HW130923   2.752   4.645   6.746  0.4525 -1.4479  1.6999
 6429SOL    HW230924   2.781   4.669   6.880  2.6699 -0.7978 -0.4685
 6430SOL     OW30925   1.113   3.230   8.932 -0.3172  0.1047  0.5876
 6430SOL    HW130926   1.093   3.213   8.839  0.4238 -1.5632  0.7353
 6430SOL    HW230927   1.208   3.236   8.927 -0.4010  0.7982 -0.2252
 6431SOL     OW30928   1.112   3.991   7.501 -0.0807  0.0076  0.1696
 6431SOL    HW130929   1.022   3.961   7.517 -0.1798  0.4136  0.3718
 6431SOL    HW230930   1.091   4.055   7.432 -1.0497  0.3943  0.8179
 6432SOL     OW30931   3.043   0.996   8.606 -0.0388 -0.7708 -0.0592
 6432SOL    HW130932   3.026   0.988   8.700  0.6298 -0.6948  0.0639
 6432SOL    HW230933   2.993   1.077   8.595  0.8117 -0.4614 -1.4661
 6433SOL     OW30934   2.399   0.458   8.337 -0.1386  0.0917  0.5520
 6433SOL    HW130935   2.430   0.392   8.275  0.0786  1.8316 -1.1793
 6433SOL    HW230936   2.342   0.402   8.390 -1.0246 -0.3704 -0.8710
 6434SOL     OW30937   2.249   1.242   4.809 -0.4444 -0.5794  0.6689
 6434SOL    HW130938   2.316   1.298   4.850  0.2228  0.1376 -1.3881
 6434SOL    HW230939   2.201   1.221   4.889 -4.4517 -1.8153 -2.0712
 6435SOL     OW30940   4.100   0.619   1.445  0.5786 -0.1654 -0.1169
 6435SOL    HW130941   4.128   0.642   1.356  2.1800  0.3608  0.5313
 6435SOL    HW230942   4.061   0.700   1.479 -0.6683 -0.1582 -1.5341
 6436SOL     OW30943   1.600   3.224   7.989  0.2576  0.2015 -0.0681
 6436SOL    HW130944   1.663   3.201   7.921 -0.2661 -0.1111 -0.4388
 6436SOL    HW230945   1.525   3.241   7.932 -0.3179 -4.4956 -0.7600
 6437SOL     OW30946   0.159   0.873   5.013 -0.4112  0.1641 -0.5800
 6437SOL    HW130947   0.218   0.838   5.080  0.5439 -1.9579 -2.5192
 6437SOL    HW230948   0.181   0.966   5.013 -1.7047  0.4635  0.1141
 6438SOL     OW30949   2.133   3.498   1.450  0.2929 -0.5148 -0.2091
 6438SOL    HW130950   2.210   3.541   1.413  0.9350 -1.4964  0.0172
 6438SOL    HW230951   2.166   3.498   1.539 -0.4124  1.3852  0.0594
 6439SOL     OW30952   4.535   2.006   5.242 -0.3462  0.5818 -0.0057
 6439SOL    HW130953   4.443   2.028   5.254 -0.5044  1.5766 -3.0327
 6439SOL    HW230954   4.538   1.910   5.247  1.0742  0.6856  1.2507
 6440SOL     OW30955   0.566   4.117   4.825 -0.0527  1.3621  0.1226
 6440SOL    HW130956   0.574   4.211   4.806 -0.0563  1.3368 -0.0047
 6440SOL    HW230957   0.537   4.114   4.916  2.3341 -0.9856  0.7968
 6441SOL     OW30958   2.890   3.752   4.015  0.5704  0.6209  0.4867
 6441SOL    HW130959   2.960   3.687   4.019  0.2307  0.2188 -0.2335
 6441SOL    HW230960   2.809   3.701   4.017  0.3413  0.9923  0.6098
 6442SOL     OW30961   3.835   1.413   6.867 -0.3008  0.0347 -0.3869
 6442SOL    HW130962   3.901   1.452   6.924  1.7658 -1.4748 -1.7321
 6442SOL    HW230963   3.822   1.333   6.917  1.9236 -1.0244 -1.4834
 6443SOL     OW30964   3.270   4.519   6.103 -0.2931 -0.1363 -0.5614
 6443SOL    HW130965   3.285   4.586   6.170 -1.2742 -1.0980  0.6269
 6443SOL    HW230966   3.321   4.551   6.029 -0.9667 -0.1709 -1.0480
 6444SOL     OW30967   0.392   4.051   5.382  0.6286  0.1914  0.3052
 6444SOL    HW130968   0.299   4.075   5.373  0.0312 -1.9824  0.6301
 6444SOL    HW230969   0.381   3.957   5.396  1.8465 -0.6402 -4.1980
 6445SOL     OW30970   3.796   0.447   7.815 -0.1237 -0.4080  0.2135
 6445SOL    HW130971   3.846   0.488   7.745 -0.5871  1.6073  1.0614
 6445SOL    HW230972   3.783   0.363   7.770 -1.9807  1.0971 -2.0699
 6446SOL     OW30973   0.260   0.183   7.004 -0.0247 -0.3152 -0.1953
 6446SOL    HW130974   0.260   0.274   6.974  0.6654 -0.1649  0.2632
 6446SOL    HW230975   0.171   0.164   7.034  0.3245 -1.2133  0.2725
 6447SOL     OW30976   0.284   0.963   9.375 -0.0123 -0.2854  0.3083
 6447SOL    HW130977   0.378   0.975   9.358 -0.4114  1.4061 -0.6354
 6447SOL    HW230978   0.268   0.883   9.325  2.3652 -0.3366 -0.3837
 6448SOL     OW30979   2.849   4.187   6.290  0.0036  0.2219 -0.1184
 6448SOL    HW130980   2.864   4.280   6.308 -0.6974  0.3317 -0.1111
 6448SOL    HW230981   2.761   4.180   6.253 -0.6339  0.6803  1.3104
 6449SOL     OW30982   4.713   4.329   4.520  0.1454  0.1974  0.4462
 6449SOL    HW130983   0.045   4.259   4.526  0.3266  0.2484 -0.9785
 6449SOL    HW230984   0.009   4.385   4.447 -0.7555  2.6359  1.9543
 6450SOL     OW30985   0.906   3.767  14.019  0.1717 -0.6448 -0.1372
 6450SOL    HW130986   0.907   3.719  13.936  0.0699  1.6061 -1.4369
 6450SOL    HW230987   0.820   3.809  14.015 -0.0883 -1.2038 -0.2730
 6451SOL     OW30988   2.419   1.748   6.813 -0.2707  0.6729  0.3584
 6451SOL    HW130989   2.375   1.828   6.785  1.1161 -0.1693 -4.2042
 6451SOL    HW230990   2.505   1.786   6.830  0.1404 -0.2175  0.2596
 6452SOL     OW30991   3.113   3.111  14.503  0.1662 -0.0934  0.1090
 6452SOL    HW130992   3.144   3.120  14.413 -1.9006  1.5893 -0.4456
 6452SOL    HW230993   3.019   3.127  14.493 -0.1746 -1.6243  0.8288
 6453SOL     OW30994   0.568   3.633   2.579  0.3501  0.3074  0.3775
 6453SOL    HW130995   0.634   3.567   2.601 -0.3043 -0.3810  0.2613
 6453SOL    HW230996   0.497   3.589   2.532 -1.0286  1.3318  1.5224
 6454SOL     OW30997   3.036   3.193   2.683 -0.1783 -0.4142 -0.5835
 6454SOL    HW130998   3.097   3.131   2.723  0.2605  0.0982 -0.4715
 6454SOL    HW230999   3.090   3.271   2.677 -0.1947 -0.2947  0.8794
 6455SOL     OW31000   4.390   3.020  14.148  0.2112  0.2310  0.4174
 6455SOL    HW131001   4.417   2.993  14.236  1.8741  1.0698  0.1846
 6455SOL    HW231002   4.474   3.021  14.101  0.8982  1.0550  1.6498
 6456SOL     OW31003   1.943   2.248  10.221  0.3604 -0.8473 -0.0750
 6456SOL    HW131004   1.951   2.234  10.316 -1.0113 -1.3993 -0.0555
 6456SOL    HW231005   1.858   2.291  10.212  0.7012 -0.1625 -0.0075
 6457SOL     OW31006   0.095   2.354   7.915  0.5461 -0.3123  0.3375
 6457SOL    HW131007   0.005   2.386   7.907  0.7336  0.1488  0.0633
 6457SOL    HW231008   0.078   2.260   7.902  2.0351 -0.8561  2.4816
 6458SOL     OW31009   0.953   0.191   3.441 -0.3507  0.2819  0.6919
 6458SOL    HW131010   0.880   0.229   3.392  0.3052  1.9238  1.0042
 6458SOL    HW231011   0.931   0.099   3.422 -2.3321  1.1170 -1.0469
 6459SOL     OW31012   3.296   3.474   2.317 -0.4314  0.2608 -0.1055
 6459SOL    HW131013   3.353   3.550   2.306  0.1719 -0.3648 -1.3226
 6459SOL    HW231014   3.291   3.443   2.227 -1.1023  0.9983 -0.3115
 6460SOL     OW31015   0.796   2.313  16.834  0.4548  0.3545 -0.1499
 6460SOL    HW131016   0.770   2.376  16.767 -0.9462 -0.9096 -0.7963
 6460SOL    HW231017   0.743   2.233  16.830 -0.9429  1.2167  1.1231
 6461SOL     OW31018   0.054   1.636   1.618  0.3830  0.5520 -0.1957
 6461SOL    HW131019   0.123   1.701   1.632  0.9694 -0.1878  0.3205
 6461SOL    HW231020   0.031   1.613   1.708  2.0877  0.2184  0.1639
 6462SOL     OW31021   4.459   2.612   9.072 -0.4045  0.1619  0.1990
 6462SOL    HW131022   4.481   2.520   9.086  0.7097 -0.0907 -3.1426
 6462SOL    HW231023   4.547   2.649   9.063 -0.3630 -0.0065 -0.0748
 6463SOL     OW31024   3.131   4.592   7.259  0.2452 -0.1937  0.2426
 6463SOL    HW131025   3.139   4.658   7.190  0.4354  0.7993  1.2192
 6463SOL    HW231026   3.223   4.588   7.284  0.0448  2.5922  1.3946
 6464SOL     OW31027   1.535   0.584   4.222  0.4486 -0.5346  0.6398
 6464SOL    HW131028   1.537   0.578   4.126  2.7637 -2.3982  0.7935
 6464SOL    HW231029   1.466   0.646   4.243  1.1915  0.1384  1.0692
 6465SOL     OW31030   1.853   1.500   8.692 -0.4779 -0.1700  0.3578
 6465SOL    HW131031   1.871   1.526   8.601 -3.2331  1.4918  0.2724
 6465SOL    HW231032   1.791   1.429   8.678  1.7231 -2.2462  1.2327
 6466SOL     OW31033   3.695   3.106  15.049  0.2940  0.4610  0.1167
 6466SOL    HW131034   3.678   3.078  15.139 -1.9280  0.3019 -0.3524
 6466SOL    HW231035   3.609   3.103  15.009 -0.0060 -1.5101  0.9318
 6467SOL     OW31036   2.838   1.201   3.875  0.1884  0.1188  0.4432
 6467SOL    HW131037   2.899   1.189   3.947  1.5268  1.7652 -0.4209
 6467SOL    HW231038   2.845   1.296   3.865 -0.2805  0.1468  0.3794
 6468SOL     OW31039   1.717   1.447  16.197 -0.4997 -0.6145 -0.1167
 6468SOL    HW131040   1.642   1.499  16.168  0.3114  0.1222 -0.9007
 6468SOL    HW231041   1.748   1.506  16.266 -3.6120 -0.7993  1.4356
 6469SOL     OW31042   1.093   4.610   0.529  0.1709  0.4045 -0.2285
 6469SOL    HW131043   1.023   4.598   0.465 -0.1321 -0.4946  0.2766
 6469SOL    HW231044   1.153   4.671   0.486 -0.6558  1.2422 -0.1769
 6470SOL     OW31045   0.186   3.981  16.425 -0.0930  0.1893 -0.4374
 6470SOL    HW131046   0.239   3.914  16.467 -1.7320 -0.8594 -0.0478
 6470SOL    HW231047   0.134   4.019  16.496  1.3981  3.1306 -0.9056
 6471SOL     OW31048   4.108   0.382   8.929  0.5838  0.4835  0.2704
 6471SOL    HW131049   4.148   0.461   8.891 -1.9364  1.1556 -1.0208
 6471SOL    HW231050   4.184   0.336   8.963  1.4299 -0.7686 -3.3229
 6472SOL     OW31051   0.902   4.711   1.696 -0.0874  0.4701 -0.0932
 6472SOL    HW131052   0.917   0.017   1.782 -0.0870 -0.2633  0.2503
 6472SOL    HW231053   0.858   4.631   1.726 -0.9195  0.8028 -0.4336
 6473SOL     OW31054   0.892   1.369   8.443  0.4832  0.0459  0.0197
 6473SOL    HW131055   0.911   1.417   8.362 -0.5674  0.5978  0.1031
 6473SOL    HW231056   0.806   1.405   8.465 -0.6963 -0.9841 -2.8982
 6474SOL     OW31057   1.966   1.797  12.531 -0.1135  0.2274  0.3733
 6474SOL    HW131058   1.980   1.861  12.602  1.1310  0.8316 -0.4256
 6474SOL    HW231059   1.966   1.850  12.451 -2.5093 -0.7192 -0.2516
 6475SOL     OW31060   1.576   2.754   3.633 -0.3803 -0.0350  0.1384
 6475SOL    HW131061   1.584   2.838   3.678 -1.0720 -0.1601  0.4923
 6475SOL    HW231062   1.481   2.745   3.624  0.0275 -4.1512 -0.1440
 6476SOL     OW31063   3.471   2.309  15.298 -0.2227 -0.2061 -0.1644
 6476SOL    HW131064   3.503   2.399  15.311 -0.5972 -0.4699  2.7095
 6476SOL    HW231065   3.398   2.333  15.241  0.4176 -2.7814 -2.0604
 6477SOL     OW31066   4.086   4.405  16.077 -0.4996 -0.2105  0.6736
 6477SOL    HW131067   4.021   4.405  16.006 -0.0906 -2.4251  0.2718
 6477SOL    HW231068   4.071   4.316  16.109  2.3426 -0.8121  0.2996
 6478SOL     OW31069   3.091   4.155   2.827  0.7423 -0.5431  0.5888
 6478SOL    HW131070   3.053   4.106   2.754 -0.5143  1.2825  0.0328
 6478SOL    HW231071   3.144   4.082   2.859  1.5091 -0.0055  0.5538
 6479SOL     OW31072   4.733   3.912  15.305  0.0588 -0.1601 -0.2333
 6479SOL    HW131073   4.655   3.948  15.347 -0.6142  0.5350 -2.0654
 6479SOL    HW231074   0.027   3.836  15.355  0.8070  0.5054  0.3769
 6480SOL     OW31075   0.230   1.440   2.405  0.3107 -0.3460 -0.3340
 6480SOL    HW131076   0.151   1.458   2.456  1.5484  2.9444  0.4045
 6480SOL    HW231077   0.266   1.372   2.463 -4.0015  1.5132  4.5429
 6481SOL     OW31078   0.522   4.239  12.538  0.6893 -0.2999  0.0386
 6481SOL    HW131079   0.576   4.250  12.459 -1.7342  0.3582 -1.5381
 6481SOL    HW231080   0.539   4.146  12.555  0.9163  0.0166  1.4771
 6482SOL     OW31081   4.567   2.967   9.291  0.3769 -0.2123 -0.5706
 6482SOL    HW131082   4.480   3.003   9.278  0.4440  0.2621  0.3136
 6482SOL    HW231083   4.564   2.932   9.380  0.7641  0.2240 -0.3841
 6483SOL     OW31084   3.755   3.802   9.788  0.2601 -0.1595 -0.3178
 6483SOL    HW131085   3.720   3.754   9.713 -2.9161  1.3139  0.2051
 6483SOL    HW231086   3.720   3.751   9.861 -2.2138  0.4257 -1.0928
 6484SOL     OW31087   3.637   3.971  14.776 -0.2152  0.2696 -0.0953
 6484SOL    HW131088   3.620   3.891  14.825  2.4530  0.0190  0.4292
 6484SOL    HW231089   3.638   3.939  14.686  1.9968 -0.6177  0.2551
 6485SOL     OW31090   3.401   3.539   9.710 -0.3689  0.6274  0.6606
 6485SOL    HW131091   3.464   3.471   9.735  0.2449  0.3660 -1.6223
 6485SOL    HW231092   3.386   3.581   9.795 -0.2574  0.5653  0.7117
 6486SOL     OW31093   3.893   0.601   7.608  0.0998  0.0241 -0.7643
 6486SOL    HW131094   3.854   0.665   7.548  0.4867  0.5909 -0.4092
 6486SOL    HW231095   3.959   0.653   7.654 -1.6179  2.5419 -1.2020
 6487SOL     OW31096   4.310   0.520   8.079 -0.0018  0.0121 -0.1485
 6487SOL    HW131097   4.372   0.448   8.091  0.8661  0.7213 -0.4228
 6487SOL    HW231098   4.304   0.539   7.986 -1.1288 -1.7431 -0.4280
 6488SOL     OW31099   0.195   1.317   5.679  0.2731  0.0904 -0.6407
 6488SOL    HW131100   0.184   1.393   5.736  0.1516  0.5813 -1.3216
 6488SOL    HW231101   0.113   1.272   5.700  0.0388  0.6825 -0.3001
 6489SOL     OW31102   1.591   1.764   4.940  0.1247 -0.0302  0.1906
 6489SOL    HW131103   1.614   1.688   4.994  0.8064  0.5601  0.7278
 6489SOL    HW231104   1.546   1.723   4.866 -0.2858 -0.7339  0.8175
 6490SOL     OW31105   3.967   4.379   6.910 -0.1163  0.3627 -0.0021
 6490SOL    HW131106   3.944   4.381   6.817 -0.1398 -1.6418 -0.0500
 6490SOL    HW231107   4.027   4.304   6.909 -0.7959 -0.1717 -1.3188
 6491SOL     OW31108   2.594   0.043   2.178  0.2407  0.2893  0.4014
 6491SOL    HW131109   2.503   0.072   2.185  0.4555  1.1470 -0.2133
 6491SOL    HW231110   2.627   0.099   2.249 -1.9638  2.5097 -0.3248
 6492SOL     OW31111   4.116   3.748   0.126 -0.0889  0.1411 -0.1120
 6492SOL    HW131112   4.024   3.758   0.102 -0.3678  0.3790  1.0400
 6492SOL    HW231113   4.131   3.842   0.124 -0.9658  0.2766 -0.1709
 6493SOL     OW31114   1.197   4.700   2.581 -0.3540  0.1753 -0.0480
 6493SOL    HW131115   1.223   4.671   2.493  0.5648 -2.3245  1.0370
 6493SOL    HW231116   1.221   4.622   2.631 -1.2929 -0.9774 -1.3925
 6494SOL     OW31117   2.181   1.092   1.594  0.2904 -0.5253  0.1158
 6494SOL    HW131118   2.206   1.173   1.639 -0.8846 -1.1901  1.9545
 6494SOL    HW231119   2.165   1.034   1.668 -1.3624 -0.9829 -0.6042
 6495SOL     OW31120   0.510   0.621   5.622  0.1110 -0.2750  0.3636
 6495SOL    HW131121   0.522   0.555   5.690  3.7747 -1.3823 -1.3101
 6495SOL    HW231122   0.426   0.592   5.584  0.2435 -0.2205  0.0235
 6496SOL     OW31123   1.864   0.210   5.509  0.3191 -0.1583  0.0249
 6496SOL    HW131124   1.856   0.242   5.419  0.3899  0.5563  0.2707
 6496SOL    HW231125   1.883   0.293   5.553 -0.9349  0.8789 -1.3764
 6497SOL     OW31126   3.751   3.907   4.345 -0.5607  0.0810 -0.1088
 6497SOL    HW131127   3.701   3.972   4.296 -0.5524 -0.3549 -0.6824
 6497SOL    HW231128   3.680   3.866   4.394 -2.2525  1.1309 -1.7190
 6498SOL     OW31129   1.174   1.311   5.223  1.0028 -0.1493  0.1568
 6498SOL    HW131130   1.201   1.390   5.268  1.6879  0.4670 -1.3249
 6498SOL    HW231131   1.219   1.321   5.139 -0.9780  1.9920 -0.6483
 6499SOL     OW31132   3.602   3.290  15.268  0.2419  0.6007  0.4268
 6499SOL    HW131133   3.664   3.267  15.337  0.1652  0.9683  0.6179
 6499SOL    HW231134   3.548   3.347  15.323 -0.3144  0.3476  0.1517
 6500SOL     OW31135   2.696   3.263   8.209  0.3585  0.1203 -0.0902
 6500SOL    HW131136   2.660   3.226   8.128 -0.6049 -0.0577  0.4245
 6500SOL    HW231137   2.712   3.181   8.256  1.6040  1.0145  1.0624
 6501SOL     OW31138   3.097   1.390   7.664 -0.3602 -0.0830  0.5056
 6501SOL    HW131139   3.175   1.426   7.622 -2.3345  2.9961 -0.5617
 6501SOL    HW231140   3.020   1.427   7.620 -1.3981  0.1628  2.4741
 6502SOL     OW31141   2.349   3.530  17.321  0.2157 -0.8198 -0.1162
 6502SOL    HW131142   2.378   3.478  17.396  1.0264  1.4165  1.1314
 6502SOL    HW231143   2.255   3.549  17.320  0.2912 -0.4235  0.9034
 6503SOL     OW31144   2.753   3.979   6.492  0.1364  0.1406  0.4059
 6503SOL    HW131145   2.802   4.031   6.555  1.0189 -2.6286  1.9719
 6503SOL    HW231146   2.762   4.008   6.401 -1.4461  0.4827  0.3571
 6504SOL     OW31147   3.079   1.854   7.732 -0.3279 -0.2135  0.4650
 6504SOL    HW131148   3.145   1.793   7.699 -0.3281 -0.4073  0.8195
 6504SOL    HW231149   3.112   1.876   7.819 -0.9002 -1.6183  1.0491
 6505SOL     OW31150   1.613   2.010   6.086 -0.1037 -0.1406 -0.6354
 6505SOL    HW131151   1.588   1.963   6.166  1.5817  0.9775  0.5457
 6505SOL    HW231152   1.542   2.073   6.076  1.7939  1.8193 -1.7614
 6506SOL     OW31153   1.811   1.539   2.820  0.3036 -0.2982  0.1087
 6506SOL    HW131154   1.783   1.630   2.811  2.6469  0.3412 -0.5384
 6506SOL    HW231155   1.905   1.548   2.805  0.4055 -1.4504  0.0595
 6507SOL     OW31156   3.568   2.797   3.485  0.0136 -0.1731 -0.3790
 6507SOL    HW131157   3.486   2.750   3.465 -0.4683  1.6143 -2.5765
 6507SOL    HW231158   3.539   2.843   3.563  2.9693  0.4901  0.3075
 6508SOL     OW31159   1.018   3.413   5.351 -0.5195  0.0106  0.8137
 6508SOL    HW131160   1.053   3.376   5.432 -0.8411 -0.6578  0.6377
 6508SOL    HW231161   0.936   3.369   5.333  1.6279 -4.0755  1.1498
 6509SOL     OW31162   0.265   1.035   8.295 -0.0351  0.0973  0.7593
 6509SOL    HW131163   0.277   1.062   8.204 -0.3075 -3.9325 -0.4705
 6509SOL    HW231164   0.181   0.990   8.285 -0.1925  0.2143  1.5712
 6510SOL     OW31165   3.323   3.998  17.184  0.0845 -0.1654 -0.2038
 6510SOL    HW131166   3.304   4.087  17.153 -0.9718 -0.8986 -1.6698
 6510SOL    HW231167   3.272   4.009  17.264  0.0525 -1.7994 -0.0157
 6511SOL     OW31168   0.117   3.737   9.217 -0.0109  0.0551  0.2092
 6511SOL    HW131169   0.124   3.756   9.124 -0.3077 -1.9897 -0.2327
 6511SOL    HW231170   0.178   3.665   9.231 -1.5263 -1.6277 -2.0080
 6512SOL     OW31171   0.636   0.951   4.344  0.1809 -0.2588  0.0889
 6512SOL    HW131172   0.546   0.919   4.352 -0.2597  0.8314 -0.5703
 6512SOL    HW231173   0.640   1.004   4.424 -2.1417 -0.9804  0.6663
 6513SOL     OW31174   3.269   3.399  17.254  0.5296 -0.1399 -0.0242
 6513SOL    HW131175   3.345   3.390  17.310  1.0629 -1.7465 -1.0025
 6513SOL    HW231176   3.227   3.313  17.267  0.2442 -0.0942 -0.6244
 6514SOL     OW31177   3.302   2.161   3.525 -0.2268  0.0545 -0.1222
 6514SOL    HW131178   3.236   2.185   3.591  0.4105  1.2636  0.0816
 6514SOL    HW231179   3.289   2.067   3.535  2.6382 -0.1897  1.2486
 6515SOL     OW31180   0.598   4.511   2.247  0.4502  0.2118 -0.0828
 6515SOL    HW131181   0.688   4.519   2.214 -0.2492 -0.0519 -2.0355
 6515SOL    HW231182   0.568   4.426   2.216 -0.7902  0.9834 -1.0174
 6516SOL     OW31183   3.880   4.005   2.342 -0.3876 -0.3291  0.2980
 6516SOL    HW131184   3.855   4.005   2.435 -1.1876 -0.2585  0.0854
 6516SOL    HW231185   3.939   3.930   2.337  0.6655  0.6817 -2.5325
 6517SOL     OW31186   3.722   2.506   6.165 -0.5607 -0.1908  0.0969
 6517SOL    HW131187   3.698   2.579   6.108 -0.9556  0.6591  1.3535
 6517SOL    HW231188   3.762   2.548   6.241 -1.7765  2.4685 -0.6988
 6518SOL     OW31189   4.190   3.400   0.593  0.5654 -0.1559  0.0897
 6518SOL    HW131190   4.117   3.425   0.650  1.7894  0.0945  1.5378
 6518SOL    HW231191   4.225   3.322   0.637 -0.5068  0.3666  1.8666
 6519SOL     OW31192   3.903   2.938  10.950 -0.0647 -0.5841  0.2145
 6519SOL    HW131193   3.987   2.897  10.967  0.2983 -0.7505 -1.9634
 6519SOL    HW231194   3.888   2.927  10.856 -0.7522  3.7757 -0.2096
 6520SOL     OW31195   0.853   2.717   1.430 -0.3778  0.1423 -0.0930
 6520SOL    HW131196   0.930   2.773   1.419  0.0707 -0.2803  0.9575
 6520SOL    HW231197   0.882   2.660   1.501 -0.7011  2.8027  2.1794
 6521SOL     OW31198   3.680   2.497  10.515  0.5579  0.2936 -0.1506
 6521SOL    HW131199   3.612   2.540  10.463  0.8503  2.2814  1.1016
 6521SOL    HW231200   3.659   2.541  10.597 -1.0540 -0.1299 -0.3370
 6522SOL     OW31201   3.700   4.234   0.375 -0.1253  0.1241  0.6718
 6522SOL    HW131202   3.621   4.257   0.423 -1.2470 -1.7092 -0.3029
 6522SOL    HW231203   3.690   4.293   0.301  0.8443  0.2716  0.6610
 6523SOL     OW31204   3.856   4.368   6.190 -0.9461  0.5755  0.1351
 6523SOL    HW131205   3.940   4.404   6.162 -0.9122 -0.4371 -1.0373
 6523SOL    HW231206   3.789   4.428   6.157 -4.2269 -2.5642  0.9937
 6524SOL     OW31207   4.661   3.566   1.275  0.0412  0.1838 -0.3911
 6524SOL    HW131208   4.709   3.635   1.230 -0.1461  0.1847 -0.5893
 6524SOL    HW231209   4.669   3.595   1.365 -1.3017 -1.1457  0.1756
 6525SOL     OW31210   4.317   2.464   3.406 -0.4720  0.9487  0.0987
 6525SOL    HW131211   4.360   2.502   3.329 -0.3110 -2.4087 -1.4592
 6525SOL    HW231212   4.285   2.548   3.438  1.1458  2.6300 -2.6421
 6526SOL     OW31213   0.396   3.140   6.071 -0.2673 -0.3960  0.8467
 6526SOL    HW131214   0.472   3.187   6.107  0.6619  1.1636 -3.1426
 6526SOL    HW231215   0.327   3.197   6.104  0.5085  0.6484  0.6942
 6527SOL     OW31216   2.938   3.515   8.629 -0.3816 -0.5080 -0.1807
 6527SOL    HW131217   2.996   3.591   8.620 -0.8752 -0.4515 -2.6590
 6527SOL    HW231218   2.980   3.465   8.699  0.6159 -0.6973 -0.9171
 6528SOL     OW31219   2.682   0.265   5.279 -0.0969  0.2373  0.4218
 6528SOL    HW131220   2.592   0.285   5.305  0.1551  0.8057  0.8429
 6528SOL    HW231221   2.736   0.294   5.352 -0.7765 -0.7581  1.3208
 6529SOL     OW31222   0.945   0.201  16.744  0.6238  0.1352  0.1685
 6529SOL    HW131223   0.999   0.244  16.678 -0.7763  2.3653  0.4727
 6529SOL    HW231224   0.948   0.263  16.817  0.0389  1.4349 -0.8984
 6530SOL     OW31225   3.509   2.315  12.138  0.5536  0.0173 -0.2852
 6530SOL    HW131226   3.423   2.352  12.159  0.3490  0.4715 -1.9563
 6530SOL    HW231227   3.519   2.240  12.198 -1.4502  1.3230  1.6982
 6531SOL     OW31228   0.374   3.276  14.732  0.9263  0.2152  0.3542
 6531SOL    HW131229   0.339   3.321  14.655 -2.6742 -2.4718  0.4305
 6531SOL    HW231230   0.412   3.351  14.778  1.8083  0.7748 -1.2686
 6532SOL     OW31231   4.460   2.985  13.762 -0.2746 -0.1648 -0.3615
 6532SOL    HW131232   4.491   2.959  13.675  0.6781  0.1579 -0.1213
 6532SOL    HW231233   4.371   3.008  13.737  0.3861  0.5781 -2.0997
 6533SOL     OW31234   0.287   1.199   4.039 -0.1483 -0.2933 -0.6347
 6533SOL    HW131235   0.315   1.115   4.004 -2.5570 -1.8059  1.0635
 6533SOL    HW231236   0.330   1.261   3.980  0.0070  1.7493  1.6470
 6534SOL     OW31237   4.171   3.967   1.971  0.9063 -0.6929  0.1877
 6534SOL    HW131238   4.152   3.992   1.880  0.6877  1.1924  0.7473
 6534SOL    HW231239   4.261   3.997   1.983  0.2640  0.8004  1.2606
 6535SOL     OW31240   0.345   0.246   6.313  0.1915 -0.2204 -0.2876
 6535SOL    HW131241   0.251   0.234   6.300  0.1062 -0.0273  0.1577
 6535SOL    HW231242   0.351   0.341   6.315  3.8101 -0.4164 -0.3960
 6536SOL     OW31243   2.402   0.843   5.547 -0.2349 -0.1122 -0.3483
 6536SOL    HW131244   2.483   0.846   5.598  0.2436 -1.9376 -1.0003
 6536SOL    HW231245   2.331   0.847   5.611  2.4352 -0.8159  2.7073
 6537SOL     OW31246   2.794   4.310   0.062  0.3771 -0.3372  0.2810
 6537SOL    HW131247   2.832   4.312  17.709 -1.5023 -0.7540 -0.5274
 6537SOL    HW231248   2.775   4.404   0.066 -0.9473 -0.4898 -2.8274
 6538SOL     OW31249   1.314   0.494   8.371  0.0016  0.4269 -0.1984
 6538SOL    HW131250   1.298   0.554   8.443 -2.3342 -0.5305  0.0748
 6538SOL    HW231251   1.225   0.462   8.359 -0.3314  1.9978 -1.8316
 6539SOL     OW31252   1.279   3.716   2.888  0.0699 -0.0078 -0.2218
 6539SOL    HW131253   1.311   3.801   2.860 -0.2707 -1.1646 -4.1122
 6539SOL    HW231254   1.187   3.726   2.863 -0.4003  1.9297  2.2222
 6540SOL     OW31255   2.057   3.981   7.021  0.2078 -0.0722  0.2965
 6540SOL    HW131256   2.034   3.947   6.935  1.4742  0.9099 -0.4455
 6540SOL    HW231257   1.979   3.968   7.074  1.1342  0.0582  1.7056
 6541SOL     OW31258   4.002   2.153   5.928  0.0319 -0.1752  0.8553
 6541SOL    HW131259   4.034   2.239   5.900  0.1555 -0.4351  0.1930
 6541SOL    HW231260   3.924   2.179   5.977 -0.8669  0.4497 -0.9002
 6542SOL     OW31261   0.517   1.088   3.520 -0.5206 -0.1026  0.2811
 6542SOL    HW131262   0.548   1.046   3.600 -1.6828  2.3372  2.0436
 6542SOL    HW231263   0.511   1.008   3.469 -1.3676 -1.0473  1.8826
 6543SOL     OW31264   2.165   3.715   6.473  0.3157  0.3326 -0.1540
 6543SOL    HW131265   2.114   3.670   6.406  0.3166  1.1843 -0.7386
 6543SOL    HW231266   2.117   3.798   6.472  3.0947  1.9500  0.4962
 6544SOL     OW31267   0.131   1.290   4.381 -0.2165 -0.2323  0.5370
 6544SOL    HW131268   0.140   1.364   4.321  0.2849  0.1135  1.0508
 6544SOL    HW231269   0.191   1.228   4.339 -1.4498 -0.9334 -0.2098
 6545SOL     OW31270   3.541   0.299  13.463  0.2409 -0.2201  0.2637
 6545SOL    HW131271   3.469   0.238  13.476  0.3700 -0.4677 -0.1702
 6545SOL    HW231272   3.596   0.260  13.531 -1.2107 -0.7017  1.1472
 6546SOL     OW31273   4.392   1.274   7.420  0.6509 -0.5392 -0.1984
 6546SOL    HW131274   4.459   1.327   7.376 -0.0701  1.7750  1.5025
 6546SOL    HW231275   4.448   1.221   7.477  2.4809  2.2665  0.6354
 6547SOL     OW31276   4.730   0.179   9.354  0.0300 -0.5201  0.2497
 6547SOL    HW131277   0.066   0.157   9.415  1.1353 -2.8294 -1.8695
 6547SOL    HW231278   4.706   0.271   9.364 -2.8697 -1.2250 -0.1653
 6548SOL     OW31279   1.318   2.569   5.060  0.1344 -0.1193  0.4261
 6548SOL    HW131280   1.333   2.481   5.026  0.2089  0.4774 -1.0999
 6548SOL    HW231281   1.406   2.607   5.056 -0.1832  0.6729  0.9847
 6549SOL     OW31282   0.632   2.523   0.661  0.2300 -0.5921 -0.0830
 6549SOL    HW131283   0.677   2.454   0.709  2.4122  0.4309 -0.6318
 6549SOL    HW231284   0.689   2.520   0.585 -1.1882  0.6914 -1.1943
 6550SOL     OW31285   2.907   0.525  17.680  0.0201  0.5863 -0.0853
 6550SOL    HW131286   2.932   0.516  17.588 -0.1227 -1.0657  0.0327
 6550SOL    HW231287   2.962   0.453  17.710 -1.3820 -1.2548 -1.9160
 6551SOL     OW31288   1.989   0.971   9.877 -0.3972 -0.5740 -0.0619
 6551SOL    HW131289   1.918   0.961   9.813  0.0345 -1.2986 -0.4324
 6551SOL    HW231290   2.059   0.971   9.812  1.0583  0.2365  1.5068
 6552SOL     OW31291   1.854   2.595   8.871  0.4058  0.2041  0.0297
 6552SOL    HW131292   1.847   2.536   8.946 -2.0678 -1.5699 -1.6253
 6552SOL    HW231293   1.762   2.603   8.847  0.6010  0.0848 -0.7517
 6553SOL     OW31294   0.015   2.574   2.127 -0.1182 -0.4151  0.6182
 6553SOL    HW131295   0.001   2.483   2.102 -1.3608 -0.1827  0.4244
 6553SOL    HW231296   0.063   2.590   2.046  0.3810  2.4835  1.4740
 6554SOL     OW31297   3.590   1.074   3.020  0.0867  0.7362  0.2070
 6554SOL    HW131298   3.633   1.159   3.027  1.5835  0.1081 -1.5229
 6554SOL    HW231299   3.528   1.080   3.093 -0.6148 -2.3550 -0.1320
 6555SOL     OW31300   0.984   2.875   3.230 -0.6828 -0.0548 -0.0610
 6555SOL    HW131301   0.905   2.820   3.230 -1.8242  1.5895  0.3397
 6555SOL    HW231302   1.032   2.842   3.155 -0.3487  0.8939 -0.2616
 6556SOL     OW31303   1.066   0.934  12.325 -0.5153 -0.0408  0.2219
 6556SOL    HW131304   1.068   0.977  12.411  0.4789 -1.3204  0.8361
 6556SOL    HW231305   1.134   0.866  12.327 -0.2931  0.1793  0.0886
 6557SOL     OW31306   2.199   4.516  12.412 -0.1753 -0.2153 -0.2937
 6557SOL    HW131307   2.239   4.469  12.485  0.0423  1.1308  0.4556
 6557SOL    HW231308   2.118   4.467  12.396 -1.1533  0.9725  1.0916
 6558SOL     OW31309   2.028   2.743   0.203  0.2183 -0.2222 -0.3037
 6558SOL    HW131310   1.991   2.692   0.131  0.1057  0.9665 -1.1018
 6558SOL    HW231311   2.069   2.805   0.142  1.2526 -2.6133 -2.0428
 6559SOL     OW31312   2.956   3.301  10.580  0.2527  0.4185  0.4529
 6559SOL    HW131313   2.980   3.225  10.633  2.4677  0.5061 -0.4124
 6559SOL    HW231314   2.964   3.373  10.642 -0.4647  1.5975 -0.8237
 6560SOL     OW31315   2.909   2.481   7.873  0.5783  0.1705  0.2669
 6560SOL    HW131316   2.931   2.388   7.884 -0.1614 -0.2029 -1.3844
 6560SOL    HW231317   2.975   2.501   7.806  0.0574 -0.5484 -0.4704
 6561SOL     OW31318   4.038   0.644  14.606  0.3091  0.3830  0.2491
 6561SOL    HW131319   3.989   0.650  14.524 -0.0424  3.6636  0.7111
 6561SOL    HW231320   4.091   0.568  14.582  1.4887  1.3824 -0.3336
 6562SOL     OW31321   1.481   3.417   3.914  0.4528 -0.0211  0.2904
 6562SOL    HW131322   1.568   3.442   3.883  0.2779 -0.3399 -0.4618
 6562SOL    HW231323   1.409   3.457   3.864 -0.3873 -1.6223  0.2102
 6563SOL     OW31324   4.341   4.449   7.436  0.5213 -0.2277 -0.0331
 6563SOL    HW131325   4.308   4.439   7.347 -4.1270 -0.4450  1.7053
 6563SOL    HW231326   4.395   4.371   7.430  1.3893  0.1452  2.6228
 6564SOL     OW31327   0.578   2.093   7.789 -0.1369 -0.1292  0.6510
 6564SOL    HW131328   0.582   2.083   7.694 -0.5959 -3.2044  0.9568
 6564SOL    HW231329   0.569   2.188   7.798  1.4233  0.1531 -0.8135
 6565SOL     OW31330   2.611   0.438   6.343  0.4393 -0.1707 -0.0518
 6565SOL    HW131331   2.558   0.393   6.410  0.0389 -1.1214 -0.9976
 6565SOL    HW231332   2.597   0.529   6.366  1.7818 -0.0440  0.2856
 6566SOL     OW31333   3.067   3.724   3.622 -0.0346  0.0277  0.2156
 6566SOL    HW131334   3.160   3.740   3.604 -0.0609  0.2921  0.3239
 6566SOL    HW231335   3.055   3.629   3.615 -0.7214  0.1750 -0.6852
 6567SOL     OW31336   0.184   3.696   6.261  0.0389  0.5811  0.2596
 6567SOL    HW131337   0.144   3.639   6.326  2.3073  0.3319  1.4064
 6567SOL    HW231338   0.277   3.673   6.266  0.0421  0.4030 -0.5796
 6568SOL     OW31339   2.128   3.653  17.219  0.2129  0.7274 -0.1436
 6568SOL    HW131340   2.050   3.687  17.262  0.1345  1.0616 -0.5533
 6568SOL    HW231341   2.170   3.739  17.226  2.2488 -0.3492  0.8922
 6569SOL     OW31342   4.530   0.899   4.171 -0.0267  0.0921  0.4440
 6569SOL    HW131343   4.558   0.888   4.262  0.3410 -1.8568  0.1055
 6569SOL    HW231344   4.607   0.937   4.130  0.3693 -3.6870 -2.3173
 6570SOL     OW31345   3.059   3.750   6.212 -0.0975 -0.0783  0.2312
 6570SOL    HW131346   2.968   3.747   6.183 -0.4605 -0.2852  1.4009
 6570SOL    HW231347   3.085   3.816   6.148  0.3247  1.4115  1.9410
 6571SOL     OW31348   0.981   1.720   5.500 -0.4221 -0.3761 -0.2135
 6571SOL    HW131349   0.920   1.763   5.440  0.0888  0.7305  0.0772
 6571SOL    HW231350   0.982   1.634   5.456  2.4338 -0.5303  0.1377
 6572SOL     OW31351   0.034   2.663   8.446  0.5894 -0.2824  0.0175
 6572SOL    HW131352   4.677   2.667   8.415  0.4311 -0.8696  0.4043
 6572SOL    HW231353   0.071   2.590   8.397 -1.4683 -0.6039 -1.0728
 6573SOL     OW31354   2.135   0.800   2.928 -0.1389 -0.0684  0.2901
 6573SOL    HW131355   2.132   0.754   3.012 -0.1924  3.1446  2.0610
 6573SOL    HW231356   2.190   0.874   2.957 -0.8549 -0.6353  3.1276
 6574SOL     OW31357   1.343   3.153  13.779 -0.4618  0.6062  0.2251
 6574SOL    HW131358   1.381   3.194  13.856  0.6145 -0.5085  0.2766
 6574SOL    HW231359   1.258   3.123  13.811 -0.2026 -1.0836 -0.6548
 6575SOL     OW31360   0.343   0.221   1.700  0.0660 -0.8015 -0.6950
 6575SOL    HW131361   0.284   0.255   1.632 -0.0425  3.5614  1.5511
 6575SOL    HW231362   0.307   0.259   1.780  3.4765 -0.1590  0.5146
 6576SOL     OW31363   1.151   2.788   8.508 -0.0173  0.2912  0.0688
 6576SOL    HW131364   1.166   2.753   8.596  1.7413  1.2048  0.1431
 6576SOL    HW231365   1.144   2.880   8.535  1.4690  0.8779 -1.5391
 6577SOL     OW31366   2.271   0.210   0.879  0.3797  0.5967  0.1314
 6577SOL    HW131367   2.250   0.179   0.967 -0.8527  0.3087 -0.2757
 6577SOL    HW231368   2.280   0.300   0.912  1.7841  1.1191 -1.6683
 6578SOL     OW31369   0.937   1.516   5.310 -0.5132 -0.2371  0.4663
 6578SOL    HW131370   0.858   1.526   5.362  0.2422  0.9057  1.4075
 6578SOL    HW231371   0.945   1.420   5.306 -0.2013 -0.1563 -1.1689
 6579SOL     OW31372   0.941   2.321   5.655  0.1436  0.1891 -0.0377
 6579SOL    HW131373   0.865   2.371   5.624  1.3164  1.5824 -0.7243
 6579SOL    HW231374   0.971   2.274   5.577  1.4989  0.7437  0.1432
 6580SOL     OW31375   1.958   0.155   3.308  0.2278  0.1625 -0.2375
 6580SOL    HW131376   2.018   0.085   3.333 -0.7904 -0.6825 -0.1392
 6580SOL    HW231377   2.019   0.208   3.256 -0.1998 -0.0250 -0.9236
 6581SOL     OW31378   2.137   0.989   4.721  0.5908 -0.2389 -0.1417
 6581SOL    HW131379   2.112   0.990   4.813 -2.1766  0.4190 -0.9221
 6581SOL    HW231380   2.180   1.074   4.716  1.4021 -0.3846  4.1205
 6582SOL     OW31381   2.878   3.516   4.328 -0.1571 -0.1485  0.1041
 6582SOL    HW131382   2.892   3.508   4.423 -0.8858 -2.9056 -0.0073
 6582SOL    HW231383   2.971   3.501   4.312 -0.2892 -0.5798 -0.2805
 6583SOL     OW31384   4.671   1.582   7.563  0.3406  0.3126  0.2854
 6583SOL    HW131385   4.713   1.646   7.621  2.0951 -2.1733  1.7586
 6583SOL    HW231386   4.683   1.627   7.480  2.6535 -0.5301  0.1786
 6584SOL     OW31387   2.949   1.934   6.079  0.2384 -0.7335  0.4502
 6584SOL    HW131388   2.957   2.027   6.058  1.2745 -1.0005 -0.3732
 6584SOL    HW231389   2.925   1.938   6.171 -0.3916 -0.6013  0.2786
 6585SOL     OW31390   3.993   3.289   3.477  0.7248 -0.2908  0.2083
 6585SOL    HW131391   4.037   3.374   3.467 -1.1227  0.5070 -1.2627
 6585SOL    HW231392   3.969   3.267   3.387 -1.8393  4.8575 -0.3948
 6586SOL     OW31393   2.193   0.055  14.778 -0.1734 -0.2804 -0.2133
 6586SOL    HW131394   2.264   0.072  14.840  0.9863 -2.6279 -0.9162
 6586SOL    HW231395   2.237   0.108  14.712  0.1800  0.8271  0.8997
 6587SOL     OW31396   2.301   3.787  10.554  0.3067  0.6188  0.2175
 6587SOL    HW131397   2.215   3.803  10.592 -0.4804 -1.9500 -0.4766
 6587SOL    HW231398   2.283   3.782  10.460  1.1340 -0.1236  0.0991
 6588SOL     OW31399   1.352   0.513  15.968 -0.2746 -0.8706  0.3695
 6588SOL    HW131400   1.272   0.513  15.914  0.0746  1.0631 -0.1461
 6588SOL    HW231401   1.358   0.606  15.988  0.7814 -0.7450 -0.5859
 6589SOL     OW31402   0.680   0.520   7.226  0.2743  0.6887  0.6900
 6589SOL    HW131403   0.640   0.601   7.258 -0.9210  0.4056 -0.1196
 6589SOL    HW231404   0.601   0.470   7.207  1.8866 -0.7740 -2.1900
 6590SOL     OW31405   3.598   3.435   8.865 -0.0108 -0.4042  0.1823
 6590SOL    HW131406   3.518   3.475   8.830  0.3814  1.3470  1.2746
 6590SOL    HW231407   3.593   3.344   8.836  0.7546 -0.5310  0.4605
 6591SOL     OW31408   4.662   1.538   9.784  0.1480 -0.3719 -0.6821
 6591SOL    HW131409   4.603   1.524   9.858  0.6843  1.3845  0.0763
 6591SOL    HW231410   4.626   1.472   9.725 -1.8800  0.7306 -0.6682
 6592SOL     OW31411   4.596   3.596   7.939 -0.1736 -0.3406  1.0055
 6592SOL    HW131412   4.503   3.620   7.936  0.2523  1.1753  0.1965
 6592SOL    HW231413   4.585   3.527   8.004 -0.3543  1.2707  2.6671
 6593SOL     OW31414   3.654   0.783   1.902  0.1930  0.1092 -0.3285
 6593SOL    HW131415   3.734   0.743   1.870 -0.3560 -1.5674  0.3879
 6593SOL    HW231416   3.627   0.824   1.819  3.6976  1.2482 -0.8808
 6594SOL     OW31417   4.454   2.856  12.723 -0.2253 -0.2721  0.1927
 6594SOL    HW131418   4.379   2.817  12.679 -0.8214  2.1568 -0.9388
 6594SOL    HW231419   4.519   2.794  12.689  0.9160  0.5468  0.8659
 6595SOL     OW31420   4.717   4.163   9.203  0.0146  0.5914  0.1583
 6595SOL    HW131421   0.065   4.150   9.251  0.9469  0.5398 -1.4454
 6595SOL    HW231422   4.663   4.196   9.275  1.8854 -0.2447  1.9335
 6596SOL     OW31423   1.876   0.898  10.109  0.2256  0.2446 -0.3056
 6596SOL    HW131424   1.934   0.937  10.043  0.2413  2.8907  1.2698
 6596SOL    HW231425   1.947   0.861  10.162 -2.4313 -1.2480  2.2035
 6597SOL     OW31426   0.793   1.370   4.488 -0.5765  0.2216  0.4279
 6597SOL    HW131427   0.880   1.387   4.453 -0.9868  0.2752 -0.5566
 6597SOL    HW231428   0.787   1.275   4.478 -0.9129  0.2598  0.2770
 6598SOL     OW31429   4.409   3.380   3.208  0.2699 -0.3253 -0.1331
 6598SOL    HW131430   4.386   3.372   3.301  1.2258 -0.0556  0.1328
 6598SOL    HW231431   4.493   3.422   3.225 -1.3647  2.2105  1.6741
 6599SOL     OW31432   4.460   2.521  17.081  0.2666  0.8119 -0.6367
 6599SOL    HW131433   4.402   2.445  17.083  1.7060 -0.2343  1.2984
 6599SOL    HW231434   4.538   2.484  17.038  0.8553  1.1879  0.1143
 6600SOL     OW31435   3.583   2.022   9.316 -0.0858 -0.2623 -0.1018
 6600SOL    HW131436   3.649   2.002   9.249  0.1721 -0.5425  0.2421
 6600SOL    HW231437   3.635   1.986   9.387  0.1122 -0.7461 -0.4936
 6601SOL     OW31438   3.156   2.110   2.104 -0.0504 -0.0078 -0.2200
 6601SOL    HW131439   3.237   2.158   2.085  0.0815 -0.0955  0.1300
 6601SOL    HW231440   3.193   2.026   2.130  0.2337  0.6675  1.5179
 6602SOL     OW31441   3.811   4.687  14.003  0.0034  0.0281  0.2060
 6602SOL    HW131442   3.874   4.616  14.009  0.1447  0.2385  1.1517
 6602SOL    HW231443   3.739   4.647  13.955  0.8077  0.2791 -1.2085
 6603SOL     OW31444   1.093   3.991   2.942  0.1159 -0.2005 -0.3510
 6603SOL    HW131445   1.152   4.021   2.872  2.8892 -1.5443  1.4077
 6603SOL    HW231446   1.013   4.041   2.926  1.4053  1.6217 -1.2285
 6604SOL     OW31447   0.288   4.597   7.496  0.1317 -0.2166 -0.6245
 6604SOL    HW131448   0.251   4.575   7.582 -0.2932 -0.0320 -0.7645
 6604SOL    HW231449   0.365   4.649   7.519 -1.1510  0.6645  1.6273
 6605SOL     OW31450   3.508   0.934   9.000  0.3271  0.1470 -0.6428
 6605SOL    HW131451   3.508   0.975   8.913 -0.6321  2.1128  0.2696
 6605SOL    HW231452   3.598   0.956   9.024 -0.6537  2.7058  0.7676
 6606SOL     OW31453   1.856   0.084   7.298 -0.6202 -0.0232  0.5321
 6606SOL    HW131454   1.927   0.114   7.242 -0.7226  2.0995  1.5261
 6606SOL    HW231455   1.785   0.086   7.233  0.7874 -0.3659 -1.0112
 6607SOL     OW31456   2.004   2.022   7.922  0.5797 -0.5189  0.6376
 6607SOL    HW131457   2.053   1.988   7.997  1.3725 -0.9367 -0.0740
 6607SOL    HW231458   2.065   2.089   7.892  1.8738 -2.6450 -1.3651
 6608SOL     OW31459   3.000   0.905  14.432  0.4777 -0.1730 -0.1112
 6608SOL    HW131460   3.015   0.998  14.412 -0.2090 -0.2111 -0.8184
 6608SOL    HW231461   3.088   0.867  14.433  0.0560 -1.1877 -1.3852
 6609SOL     OW31462   0.054   3.210   6.342 -0.0993  0.9072  0.0494
 6609SOL    HW131463   4.710   3.155   6.339  0.1297  0.5202  1.4719
 6609SOL    HW231464   0.032   3.264   6.266  2.8436 -0.6604 -1.9612
 6610SOL     OW31465   1.819   0.685  15.188 -0.0363 -0.1115 -0.1592
 6610SOL    HW131466   1.782   0.763  15.147 -4.0599 -1.4608  0.9413
 6610SOL    HW231467   1.840   0.713  15.277  1.7093 -1.3979 -0.1744
 6611SOL     OW31468   3.853   3.320   7.243 -0.1013  0.2494  0.1293
 6611SOL    HW131469   3.925   3.334   7.181 -1.4462 -0.9465 -1.6981
 6611SOL    HW231470   3.793   3.387   7.210 -1.4200 -0.0614  1.9250
 6612SOL     OW31471   0.335   4.426   7.284 -0.1990  0.2820 -0.3986
 6612SOL    HW131472   0.325   4.506   7.337  1.3623 -0.5246  1.1227
 6612SOL    HW231473   0.281   4.363   7.331  1.8113 -1.7457 -0.8047
 6613SOL     OW31474   3.889   0.953   8.052 -0.4764  0.1530 -0.5942
 6613SOL    HW131475   3.923   1.043   8.052  0.6492 -0.2780 -1.7710
 6613SOL    HW231476   3.971   0.906   8.040 -1.4694 -1.3990 -1.2385
 6614SOL     OW31477   1.547   4.732   5.714 -0.0465 -0.2689 -0.1952
 6614SOL    HW131478   1.474   0.012   5.653  0.3880  3.3752  0.1364
 6614SOL    HW231479   1.506   4.667   5.772 -3.0684  1.0098 -0.9100
 6615SOL     OW31480   2.690   4.425  11.106  0.0256  0.0874  0.0450
 6615SOL    HW131481   2.660   4.515  11.088  2.0023  0.4559 -1.4115
 6615SOL    HW231482   2.697   4.437  11.200 -1.1425 -0.8567  0.2466
 6616SOL     OW31483   2.872   4.286   4.181 -0.0654  0.0839 -0.3928
 6616SOL    HW131484   2.890   4.231   4.258  0.8299  0.4820 -0.3264
 6616SOL    HW231485   2.899   4.228   4.110  1.8388  1.2613 -0.6131
 6617SOL     OW31486   1.182   2.695   6.472  0.1774  0.3060 -0.0333
 6617SOL    HW131487   1.177   2.762   6.404  2.4959  0.0059 -0.5096
 6617SOL    HW231488   1.148   2.737   6.552  0.3021 -0.9588  0.6816
 6618SOL     OW31489   2.810   3.234  10.881 -0.1596 -0.0573  0.3418
 6618SOL    HW131490   2.782   3.324  10.871 -0.8118 -0.4090 -1.0017
 6618SOL    HW231491   2.803   3.230  10.976  0.9404  2.3276  0.5060
 6619SOL     OW31492   0.704   3.049  17.221 -0.5717 -0.5635 -0.1763
 6619SOL    HW131493   0.682   3.122  17.162 -0.4072 -1.2920 -1.1332
 6619SOL    HW231494   0.632   2.988  17.206 -1.3521  0.2315  0.3321
 6620SOL     OW31495   2.204   1.258   5.700  0.4320  0.1913 -0.0857
 6620SOL    HW131496   2.200   1.176   5.749 -1.1041  0.0325 -0.4692
 6620SOL    HW231497   2.135   1.312   5.739  0.1352 -0.8231  0.7892
 6621SOL     OW31498   3.984   2.964   8.416 -0.0286  0.1059 -0.3213
 6621SOL    HW131499   3.941   2.906   8.353 -0.6556  0.4338 -0.2056
 6621SOL    HW231500   3.950   3.051   8.395  0.3817  0.4770  0.5605
 6622SOL     OW31501   3.337   0.169   7.588 -0.3840 -0.3288 -0.1808
 6622SOL    HW131502   3.268   0.155   7.652  0.1713 -0.2315  0.4365
 6622SOL    HW231503   3.335   0.264   7.588 -1.1247 -0.3439 -1.2498
 6623SOL     OW31504   4.684   4.427   5.224 -0.1790  0.2928 -0.1793
 6623SOL    HW131505   4.675   4.507   5.276 -0.2448  1.4108 -1.9032
 6623SOL    HW231506   4.700   4.459   5.135 -0.5048  0.5151 -0.1589
 6624SOL     OW31507   1.092   1.110  12.539 -0.0662 -0.1709 -0.4546
 6624SOL    HW131508   1.050   1.091  12.623 -0.1116  2.5779  0.1360
 6624SOL    HW231509   1.183   1.087  12.557 -0.8591 -2.1326  1.1175
 6625SOL     OW31510   3.754   1.929   9.489 -0.4231 -0.2854 -0.0940
 6625SOL    HW131511   3.833   1.968   9.453 -1.6434  2.7075  0.4251
 6625SOL    HW231512   3.759   1.949   9.582 -1.4587  3.0036 -0.7429
 6626SOL     OW31513   2.144   0.116   6.135 -0.2016 -0.3967 -0.2754
 6626SOL    HW131514   2.194   0.137   6.056 -1.6489  2.5203 -0.4018
 6626SOL    HW231515   2.055   0.126   6.102  0.1665 -0.4379 -1.2771
 6627SOL     OW31516   4.611   0.148   5.093 -0.4044 -0.2806 -0.1486
 6627SOL    HW131517   4.570   0.192   5.167 -0.5934  0.0994 -0.4796
 6627SOL    HW231518   4.658   0.223   5.057 -0.7637  0.4022  0.8061
 6628SOL     OW31519   3.117   3.945   6.554  0.0936 -0.0307  0.5444
 6628SOL    HW131520   3.096   4.034   6.525  0.7564 -0.2076 -0.4677
 6628SOL    HW231521   3.123   3.971   6.646  0.4480 -0.2717  0.5909
 6629SOL     OW31522   0.397   3.858   7.151  0.5686  0.5862  0.3724
 6629SOL    HW131523   0.448   3.846   7.231 -0.5988  1.4157  1.2517
 6629SOL    HW231524   0.367   3.769   7.133 -0.1482  0.6446  1.2286
 6630SOL     OW31525   3.261   2.494   6.893 -0.4580  0.2995 -0.5129
 6630SOL    HW131526   3.210   2.470   6.816 -2.4542  1.6352  0.4020
 6630SOL    HW231527   3.210   2.439   6.951  1.8174  1.4454  2.5476
 6631SOL     OW31528   0.683   3.194  12.913 -1.0013  0.2394  0.1475
 6631SOL    HW131529   0.618   3.262  12.901 -0.2688  0.8016 -0.5977
 6631SOL    HW231530   0.678   3.199  13.009 -1.0681 -1.5834  0.2419
 6632SOL     OW31531   3.264   4.355  14.335 -0.3791 -0.1350  0.3561
 6632SOL    HW131532   3.312   4.289  14.385 -0.0571 -0.2912 -0.1560
 6632SOL    HW231533   3.223   4.385  14.416  0.6065 -0.2803  0.9051
 6633SOL     OW31534   1.894   3.823   7.570  0.5656  0.0150  0.2378
 6633SOL    HW131535   1.892   3.918   7.578 -1.1512 -0.0039  0.0862
 6633SOL    HW231536   1.973   3.799   7.618  1.1042 -0.0731 -0.6912
 6634SOL     OW31537   4.623   2.665  12.637 -0.2762  0.0186  0.0176
 6634SOL    HW131538   4.699   2.672  12.694 -0.6011  1.1464  0.3255
 6634SOL    HW231539   4.617   2.589  12.580  1.0355  0.5100 -0.7522
 6635SOL     OW31540   2.377   4.693   8.765  0.1563  0.2139 -0.4625
 6635SOL    HW131541   2.340   4.614   8.727  0.2132 -0.3248  0.6216
 6635SOL    HW231542   2.305   4.719   8.821 -0.0753  1.7675 -1.4555
 6636SOL     OW31543   2.460   2.784   8.141 -0.3493  0.4644  0.0035
 6636SOL    HW131544   2.431   2.866   8.182  0.2420  0.3926  0.5506
 6636SOL    HW231545   2.553   2.782   8.163 -0.1812  0.9112 -0.6655
 6637SOL     OW31546   2.264   2.000   3.169 -0.0331 -0.1263 -0.1516
 6637SOL    HW131547   2.343   2.053   3.155 -0.1191 -0.0093 -0.1881
 6637SOL    HW231548   2.276   1.989   3.264  1.3403 -0.3403 -0.3478
 6638SOL     OW31549   0.348   2.094   9.458 -0.3360  0.2661  0.1752
 6638SOL    HW131550   0.364   2.101   9.364 -3.8632  1.3966 -0.3529
 6638SOL    HW231551   0.315   2.005   9.472 -1.3263  0.3297 -1.8693
 6639SOL     OW31552   1.244   4.591   1.023 -0.3706 -0.5494 -0.1741
 6639SOL    HW131553   1.232   4.685   1.035 -2.1575 -0.7630 -0.2254
 6639SOL    HW231554   1.175   4.560   1.082  0.1012  2.1635  1.7723
 6640SOL     OW31555   1.106   3.257  12.780  0.7245  0.2070  0.3828
 6640SOL    HW131556   1.187   3.234  12.735  1.1450  1.0792  0.6886
 6640SOL    HW231557   1.105   3.350  12.758 -0.5349 -0.1059 -0.8977
 6641SOL     OW31558   3.132   2.772   9.321  0.3908  0.2379 -0.2830
 6641SOL    HW131559   3.156   2.736   9.236  0.7568 -0.4784  0.1213
 6641SOL    HW231560   3.103   2.861   9.303  1.2317  0.2724 -1.4329
 6642SOL     OW31561   2.138   1.161  15.040 -0.6219 -0.2501 -0.1998
 6642SOL    HW131562   2.179   1.248  15.045 -0.1145 -0.5182  0.3662
 6642SOL    HW231563   2.137   1.160  14.945  2.4596  0.7144 -0.2579
 6643SOL     OW31564   2.281   0.726   1.606  0.6926 -0.9423 -0.4855
 6643SOL    HW131565   2.270   0.632   1.625  2.5996 -0.1414  4.5092
 6643SOL    HW231566   2.250   0.729   1.515 -0.8796  0.4664  0.1115
 6644SOL     OW31567   1.683   3.965   8.434 -0.3957  1.0624  0.0608
 6644SOL    HW131568   1.755   3.998   8.380 -0.8382  0.4210 -0.9192
 6644SOL    HW231569   1.659   4.051   8.468 -1.1706  0.6926  0.4565
 6645SOL     OW31570   1.321   0.673   6.686 -0.0384 -0.1629  0.2694
 6645SOL    HW131571   1.392   0.636   6.739  1.6888  2.4432 -0.2577
 6645SOL    HW231572   1.242   0.644   6.733 -0.5237  0.9396  0.1172
 6646SOL     OW31573   0.430   2.955   7.931  0.2742  0.5374  0.7948
 6646SOL    HW131574   0.372   2.878   7.924  0.6852  0.4354 -1.6568
 6646SOL    HW231575   0.375   3.017   7.882 -0.1173 -1.5422 -1.4334
 6647SOL     OW31576   3.720   0.473   8.269 -0.5178  0.0744 -0.4394
 6647SOL    HW131577   3.725   0.569   8.271 -1.6477  0.1147  0.5715
 6647SOL    HW231578   3.784   0.444   8.205 -1.0104  0.2929 -1.0318
 6648SOL     OW31579   4.626   2.170  13.314  0.1333 -0.1400  0.4979
 6648SOL    HW131580   4.661   2.130  13.234  1.9536  0.3410  1.0453
 6648SOL    HW231581   4.662   2.258  13.304  1.1548 -0.1375  4.1506
 6649SOL     OW31582   0.646   0.865   6.159  0.6866 -0.2610 -0.1740
 6649SOL    HW131583   0.593   0.810   6.216 -0.2750  1.3434  0.4627
 6649SOL    HW231584   0.719   0.892   6.215 -0.0081  3.3601 -1.0432
 6650SOL     OW31585   0.779   1.649   4.108 -0.6484 -0.2863  0.2143
 6650SOL    HW131586   0.743   1.563   4.090 -2.0472  0.9084 -2.8193
 6650SOL    HW231587   0.873   1.632   4.104 -0.0013  2.4426  3.7801
 6651SOL     OW31588   1.478   0.431   0.508 -0.1744 -0.6073  1.0420
 6651SOL    HW131589   1.384   0.442   0.521 -0.0465 -2.1201  3.1607
 6651SOL    HW231590   1.491   0.351   0.560  0.1400 -1.4625 -0.3564
 6652SOL     OW31591   3.598   0.505   0.728 -0.4964  0.3049  0.1960
 6652SOL    HW131592   3.545   0.428   0.706 -0.4159  0.3177 -0.0424
 6652SOL    HW231593   3.574   0.523   0.819  0.2120 -0.9262  0.6251
 6653SOL     OW31594   4.411   2.521   9.351  0.0532  0.2775 -0.8743
 6653SOL    HW131595   4.338   2.583   9.340 -2.7190 -2.5687  1.6176
 6653SOL    HW231596   4.479   2.576   9.390  1.8063 -2.0392 -0.6887
 6654SOL     OW31597   2.018   3.323  14.380 -0.4210 -0.1911  0.1096
 6654SOL    HW131598   1.997   3.386  14.448 -0.1765  1.0935 -1.0197
 6654SOL    HW231599   2.113   3.316  14.377 -0.5379 -1.6768 -0.2234
 6655SOL     OW31600   3.483   1.200  12.185 -0.4654 -0.3211  0.1402
 6655SOL    HW131601   3.413   1.170  12.242 -0.2546 -0.7215  0.1856
 6655SOL    HW231602   3.429   1.252  12.125 -0.3163  1.5074  1.5872
 6656SOL     OW31603   1.489   1.934   8.377 -0.2187 -0.1997 -1.0390
 6656SOL    HW131604   1.509   1.898   8.463 -2.5112  0.6074 -0.1910
 6656SOL    HW231605   1.489   2.028   8.393  2.4982 -0.2169 -0.8190
 6657SOL     OW31606   1.621   4.340   7.507  0.0536  0.0906  0.0022
 6657SOL    HW131607   1.640   4.393   7.430 -2.3319  2.0730  0.7674
 6657SOL    HW231608   1.647   4.396   7.581 -1.0042 -0.4519  0.7816
 6658SOL     OW31609   3.771   0.215   7.686  0.2681  0.3189 -0.3393
 6658SOL    HW131610   3.713   0.144   7.659  0.1406 -0.3205  1.6109
 6658SOL    HW231611   3.851   0.164   7.700  0.3236  0.5024  0.0011
 6659SOL     OW31612   3.791   2.617   9.878  0.4022  0.5514  0.4695
 6659SOL    HW131613   3.880   2.625   9.844 -0.2607 -0.0150 -1.4505
 6659SOL    HW231614   3.792   2.647   9.968 -2.3673  2.4691 -0.1343
 6660SOL     OW31615   3.151   2.935   7.428 -0.1954  0.0257 -0.8373
 6660SOL    HW131616   3.213   3.001   7.395 -0.8910  1.2980  0.3977
 6660SOL    HW231617   3.115   2.990   7.497 -1.7049  1.5581 -2.8232
 6661SOL     OW31618   2.777   3.080  15.077 -0.5019 -0.1197  0.3506
 6661SOL    HW131619   2.841   3.133  15.124  0.9847  0.6582 -2.5067
 6661SOL    HW231620   2.831   3.018  15.027 -1.1078  0.8714 -1.5576
 6662SOL     OW31621   2.108   3.830   1.463 -0.2752 -0.3146 -0.6518
 6662SOL    HW131622   2.040   3.769   1.435  1.5101 -2.5101 -0.1883
 6662SOL    HW231623   2.095   3.902   1.402 -1.9455 -0.2269 -0.1968
 6663SOL     OW31624   0.795   2.303   0.055 -0.0161 -0.1941 -0.0756
 6663SOL    HW131625   0.841   2.343  17.716  0.5812  0.9648  0.9281
 6663SOL    HW231626   0.827   2.213   0.042 -0.5808 -0.5329  0.8775
 6664SOL     OW31627   0.946   0.608   8.621 -0.2896 -0.1931 -0.0188
 6664SOL    HW131628   0.912   0.554   8.549  0.5640 -0.1089 -0.4797
 6664SOL    HW231629   0.964   0.692   8.579 -0.0649 -0.7421 -1.0317
 6665SOL     OW31630   4.115   0.775   2.038  0.3573 -0.0834  0.3203
 6665SOL    HW131631   4.192   0.792   1.983 -0.6583  0.2258 -1.0091
 6665SOL    HW231632   4.092   0.868   2.040  0.1243 -0.1571  1.1559
 6666SOL     OW31633   2.600   0.141   8.865  0.3094 -0.4570 -0.0986
 6666SOL    HW131634   2.591   0.222   8.815 -1.0148 -0.2388  0.4902
 6666SOL    HW231635   2.562   0.071   8.812  0.4982  0.2277 -1.1478
 6667SOL     OW31636   3.225   4.412  15.553  0.1950 -0.6032  0.0941
 6667SOL    HW131637   3.239   4.478  15.621 -0.8989  0.7861 -1.0255
 6667SOL    HW231638   3.277   4.338  15.585  4.2576  1.6551 -1.1725
 6668SOL     OW31639   4.187   4.051  12.922 -0.5707  0.0350 -0.1364
 6668SOL    HW131640   4.118   4.049  12.988  0.2686 -1.8026  0.6833
 6668SOL    HW231641   4.136   4.040  12.841 -0.5800 -0.9758  0.0084
 6669SOL     OW31642   2.470   0.806  11.828 -0.1375 -0.5007 -0.1061
 6669SOL    HW131643   2.464   0.777  11.737  1.4889 -0.7844 -0.1228
 6669SOL    HW231644   2.494   0.728  11.878  1.4993  2.6350  4.0889
 6670SOL     OW31645   1.248   2.670   1.924 -0.4023  0.1313 -0.1229
 6670SOL    HW131646   1.174   2.688   1.866 -1.4835  0.2636  1.3029
 6670SOL    HW231647   1.196   2.666   2.004  1.6883  0.1094  1.2307
 6671SOL     OW31648   0.420   0.643   7.537  0.0745  0.0788 -0.8059
 6671SOL    HW131649   0.458   0.678   7.456 -0.5183  0.4497 -0.9208
 6671SOL    HW231650   0.453   0.703   7.603  0.3318  0.9885 -1.7518
 6672SOL     OW31651   4.000   3.372   6.936  0.2741  0.1578  1.0309
 6672SOL    HW131652   3.955   3.307   6.882  2.4325 -0.4106 -0.0958
 6672SOL    HW231653   4.091   3.349   6.919  0.4169  1.6411 -0.1999
 6673SOL     OW31654   3.834   3.686   5.783 -0.0502 -0.1191 -0.6402
 6673SOL    HW131655   3.807   3.706   5.693  2.1112 -1.2391 -1.5281
 6673SOL    HW231656   3.814   3.593   5.789  0.8201 -0.3914 -1.9013
 6674SOL     OW31657   0.809   3.830   7.258  0.0230 -0.1558 -0.5823
 6674SOL    HW131658   0.834   3.859   7.345  2.0109  0.4792 -1.3594
 6674SOL    HW231659   0.791   3.739   7.282 -1.1856  0.4479  0.7638
 6675SOL     OW31660   3.605   0.159   2.701 -0.0646  0.4844  0.4223
 6675SOL    HW131661   3.527   0.108   2.681  0.2418  0.0483  0.3498
 6675SOL    HW231662   3.676   0.098   2.683  0.1023  0.7929  0.0297
 6676SOL     OW31663   2.009   0.884  15.038  0.1817 -0.1970  0.0322
 6676SOL    HW131664   2.071   0.898  15.109 -0.1142  0.9054  0.0738
 6676SOL    HW231665   1.931   0.895  15.092  1.0136 -0.3553  1.2609
 6677SOL     OW31666   1.840   1.332   0.163 -0.0014  0.3778 -0.1676
 6677SOL    HW131667   1.898   1.256   0.167  2.7333  2.5506  0.9250
 6677SOL    HW231668   1.885   1.399   0.113  1.6961 -1.0559 -0.5855
 6678SOL     OW31669   2.716   2.656   6.565 -0.5371  0.5896  0.4290
 6678SOL    HW131670   2.773   2.633   6.492 -0.6966 -1.5920  0.9756
 6678SOL    HW231671   2.712   2.751   6.554 -1.9666  0.3046 -1.4681
 6679SOL     OW31672   3.511   0.203  11.236 -0.7539  0.1800 -0.0140
 6679SOL    HW131673   3.544   0.131  11.182 -2.2136 -0.5674  0.0875
 6679SOL    HW231674   3.583   0.266  11.234  0.3060 -0.9653  2.9862
 6680SOL     OW31675   0.363   0.010   2.699  0.3872 -0.8964  0.4426
 6680SOL    HW131676   0.277   4.721   2.665  0.8737  0.3436 -1.6254
 6680SOL    HW231677   0.410   4.668   2.663  0.1265 -1.1713  0.6754
 6681SOL     OW31678   4.370   4.152   8.992 -0.3067  0.0614  0.5048
 6681SOL    HW131679   4.402   4.231   9.035 -0.1405 -0.2211  0.9029
 6681SOL    HW231680   4.454   4.106   8.995 -1.1752 -1.4266  2.0219
 6682SOL     OW31681   3.699   0.100   1.911 -0.5489 -0.2994  0.1219
 6682SOL    HW131682   3.751   0.170   1.870 -1.1375 -0.7900 -1.4825
 6682SOL    HW231683   3.706   0.135   2.000  0.4718 -2.0281  0.7084
 6683SOL     OW31684   4.676   3.327   5.063  0.4204 -0.0071 -0.1346
 6683SOL    HW131685   4.649   3.245   5.022  0.0927 -0.2152  0.4898
 6683SOL    HW231686   4.597   3.378   5.047  0.8263  0.1304 -1.6907
 6684SOL     OW31687   0.682   4.568   6.960 -0.1369  0.0842 -0.1087
 6684SOL    HW131688   0.651   4.644   6.912 -0.5575  0.7780  1.2534
 6684SOL    HW231689   0.766   4.566   6.915  0.5333  0.8619  1.1018
 6685SOL     OW31690   4.621   2.619  13.472  0.4185  0.2973  0.1355
 6685SOL    HW131691   4.678   2.686  13.509  0.4146  0.4902 -0.2126
 6685SOL    HW231692   4.674   2.579  13.404 -0.3076  0.9978 -0.8409
 6686SOL     OW31693   3.689   4.147   6.849  0.0520  0.2696  0.4887
 6686SOL    HW131694   3.688   4.051   6.846  0.6868  0.3324 -2.5532
 6686SOL    HW231695   3.734   4.169   6.767  0.5512  0.5674  0.8424
 6687SOL     OW31696   4.115   3.392   4.352 -0.0624  0.0203  0.2793
 6687SOL    HW131697   4.042   3.353   4.400  2.2520  0.2161  3.9279
 6687SOL    HW231698   4.152   3.309   4.321  0.8074  0.7990 -0.7751
 6688SOL     OW31699   4.302   4.545  17.622 -0.2470  0.3849  0.1180
 6688SOL    HW131700   4.223   4.513  17.666  1.2146 -2.2841  0.8106
 6688SOL    HW231701   4.373   4.532  17.685  1.0691  2.0081 -1.0231
 6689SOL     OW31702   2.921   3.248   7.034 -0.6368 -0.1423  0.1341
 6689SOL    HW131703   2.932   3.343   7.035  3.5111 -0.6429  1.9937
 6689SOL    HW231704   2.877   3.241   6.950 -0.8043  2.2601  0.0159
 6690SOL     OW31705   4.438   0.151   6.544 -0.2066 -0.2202 -0.2501
 6690SOL    HW131706   4.460   0.099   6.467 -1.3223 -1.1580  0.0604
 6690SOL    HW231707   4.521   0.195   6.561  0.7042 -1.8417 -0.4635
 6691SOL     OW31708   3.063   4.024   8.212  0.2328  0.2817  0.4697
 6691SOL    HW131709   3.069   4.092   8.144 -1.8319 -0.7295 -0.7190
 6691SOL    HW231710   3.028   4.075   8.285  2.1291  3.0549 -0.5810
 6692SOL     OW31711   2.194   2.322   5.963  0.1317  0.4049  0.6682
 6692SOL    HW131712   2.102   2.311   5.937  0.5943 -0.3140 -0.6672
 6692SOL    HW231713   2.238   2.353   5.884  1.8029  0.3146  1.5545
 6693SOL     OW31714   0.621   0.409   5.776  0.0762  0.4666 -0.6011
 6693SOL    HW131715   0.657   0.405   5.688  1.9237  1.6015  0.0932
 6693SOL    HW231716   0.596   0.318   5.789 -0.0991  0.6194  0.1421
 6694SOL     OW31717   4.053   1.249   4.596  0.1965  0.4115  0.0370
 6694SOL    HW131718   4.108   1.177   4.565 -0.6432 -0.1583 -0.1230
 6694SOL    HW231719   3.996   1.263   4.520 -0.6126  0.0855  0.5772
 6695SOL     OW31720   2.374   2.973  11.493 -0.1251  0.0500 -0.0780
 6695SOL    HW131721   2.466   2.946  11.496 -0.0407  0.4577  1.2436
 6695SOL    HW231722   2.402   3.065  11.501  0.0022  0.0527 -0.5756
 6696SOL     OW31723   1.663   1.255   8.204 -0.1352 -0.5034  0.2529
 6696SOL    HW131724   1.616   1.193   8.259 -0.6284  0.2261  0.6537
 6696SOL    HW231725   1.742   1.209   8.176 -0.2769 -0.6350  0.0777
 6697SOL     OW31726   1.847   4.277  11.653  0.1098 -0.4839  0.6502
 6697SOL    HW131727   1.833   4.320  11.737  1.4531 -1.0461  1.1587
 6697SOL    HW231728   1.830   4.186  11.673  1.6807 -0.6607  1.1356
 6698SOL     OW31729   2.302   4.687   4.866  0.0281 -0.1656  1.1257
 6698SOL    HW131730   2.367   0.005   4.914 -1.2032 -0.9985  3.6759
 6698SOL    HW231731   2.353   4.645   4.797  1.0901 -0.7632  2.2734
 6699SOL     OW31732   4.153   3.689   0.670 -0.0719  0.1034  0.2239
 6699SOL    HW131733   4.156   3.620   0.604 -0.0190  0.7167 -0.4098
 6699SOL    HW231734   4.066   3.726   0.654 -1.2622 -2.0986  1.5811
 6700SOL     OW31735   4.220   2.304  15.690  0.0506  0.2309 -0.0610
 6700SOL    HW131736   4.163   2.351  15.630 -1.2725 -2.7583 -1.1149
 6700SOL    HW231737   4.301   2.355  15.702 -2.2663  3.8855  0.0222
 6701SOL     OW31738   0.693   0.287   2.360 -0.3547 -0.2769 -0.9726
 6701SOL    HW131739   0.744   0.332   2.427  1.2389 -1.7155 -1.2050
 6701SOL    HW231740   0.733   0.324   2.282  3.9584 -1.2046  0.7503
 6702SOL     OW31741   0.106   0.727   6.695 -0.5587 -0.0771  0.0698
 6702SOL    HW131742   0.125   0.796   6.632  1.2572  1.3578  2.1965
 6702SOL    HW231743   0.103   0.780   6.774 -0.0461  0.3976 -0.2266
 6703SOL     OW31744   3.650   0.044   3.148 -0.2304  0.0361  0.2902
 6703SOL    HW131745   3.642   4.704   3.087  1.6958  1.7263 -2.0455
 6703SOL    HW231746   3.586   0.023   3.216 -0.7675  1.4956  0.2251
 6704SOL     OW31747   0.330   4.600   2.300 -0.2025 -0.4798 -0.3403
 6704SOL    HW131748   0.301   4.519   2.259 -1.7404 -0.3789  0.5506
 6704SOL    HW231749   0.416   4.566   2.327  0.3053  0.5084 -0.7182
 6705SOL     OW31750   3.330   1.218  10.105  0.0604 -0.4870 -0.7094
 6705SOL    HW131751   3.360   1.204  10.195 -1.2058 -1.0397 -0.3838
 6705SOL    HW231752   3.270   1.293  10.108 -0.1781 -0.7625  2.0745
 6706SOL     OW31753   2.418   2.010  11.848 -0.0654 -0.0954  0.4461
 6706SOL    HW131754   2.460   2.096  11.857  2.5434 -1.4297  1.0173
 6706SOL    HW231755   2.459   1.947  11.907  2.2377  0.7876 -0.2029
 6707SOL     OW31756   3.427   1.122  10.366 -0.0481  0.0716 -0.5933
 6707SOL    HW131757   3.404   1.164  10.448  0.8241  3.2129 -1.9572
 6707SOL    HW231758   3.485   1.054  10.400 -1.0356 -1.1368 -1.3579
 6708SOL     OW31759   1.373   2.571  13.438 -0.5044  0.2119 -0.7848
 6708SOL    HW131760   1.403   2.648  13.391  0.5473 -0.6951 -1.6044
 6708SOL    HW231761   1.304   2.548  13.376 -1.0655  2.5891 -1.0210
 6709SOL     OW31762   1.877   0.779  15.465  0.2152  0.3573  0.7594
 6709SOL    HW131763   1.822   0.853  15.493 -1.9036 -0.5600 -1.0525
 6709SOL    HW231764   1.951   0.794  15.525 -0.0486 -0.6766  1.3408
 6710SOL     OW31765   2.604   1.851   2.803  0.0443  0.2866  0.3880
 6710SOL    HW131766   2.612   1.756   2.810 -0.2368  0.0482 -2.7040
 6710SOL    HW231767   2.694   1.880   2.818  0.2393 -0.6745  1.0987
 6711SOL     OW31768   1.281   0.930   0.829 -0.0367  0.0624 -1.1254
 6711SOL    HW131769   1.339   0.855   0.843  0.7085  0.4915 -1.8789
 6711SOL    HW231770   1.261   0.922   0.736 -1.6607 -2.4265 -0.5599
 6712SOL     OW31771   1.258   0.635   8.599  0.0455 -0.0499  0.6748
 6712SOL    HW131772   1.176   0.675   8.626  1.6324  1.2881  3.5917
 6712SOL    HW231773   1.282   0.604   8.687 -0.0504 -1.1191  0.3230
 6713SOL     OW31774   1.664   1.674   9.508  0.3122  0.7118  0.4603
 6713SOL    HW131775   1.600   1.669   9.579  0.7520  0.2330  0.8141
 6713SOL    HW231776   1.619   1.613   9.449  1.4067  1.3267 -0.9974
 6714SOL     OW31777   0.590   2.384   7.728 -0.1222 -0.5185 -0.2309
 6714SOL    HW131778   0.639   2.424   7.657 -1.0853 -1.0164 -1.1749
 6714SOL    HW231779   0.527   2.456   7.735  1.9288  1.4818 -2.8482
 6715SOL     OW31780   4.625   4.161   1.116 -0.9309 -0.2532  0.0926
 6715SOL    HW131781   4.598   4.138   1.027  1.0927  0.6792 -0.7697
 6715SOL    HW231782   4.551   4.133   1.169 -1.6797 -0.5390 -1.1031
 6716SOL     OW31783   3.399   0.139   6.839 -0.1768 -0.3206  0.6332
 6716SOL    HW131784   3.441   0.225   6.833  1.7037 -1.4070 -1.6478
 6716SOL    HW231785   3.307   0.157   6.822 -0.3029 -0.3815  1.2497
 6717SOL     OW31786   1.092   4.041   6.480  0.0434 -0.4643  0.1875
 6717SOL    HW131787   1.089   4.129   6.517 -1.0580 -1.1198  1.6742
 6717SOL    HW231788   1.029   4.045   6.408 -0.3102 -1.5591  0.4324
 6718SOL     OW31789   3.474   0.064  16.299 -0.9111 -0.6003  0.7408
 6718SOL    HW131790   3.543   0.122  16.267  0.1387 -2.5963 -0.5687
 6718SOL    HW231791   3.420   0.123  16.352  1.5099  1.9241  0.4055
 6719SOL     OW31792   0.435   4.704   8.952  0.1381 -0.3815  0.2192
 6719SOL    HW131793   0.380   4.662   9.019 -1.3132  0.2532 -0.5698
 6719SOL    HW231794   0.384   0.048   8.930 -0.7002 -0.7063  0.9904
 6720SOL     OW31795   3.697   3.676  10.027 -0.3269 -0.0622 -0.6214
 6720SOL    HW131796   3.770   3.667  10.089 -2.3386  0.3531  1.7928
 6720SOL    HW231797   3.628   3.636  10.080  0.1565 -1.9436 -1.4095
 6721SOL     OW31798   2.558   0.951   2.208  0.3797  0.5140 -0.5133
 6721SOL    HW131799   2.600   1.007   2.142  0.0654  1.7212  0.2963
 6721SOL    HW231800   2.585   0.996   2.288  2.1397  0.5383 -1.1318
 6722SOL     OW31801   2.637   0.638  14.269 -1.0660 -0.0721  0.2179
 6722SOL    HW131802   2.648   0.637  14.174  0.6063  1.4906  0.3976
 6722SOL    HW231803   2.553   0.593  14.277 -0.2072 -1.8565 -0.7803
 6723SOL     OW31804   0.698   2.875   8.577  0.1463 -0.0598  0.1941
 6723SOL    HW131805   0.616   2.843   8.540 -0.6168 -0.6027  2.4000
 6723SOL    HW231806   0.664   2.913   8.658  1.8501  0.1073  0.8352
 6724SOL     OW31807   2.411   4.127   6.841 -0.0884  0.1005 -0.0465
 6724SOL    HW131808   2.381   4.090   6.924  1.8162  0.6263  0.8861
 6724SOL    HW231809   2.345   4.197   6.835  0.8890  1.0294 -0.0669
 6725SOL     OW31810   2.899   4.071   4.346  0.8462  0.6381 -0.4473
 6725SOL    HW131811   2.986   4.040   4.370  0.9218  0.9348 -0.3315
 6725SOL    HW231812   2.846   3.992   4.333  0.1872  1.2366 -1.4339
 6726SOL     OW31813   4.017   3.783   9.849  0.0002 -0.1132  0.3043
 6726SOL    HW131814   4.044   3.827   9.768 -1.8358  1.7394  0.7090
 6726SOL    HW231815   3.922   3.781   9.837  0.0414 -1.1548  0.1641
 6727SOL     OW31816   1.480   1.572   4.753  0.2116  0.3628  0.8225
 6727SOL    HW131817   1.390   1.594   4.731  0.5643  1.8307  0.8383
 6727SOL    HW231818   1.480   1.479   4.729 -0.0655  0.5690  0.0015
 6728SOL     OW31819   3.767   4.424   2.539 -0.1086  0.1390 -0.2149
 6728SOL    HW131820   3.829   4.382   2.480 -0.8544  1.2480 -1.7695
 6728SOL    HW231821   3.731   4.480   2.471  1.1510  1.2158  0.0232
 6729SOL     OW31822   2.160   4.619   5.095  0.2593 -0.4012 -0.6635
 6729SOL    HW131823   2.200   4.621   5.008  0.0364  0.2098 -0.7547
 6729SOL    HW231824   2.135   4.527   5.102 -0.1304 -0.2824 -0.4943
 6730SOL     OW31825   1.089   2.317  15.902  0.0366 -0.8306 -0.2048
 6730SOL    HW131826   1.030   2.346  15.833  2.2679  1.4889 -1.1550
 6730SOL    HW231827   1.142   2.394  15.923 -0.1341 -0.9651  0.7523
 6731SOL     OW31828   4.055   3.438   2.900  0.5444  0.1107  0.2044
 6731SOL    HW131829   4.021   3.409   2.985  0.3736 -0.2693  0.0062
 6731SOL    HW231830   4.128   3.378   2.885  0.7096  0.1942  0.6551
 6732SOL     OW31831   3.130   2.179  14.923  0.7412  0.4678 -0.0720
 6732SOL    HW131832   3.184   2.194  15.001  0.2141  2.3927 -0.0992
 6732SOL    HW231833   3.174   2.105  14.882  0.8761  0.6057 -0.1738
 6733SOL     OW31834   2.878   2.018   6.600 -0.3595  0.0643  0.0771
 6733SOL    HW131835   2.823   2.096   6.607  0.6601  0.8678 -0.9658
 6733SOL    HW231836   2.968   2.049   6.587  0.0313 -0.2965  1.8446
 6734SOL     OW31837   1.840   4.097   2.164  0.1778  0.1668  0.3631
 6734SOL    HW131838   1.764   4.129   2.213  0.4691 -2.6190  2.6520
 6734SOL    HW231839   1.806   4.085   2.076 -0.6587 -0.3411  0.7556
 6735SOL     OW31840   1.728   2.912   7.480 -0.0663  0.0698  0.4490
 6735SOL    HW131841   1.639   2.902   7.447 -0.1248 -1.8464  1.1515
 6735SOL    HW231842   1.766   2.980   7.424  1.6447 -0.4772  0.9275
 6736SOL     OW31843   2.588   2.293   6.050 -0.2698  0.0770 -0.1582
 6736SOL    HW131844   2.606   2.384   6.026  0.1313 -0.0772 -0.4415
 6736SOL    HW231845   2.643   2.299   6.127 -1.4057 -1.4229  0.7601
 6737SOL     OW31846   4.694   1.414   6.890  0.1630 -0.0078 -0.3585
 6737SOL    HW131847   4.656   1.488   6.937  0.8566 -0.3719  0.7736
 6737SOL    HW231848   4.721   1.448   6.804 -1.6743 -0.7220 -1.2227
 6738SOL     OW31849   4.403   3.596   7.533  0.2311  0.0974  0.1876
 6738SOL    HW131850   4.328   3.629   7.583 -0.0426 -0.7110  0.3090
 6738SOL    HW231851   4.463   3.667   7.556 -0.4786  0.8294 -0.1957
 6739SOL     OW31852   2.126   1.577   5.855 -0.1328 -0.1752 -0.1970
 6739SOL    HW131853   2.101   1.669   5.849  0.0226 -0.2031 -1.2922
 6739SOL    HW231854   2.076   1.545   5.930 -0.2230 -0.5606 -0.4170
 6740SOL     OW31855   1.257   1.872   2.310  0.3031 -0.0244  0.0788
 6740SOL    HW131856   1.193   1.803   2.295 -0.0562  0.7057 -1.7381
 6740SOL    HW231857   1.292   1.887   2.222 -0.3652  0.8556 -0.0401
 6741SOL     OW31858   1.119   2.770   3.038 -0.2837  0.2610  0.3034
 6741SOL    HW131859   1.192   2.714   3.011 -0.6799 -0.2884  0.3782
 6741SOL    HW231860   1.050   2.738   2.980 -1.2411  1.4279  0.8011
 6742SOL     OW31861   0.737   2.602   7.010 -0.5608  0.9720  0.0098
 6742SOL    HW131862   0.820   2.621   6.966 -1.7820  0.9754 -2.3347
 6742SOL    HW231863   0.695   2.688   7.003 -1.3319  0.5996  0.0890
 6743SOL     OW31864   3.053   4.357   7.596 -0.1226 -0.3879 -0.1552
 6743SOL    HW131865   3.141   4.382   7.625  0.6043 -0.1673 -2.5713
 6743SOL    HW231866   2.986   4.384   7.659  1.5019 -2.3906  2.4073
 6744SOL     OW31867   1.447   3.592   8.100 -0.8884 -0.1524 -0.1192
 6744SOL    HW131868   1.521   3.644   8.130 -2.8559  1.5728  1.7231
 6744SOL    HW231869   1.376   3.654   8.118  0.1273  0.2837  2.3620
 6745SOL     OW31870   2.641   3.805   2.691 -0.3589 -0.0529  0.2037
 6745SOL    HW131871   2.695   3.867   2.640  0.2327  0.1355  1.0677
 6745SOL    HW231872   2.588   3.872   2.735  1.5249  0.6957  1.3406
 6746SOL     OW31873   2.924   1.053   3.260 -0.2071  0.1170  0.2187
 6746SOL    HW131874   3.011   1.062   3.299 -0.4001 -0.2722  0.7453
 6746SOL    HW231875   2.910   1.137   3.217 -0.7703 -0.4994 -0.7918
 6747SOL     OW31876   4.265   3.031   1.408  0.5814 -0.3665  0.2822
 6747SOL    HW131877   4.327   2.961   1.428 -0.8142 -1.1349  1.8789
 6747SOL    HW231878   4.255   3.023   1.313 -0.4867 -0.4828  0.4087
 6748SOL     OW31879   0.712   2.001   6.570 -0.5972 -0.0554  0.2336
 6748SOL    HW131880   0.654   1.925   6.564  0.1036 -0.8200  3.2056
 6748SOL    HW231881   0.726   2.006   6.475  0.0576 -0.5764  0.2983
 6749SOL     OW31882   2.554   1.366   1.341 -0.1763 -0.3392  0.1939
 6749SOL    HW131883   2.564   1.388   1.434  1.5183  2.6062 -0.6812
 6749SOL    HW231884   2.532   1.273   1.346 -1.6774 -0.0996 -2.3193
 6750SOL     OW31885   2.647   1.486   5.802 -0.0401 -0.8129  0.0285
 6750SOL    HW131886   2.557   1.509   5.827  0.4548  0.9569  0.1704
 6750SOL    HW231887   2.693   1.561   5.840 -0.8683 -1.1237  1.6395
 6751SOL     OW31888   4.055   1.951   7.738  0.0777 -0.5868  0.0180
 6751SOL    HW131889   4.123   2.008   7.774  1.6505 -2.6491  0.3081
 6751SOL    HW231890   3.993   2.010   7.695  0.2854  0.0112  0.5487
 6752SOL     OW31891   1.367   4.381   6.090  0.5459 -0.3172 -0.0025
 6752SOL    HW131892   1.345   4.469   6.121 -0.6933 -0.4385 -0.5151
 6752SOL    HW231893   1.406   4.397   6.004  2.6066 -0.6530  0.8853
 6753SOL     OW31894   3.033   0.250   3.781 -0.1508 -0.1932  0.0944
 6753SOL    HW131895   3.118   0.227   3.743 -0.2722  0.3601 -0.5228
 6753SOL    HW231896   2.975   0.263   3.705  0.5873  0.6131 -0.3324
 6754SOL     OW31897   3.435   1.790   4.262  0.0031 -0.0166  0.4364
 6754SOL    HW131898   3.455   1.873   4.306  0.2707 -0.0794  0.4312
 6754SOL    HW231899   3.454   1.812   4.171 -1.6453 -1.0372 -0.1376
 6755SOL     OW31900   1.634   2.562   1.745  0.6349 -0.3818  0.1466
 6755SOL    HW131901   1.696   2.609   1.689  2.1786 -2.0005  0.4785
 6755SOL    HW231902   1.586   2.509   1.681 -0.5943 -0.5926  1.2526
 6756SOL     OW31903   3.713   4.015  11.030 -0.0053  0.3070  0.3501
 6756SOL    HW131904   3.717   4.100  10.986 -1.3968 -0.4561 -1.2403
 6756SOL    HW231905   3.736   4.041  11.119  0.6477  0.2776  0.1938
 6757SOL     OW31906   0.246   2.017   7.007  1.0464  0.0770 -0.5385
 6757SOL    HW131907   0.317   1.979   6.955  1.1046  1.6434 -1.5885
 6757SOL    HW231908   0.271   2.109   7.007  1.5827 -0.0741  0.0609
 6758SOL     OW31909   2.397   2.362   8.052  0.0643 -0.3311  0.1535
 6758SOL    HW131910   2.425   2.400   8.135 -0.6008 -1.0713  0.7148
 6758SOL    HW231911   2.455   2.415   7.996 -0.4398  1.0623  0.9374
 6759SOL     OW31912   1.155   2.199  14.913 -0.2472 -0.4903  0.0124
 6759SOL    HW131913   1.064   2.218  14.937  0.2000 -0.2534  1.4785
 6759SOL    HW231914   1.166   2.257  14.837 -1.4880  0.4897  0.5874
 6760SOL     OW31915   3.893   4.230  15.579  0.6853  0.4541  0.0839
 6760SOL    HW131916   3.897   4.146  15.534  0.9089  0.6714 -0.3016
 6760SOL    HW231917   3.865   4.188  15.660  4.0929  2.3121  2.2408
 6761SOL     OW31918   0.042   1.782  13.499 -1.2160 -0.3546  0.3953
 6761SOL    HW131919   0.029   1.708  13.440  0.4048 -1.4132  1.3506
 6761SOL    HW231920   0.061   1.851  13.435  0.0970 -0.8765  0.2330
 6762SOL     OW31921   3.439   3.499  13.578 -0.3930 -0.7070 -0.3935
 6762SOL    HW131922   3.498   3.522  13.506 -0.9897  0.0004 -0.6643
 6762SOL    HW231923   3.357   3.541  13.551  0.3114  0.3506 -0.8716
 6763SOL     OW31924   1.971   3.501  10.350  0.1412  0.6865  0.3376
 6763SOL    HW131925   1.881   3.491  10.379 -0.3495  0.5828 -1.2368
 6763SOL    HW231926   2.017   3.447  10.414 -0.3882 -0.2013 -0.0392
 6764SOL     OW31927   1.687   4.465  10.400 -0.3583 -0.3946  0.6287
 6764SOL    HW131928   1.752   4.521  10.358 -0.5126  0.4137  1.4540
 6764SOL    HW231929   1.743   4.401  10.443 -1.1283 -0.0681  2.1510
 6765SOL     OW31930   0.828   1.136  12.716  0.1907  0.5073  0.0946
 6765SOL    HW131931   0.869   1.204  12.770 -0.9166  1.0220  0.2832
 6765SOL    HW231932   0.787   1.193  12.650 -0.4919 -1.5970 -1.2889
 6766SOL     OW31933   3.399   4.236   8.143  0.5166  0.3420  0.2263
 6766SOL    HW131934   3.380   4.298   8.214 -2.2061  0.5064 -0.6461
 6766SOL    HW231935   3.312   4.216   8.107 -0.6463 -0.7312  3.6264
 6767SOL     OW31936   0.481   4.085   8.059  0.1920 -0.2911  0.0717
 6767SOL    HW131937   0.521   4.165   8.024 -1.0968  0.0780 -0.5324
 6767SOL    HW231938   0.395   4.113   8.090  0.9830  2.8422 -0.6263
 6768SOL     OW31939   2.131   3.147   7.936 -0.1127 -0.3912  0.4155
 6768SOL    HW131940   2.175   3.092   7.871  0.4686 -1.1832  1.4821
 6768SOL    HW231941   2.042   3.122   7.911 -0.5067 -0.4568  1.8898
 6769SOL     OW31942   3.734   2.105  12.992  0.2421 -0.7611  0.1035
 6769SOL    HW131943   3.785   2.064  13.061  0.8158  0.9125  0.6712
 6769SOL    HW231944   3.792   2.176  12.967 -1.2433 -0.3588 -2.2077
 6770SOL     OW31945   2.679   4.310   3.837  0.0387  0.2032 -0.4901
 6770SOL    HW131946   2.752   4.370   3.850  0.3121 -0.1716 -0.2953
 6770SOL    HW231947   2.706   4.234   3.890 -0.0491  0.5889  0.1128
 6771SOL     OW31948   4.683   1.964   3.992 -0.2828  0.0323  0.1021
 6771SOL    HW131949   4.634   1.904   4.049 -1.0822  0.0614 -0.5579
 6771SOL    HW231950   4.629   1.951   3.914  0.7590  0.4930 -0.6953
 6772SOL     OW31951   3.894   3.530  10.616 -0.0830 -0.1595 -0.3316
 6772SOL    HW131952   3.816   3.520  10.671  0.3427 -0.4065  0.2328
 6772SOL    HW231953   3.951   3.530  10.693  1.9491  1.2722 -1.8482
 6773SOL     OW31954   0.381   4.080   4.276 -0.2750  0.2864 -0.5071
 6773SOL    HW131955   0.297   4.035   4.284  0.4596 -1.1327 -0.7268
 6773SOL    HW231956   0.352   4.164   4.242  1.5804  0.1682 -2.3733
 6774SOL     OW31957   0.870   4.242   7.088  0.1203  0.3971  0.3546
 6774SOL    HW131958   0.788   4.258   7.135 -1.7068  0.4254 -2.8498
 6774SOL    HW231959   0.830   4.257   7.002  2.0162 -2.6091 -1.0670
 6775SOL     OW31960   3.261   1.546   4.162  0.1455  0.3400 -0.3630
 6775SOL    HW131961   3.199   1.602   4.209  1.6840  0.1273  1.9262
 6775SOL    HW231962   3.290   1.602   4.090 -0.1221  0.5095 -0.3406
 6776SOL     OW31963   1.172   3.574  12.826 -0.2766  0.3776 -0.1410
 6776SOL    HW131964   1.173   3.668  12.809 -0.4554  0.0345 -2.0241
 6776SOL    HW231965   1.255   3.560  12.780  0.4829 -0.2257  1.4123
 6777SOL     OW31966   1.676   3.422   7.032  0.4607 -0.5359 -0.1190
 6777SOL    HW131967   1.655   3.506   7.071  0.5201 -1.0435  1.0132
 6777SOL    HW231968   1.768   3.417   7.059  0.4427  0.3759  0.1197
 6778SOL     OW31969   1.345   2.130   3.208  0.4968  0.0409 -0.2041
 6778SOL    HW131970   1.277   2.068   3.236  0.1354  0.7057  0.3806
 6778SOL    HW231971   1.414   2.099   3.267  0.4085 -0.7261 -0.5049
 6779SOL     OW31972   4.374   0.283   3.472 -0.2755  0.1183 -0.1404
 6779SOL    HW131973   4.345   0.290   3.563 -1.7915 -0.8797 -0.5438
 6779SOL    HW231974   4.294   0.318   3.433  0.1283  2.1072  0.8356
 6780SOL     OW31975   2.230   1.964   3.850  0.6281  0.4631 -0.3240
 6780SOL    HW131976   2.227   1.978   3.945 -1.5771 -1.9257 -0.0571
 6780SOL    HW231977   2.244   2.051   3.814 -0.0829  0.7294  0.0375
 6781SOL     OW31978   1.036   1.284  13.135 -0.0053  0.1332 -0.0996
 6781SOL    HW131979   1.092   1.315  13.207 -1.2113  0.0413  0.8682
 6781SOL    HW231980   1.068   1.194  13.147 -0.4690  0.0269  0.3130
 6782SOL     OW31981   3.174   3.406   2.860 -0.3083 -0.6166 -0.1870
 6782SOL    HW131982   3.250   3.372   2.907  0.3198 -1.6792 -1.9834
 6782SOL    HW231983   3.208   3.406   2.770  0.3486  0.6424  0.0477
 6783SOL     OW31984   3.881   3.518  14.136 -0.5123 -0.2049 -0.3288
 6783SOL    HW131985   3.929   3.461  14.075  3.2842 -0.2149  2.6738
 6783SOL    HW231986   3.870   3.458  14.209 -0.4450 -0.9206 -0.9003
 6784SOL     OW31987   2.653   1.448   7.438 -0.1362  1.0533  0.1843
 6784SOL    HW131988   2.613   1.395   7.507 -2.0016  0.1740 -1.5813
 6784SOL    HW231989   2.739   1.409   7.452 -0.5616  0.5910  1.5680
 6785SOL     OW31990   2.740   2.393   4.237 -0.4463  0.3573  0.4863
 6785SOL    HW131991   2.706   2.338   4.307 -0.7168  0.8208  0.7167
 6785SOL    HW231992   2.704   2.348   4.160 -0.6383  0.3634  0.5725
 6786SOL     OW31993   1.026   4.644  12.752  0.6582 -0.0344  0.5499
 6786SOL    HW131994   1.072   4.670  12.673  0.9391  1.4327  1.2031
 6786SOL    HW231995   0.935   4.662  12.729  0.7460 -1.2294 -0.6785
 6787SOL     OW31996   3.399   3.843  12.349 -0.6986 -0.1062  0.1966
 6787SOL    HW131997   3.408   3.767  12.406  0.7692 -0.4053 -0.4169
 6787SOL    HW231998   3.332   3.817  12.286 -1.9373  1.5834  0.8123
 6788SOL     OW31999   0.605   1.049  15.415 -0.3037 -0.0377  0.1662
 6788SOL    HW132000   0.605   1.011  15.504 -0.4318  1.7415  0.9211
 6788SOL    HW232001   0.512   1.046  15.396 -0.4276  1.4487  0.5836
 6789SOL     OW32002   2.055   1.478   0.438 -0.1667  0.1944 -0.3169
 6789SOL    HW132003   2.133   1.439   0.474 -1.0123 -0.3430  0.9110
 6789SOL    HW232004   1.995   1.408   0.412  1.0761 -0.1073 -2.3585
 6790SOL     OW32005   3.795   2.285   2.896  0.1328  0.5149 -0.5873
 6790SOL    HW132006   3.775   2.295   2.990 -2.2438  0.4700 -1.0682
 6790SOL    HW232007   3.852   2.357   2.869  0.1621  1.6161  2.4074
 6791SOL     OW32008   1.241   0.296  12.740 -0.2478 -0.2478  0.0746
 6791SOL    HW132009   1.233   0.275  12.647 -2.0114 -1.2989  0.4684
 6791SOL    HW232010   1.286   0.219  12.774  1.4258 -0.2410 -2.1081
 6792SOL     OW32011   4.147   2.490  15.317 -0.4511  0.2253  0.0558
 6792SOL    HW132012   4.140   2.546  15.394  2.7903  0.1238  0.4057
 6792SOL    HW232013   4.211   2.426  15.346 -2.8699 -1.0792  2.5517
 6793SOL     OW32014   3.559   3.243   4.017 -0.3692 -0.1859 -0.3269
 6793SOL    HW132015   3.601   3.257   3.933  0.6456  1.9949  0.5470
 6793SOL    HW232016   3.533   3.334   4.033  2.8770  0.7175 -0.1857
 6794SOL     OW32017   2.679   0.294  14.834 -0.1334  0.2325  0.2712
 6794SOL    HW132018   2.641   0.373  14.796 -2.8579 -1.3146 -0.1841
 6794SOL    HW232019   2.768   0.303  14.799  0.1684  0.3704  1.0569
 6795SOL     OW32020   1.123   1.296   1.882 -0.4654  0.6017 -0.5758
 6795SOL    HW132021   1.075   1.289   1.964  1.4957 -1.6510  0.3970
 6795SOL    HW232022   1.161   1.381   1.903  0.0198  0.4438 -0.8040
 6796SOL     OW32023   0.537   1.722   2.968 -0.2780  0.8230 -0.0301
 6796SOL    HW132024   0.480   1.665   2.917 -0.0679 -0.9526  1.6835
 6796SOL    HW232025   0.492   1.708   3.051 -0.0886 -0.9081 -0.2156
 6797SOL     OW32026   0.230   0.442   6.937  0.4389 -0.4045 -0.4637
 6797SOL    HW132027   0.193   0.469   6.853  0.4058 -1.9569 -0.9427
 6797SOL    HW232028   0.184   0.497   7.001  0.4679  0.7785 -1.4610
 6798SOL     OW32029   4.429   3.705  10.517 -0.0390  0.0444 -0.0208
 6798SOL    HW132030   4.431   3.801  10.510 -1.1569  0.0224 -0.6296
 6798SOL    HW232031   4.402   3.685  10.428  1.4156  0.3495 -0.5443
 6799SOL     OW32032   4.554   1.616   6.558  0.0776 -0.5501  0.2368
 6799SOL    HW132033   4.586   1.624   6.648  0.1816  1.4958  0.0059
 6799SOL    HW232034   4.479   1.556   6.563  0.9840 -1.6170  0.9106
 6800SOL     OW32035   2.015   2.397   6.257 -0.4040 -0.2910 -0.4942
 6800SOL    HW132036   2.031   2.308   6.227 -0.6743 -0.1563 -1.0241
 6800SOL    HW232037   2.087   2.396   6.321 -1.6101 -1.7949  0.8415
 6801SOL     OW32038   4.234   3.849   9.025 -0.0528 -0.0956 -0.3009
 6801SOL    HW132039   4.248   3.912   8.955  0.9468 -0.3003 -0.2834
 6801SOL    HW232040   4.272   3.896   9.099  1.8140 -0.4645 -1.0301
 6802SOL     OW32041   2.303   0.724   2.062  0.0675 -0.4780  0.1024
 6802SOL    HW132042   2.323   0.637   2.097 -0.2577 -1.1160 -1.3246
 6802SOL    HW232043   2.244   0.755   2.131 -1.9007 -1.8831 -0.9604
 6803SOL     OW32044   1.536   3.233  12.759  0.4680 -0.1954  0.5481
 6803SOL    HW132045   1.443   3.224  12.736  0.0421 -2.2034  3.0644
 6803SOL    HW232046   1.568   3.262  12.673  1.6399  1.0978  1.4259
 6804SOL     OW32047   2.872   4.308  17.509  0.5972  0.1501  0.2239
 6804SOL    HW132048   2.835   4.264  17.432 -0.1131 -1.2675  1.3821
 6804SOL    HW232049   2.965   4.314  17.490  0.0930 -0.6554 -2.5598
 6805SOL     OW32050   3.729   4.621   1.683  0.0726  0.3284 -0.3093
 6805SOL    HW132051   3.816   4.661   1.688  0.2404 -0.1735  0.9468
 6805SOL    HW232052   3.679   4.681   1.738  2.7815  1.4536  0.9350
 6806SOL     OW32053   2.996   3.931   2.649 -0.3599  0.0145 -0.0313
 6806SOL    HW132054   2.927   3.961   2.589  0.0130 -1.7759 -1.3376
 6806SOL    HW232055   2.989   3.840   2.622  0.4899 -0.0617 -0.0039
 6807SOL     OW32056   0.143   2.646   1.907  0.3001 -0.8723 -0.0197
 6807SOL    HW132057   0.205   2.596   1.853  1.8310 -0.2680  1.1764
 6807SOL    HW232058   0.200   2.669   1.980  0.2923  2.4462 -1.0289
 6808SOL     OW32059   1.392   2.492  10.121  0.0846 -0.1547 -0.4169
 6808SOL    HW132060   1.330   2.420  10.132  0.2240 -0.0917  0.7212
 6808SOL    HW232061   1.358   2.564  10.173  0.2802  0.1255 -0.6757
 6809SOL     OW32062   1.360   0.113   7.501  0.3075 -0.4994  0.1952
 6809SOL    HW132063   1.342   0.204   7.524 -1.7792 -0.8783  0.0612
 6809SOL    HW232064   1.366   0.071   7.587  2.2080 -0.6696 -0.0237
 6810SOL     OW32065   2.085   4.436  12.087  0.5647 -0.7690  0.1395
 6810SOL    HW132066   2.151   4.503  12.103  0.5809 -0.8236  0.3096
 6810SOL    HW232067   2.127   4.349  12.088  1.7651 -0.2221 -3.2600
 6811SOL     OW32068   4.196   1.566  16.640 -0.0232 -0.9193 -0.2633
 6811SOL    HW132069   4.166   1.484  16.678 -1.3073 -0.5065 -0.3918
 6811SOL    HW232070   4.274   1.587  16.691 -0.2767  1.2158 -0.7290
 6812SOL     OW32071   1.316   2.046   0.949  0.2656  0.1193 -0.0952
 6812SOL    HW132072   1.263   2.083   0.879  0.3915 -0.1906 -0.3588
 6812SOL    HW232073   1.346   1.967   0.904 -0.5689 -1.3380  1.8738
 6813SOL     OW32074   0.892   3.130   8.404 -0.2438  0.2447  0.1780
 6813SOL    HW132075   0.819   3.143   8.465  1.3550 -1.4774  2.4427
 6813SOL    HW232076   0.967   3.112   8.461 -0.4332  0.3444  0.4612
 6814SOL     OW32077   2.846   0.768   6.514 -0.3766  0.3385 -0.0096
 6814SOL    HW132078   2.909   0.710   6.471  0.5998 -0.2733  2.2625
 6814SOL    HW232079   2.807   0.697   6.564 -3.0047  1.3205 -0.6570
 6815SOL     OW32080   2.528   3.078  11.136  0.4187  0.1714 -1.3243
 6815SOL    HW132081   2.482   3.113  11.212  0.5106  1.1243 -1.7110
 6815SOL    HW232082   2.525   2.984  11.156  0.2207  0.9005  2.1127
 6816SOL     OW32083   1.740   1.029   8.524 -0.1670  0.1367  0.5735
 6816SOL    HW132084   1.834   1.028   8.511 -0.1428 -0.1132  0.7612
 6816SOL    HW232085   1.714   1.000   8.436 -0.0053  1.1358  0.1975
 6817SOL     OW32086   4.310   0.844   5.553 -0.1071 -0.1095  0.3682
 6817SOL    HW132087   4.249   0.850   5.626 -0.1594  1.2089  0.2267
 6817SOL    HW232088   4.402   0.843   5.578 -0.6049 -2.2086  2.1153
 6818SOL     OW32089   0.723   3.885   4.273  0.0108  0.3664 -0.1278
 6818SOL    HW132090   0.674   3.953   4.226  0.4264  0.6310 -0.1805
 6818SOL    HW232091   0.658   3.821   4.301  0.1252 -1.0457 -3.0990
 6819SOL     OW32092   3.208   3.529  17.669  0.5764 -0.3201  0.5435
 6819SOL    HW132093   3.264   3.530  17.592  0.4136 -0.4014  0.4237
 6819SOL    HW232094   3.142   3.592  17.638  0.0064  0.6963  3.7677
 6820SOL     OW32095   3.104   4.333   0.530  0.3013  0.4094 -0.2875
 6820SOL    HW132096   3.036   4.266   0.524 -0.9340  1.8010 -2.0986
 6820SOL    HW232097   3.093   4.375   0.444 -1.2596  0.9983  0.1936
 6821SOL     OW32098   3.514   2.820  13.109 -0.5006 -0.2003 -0.4383
 6821SOL    HW132099   3.441   2.882  13.110 -0.6917 -0.4575  1.0179
 6821SOL    HW232100   3.582   2.886  13.101 -1.8860  1.3847  0.9788
 6822SOL     OW32101   1.372   1.009  15.260 -0.1727 -0.6068  0.2794
 6822SOL    HW132102   1.398   1.075  15.195  1.3563 -1.6477 -0.1741
 6822SOL    HW232103   1.402   0.933  15.210  1.7325  1.5875 -1.9437
 6823SOL     OW32104   0.554   2.825   7.056  0.0472  0.1910 -0.3231
 6823SOL    HW132105   0.517   2.848   6.970  1.0720 -0.5834 -0.9671
 6823SOL    HW232106   0.638   2.869   7.068  0.8547 -1.4636  0.0909
 6824SOL     OW32107   3.724   0.095  17.296 -0.1656 -0.1480  0.3133
 6824SOL    HW132108   3.806   0.060  17.333 -0.0209  1.5805  1.6216
 6824SOL    HW232109   3.695   0.139  17.376  1.1283  2.5941 -0.7204
 6825SOL     OW32110   2.282   3.675   1.635 -0.0960  0.4838  0.1080
 6825SOL    HW132111   2.224   3.658   1.709 -0.4466 -1.0823 -0.5333
 6825SOL    HW232112   2.228   3.726   1.574 -2.5982 -1.0475  1.0690
 6826SOL     OW32113   1.557   1.193   7.656  0.2718  0.0167  0.1739
 6826SOL    HW132114   1.572   1.271   7.710 -0.0243  0.4080 -0.3104
 6826SOL    HW232115   1.609   1.212   7.578  0.3786  0.4485  0.3451
 6827SOL     OW32116   4.727   4.287   9.627 -0.1043 -0.4237 -0.2519
 6827SOL    HW132117   4.640   4.257   9.653 -0.1967 -1.1512 -1.4338
 6827SOL    HW232118   0.020   4.214   9.572 -1.9355  0.3367 -2.1690
 6828SOL     OW32119   2.874   1.921   9.710 -0.0833  0.1927 -0.8100
 6828SOL    HW132120   2.796   1.930   9.765  1.2244  1.6867  0.8042
 6828SOL    HW232121   2.846   1.855   9.646  1.0809 -0.5323 -0.5870
 6829SOL     OW32122   0.932   3.822   5.253 -0.1197  0.6878 -0.0511
 6829SOL    HW132123   0.965   3.804   5.165  1.1720 -1.3761  0.8549
 6829SOL    HW232124   0.903   3.913   5.251 -0.4751  0.5655 -0.4310
 6830SOL     OW32125   3.291   0.738   5.393 -0.1368  0.1863  0.5235
 6830SOL    HW132126   3.242   0.684   5.332  0.8971 -1.9128  1.5657
 6830SOL    HW232127   3.225   0.795   5.433 -0.6375  0.0841 -0.1646
 6831SOL     OW32128   2.041   4.026   3.554 -0.2672  0.5260 -0.1122
 6831SOL    HW132129   2.026   3.981   3.471  1.3078  0.1273 -0.1901
 6831SOL    HW232130   1.952   4.054   3.574 -1.5753 -2.2450 -2.0042
 6832SOL     OW32131   1.509   1.662  15.089  0.4065  0.1011  0.2784
 6832SOL    HW132132   1.568   1.694  15.022 -0.7523  0.9480 -0.3267
 6832SOL    HW232133   1.496   1.746  15.134  2.0792  0.1185  0.7189
 6833SOL     OW32134   4.537   2.475   3.560 -0.5974  0.1474  0.3754
 6833SOL    HW132135   4.464   2.453   3.501  1.5030 -2.7390 -1.1555
 6833SOL    HW232136   4.498   2.441   3.641  0.2187  1.4428  1.3046
 6834SOL     OW32137   4.289   2.055   4.832 -0.5013 -0.1800  0.1085
 6834SOL    HW132138   4.285   2.078   4.739 -3.8353 -0.2497  0.2315
 6834SOL    HW232139   4.257   1.965   4.824 -0.9031 -0.0630  0.4480
 6835SOL     OW32140   3.966   3.672   3.326 -0.5007  1.5448  0.1657
 6835SOL    HW132141   3.888   3.688   3.378 -0.9542 -3.0688  0.8881
 6835SOL    HW232142   4.030   3.650   3.394 -1.4526 -1.4591  0.0928
 6836SOL     OW32143   0.793   1.130  11.828 -0.1771 -0.0625  0.6061
 6836SOL    HW132144   0.812   1.071  11.901 -2.4273  1.2470  2.2651
 6836SOL    HW232145   0.847   1.205  11.851 -1.4192  1.2567 -0.6751
 6837SOL     OW32146   1.421   2.525   2.255  0.3187 -0.2010  0.4317
 6837SOL    HW132147   1.476   2.530   2.176 -1.2551 -1.9147 -0.7836
 6837SOL    HW232148   1.470   2.456   2.300 -0.8511 -3.0129 -2.5596
 6838SOL     OW32149   4.239   4.292   8.013  0.3346 -0.1818  0.4801
 6838SOL    HW132150   4.332   4.276   8.026  0.8973  1.8932 -0.9673
 6838SOL    HW232151   4.215   4.316   8.103 -1.6939  1.1520 -0.3953
 6839SOL     OW32152   4.125   0.852   9.563 -0.4081 -0.2674 -0.3382
 6839SOL    HW132153   4.196   0.807   9.517 -0.3908  0.0533 -0.6242
 6839SOL    HW232154   4.103   0.909   9.490  2.8328  2.8904  1.1606
 6840SOL     OW32155   4.211   1.996  13.640  0.3033 -0.6529 -0.3995
 6840SOL    HW132156   4.189   2.038  13.557  1.6079  0.6660 -0.0698
 6840SOL    HW232157   4.281   2.055  13.668  0.1951 -0.5191 -0.4098
 6841SOL     OW32158   3.955   3.613   7.063  0.0700 -0.4867  0.2973
 6841SOL    HW132159   3.985   3.538   7.013  1.5054  0.7965 -0.7898
 6841SOL    HW232160   4.007   3.680   7.018  0.0740 -0.5232  0.2477
 6842SOL     OW32161   0.646   2.458   2.353 -0.6824 -0.2547 -0.1363
 6842SOL    HW132162   0.683   2.413   2.429 -0.5256 -1.4301 -0.9162
 6842SOL    HW232163   0.604   2.385   2.308  0.5787  0.2538 -2.1296
 6843SOL     OW32164   4.518   2.278   8.042 -0.6857 -0.1785  0.5275
 6843SOL    HW132165   4.562   2.194   8.054 -1.4930 -0.7588 -0.5717
 6843SOL    HW232166   4.551   2.318   8.122  1.2248 -1.7778  0.5451
 6844SOL     OW32167   0.134   3.588   1.470 -0.9428  0.0850  0.2772
 6844SOL    HW132168   0.183   3.541   1.538 -0.9078 -2.9309 -1.8210
 6844SOL    HW232169   0.205   3.602   1.407 -1.7174 -0.5325 -0.7322
 6845SOL     OW32170   0.808   3.595   5.062 -0.3501  0.1609  0.4976
 6845SOL    HW132171   0.796   3.513   5.110 -1.0989 -0.9776 -1.6325
 6845SOL    HW232172   0.793   3.652   5.137 -0.2089  1.1295 -0.2090
 6846SOL     OW32173   2.708   1.507   3.083  0.3389  0.4889  0.5767
 6846SOL    HW132174   2.620   1.537   3.105 -0.0921 -0.1224 -0.3518
 6846SOL    HW232175   2.694   1.418   3.052  0.8335  0.8872 -0.8159
 6847SOL     OW32176   3.217   1.481   7.997 -0.3456  0.7416  0.5394
 6847SOL    HW132177   3.271   1.532   7.937 -1.6766  1.4847 -0.0210
 6847SOL    HW232178   3.289   1.430   8.034  1.2260  1.4498 -1.5779
 6848SOL     OW32179   1.639   2.333  11.009 -0.1706 -0.2691 -0.3285
 6848SOL    HW132180   1.580   2.392  10.963 -0.1941  0.2163  0.3259
 6848SOL    HW232181   1.672   2.400  11.069  3.1474  0.4559 -2.9643
 6849SOL     OW32182   3.346   3.482   0.866  0.2355  0.5624 -0.1631
 6849SOL    HW132183   3.376   3.418   0.801  2.3585  0.9884  0.3745
 6849SOL    HW232184   3.303   3.549   0.812 -0.9565  0.2713  0.4325
 6850SOL     OW32185   3.509   3.504   4.089  0.1578 -0.1459 -0.2321
 6850SOL    HW132186   3.575   3.570   4.071 -0.0654 -0.8579 -3.5879
 6850SOL    HW232187   3.429   3.538   4.049  0.1706 -1.6102 -1.4997
 6851SOL     OW32188   2.137   3.747   7.673 -0.5679  0.7252  0.5455
 6851SOL    HW132189   2.188   3.822   7.706  0.1511  0.5143 -0.0659
 6851SOL    HW232190   2.160   3.680   7.737  1.2499  1.6281  0.8580
 6852SOL     OW32191   4.193   0.151   7.388  0.2144  0.0157  0.2832
 6852SOL    HW132192   4.148   0.234   7.371  0.2347  0.0854  0.5770
 6852SOL    HW232193   4.262   0.185   7.444  1.7346 -1.1322 -0.9127
 6853SOL     OW32194   2.966   1.760   5.164 -0.4503 -0.2838 -0.8827
 6853SOL    HW132195   2.896   1.748   5.099 -1.8097  2.1736  0.1103
 6853SOL    HW232196   2.936   1.695   5.227  0.6194  2.5092  2.5137
 6854SOL     OW32197   1.976   3.921   4.719  0.1485 -0.3415 -0.7165
 6854SOL    HW132198   1.996   3.880   4.803 -3.0342 -1.3926 -0.4779
 6854SOL    HW232199   1.999   3.853   4.657 -0.5869 -1.5255  0.2976
 6855SOL     OW32200   4.695   4.420  12.609 -0.2691  0.4234  0.1753
 6855SOL    HW132201   4.675   4.405  12.702 -0.2271  0.0566  0.1245
 6855SOL    HW232202   4.664   4.509  12.593 -3.4919 -0.9419 -1.1909
 6856SOL     OW32203   3.956   4.525   8.900  0.2170  0.3804  0.4130
 6856SOL    HW132204   3.978   4.502   8.810 -0.8628  0.9758  0.0036
 6856SOL    HW232205   4.008   4.458   8.943  2.4643 -0.0648 -2.9591
 6857SOL     OW32206   1.472   3.187   4.707 -0.1591  0.1273  0.5527
 6857SOL    HW132207   1.468   3.185   4.611  0.3027 -1.2725  0.5731
 6857SOL    HW232208   1.408   3.122   4.735  0.5042 -1.4549 -1.6108
 6858SOL     OW32209   3.744   4.387   2.809 -0.6701 -0.1308 -0.2442
 6858SOL    HW132210   3.734   4.421   2.720 -0.8623  2.1145  0.6290
 6858SOL    HW232211   3.670   4.330   2.830 -2.0768  1.2094 -1.5875
 6859SOL     OW32212   0.306   2.831   4.748 -0.1611 -0.2536 -0.3122
 6859SOL    HW132213   0.240   2.784   4.697  0.6754  1.2336 -2.7685
 6859SOL    HW232214   0.390   2.813   4.705  1.6278  0.8490  2.7130
 6860SOL     OW32215   3.759   0.983   9.082 -0.3064  0.1971  0.4394
 6860SOL    HW132216   3.853   0.969   9.073 -0.1356  1.7345 -0.2821
 6860SOL    HW232217   3.752   1.047   9.153 -1.2432  2.6830 -1.8746
 6861SOL     OW32218   2.760   4.505   8.343  0.0789 -0.2258 -0.3101
 6861SOL    HW132219   2.718   4.590   8.358  0.5629  0.0285 -0.3751
 6861SOL    HW232220   2.746   4.459   8.425  1.7837  0.0604  0.1490
 6862SOL     OW32221   1.973   4.120  13.585 -0.2093 -0.3343 -0.2772
 6862SOL    HW132222   1.965   4.178  13.660 -0.9523 -0.6267 -0.1306
 6862SOL    HW232223   1.969   4.034  13.626  2.1861  0.5736  1.8327
 6863SOL     OW32224   4.114   4.116  10.068 -0.3836 -0.4165 -0.5998
 6863SOL    HW132225   4.022   4.087  10.068 -0.5676  0.1649 -0.8807
 6863SOL    HW232226   4.165   4.040  10.096  0.1411  0.3864  0.6068
 6864SOL     OW32227   1.685   3.026   8.216 -0.3864 -0.0629 -0.3120
 6864SOL    HW132228   1.596   2.991   8.215 -0.7065  0.7725 -1.5214
 6864SOL    HW232229   1.677   3.053   8.125  1.1881 -1.1179 -0.7587
 6865SOL     OW32230   1.560   0.844   6.996  0.4418 -0.2282  0.1230
 6865SOL    HW132231   1.591   0.807   6.913 -0.3036 -2.0949  0.6690
 6865SOL    HW232232   1.465   0.843   6.984  0.7085 -0.1454 -2.0080
 6866SOL     OW32233   1.345   2.722  15.304 -0.4031  0.5309 -0.0733
 6866SOL    HW132234   1.371   2.814  15.315  2.0335 -0.3139  1.3381
 6866SOL    HW232235   1.285   2.710  15.378 -0.0681 -0.5915  0.0117
 6867SOL     OW32236   2.612   1.240   3.550 -0.0165  0.1556 -0.6327
 6867SOL    HW132237   2.585   1.188   3.475 -1.4136  0.5604 -0.4176
 6867SOL    HW232238   2.681   1.187   3.589 -0.1081 -1.0977 -2.2128
 6868SOL     OW32239   4.058   3.811   6.906  0.3799  0.5365  0.4367
 6868SOL    HW132240   4.118   3.831   6.834  0.5206 -1.3508  0.0251
 6868SOL    HW232241   4.104   3.866   6.970  0.8111  1.6622 -0.8335
 6869SOL     OW32242   0.257   1.555  11.831 -0.1304  0.3603  0.5583
 6869SOL    HW132243   0.170   1.594  11.833 -0.7577 -0.9999  0.0718
 6869SOL    HW232244   0.290   1.598  11.910 -1.2729  0.9762  0.7059
 6870SOL     OW32245   4.345   2.502   6.051  0.6819  0.0791 -0.4719
 6870SOL    HW132246   4.420   2.493   6.109 -0.6341 -4.0484  0.6218
 6870SOL    HW232247   4.353   2.418   6.006 -0.6130 -1.2983  1.8069
 6871SOL     OW32248   1.735   2.594  10.394  0.3858  0.3913  0.0868
 6871SOL    HW132249   1.669   2.659  10.372 -0.5401 -0.8967 -0.9509
 6871SOL    HW232250   1.802   2.607  10.327  1.2346 -0.6821  0.6934
 6872SOL     OW32251   0.608   4.137   4.442 -0.0132  0.0146  0.1091
 6872SOL    HW132252   0.531   4.101   4.398 -0.7057 -0.9422  2.0917
 6872SOL    HW232253   0.628   4.069   4.506  2.4857  0.5183 -0.1353
 6873SOL     OW32254   0.456   3.034   0.020 -0.2671  0.7224 -0.6874
 6873SOL    HW132255   0.422   2.946   0.004  2.6304 -0.5622  0.1903
 6873SOL    HW232256   0.452   3.068  17.665  0.7881 -1.1200 -1.4275
 6874SOL     OW32257   2.590   2.350   2.301 -0.1023 -0.1219  0.6383
 6874SOL    HW132258   2.646   2.404   2.245  2.5424 -2.4320  1.0543
 6874SOL    HW232259   2.651   2.333   2.373  1.8708  1.2855 -0.6982
 6875SOL     OW32260   2.733   0.680   6.156  0.3598  0.2146 -0.1563
 6875SOL    HW132261   2.733   0.587   6.138 -0.8275 -0.1445  1.6534
 6875SOL    HW232262   2.661   0.694   6.218  0.0210 -3.8650  0.3428
 6876SOL     OW32263   2.710   2.650  15.035  0.2439  0.0191  0.1712
 6876SOL    HW132264   2.748   2.572  14.995 -1.4342 -0.4118 -0.5928
 6876SOL    HW232265   2.772   2.713  14.999  1.9160 -2.1182 -0.7004
 6877SOL     OW32266   1.578   0.789   0.323 -0.8526  0.0173  0.4232
 6877SOL    HW132267   1.536   0.815   0.241  0.4708  0.3260 -0.1580
 6877SOL    HW232268   1.537   0.850   0.384 -0.7761 -1.0334  1.5230
 6878SOL     OW32269   1.441   3.779   7.073  0.0236  0.0827  0.1491
 6878SOL    HW132270   1.365   3.836   7.086 -0.4590 -0.3351 -0.8651
 6878SOL    HW232271   1.463   3.745   7.160  0.0213 -3.5251 -1.3010
 6879SOL     OW32272   4.727   2.670   2.654  0.7090  0.2396 -0.1582
 6879SOL    HW132273   4.721   2.587   2.701 -1.6908  1.8905  2.4664
 6879SOL    HW232274   4.701   2.640   2.567 -1.9313  0.6520  0.4872
 6880SOL     OW32275   1.485   2.084   3.002 -0.1130 -0.7225 -0.0647
 6880SOL    HW132276   1.418   2.093   3.070  1.1572 -0.7886  1.1990
 6880SOL    HW232277   1.566   2.118   3.040 -0.2203 -1.1263  0.5150
 6881SOL     OW32278   0.645   4.609   6.397  0.3904  0.2610 -0.2872
 6881SOL    HW132279   0.572   4.667   6.419 -0.5242 -1.7928  2.0628
 6881SOL    HW232280   0.653   4.620   6.302 -1.8633 -1.5537 -0.6773
 6882SOL     OW32281   0.375   4.240   6.079 -0.5934 -0.2936 -0.6227
 6882SOL    HW132282   0.283   4.241   6.106 -0.3240 -0.4652  0.3116
 6882SOL    HW232283   0.396   4.146   6.076 -1.7205 -0.6307  2.2812
 6883SOL     OW32284   4.549   2.126   0.731  0.3782  0.0697 -0.2084
 6883SOL    HW132285   4.589   2.211   0.715  1.9385 -0.6594 -0.2684
 6883SOL    HW232286   4.600   2.085   0.801  1.0776 -0.4612 -1.0251
 6884SOL     OW32287   4.490   2.259   5.930 -0.0577 -0.3434 -0.0190
 6884SOL    HW132288   4.498   2.214   6.014 -2.0406  0.4356  0.5787
 6884SOL    HW232289   4.533   2.197   5.871  0.7169  0.9903 -0.8630
 6885SOL     OW32290   4.372   2.598  13.712  0.0457 -0.2736 -0.3239
 6885SOL    HW132291   4.379   2.672  13.651  1.6106 -1.4919 -1.6629
 6885SOL    HW232292   4.317   2.616  13.788  0.0191  2.1046 -0.9241
 6886SOL     OW32293   1.343   3.534   3.207 -0.1836  0.1555  0.3541
 6886SOL    HW132294   1.385   3.602   3.260 -2.7848  1.0949  1.2211
 6886SOL    HW232295   1.420   3.494   3.167  0.1224  1.7524 -0.6725
 6887SOL     OW32296   3.471   4.596   0.224  0.0449 -0.0310  0.0574
 6887SOL    HW132297   3.441   4.681   0.256 -1.1632 -0.8053  0.9394
 6887SOL    HW232298   3.545   4.583   0.284 -0.3923 -2.7708  0.0108
 6888SOL     OW32299   1.729   3.219   8.823 -0.1133  0.1008 -0.0920
 6888SOL    HW132300   1.730   3.144   8.883 -1.5106  0.4916  0.4166
 6888SOL    HW232301   1.820   3.214   8.793  1.1425 -2.6349  4.1706
 6889SOL     OW32302   0.602   0.544   4.521 -0.2375  0.0802 -0.0686
 6889SOL    HW132303   0.536   0.607   4.550 -1.0356  0.3691 -2.5323
 6889SOL    HW232304   0.675   0.606   4.526 -0.0922 -0.0583 -0.4754
 6890SOL     OW32305   2.068   1.179   7.338  0.1930  0.5151 -0.1022
 6890SOL    HW132306   2.157   1.158   7.310  0.4640 -1.4571  2.3166
 6890SOL    HW232307   2.069   1.268   7.375 -0.8219  0.2091  0.6582
 6891SOL     OW32308   3.972   0.383  14.204 -0.4095 -0.1308  0.2202
 6891SOL    HW132309   3.983   0.321  14.132  0.3214 -0.3899  0.5556
 6891SOL    HW232310   3.886   0.410  14.172 -0.4529 -0.9191 -0.3254
 6892SOL     OW32311   4.709   4.140   7.014  0.5071 -0.3102  0.0690
 6892SOL    HW132312   4.656   4.071   7.053  0.3018 -0.1212  0.1277
 6892SOL    HW232313   0.048   4.080   6.998  0.9008 -0.0823  1.0526
 6893SOL     OW32314   3.410   0.438   6.349  0.3573  0.3415 -0.2026
 6893SOL    HW132315   3.441   0.520   6.310 -1.4342  0.6120 -1.0340
 6893SOL    HW232316   3.478   0.411   6.412 -0.7187 -0.3253  0.6831
 6894SOL     OW32317   3.745   1.468  12.931  0.8872 -0.4266 -0.8213
 6894SOL    HW132318   3.688   1.430  12.864 -0.8699 -0.4600  0.6950
 6894SOL    HW232319   3.756   1.394  12.990 -0.5283 -0.2916 -0.3762
 6895SOL     OW32320   0.061   0.739   1.767  0.4784  0.2166  0.2957
 6895SOL    HW132321   0.055   0.726   1.861  0.1296 -0.1477  0.2230
 6895SOL    HW232322   0.154   0.720   1.757  0.3248  0.8441 -2.5830
 6896SOL     OW32323   3.486   2.020   9.716  0.0358 -0.3679 -0.3937
 6896SOL    HW132324   3.565   1.972   9.738 -0.1232 -0.0897  0.8018
 6896SOL    HW232325   3.447   1.964   9.649 -1.5834  1.9881 -1.4507
 6897SOL     OW32326   0.466   2.251   5.748 -0.4698  0.0828 -0.1892
 6897SOL    HW132327   0.421   2.316   5.694 -1.5391 -0.1011  0.4703
 6897SOL    HW232328   0.411   2.267   5.825  0.2455  1.6204 -0.0014
 6898SOL     OW32329   1.804   0.181   8.078 -0.6533  0.8233  0.3283
 6898SOL    HW132330   1.712   0.183   8.105 -0.9169  1.7644 -0.6497
 6898SOL    HW232331   1.844   0.118   8.137  1.6991  1.8796 -0.1380
 6899SOL     OW32332   3.720   3.103   5.980  0.0913 -0.0688  0.0569
 6899SOL    HW132333   3.791   3.086   5.918  1.0845  1.5115  0.7461
 6899SOL    HW232334   3.654   3.049   5.937 -2.6184  3.1266  0.1831
 6900SOL     OW32335   2.051   2.142   6.241  0.1535 -0.5959  0.0513
 6900SOL    HW132336   1.971   2.123   6.291 -1.4580 -2.3364 -3.1814
 6900SOL    HW232337   2.115   2.083   6.282 -0.8450 -2.0688 -0.5078
 6901SOL     OW32338   0.980   1.618   2.548 -0.4148 -0.1791 -0.0083
 6901SOL    HW132339   0.970   1.607   2.642 -1.4751  2.5942  0.2078
 6901SOL    HW232340   0.893   1.634   2.510 -0.9084 -0.9158  0.8240
 6902SOL     OW32341   2.165   0.286   2.166 -0.2697  0.5740  0.8284
 6902SOL    HW132342   2.183   0.330   2.249  0.6538 -2.7061  2.3563
 6902SOL    HW232343   2.121   0.356   2.117 -0.9766 -0.9578 -0.7423
 6903SOL     OW32344   2.460   1.129   6.724 -0.4555  0.5584 -0.3023
 6903SOL    HW132345   2.427   1.127   6.814  1.9702 -2.1620  0.5643
 6903SOL    HW232346   2.474   1.035   6.714 -1.5083  0.1599  1.8987
 6904SOL     OW32347   4.298   2.214   2.141  0.3858  0.1221 -0.3884
 6904SOL    HW132348   4.334   2.161   2.070 -0.2166  4.0085 -3.6523
 6904SOL    HW232349   4.368   2.213   2.206  0.2065 -3.3773 -0.2627
 6905SOL     OW32350   1.177   0.326   0.505  0.4431  0.1144  0.0311
 6905SOL    HW132351   1.137   0.341   0.591  2.5200  2.3274  0.6087
 6905SOL    HW232352   1.125   0.376   0.442 -2.8007  1.1023  3.4562
 6906SOL     OW32353   3.768   0.072   8.749  0.3757 -0.2273  0.5290
 6906SOL    HW132354   3.816   0.065   8.832 -2.0953  0.5309  2.0396
 6906SOL    HW232355   3.766   4.711   8.733 -0.0916 -0.4598  1.9593
 6907SOL     OW32356   3.962   0.828   1.515 -0.8351  0.2999  0.2463
 6907SOL    HW132357   3.883   0.830   1.570 -0.1604  1.2478  1.1724
 6907SOL    HW232358   3.965   0.905   1.459  2.4072  0.8150  1.1706
 6908SOL     OW32359   4.424   2.851  15.918  0.2646 -0.6963  0.1319
 6908SOL    HW132360   4.471   2.796  15.856 -3.2557 -1.5473 -1.8156
 6908SOL    HW232361   4.370   2.776  15.945 -0.5458 -0.0497  0.3025
 6909SOL     OW32362   2.986   3.941   0.198  0.1128  0.1201 -0.3156
 6909SOL    HW132363   3.081   3.940   0.182  0.1130  1.3007 -0.3855
 6909SOL    HW232364   2.986   3.957   0.293 -3.1252 -1.1485 -0.1044
 6910SOL     OW32365   0.729   3.377   1.779 -0.1720  0.0231 -0.7100
 6910SOL    HW132366   0.637   3.357   1.763 -0.0577 -0.7294 -0.4321
 6910SOL    HW232367   0.756   3.325   1.855  1.6340  1.9846  0.0162
 6911SOL     OW32368   4.699   2.093   4.224  0.0501 -1.0192 -0.4902
 6911SOL    HW132369   4.695   2.007   4.266 -0.6655  0.7913  3.2233
 6911SOL    HW232370   4.696   2.061   4.134 -1.1932  0.5765 -1.0096
 6912SOL     OW32371   0.533   1.623   9.278  0.4208 -0.7123 -0.4139
 6912SOL    HW132372   0.586   1.592   9.205  0.7492 -3.6593  1.0750
 6912SOL    HW232373   0.508   1.705   9.236  2.7075  1.1675  1.8104
 6913SOL     OW32374   3.741   2.995   9.047  0.3867  0.9134 -0.4634
 6913SOL    HW132375   3.696   2.953   9.121  1.1360  0.1567 -0.4423
 6913SOL    HW232376   3.815   2.941   9.020 -0.9230 -0.8858 -0.4644
 6914SOL     OW32377   2.408   1.406   6.081  0.3745  0.4912 -0.0101
 6914SOL    HW132378   2.500   1.428   6.099  0.6666 -1.5397  1.0018
 6914SOL    HW232379   2.398   1.450   5.997 -0.5077  0.2745 -0.0130
 6915SOL     OW32380   1.876   0.689   4.149  0.2853  0.2250  0.2146
 6915SOL    HW132381   1.878   0.750   4.075 -1.7116  0.9582  0.7743
 6915SOL    HW232382   1.784   0.687   4.175  0.1298  0.9733 -0.2827
 6916SOL     OW32383   4.675   4.297  15.702  0.3645  0.2395 -0.1828
 6916SOL    HW132384   4.665   4.315  15.796 -1.4295 -2.4706  0.1710
 6916SOL    HW232385   0.000   4.222  15.705 -0.2782 -0.2704 -0.1150
 6917SOL     OW32386   4.605   0.198  14.932  0.5599  0.0381 -0.4502
 6917SOL    HW132387   4.629   0.235  15.017  0.5043 -0.2466 -0.3130
 6917SOL    HW232388   4.593   0.275  14.877 -4.2307 -1.3951 -1.4415
 6918SOL     OW32389   0.613   3.630   5.346 -0.0042  0.0671  0.4858
 6918SOL    HW132390   0.625   3.725   5.345  2.8291 -0.3282 -1.6382
 6918SOL    HW232391   0.534   3.609   5.297 -0.5957 -0.9633  1.8553
 6919SOL     OW32392   3.718   1.333  10.535  0.4400  0.2010  0.3211
 6919SOL    HW132393   3.679   1.258  10.580 -1.2652  1.6979  1.3338
 6919SOL    HW232394   3.661   1.402  10.569  0.4756 -0.0615  0.9131
 6920SOL     OW32395   2.908   2.707   6.066 -0.2661 -0.4624  0.5542
 6920SOL    HW132396   2.980   2.724   6.126  1.5280 -1.3369 -1.3740
 6920SOL    HW232397   2.864   2.791   6.082  1.8150  0.1962  2.7089
 6921SOL     OW32398   2.865   1.550   3.324 -1.0964  0.0515  0.1444
 6921SOL    HW132399   2.802   1.512   3.262 -2.1637  3.6287 -0.9620
 6921SOL    HW232400   2.870   1.638   3.287 -0.4906  0.4335  1.1606
 6922SOL     OW32401   2.047   2.857  15.041 -0.1489 -0.1028 -0.4816
 6922SOL    HW132402   2.087   2.769  15.040 -1.1040 -0.5428 -0.2105
 6922SOL    HW232403   1.961   2.841  15.002  0.1462 -0.2425 -1.0934
 6923SOL     OW32404   3.197   0.783   6.282  0.1513  0.1598 -0.3696
 6923SOL    HW132405   3.176   0.729   6.206 -0.1700  1.3705 -1.1473
 6923SOL    HW232406   3.144   0.860   6.260  1.3851  0.6488 -1.6069
 6924SOL     OW32407   2.575   0.075   4.457  0.3031 -0.5590 -0.4356
 6924SOL    HW132408   2.502   0.030   4.413  1.2925  0.7048 -3.3919
 6924SOL    HW232409   2.549   0.066   4.548 -0.6294 -2.7660 -0.9127
 6925SOL     OW32410   1.683   4.199   8.949  0.1358 -0.4026 -0.6411
 6925SOL    HW132411   1.687   4.267   9.015  1.6602 -0.4113 -0.7260
 6925SOL    HW232412   1.741   4.238   8.884 -1.6013  2.1915 -0.6410
 6926SOL     OW32413   0.519   3.634  13.102 -0.2950 -0.0575  0.1405
 6926SOL    HW132414   0.426   3.655  13.108 -0.1611  0.0729  1.6529
 6926SOL    HW232415   0.539   3.696  13.032  0.2375  0.2923  0.6048
 6927SOL     OW32416   2.854   2.333   6.957  0.0685  0.1545  0.1009
 6927SOL    HW132417   2.866   2.405   6.895  2.4371  0.0230  0.3930
 6927SOL    HW232418   2.760   2.327   6.971 -0.0392  1.7420  0.0663
 6928SOL     OW32419   2.265   3.465   6.083 -0.2365 -0.7415  0.1485
 6928SOL    HW132420   2.327   3.419   6.025  0.4481 -0.2281  0.4789
 6928SOL    HW232421   2.251   3.400   6.152 -0.7183 -0.1912  0.5613
 6929SOL     OW32422   1.274   0.821   0.301 -1.0268  0.3017 -0.5805
 6929SOL    HW132423   1.278   0.773   0.383  0.3905 -0.1639 -0.9346
 6929SOL    HW232424   1.255   0.750   0.240  0.6696 -0.8697  0.2768
 6930SOL     OW32425   3.401   0.326  14.324  0.2535 -0.4063  0.5654
 6930SOL    HW132426   3.438   0.246  14.286 -0.7983  0.2333 -1.8137
 6930SOL    HW232427   3.429   0.396  14.265  0.1174 -0.0326  0.9469
 6931SOL     OW32428   4.172   2.378  11.054  0.2977 -0.6207  0.4725
 6931SOL    HW132429   4.174   2.462  11.009  0.2153  0.0619  1.7281
 6931SOL    HW232430   4.077   2.364  11.047  0.2523 -0.0878  0.0903
 6932SOL     OW32431   3.503   1.974   3.130  0.0311  0.0244 -0.2772
 6932SOL    HW132432   3.419   1.948   3.169  1.3885 -3.2328  0.4660
 6932SOL    HW232433   3.529   2.035   3.200 -0.6210 -0.7911  0.6832
 6933SOL     OW32434   4.684   4.413  10.917  0.3990  0.2874  0.0070
 6933SOL    HW132435   4.729   4.382  10.996 -1.6033 -1.8263  0.3326
 6933SOL    HW232436   4.592   4.406  10.944 -0.1990  2.3882 -1.5237
 6934SOL     OW32437   2.462   0.630   4.532  0.4017  0.5476 -0.2870
 6934SOL    HW132438   2.395   0.684   4.574  0.9150  2.1944 -1.5815
 6934SOL    HW232439   2.497   0.580   4.606  0.4770  0.5826 -0.2979
 6935SOL     OW32440   2.480   2.998   3.851  0.4010 -0.1217  0.4172
 6935SOL    HW132441   2.417   2.984   3.781  0.5471  0.8483  0.0942
 6935SOL    HW232442   2.426   2.973   3.926  1.1341  0.5161  1.1670
 6936SOL     OW32443   0.300   3.263   0.172 -0.3127 -0.5759  0.1717
 6936SOL    HW132444   0.285   3.200   0.242  2.1191  0.5427  1.7090
 6936SOL    HW232445   0.361   3.217   0.114  0.7066  1.9102 -0.7389
 6937SOL     OW32446   0.848   2.609   9.144 -0.7214  0.0439  0.2607
 6937SOL    HW132447   0.927   2.652   9.113 -1.6361  3.2735  2.4616
 6937SOL    HW232448   0.892   2.533   9.182  0.3069  0.4041 -0.2137
 6938SOL     OW32449   0.157   4.559   3.152 -0.1387  0.0405  0.0892
 6938SOL    HW132450   0.138   4.524   3.239  4.8407  0.1549  1.2204
 6938SOL    HW232451   0.138   4.479   3.104 -0.6212  0.9645 -1.2537
 6939SOL     OW32452   0.782   1.710   9.488  0.3655 -0.1359 -0.5452
 6939SOL    HW132453   0.731   1.629   9.487  0.6212 -0.2989 -0.2197
 6939SOL    HW232454   0.733   1.759   9.422 -0.1460 -0.1449 -0.1680
 6940SOL     OW32455   2.740   3.381   4.108 -0.2335  0.0130  0.4568
 6940SOL    HW132456   2.749   3.412   4.198  0.4938  0.1864  0.3228
 6940SOL    HW232457   2.702   3.458   4.066  0.2793  0.1691  0.2770
 6941SOL     OW32458   2.802   2.414  12.811 -0.0244 -0.4303 -0.2223
 6941SOL    HW132459   2.751   2.335  12.791 -1.4582  0.6466 -0.7726
 6941SOL    HW232460   2.873   2.393  12.751  0.5740  1.7261 -0.2449
 6942SOL     OW32461   0.339   2.815  15.461  0.3316 -0.1317  0.9193
 6942SOL    HW132462   0.320   2.750  15.393  2.9885 -0.4647  0.4937
 6942SOL    HW232463   0.252   2.846  15.486 -0.0589 -1.4000  1.1371
 6943SOL     OW32464   3.020   2.756  12.987 -0.5411  0.7255  0.4289
 6943SOL    HW132465   3.005   2.829  13.047  0.6740  1.9988 -0.7795
 6943SOL    HW232466   3.066   2.804  12.917  0.8451 -0.3603  0.6120
 6944SOL     OW32467   3.177   1.404   6.729 -0.1510 -0.3519 -0.9038
 6944SOL    HW132468   3.201   1.491   6.762 -0.7398 -0.3614 -0.4521
 6944SOL    HW232469   3.087   1.411   6.697 -1.2108 -0.2891  2.0411
 6945SOL     OW32470   1.088   1.499   4.831  0.3915 -0.0430 -0.3535
 6945SOL    HW132471   1.128   1.565   4.774 -1.0112  0.6400 -0.5554
 6945SOL    HW232472   1.000   1.492   4.793  0.3577  0.0196 -0.2880
 6946SOL     OW32473   3.928   0.525   7.143  0.2150  0.0989  0.1622
 6946SOL    HW132474   3.955   0.537   7.234 -2.1504 -3.1171  1.2715
 6946SOL    HW232475   3.873   0.603   7.138 -0.3951 -0.3983 -0.9471
 6947SOL     OW32476   1.434   1.632   1.245 -0.3037 -0.0658  0.6597
 6947SOL    HW132477   1.469   1.550   1.213  0.1481 -0.0962  1.2289
 6947SOL    HW232478   1.512   1.686   1.242  1.1992 -2.2014  1.4779
 6948SOL     OW32479   1.069   3.260   2.827  0.6173  0.2191  0.0990
 6948SOL    HW132480   1.129   3.326   2.862 -0.4500  1.5443 -0.5805
 6948SOL    HW232481   1.120   3.221   2.755 -1.9883 -0.8870 -1.1386
 6949SOL     OW32482   3.101   3.498   5.504  0.9624 -0.4485 -0.1943
 6949SOL    HW132483   3.100   3.515   5.598  1.2362 -1.5888  0.0166
 6949SOL    HW232484   3.185   3.528   5.470  0.6567  0.4043 -0.1847
 6950SOL     OW32485   0.593   3.163  11.100  0.1560  0.2810 -0.1672
 6950SOL    HW132486   0.553   3.249  11.113  1.4782  0.6873  1.3047
 6950SOL    HW232487   0.679   3.184  11.062  0.0319  1.1499  0.0330
 6951SOL     OW32488   0.267   0.951   2.941  0.4285 -0.6223  0.2414
 6951SOL    HW132489   0.186   0.900   2.948  0.1869 -0.5347 -1.8737
 6951SOL    HW232490   0.332   0.898   2.986  0.9462 -1.9239 -2.0674
 6952SOL     OW32491   0.917   0.138   5.869 -0.5582 -0.4583  0.7293
 6952SOL    HW132492   0.875   0.129   5.783  1.0136 -2.2301  0.1469
 6952SOL    HW232493   0.844   0.113   5.926  0.2101 -3.7909  0.2473
 6953SOL     OW32494   2.991   2.566  11.534  0.1767  0.2069 -0.0106
 6953SOL    HW132495   2.896   2.563  11.540  0.1279 -0.0891 -0.9516
 6953SOL    HW232496   3.010   2.571  11.441 -1.2379 -2.6577 -0.4261
 6954SOL     OW32497   3.856   4.069   6.640  0.2120 -1.3308 -0.2772
 6954SOL    HW132498   3.904   4.008   6.584 -0.6627 -2.0046 -0.3025
 6954SOL    HW232499   3.821   4.008   6.704 -0.2381 -0.9819 -0.1885
 6955SOL     OW32500   1.880   4.154   5.952  0.4667  0.7686 -0.2559
 6955SOL    HW132501   1.882   4.120   5.862 -0.7022  0.8144 -0.2910
 6955SOL    HW232502   1.792   4.190   5.951 -0.1110 -0.6248  0.3481
 6956SOL     OW32503   0.554   3.463  12.655 -0.6071  0.2035 -0.1066
 6956SOL    HW132504   0.494   3.444  12.728 -0.1043  2.4267  0.9043
 6956SOL    HW232505   0.633   3.489  12.701 -0.4188  0.1270 -0.3909
 6957SOL     OW32506   3.128   2.257   8.791  0.1931 -0.0157 -0.4879
 6957SOL    HW132507   3.220   2.254   8.817  0.2518  1.9147 -0.4367
 6957SOL    HW232508   3.100   2.184   8.846 -1.1672  2.2730  1.8853
 6958SOL     OW32509   1.691   0.437   5.056 -0.7158  0.4279 -0.3594
 6958SOL    HW132510   1.608   0.483   5.053  0.1145  2.1121  2.4644
 6958SOL    HW232511   1.698   0.397   4.969 -1.9661  1.0985 -0.7591
 6959SOL     OW32512   1.416   1.146   7.167 -0.0366 -0.5500  0.3835
 6959SOL    HW132513   1.490   1.104   7.122  2.1566  0.6379  2.8653
 6959SOL    HW232514   1.366   1.179   7.093  1.9256 -1.0327 -1.1734
 6960SOL     OW32515   0.255   3.631   7.203  0.3695  0.6272  0.5070
 6960SOL    HW132516   0.256   3.632   7.299 -2.6643  2.5099  0.4992
 6960SOL    HW232517   0.253   3.536   7.190 -1.5922  0.3781  2.4405
 6961SOL     OW32518   4.129   2.513  10.769 -0.0346  0.0514 -0.3001
 6961SOL    HW132519   4.068   2.441  10.778  0.7832 -0.3394  1.9467
 6961SOL    HW232520   4.077   2.593  10.755 -0.0739  0.3659  1.6850
 6962SOL     OW32521   3.514   4.414   4.967  0.6709 -0.2858  0.5828
 6962SOL    HW132522   3.462   4.491   4.992 -1.2785 -1.3175 -0.2939
 6962SOL    HW232523   3.441   4.371   4.922 -0.4736  1.0707  1.1284
 6963SOL     OW32524   2.702   0.556   8.430 -0.2208 -0.3371  0.4395
 6963SOL    HW132525   2.607   0.565   8.436 -0.3613 -0.6310 -1.3448
 6963SOL    HW232526   2.730   0.537   8.520  1.3544  2.1293  0.4573
 6964SOL     OW32527   3.798   1.606   5.509  0.2231 -0.2096  0.1549
 6964SOL    HW132528   3.743   1.684   5.519  0.6986  0.0670  0.5792
 6964SOL    HW232529   3.875   1.652   5.476  0.2411 -0.3472  0.0045
 6965SOL     OW32530   1.848   0.829  12.983  0.6307 -0.1106  0.5675
 6965SOL    HW132531   1.925   0.877  13.013 -0.3301  0.4328  2.1582
 6965SOL    HW232532   1.836   0.867  12.896  0.1008  1.4614  1.3324
 6966SOL     OW32533   1.343   1.474   0.968 -0.3015 -0.0750  0.0261
 6966SOL    HW132534   1.395   1.554   0.953 -0.4107 -0.2338 -1.2191
 6966SOL    HW232535   1.402   1.404   0.940  0.9182  0.8703  0.2211
 6967SOL     OW32536   4.604   1.949  11.734  0.0357  0.0813  0.0949
 6967SOL    HW132537   4.558   2.032  11.742  0.4020  0.4069 -1.2127
 6967SOL    HW232538   4.688   1.982  11.702  1.1216 -2.4389  0.2778
 6968SOL     OW32539   3.895   2.888   9.480 -0.7920  0.1343 -0.6695
 6968SOL    HW132540   3.833   2.860   9.547  1.6992 -0.8977  1.1955
 6968SOL    HW232541   3.948   2.809   9.472 -2.0847 -0.6087 -2.0188
 6969SOL     OW32542   0.831   2.605   5.311  0.5060  0.1741  0.5475
 6969SOL    HW132543   0.796   2.662   5.379 -1.6292 -2.9045  2.0304
 6969SOL    HW232544   0.924   2.619   5.330  0.2453  0.3890  1.6433
 6970SOL     OW32545   2.670   3.402   7.179 -0.0192  0.8720  0.0250
 6970SOL    HW132546   2.628   3.411   7.094 -1.0981  2.4572  0.7190
 6970SOL    HW232547   2.756   3.361   7.173  0.4112  1.9924 -1.4137
 6971SOL     OW32548   2.818   0.179   8.564 -0.3635  0.0879 -0.0955
 6971SOL    HW132549   2.886   0.138   8.617 -0.9817 -0.2928  0.3932
 6971SOL    HW232550   2.820   0.270   8.595  0.8035 -0.6420  1.9278
 6972SOL     OW32551   1.962   4.150   0.762 -0.5516 -0.5030 -0.0400
 6972SOL    HW132552   2.041   4.108   0.726 -1.0173 -0.5110 -1.0613
 6972SOL    HW232553   1.948   4.208   0.687 -0.4865 -0.0786  0.2825
 6973SOL     OW32554   4.352   3.906   9.675 -0.2851 -0.0181  0.0141
 6973SOL    HW132555   4.439   3.884   9.707 -1.4849 -2.2160  1.8476
 6973SOL    HW232556   4.316   3.819   9.656  0.6795 -0.6576  1.0800
 6974SOL     OW32557   1.131   1.540   9.322 -0.3846 -0.3712 -0.0359
 6974SOL    HW132558   1.115   1.450   9.352 -0.9203  0.0332  0.9019
 6974SOL    HW232559   1.089   1.534   9.236 -1.1763 -1.3547  0.4117
 6975SOL     OW32560   2.115   2.584  15.051  0.2386  0.0218 -0.6125
 6975SOL    HW132561   2.042   2.525  15.031 -0.0729 -0.2413  1.3524
 6975SOL    HW232562   2.196   2.543  15.022  0.2682 -0.6017  0.3449
 6976SOL     OW32563   1.157   2.862  14.747  0.3892  0.1074 -0.1349
 6976SOL    HW132564   1.122   2.951  14.750  3.6766  1.3885  0.3918
 6976SOL    HW232565   1.091   2.829  14.808 -1.1155  1.0119 -1.2758
 6977SOL     OW32566   4.164   4.196  12.600  0.0160  0.3633  0.3649
 6977SOL    HW132567   4.080   4.155  12.622 -0.3966  0.6548 -0.6534
 6977SOL    HW232568   4.136   4.279  12.562  0.4154  0.7066  0.8282
 6978SOL     OW32569   1.414   2.793  15.049  0.1513  0.3251 -0.1512
 6978SOL    HW132570   1.352   2.734  15.007 -0.6897  0.0576  1.4511
 6978SOL    HW232571   1.401   2.761  15.139  0.0579  1.9503  0.4059
 6979SOL     OW32572   4.446   1.430   2.371 -0.1501  0.0764  0.0674
 6979SOL    HW132573   4.381   1.387   2.315 -0.8703  0.0230  0.9351
 6979SOL    HW232574   4.402   1.430   2.456 -0.6954 -1.3261 -0.2100
 6980SOL     OW32575   3.453   2.798   2.397 -0.6327 -0.3966 -0.4063
 6980SOL    HW132576   3.452   2.712   2.355 -0.3644 -0.8961  0.6281
 6980SOL    HW232577   3.548   2.806   2.389 -0.8359  0.4083 -2.0278
 6981SOL     OW32578   3.676   2.630  13.944 -0.1924  0.2014  0.3388
 6981SOL    HW132579   3.589   2.669  13.942 -1.0731 -1.8093 -0.4463
 6981SOL    HW232580   3.729   2.709  13.958 -0.6216  0.7176 -0.9849
 6982SOL     OW32581   1.029   1.130   1.671 -0.2365  0.1883 -0.6970
 6982SOL    HW132582   1.053   1.187   1.598  1.7292  0.2086 -0.0438
 6982SOL    HW232583   1.057   1.189   1.741 -1.3095  2.0415 -1.8211
 6983SOL     OW32584   0.995   2.219   8.242  0.0817 -0.3334  0.2508
 6983SOL    HW132585   0.921   2.275   8.267 -0.0045 -1.4233  2.4421
 6983SOL    HW232586   0.957   2.159   8.177 -0.2347 -0.7313  0.8094
 6984SOL     OW32587   2.842   2.643  14.781 -0.0178  0.4928 -0.3560
 6984SOL    HW132588   2.875   2.704  14.714  4.5823 -0.1744  1.3051
 6984SOL    HW232589   2.922   2.590  14.787 -0.5292  0.0226  2.1551
 6985SOL     OW32590   3.616   1.960  14.470  0.6150  0.4688  0.4283
 6985SOL    HW132591   3.661   1.999  14.395  2.6581 -1.6261  0.5618
 6985SOL    HW232592   3.641   1.868  14.457  2.0111  1.2779 -2.6924
 6986SOL     OW32593   4.594   1.499   4.088  0.2531  0.0025 -0.8790
 6986SOL    HW132594   4.647   1.427   4.122 -0.6582  0.3463  1.2703
 6986SOL    HW232595   4.507   1.465   4.108  0.1894  1.0610  0.6489
 6987SOL     OW32596   3.467   0.619  12.514  0.5327  0.2996  0.0846
 6987SOL    HW132597   3.427   0.631  12.601  0.4550 -0.5051  0.1615
 6987SOL    HW232598   3.554   0.593  12.542  0.6867  1.6604  0.8661
 6988SOL     OW32599   2.432   0.153   7.309  0.5453  0.3505 -0.2917
 6988SOL    HW132600   2.463   0.177   7.221  1.3006 -0.9268 -0.3766
 6988SOL    HW232601   2.412   0.060   7.299 -0.5412  0.4244  1.1527
 6989SOL     OW32602   0.980   2.583   6.285  0.0476  0.6057  0.2872
 6989SOL    HW132603   1.048   2.571   6.218 -0.2855 -1.5319  0.3188
 6989SOL    HW232604   1.039   2.609   6.356  1.1377 -1.3380  0.1017
 6990SOL     OW32605   3.331   1.843  16.412  0.0515 -0.2004 -0.2968
 6990SOL    HW132606   3.368   1.928  16.387  1.0956 -0.6847 -0.4228
 6990SOL    HW232607   3.407   1.790  16.438  2.4479  2.4407 -1.8592
 6991SOL     OW32608   0.838   2.622  11.493 -0.2787  0.1654  0.1330
 6991SOL    HW132609   0.851   2.528  11.483  0.3302  0.5308 -2.4545
 6991SOL    HW232610   0.767   2.640  11.431 -1.1098  0.3633  1.1386
 6992SOL     OW32611   3.911   1.016  15.301 -0.0203  0.0524 -0.3612
 6992SOL    HW132612   3.967   0.951  15.342  0.4301  1.0251  0.5844
 6992SOL    HW232613   3.970   1.056  15.237  0.9980 -1.9710 -0.6707
 6993SOL     OW32614   0.847   1.378   9.624  0.0112 -0.4931  0.4010
 6993SOL    HW132615   0.855   1.284   9.636 -0.3429 -0.8667 -2.4075
 6993SOL    HW232616   0.760   1.381   9.584  0.0016 -1.3070  0.3692
 6994SOL     OW32617   0.963   3.320  13.208  0.4607 -0.3180  0.2367
 6994SOL    HW132618   0.937   3.267  13.133  0.7329 -1.6973  1.1211
 6994SOL    HW232619   0.907   3.279  13.274  0.3216 -0.3039  0.1282
 6995SOL     OW32620   0.406   0.099   4.508 -0.8416  1.0768  0.0829
 6995SOL    HW132621   0.377   0.093   4.599 -1.5236 -0.1028 -0.2171
 6995SOL    HW232622   0.497   0.075   4.523 -0.7776  1.3633  0.1672
 6996SOL     OW32623   3.761   1.531   2.299  0.7027 -0.1239  0.2720
 6996SOL    HW132624   3.850   1.567   2.302  0.2032  1.1431  0.1903
 6996SOL    HW232625   3.727   1.569   2.219  0.6690  0.5538  0.6050
 6997SOL     OW32626   4.276   1.440   4.564  1.0165  0.0202  0.0314
 6997SOL    HW132627   4.220   1.369   4.596 -1.0593  1.2842 -0.7768
 6997SOL    HW232628   4.202   1.486   4.525 -0.1077  1.3619  3.7459
 6998SOL     OW32629   0.839   2.913  11.268  0.2525 -0.0227 -0.3215
 6998SOL    HW132630   0.850   2.877  11.355 -0.8291 -1.4371 -0.7713
 6998SOL    HW232631   0.901   2.857  11.222 -1.5752 -0.2849 -2.5239
 6999SOL     OW32632   4.387   3.397  11.277  0.0155  0.0095 -0.4785
 6999SOL    HW132633   4.340   3.410  11.359  0.6979 -2.3054  0.2623
 6999SOL    HW232634   4.360   3.472  11.224 -0.0314  0.6516  0.4569
 7000SOL     OW32635   2.005   2.344   5.039  0.5227  0.1460  0.2911
 7000SOL    HW132636   2.031   2.425   4.995 -3.8408  0.5422 -1.5224
 7000SOL    HW232637   2.039   2.279   4.979  1.8232  1.2147 -0.1444
 7001SOL     OW32638   3.005   3.762   0.600  0.5146  0.5667 -0.1041
 7001SOL    HW132639   3.027   3.763   0.693  1.2305 -0.3756 -0.2742
 7001SOL    HW232640   2.913   3.789   0.606  0.4411  0.6670 -1.6679
 7002SOL     OW32641   1.195   2.640   2.637 -0.3716  0.4182  0.5910
 7002SOL    HW132642   1.176   2.617   2.546  0.2615  0.7536  0.3729
 7002SOL    HW232643   1.180   2.553   2.675 -0.7216  0.7872  1.3052
 7003SOL     OW32644   1.738   4.106  17.533 -0.1445  0.1260 -0.7248
 7003SOL    HW132645   1.644   4.105  17.549  0.2545 -2.5015  1.4100
 7003SOL    HW232646   1.768   4.106  17.624  0.5647  1.2290 -0.9533
 7004SOL     OW32647   4.150   2.275   4.069  0.1387  0.0651 -0.6984
 7004SOL    HW132648   4.240   2.253   4.047  0.8670  2.9458 -0.6280
 7004SOL    HW232649   4.120   2.291   3.980 -0.7201  2.9132  0.1135
 7005SOL     OW32650   3.909   1.207   8.137  0.4230 -0.6217  0.7366
 7005SOL    HW132651   3.816   1.222   8.153  0.1615 -2.6056  1.0362
 7005SOL    HW232652   3.948   1.286   8.174 -0.4402 -0.1623  0.6508
 7006SOL     OW32653   0.677   3.287   6.423 -0.0108  0.6115  0.1496
 7006SOL    HW132654   0.728   3.246   6.493  0.4026  0.6950 -0.1043
 7006SOL    HW232655   0.628   3.346   6.481 -1.7871  0.2618 -1.0013
 7007SOL     OW32656   0.817   2.609   5.799  0.0818  0.6876  0.5908
 7007SOL    HW132657   0.745   2.618   5.862 -1.1031  0.4033 -0.7340
 7007SOL    HW232658   0.771   2.577   5.722  0.6787  0.6957  0.2303
 7008SOL     OW32659   1.066   2.870   2.729 -0.1486  0.4036 -0.0787
 7008SOL    HW132660   1.083   2.784   2.692 -2.8634 -0.4703  0.7201
 7008SOL    HW232661   1.007   2.858   2.803  0.5632 -1.8426  0.1227
 7009SOL     OW32662   2.225   0.060   4.123 -0.0494 -0.4864 -0.3349
 7009SOL    HW132663   2.169   0.075   4.199 -1.2800 -1.5487 -1.0471
 7009SOL    HW232664   2.200   0.134   4.067  0.5052 -0.3181 -0.3712
 7010SOL     OW32665   1.623   2.589   6.017 -0.1386 -0.4215  0.1688
 7010SOL    HW132666   1.618   2.669   6.068 -2.1669 -0.7328  0.4668
 7010SOL    HW232667   1.709   2.560   6.046 -0.7172 -1.2623  1.0703
 7011SOL     OW32668   2.110   1.780   9.260 -0.4122  0.1865 -0.8272
 7011SOL    HW132669   2.194   1.802   9.219  0.2018 -0.5485  0.0580
 7011SOL    HW232670   2.099   1.853   9.322 -2.2844 -0.3231 -0.5865
 7012SOL     OW32671   4.361   4.271   3.972 -0.1294  0.0210  0.2403
 7012SOL    HW132672   4.297   4.343   3.973 -0.6097 -0.4448  2.3903
 7012SOL    HW232673   4.364   4.241   4.062  0.6881  0.2252  0.2850
 7013SOL     OW32674   1.867   0.840   2.822 -0.4477  0.1063  0.3870
 7013SOL    HW132675   1.937   0.869   2.881 -0.2305 -2.8791  1.5835
 7013SOL    HW232676   1.787   0.878   2.860 -1.2647  0.2021 -1.4194
 7014SOL     OW32677   2.274   2.687   1.935 -0.1933  0.8236  0.4043
 7014SOL    HW132678   2.291   2.748   2.007  1.0255  2.3743 -1.2014
 7014SOL    HW232679   2.257   2.608   1.986  1.6590  0.2607  0.1354
 7015SOL     OW32680   4.501   4.621   9.152  0.2659  0.3662 -0.2508
 7015SOL    HW132681   4.476   4.606   9.061  1.9073 -0.3254 -0.5835
 7015SOL    HW232682   4.518   4.715   9.152 -1.8178  0.7320  3.4247
 7016SOL     OW32683   3.152   2.074   7.445 -0.8086  0.0879 -0.3072
 7016SOL    HW132684   3.086   2.026   7.395 -2.4701  2.6779 -0.6281
 7016SOL    HW232685   3.104   2.079   7.528  0.0291 -1.9666  0.3018
 7017SOL     OW32686   3.305   2.731  10.271  0.4489 -0.1632  0.3843
 7017SOL    HW132687   3.270   2.818  10.288 -0.8394 -0.0096 -3.1042
 7017SOL    HW232688   3.231   2.670  10.264  1.2884 -1.3227  1.4243
 7018SOL     OW32689   2.160   3.989  11.875  0.4041  0.6085 -0.3901
 7018SOL    HW132690   2.175   3.898  11.851 -1.5859  0.6398 -1.7234
 7018SOL    HW232691   2.208   4.035  11.806  1.5528 -1.2689 -0.8241
 7019SOL     OW32692   0.141   3.321  10.572  0.3482  0.3358 -0.0820
 7019SOL    HW132693   0.046   3.306  10.569  0.4493 -0.5091  0.9657
 7019SOL    HW232694   0.142   3.369  10.489  0.2635  0.0458 -0.2507
 7020SOL     OW32695   4.649   2.020   6.966  0.1084 -0.4801  0.2494
 7020SOL    HW132696   4.603   2.058   6.891 -0.0849 -0.2169  0.5045
 7020SOL    HW232697   0.000   2.009   6.925  0.0317  0.5303 -0.1725
 7021SOL     OW32698   0.804   0.523   8.393  0.2139  0.3476  0.1715
 7021SOL    HW132699   0.787   0.441   8.347 -2.2988  0.8528  0.1731
 7021SOL    HW232700   0.752   0.581   8.336 -0.3747 -1.2993 -0.9699
 7022SOL     OW32701   0.555   1.852   8.800 -0.0421 -0.3346  0.1073
 7022SOL    HW132702   0.579   1.841   8.892  1.0179  1.3168  0.0394
 7022SOL    HW232703   0.482   1.792   8.787 -0.1881 -0.5812  2.0858
 7023SOL     OW32704   2.565   4.329   6.395 -0.2073 -0.1926 -0.2372
 7023SOL    HW132705   2.483   4.291   6.363 -0.3684  0.3739 -0.4942
 7023SOL    HW232706   2.567   4.290   6.482 -0.5583  0.4130  0.0413
 7024SOL     OW32707   3.617   2.386   4.290 -0.2172 -0.1223 -0.1462
 7024SOL    HW132708   3.661   2.378   4.375  1.4051 -0.2422 -0.9975
 7024SOL    HW232709   3.542   2.438   4.318  1.4592  1.9378  0.4506
 7025SOL     OW32710   3.678   4.458   5.765 -0.2897  0.1675  0.3606
 7025SOL    HW132711   3.761   4.448   5.720 -1.3147 -5.0317 -0.3629
 7025SOL    HW232712   3.657   4.371   5.798 -0.1348  0.2250  0.6095
 7026SOL     OW32713   2.831   1.492   6.617 -0.0061  0.3255 -0.0736
 7026SOL    HW132714   2.751   1.522   6.660  1.3199  1.3872  1.6390
 7026SOL    HW232715   2.832   1.406   6.657 -3.4770 -0.2256 -1.1725
 7027SOL     OW32716   1.310   0.478   2.622 -0.1680  0.2335 -0.6258
 7027SOL    HW132717   1.282   0.389   2.643  1.9043 -0.5745 -1.3183
 7027SOL    HW232718   1.233   0.530   2.642  0.2149  1.0540 -1.3169
 7028SOL     OW32719   2.476   2.657   2.741  0.7071  0.6043  0.0760
 7028SOL    HW132720   2.537   2.728   2.763 -0.3093  0.5059  3.3149
 7028SOL    HW232721   2.427   2.710   2.679  1.1356  0.2490 -0.5607
 7029SOL     OW32722   3.082   2.721  14.451 -0.1035 -0.1583  0.6630
 7029SOL    HW132723   3.043   2.789  14.505  3.6975  0.2644  2.8371
 7029SOL    HW232724   3.169   2.759  14.451 -1.2609  2.5189  2.8372
 7030SOL     OW32725   0.202   2.405   5.387  0.6588  0.0691 -0.2563
 7030SOL    HW132726   0.132   2.380   5.447  1.4297 -1.4893 -0.0140
 7030SOL    HW232727   0.224   2.491   5.423  2.1513 -0.9839  1.3628
 7031SOL     OW32728   4.506   0.714   1.991  0.4983  0.3013 -0.4971
 7031SOL    HW132729   4.601   0.719   2.001  0.4760  0.1057 -0.1767
 7031SOL    HW232730   4.484   0.711   2.084  0.7672 -2.6578 -0.5163
 7032SOL     OW32731   2.809   2.264  11.236  0.3232 -0.3706 -0.1466
 7032SOL    HW132732   2.796   2.272  11.141  0.3991  1.0292 -0.0390
 7032SOL    HW232733   2.855   2.348  11.241 -1.4107  0.6918 -2.2270
 7033SOL     OW32734   4.095   4.175   9.271 -0.6784  0.6559  0.2136
 7033SOL    HW132735   4.170   4.115   9.279 -1.1558 -0.1093 -1.0553
 7033SOL    HW232736   4.117   4.234   9.343  0.2317  1.2572 -0.5559
 7034SOL     OW32737   3.093   3.538   1.921  0.0435  0.0032 -0.2668
 7034SOL    HW132738   3.060   3.549   1.832  1.2676 -0.4833 -0.7718
 7034SOL    HW232739   3.049   3.456   1.942  0.4413 -0.1555 -0.0586
 7035SOL     OW32740   2.515   3.995   1.341  0.0166  0.6394  0.9006
 7035SOL    HW132741   2.576   3.960   1.277  1.7840  1.1592  2.2907
 7035SOL    HW232742   2.522   3.938   1.418 -0.3699 -0.1511  0.3409
 7036SOL     OW32743   4.578   4.093   2.327  0.1240 -0.2837 -0.7134
 7036SOL    HW132744   4.578   4.187   2.304  0.4995 -0.4959 -1.6052
 7036SOL    HW232745   4.625   4.057   2.252  1.6409 -0.9339  0.5681
 7037SOL     OW32746   0.260   0.574   5.148  0.3108  0.3050 -0.1601
 7037SOL    HW132747   0.237   0.573   5.055  1.5268 -0.5717 -0.4546
 7037SOL    HW232748   0.314   0.654   5.155 -1.8810  1.9629 -2.0576
 7038SOL     OW32749   0.267   1.231  17.062 -0.0818  0.2759  0.2674
 7038SOL    HW132750   0.247   1.178  16.984  2.7346  1.4194 -1.2297
 7038SOL    HW232751   0.330   1.176  17.108  1.6040  1.1969 -0.9595
 7039SOL     OW32752   4.608   0.087   5.707 -0.7966 -0.3143  0.1322
 7039SOL    HW132753   4.551   0.038   5.765  0.2078 -0.8133  0.6928
 7039SOL    HW232754   4.547   0.149   5.668 -0.5136 -1.1379 -1.6238
 7040SOL     OW32755   4.554   0.312   7.053  0.4559  0.2082 -0.0812
 7040SOL    HW132756   4.470   0.273   7.031  0.9166 -0.3291 -0.8852
 7040SOL    HW232757   4.525   0.401   7.076  1.9572  0.4862  0.7463
 7041SOL     OW32758   4.082   1.794  10.003  0.0236  0.2816 -0.1546
 7041SOL    HW132759   4.052   1.797  10.094  1.2118 -1.0178  0.2759
 7041SOL    HW232760   4.170   1.757  10.011  0.0569  0.3210 -0.3522
 7042SOL     OW32761   0.140   1.861   5.797 -0.3867 -0.2673  0.0421
 7042SOL    HW132762   0.131   1.936   5.855  0.3270  0.5723 -0.9397
 7042SOL    HW232763   0.057   1.853   5.749 -1.5888  1.1557  1.8705
 7043SOL     OW32764   0.327   3.695   0.190  0.5156  0.1818  0.0136
 7043SOL    HW132765   0.308   3.618   0.243  1.6552 -0.1411 -0.0563
 7043SOL    HW232766   0.239   3.726   0.169 -1.1991 -1.9719  3.8645
 7044SOL     OW32767   1.173   3.889  15.705 -0.2289 -0.1696  0.1394
 7044SOL    HW132768   1.121   3.964  15.733  1.9446  2.2455 -2.4114
 7044SOL    HW232769   1.215   3.869  15.789  0.9923  0.1678 -0.4002
 7045SOL     OW32770   3.140   4.537   6.440  0.4885 -0.1689  0.3792
 7045SOL    HW132771   3.214   4.586   6.405 -1.6604  1.4707 -1.8223
 7045SOL    HW232772   3.152   4.450   6.401  1.0174  0.8769 -1.7997
 7046SOL     OW32773   1.799   4.460   3.839  0.2789 -0.6821 -0.1207
 7046SOL    HW132774   1.837   4.530   3.892 -0.5303 -0.3280 -0.0143
 7046SOL    HW232775   1.733   4.512   3.792 -0.4343  0.9034  2.6623
 7047SOL     OW32776   3.934   3.978   8.213 -0.2641  0.0341  0.1656
 7047SOL    HW132777   3.932   3.950   8.305  0.6216  1.4293  0.6063
 7047SOL    HW232778   4.029   3.992   8.211  0.4872 -5.1254 -1.6773
 7048SOL     OW32779   3.083   0.776   8.304 -0.4339  0.2088 -0.1836
 7048SOL    HW132780   3.013   0.711   8.308  0.9855 -1.3219 -0.3345
 7048SOL    HW232781   3.142   0.729   8.245 -0.8698  0.0610 -0.5036
 7049SOL     OW32782   1.563   1.416   5.475  0.2705  0.5593 -0.1643
 7049SOL    HW132783   1.502   1.485   5.501  0.3279  0.5969 -0.1311
 7049SOL    HW232784   1.506   1.379   5.407 -1.3509  2.0281  0.3734
 7050SOL     OW32785   0.315   2.485  12.615 -0.6576 -0.0684 -0.1424
 7050SOL    HW132786   0.346   2.471  12.525 -0.9207 -2.4673  0.1397
 7050SOL    HW232787   0.365   2.566  12.627 -0.1668 -0.5812  1.2563
 7051SOL     OW32788   0.166   1.349   1.585  0.2110 -0.0349  0.6321
 7051SOL    HW132789   0.123   1.424   1.545  0.6637 -0.1488 -0.0779
 7051SOL    HW232790   0.255   1.382   1.602  0.5286 -0.5787  0.0401
 7052SOL     OW32791   1.031   1.303   6.709 -0.1923 -0.5929 -0.3267
 7052SOL    HW132792   0.961   1.287   6.647 -1.2000  1.9413  0.1714
 7052SOL    HW232793   1.043   1.398   6.705 -0.1609 -0.5622  0.4113
 7053SOL     OW32794   0.186   0.373   4.640  0.0756 -0.2288  0.5104
 7053SOL    HW132795   0.202   0.281   4.658  0.3253 -0.2926 -0.0497
 7053SOL    HW232796   0.235   0.392   4.561 -0.1799  0.5598  0.5422
 7054SOL     OW32797   1.011   1.252   6.343 -0.0475 -0.0095 -0.5305
 7054SOL    HW132798   1.081   1.314   6.325 -0.5491  0.2960 -1.4110
 7054SOL    HW232799   0.959   1.314   6.395  1.1165  1.1344 -0.7394
 7055SOL     OW32800   0.261   2.498   3.508 -0.4036  0.0006  0.6246
 7055SOL    HW132801   0.226   2.513   3.596 -1.4600  0.6125  0.1039
 7055SOL    HW232802   0.199   2.554   3.462 -2.4944 -1.9095  1.1081
 7056SOL     OW32803   2.105   2.637   0.440 -0.3366  0.0940  0.7727
 7056SOL    HW132804   2.182   2.689   0.465 -0.8624  0.8100  0.8791
 7056SOL    HW232805   2.092   2.684   0.358  0.7279  0.0245  0.5616
 7057SOL     OW32806   1.216   1.366  13.338 -0.0413  0.7099 -0.7615
 7057SOL    HW132807   1.290   1.309  13.315 -0.6862 -0.1824 -0.6042
 7057SOL    HW232808   1.256   1.450  13.314  0.4891  0.8701  0.6716
 7058SOL     OW32809   1.388   1.677   8.885 -0.0255 -0.0333  0.2997
 7058SOL    HW132810   1.397   1.613   8.956 -0.3110  0.8685  1.1593
 7058SOL    HW232811   1.319   1.739   8.909  1.2911  0.9774  1.4697
 7059SOL     OW32812   2.798   0.288   6.696  0.0300 -0.4453 -0.5500
 7059SOL    HW132813   2.864   0.230   6.734  0.4522  1.0700  1.0241
 7059SOL    HW232814   2.806   0.245   6.611  0.6582 -1.0835 -0.1709
 7060SOL     OW32815   3.474   1.271  10.890 -0.1650 -0.3019 -0.4249
 7060SOL    HW132816   3.483   1.230  10.976 -1.4567 -0.5082 -0.3906
 7060SOL    HW232817   3.553   1.324  10.879 -1.2191  1.2891 -0.3027
 7061SOL     OW32818   1.915   4.085   5.689  0.0744 -0.0359  0.2349
 7061SOL    HW132819   1.963   4.013   5.649  2.6508 -0.0529  3.3648
 7061SOL    HW232820   1.831   4.073   5.644 -0.1941  0.1656  0.6798
 7062SOL     OW32821   1.663   3.137   7.711 -0.5575  0.0760  0.1647
 7062SOL    HW132822   1.581   3.158   7.667 -1.7466 -0.4178  2.1605
 7062SOL    HW232823   1.718   3.209   7.682  0.9335 -0.7199  0.9765
 7063SOL     OW32824   4.680   3.901   8.423 -0.2124  0.0360 -0.0475
 7063SOL    HW132825   4.630   3.864   8.496  0.9257 -0.4939  0.4453
 7063SOL    HW232826   4.718   3.980   8.462  1.1545 -0.8259  0.3245
 7064SOL     OW32827   2.310   4.729  11.862  0.4366 -0.0234  0.6532
 7064SOL    HW132828   2.381   0.043  11.906  1.5346  0.1032 -1.2214
 7064SOL    HW232829   2.346   4.643  11.881  1.2850  0.6835  2.2179
 7065SOL     OW32830   4.167   3.954   7.111  0.3254 -0.0608 -0.5258
 7065SOL    HW132831   4.231   3.890   7.143  0.4091  0.5263  0.5080
 7065SOL    HW232832   4.093   3.943   7.171 -2.2741 -1.3732 -3.9995
 7066SOL     OW32833   3.486   2.314   6.185 -0.0365 -0.2800  0.3086
 7066SOL    HW132834   3.439   2.370   6.247 -1.6538  0.0999 -1.2737
 7066SOL    HW232835   3.565   2.366   6.168  1.4627 -2.1154  1.5780
 7067SOL     OW32836   0.677   3.075   7.868  0.3035 -0.1989 -0.1144
 7067SOL    HW132837   0.651   3.049   7.779  1.0840 -0.1804 -0.3522
 7067SOL    HW232838   0.619   3.022   7.922 -3.4502  1.2120 -2.7510
 7068SOL     OW32839   1.326   3.684  13.134  0.0762 -0.2416 -0.7027
 7068SOL    HW132840   1.246   3.647  13.098  0.1696 -3.1752  2.1160
 7068SOL    HW232841   1.304   3.777  13.124  1.7567  0.4386  1.8422
 7069SOL     OW32842   3.329   1.584   1.122  0.4037 -0.5686  0.4349
 7069SOL    HW132843   3.421   1.608   1.108  0.4947 -1.6305 -0.7784
 7069SOL    HW232844   3.332   1.502   1.171 -3.1651 -0.8442  0.1813
 7070SOL     OW32845   4.435   2.833   1.525  0.2688 -0.3947  0.0199
 7070SOL    HW132846   4.504   2.801   1.583  0.7514  0.6342  0.0011
 7070SOL    HW232847   4.437   2.766   1.456 -1.4201  0.3520 -0.7718
 7071SOL     OW32848   2.911   3.857   8.598 -0.2961  0.0628  0.0664
 7071SOL    HW132849   2.998   3.819   8.589 -0.8516 -0.9053 -1.1832
 7071SOL    HW232850   2.892   3.821   8.685  1.5344  0.1240  0.4888
 7072SOL     OW32851   4.209   2.192   2.713  0.2118  0.3993  0.6711
 7072SOL    HW132852   4.224   2.282   2.684  0.2837  0.3969  0.7008
 7072SOL    HW232853   4.116   2.174   2.700  0.7781 -1.2977 -0.9062
 7073SOL     OW32854   0.989   3.217   4.024 -0.0943 -0.6478 -0.0634
 7073SOL    HW132855   1.074   3.259   4.015 -0.4847  0.2155  0.2910
 7073SOL    HW232856   0.936   3.294   4.043  0.1418 -1.1053  2.4292
 7074SOL     OW32857   1.228   3.582  10.933 -0.2854 -0.2373  0.1848
 7074SOL    HW132858   1.291   3.653  10.925 -1.4125  0.6052 -1.2751
 7074SOL    HW232859   1.278   3.515  10.980  0.4354  1.0746  1.2864
 7075SOL     OW32860   1.463   4.448   5.843  0.3344  0.5065 -0.2571
 7075SOL    HW132861   1.381   4.491   5.820  0.7235  1.0529 -0.6224
 7075SOL    HW232862   1.485   4.424   5.753  0.0051 -2.2970  0.3849
 7076SOL     OW32863   0.128   0.855   2.606 -0.0676  0.1292 -0.2719
 7076SOL    HW132864   0.078   0.808   2.539 -1.6450  1.8574 -0.3253
 7076SOL    HW232865   0.078   0.833   2.685 -0.4243  0.9599 -0.2643
 7077SOL     OW32866   3.421   4.714   2.565 -0.0733 -0.3988 -0.1577
 7077SOL    HW132867   3.428   4.657   2.489  0.0714  0.4363 -0.7646
 7077SOL    HW232868   3.368   4.660   2.624 -2.4717 -0.1124 -2.0704
 7078SOL     OW32869   1.462   3.967   3.907  0.2025 -0.0689  0.0489
 7078SOL    HW132870   1.547   3.978   3.949 -0.7796  1.9855  1.5147
 7078SOL    HW232871   1.412   3.969   3.989 -0.8746  0.4231 -0.6122
 7079SOL     OW32872   3.939   3.933  15.188  0.0308 -0.7686 -0.1457
 7079SOL    HW132873   3.861   3.879  15.203 -0.7248  1.0917  2.6904
 7079SOL    HW232874   3.909   3.978  15.109 -0.8216 -1.1087 -0.0218
 7080SOL     OW32875   3.083   3.221   6.758 -0.3660 -0.4649 -0.2569
 7080SOL    HW132876   3.082   3.316   6.769 -1.0607 -0.4112 -0.8062
 7080SOL    HW232877   3.153   3.194   6.818  1.3091  1.9450 -1.1191
 7081SOL     OW32878   2.645   0.902   6.858  0.1012  0.2110 -0.1254
 7081SOL    HW132879   2.693   0.983   6.872  1.7165 -0.8139  0.2534
 7081SOL    HW232880   2.719   0.846   6.835 -0.7345 -1.3070  0.8455
 7082SOL     OW32881   2.883   3.107   4.468 -0.3299  0.2564 -0.1901
 7082SOL    HW132882   2.850   3.039   4.526  1.7294 -0.5039  0.0982
 7082SOL    HW232883   2.888   3.058   4.386  0.3704  2.5478 -1.5387
 7083SOL     OW32884   1.410   3.730   6.229 -0.2582 -0.7047 -0.5038
 7083SOL    HW132885   1.410   3.793   6.301 -2.1092  0.4801 -1.5439
 7083SOL    HW232886   1.342   3.667   6.254 -0.4575  0.3203  1.4874
 7084SOL     OW32887   1.109   3.381   3.308 -0.2783  0.2571 -0.3186
 7084SOL    HW132888   1.183   3.419   3.261  1.8439 -1.8611  1.3121
 7084SOL    HW232889   1.070   3.336   3.233 -2.4279 -2.3509  2.3893
 7085SOL     OW32890   4.511   3.655   5.498  0.1160 -0.8740 -0.5349
 7085SOL    HW132891   4.459   3.667   5.577 -0.4508  0.3433 -1.0828
 7085SOL    HW232892   4.545   3.740   5.467  0.3872 -1.3252 -1.4906
 7086SOL     OW32893   1.968   4.074  11.480  0.3308  0.3560 -0.1504
 7086SOL    HW132894   2.038   4.092  11.543 -1.4742 -1.7386  2.4117
 7086SOL    HW232895   1.915   4.146  11.511 -1.9086 -1.9898  1.4128
 7087SOL     OW32896   2.256   0.003   4.544 -0.1392 -0.0644  0.3976
 7087SOL    HW132897   2.217   4.669   4.599  0.0113 -2.5284 -2.5647
 7087SOL    HW232898   2.286   4.681   4.473 -1.0710  0.1473 -0.1515
 7088SOL     OW32899   2.316   3.838  11.709 -0.4252 -0.1901  0.0256
 7088SOL    HW132900   2.286   3.832  11.618 -1.1426 -0.1307  0.2567
 7088SOL    HW232901   2.389   3.777  11.703  0.0617  0.3121  0.8750
 7089SOL     OW32902   3.234   2.546   2.053  0.2242 -0.6368 -0.2168
 7089SOL    HW132903   3.299   2.550   1.983  2.2729 -0.3282  1.6974
 7089SOL    HW232904   3.228   2.451   2.047 -0.6355 -0.5209 -1.1110
 7090SOL     OW32905   4.474   3.674  15.430 -0.3571 -0.1521 -0.4123
 7090SOL    HW132906   4.453   3.767  15.433  0.4092  0.0233 -0.4014
 7090SOL    HW232907   4.425   3.646  15.353 -1.8223  1.7372 -0.1634
 7091SOL     OW32908   4.097   3.858   6.096  0.4488  0.0818  0.1598
 7091SOL    HW132909   4.184   3.835   6.131  0.6759 -0.7978 -0.9714
 7091SOL    HW232910   4.128   3.899   6.015 -2.1944  1.3607 -0.1870
 7092SOL     OW32911   4.705   3.017   7.291 -0.2051  0.1640 -0.7591
 7092SOL    HW132912   4.683   2.975   7.208 -1.6814  3.7325 -2.1939
 7092SOL    HW232913   4.721   2.933   7.334  1.0667  1.2689  0.9587
 7093SOL     OW32914   4.152   0.690   2.837 -0.1975 -0.1779  0.2016
 7093SOL    HW132915   4.166   0.759   2.903 -2.6892  0.9434 -0.4763
 7093SOL    HW232916   4.117   0.616   2.887  1.1016 -0.3802  0.8392
 7094SOL     OW32917   1.429   1.222   2.527 -0.8836  0.4500 -0.3578
 7094SOL    HW132918   1.410   1.221   2.433 -1.0879  0.4285 -0.3156
 7094SOL    HW232919   1.353   1.267   2.565 -0.4344  1.4353 -0.6360
 7095SOL     OW32920   2.045   3.343   4.304 -0.2109  0.3928 -0.2710
 7095SOL    HW132921   1.957   3.324   4.337  1.0978 -2.4214  1.5990
 7095SOL    HW232922   2.078   3.265   4.258 -2.1386  0.7275 -2.2385
 7096SOL     OW32923   2.997   2.361   8.574  0.1936 -0.1058  0.5620
 7096SOL    HW132924   2.986   2.278   8.528 -1.7054  0.5373 -0.1468
 7096SOL    HW232925   3.037   2.324   8.652  1.7762  0.9580  0.2565
 7097SOL     OW32926   0.071   3.937   1.431  0.4093 -0.2386 -0.0420
 7097SOL    HW132927   0.077   3.927   1.336  0.2709  2.1225 -0.3007
 7097SOL    HW232928   0.078   4.031   1.447  0.8396 -0.4426  0.9959
 7098SOL     OW32929   1.672   1.553  11.015 -0.2604 -0.1089 -0.2115
 7098SOL    HW132930   1.710   1.548  10.927 -0.8504  1.4277 -0.5408
 7098SOL    HW232931   1.579   1.551  10.994  0.1288 -0.8156 -1.8736
 7099SOL     OW32932   0.336   3.483   3.870 -0.2897 -0.0589 -0.2369
 7099SOL    HW132933   0.393   3.412   3.900  0.0366  0.8396  1.2622
 7099SOL    HW232934   0.276   3.488   3.945  1.6104 -1.3759  1.3541
 7100SOL     OW32935   2.488   1.053   2.493 -0.3560 -0.2888 -0.0013
 7100SOL    HW132936   2.535   1.124   2.450  2.0230 -1.4947  0.6030
 7100SOL    HW232937   2.409   1.046   2.440 -0.6186  0.1883  0.3265
 7101SOL     OW32938   0.251   3.871   9.476 -0.0595  0.3814  0.4274
 7101SOL    HW132939   0.258   3.776   9.487  0.9590  0.3407 -0.5910
 7101SOL    HW232940   0.219   3.883   9.386 -2.5305 -1.1451  1.0974
 7102SOL     OW32941   2.355   2.290   2.626  0.8183 -0.3941 -0.4182
 7102SOL    HW132942   2.356   2.314   2.534 -1.7415 -1.1820 -0.6800
 7102SOL    HW232943   2.264   2.316   2.642  0.5949 -0.9908 -0.7062
 7103SOL     OW32944   2.154   4.380   4.932 -0.1751  0.2320  0.1069
 7103SOL    HW132945   2.139   4.313   4.865  1.7493 -1.3360  1.2522
 7103SOL    HW232946   2.226   4.347   4.986  1.1767  1.1537 -1.1273
 7104SOL     OW32947   0.177   1.854   1.205 -0.2848  0.8206 -0.0899
 7104SOL    HW132948   0.091   1.838   1.242 -1.0157  0.2757 -2.0222
 7104SOL    HW232949   0.170   1.806   1.122 -2.9479  1.8484 -0.4474
 7105SOL     OW32950   2.047   3.243  12.072 -0.2398 -0.2822 -0.1268
 7105SOL    HW132951   2.081   3.283  12.152  0.7360 -1.1592 -0.0975
 7105SOL    HW232952   1.964   3.208  12.104  1.3762 -2.9163  1.1423
 7106SOL     OW32953   4.349   3.756   6.091  0.1332 -0.0496  0.2043
 7106SOL    HW132954   4.377   3.670   6.125 -2.3246 -0.6690  0.6335
 7106SOL    HW232955   4.386   3.759   6.003  0.2452  0.7349  0.2817
 7107SOL     OW32956   4.486   1.495   3.177  0.3246 -0.1047 -0.6725
 7107SOL    HW132957   4.394   1.490   3.202  0.9943  0.6902  1.9289
 7107SOL    HW232958   4.536   1.432   3.229 -1.4337 -0.5455  0.4574
 7108SOL     OW32959   0.203   1.370   7.063 -0.2916  0.0649  0.6532
 7108SOL    HW132960   0.147   1.417   7.125 -0.2355 -0.5443  1.1690
 7108SOL    HW232961   0.142   1.324   7.005 -0.1644 -0.1386  0.6803
 7109SOL     OW32962   3.484   3.670  11.034  0.6480  0.3724  0.4108
 7109SOL    HW132963   3.456   3.723  11.109 -2.6837  0.9089 -1.2379
 7109SOL    HW232964   3.483   3.733  10.963  1.8903 -1.4007 -1.1606
 7110SOL     OW32965   2.302   0.324   8.530 -0.0008  0.8107  0.4324
 7110SOL    HW132966   2.219   0.321   8.576 -0.1067 -0.6562  0.1451
 7110SOL    HW232967   2.365   0.317   8.601 -0.1133 -1.5953  0.2856
 7111SOL     OW32968   3.772   1.804   3.244  0.0264  0.0582 -0.6296
 7111SOL    HW132969   3.709   1.777   3.311  1.2513 -0.7285  0.1854
 7111SOL    HW232970   3.715   1.837   3.174 -0.5826 -0.7694 -0.5177
 7112SOL     OW32971   3.091   2.532  14.765  0.1385 -0.1352  0.2246
 7112SOL    HW132972   3.128   2.451  14.730 -0.2404 -0.8835  1.5531
 7112SOL    HW232973   3.170   2.585  14.755  1.6249 -2.7164 -1.6100
 7113SOL     OW32974   0.229   1.242   9.212 -0.4266  0.2705 -0.2300
 7113SOL    HW132975   0.183   1.204   9.287  1.1020  0.9477  1.0634
 7113SOL    HW232976   0.292   1.304   9.251  0.9224 -0.8598 -0.6051
 7114SOL     OW32977   2.857   4.612   5.402 -0.1534 -0.6392  0.2000
 7114SOL    HW132978   2.777   4.579   5.445  0.8528 -2.3359  0.7800
 7114SOL    HW232979   2.816   4.624   5.316 -0.9579 -1.2619  0.4923
 7115SOL     OW32980   4.629   2.715   4.858  0.4532  0.6197  0.4093
 7115SOL    HW132981   4.586   2.676   4.782  1.6377 -0.6827  0.4035
 7115SOL    HW232982   4.673   2.647   4.910 -1.1607  2.3285  4.0267
 7116SOL     OW32983   1.988   3.387   7.923 -0.5088 -0.2438 -0.1235
 7116SOL    HW132984   2.063   3.329   7.931 -0.5544 -0.2577  0.2130
 7116SOL    HW232985   1.961   3.368   7.833 -2.6609 -0.0180  0.4577
 7117SOL     OW32986   3.031   1.898  16.417  0.2673 -0.0698 -0.5965
 7117SOL    HW132987   3.008   1.805  16.418 -0.7244  0.1883  1.8577
 7117SOL    HW232988   3.126   1.885  16.415  0.4156  1.0003 -0.1911
 7118SOL     OW32989   3.414   2.623   1.227  0.2213 -0.0045  0.3203
 7118SOL    HW132990   3.469   2.593   1.299 -0.0472  0.6905  0.8126
 7118SOL    HW232991   3.425   2.718   1.232 -0.4999  0.1025 -0.0987
 7119SOL     OW32992   3.296   0.210   3.746 -0.1333 -0.0260  0.1113
 7119SOL    HW132993   3.314   0.233   3.837 -2.4456  2.6261 -0.0822
 7119SOL    HW232994   3.356   0.265   3.695  2.5620 -1.6996  1.4872
 7120SOL     OW32995   2.155   3.125  11.367  0.4731 -0.5785  0.1224
 7120SOL    HW132996   2.155   3.079  11.283 -0.8395 -0.0040 -0.2005
 7120SOL    HW232997   2.246   3.129  11.396  0.4218  0.6310  0.1119
 7121SOL     OW32998   1.216   3.531   8.318 -0.6049 -0.4665 -0.2352
 7121SOL    HW132999   1.274   3.607   8.329 -2.0630  0.4944  0.8250
 7121SOL    HW233000   1.130   3.570   8.332  0.9535  4.0216 -2.9233
 7122SOL     OW33001   0.962   0.538  14.501  0.3179  0.6637 -0.1668
 7122SOL    HW133002   1.026   0.477  14.463 -0.4712 -0.5391  0.4197
 7122SOL    HW233003   1.008   0.581  14.572  0.5409 -1.3550  0.8999
 7123SOL     OW33004   3.642   0.779   5.617  0.1295 -0.2134  0.0110
 7123SOL    HW133005   3.605   0.859   5.654 -2.2702 -1.4922  0.3956
 7123SOL    HW233006   3.560   0.730   5.606 -0.8275  1.6738 -1.2413
 7124SOL     OW33007   4.044   2.673   4.377 -0.1318 -0.2566 -0.1025
 7124SOL    HW133008   3.984   2.615   4.330  1.8241 -1.0394 -1.6283
 7124SOL    HW233009   4.088   2.610   4.434 -0.7325  1.1206  1.8997
 7125SOL     OW33010   0.016   1.425   5.998 -0.0976  0.0651  0.5010
 7125SOL    HW133011   0.092   1.456   6.046 -0.6318  2.4306 -0.1968
 7125SOL    HW233012   4.671   1.476   6.015 -0.3810  0.3146 -1.5678
 7126SOL     OW33013   3.685   3.041  16.240 -0.2107  0.0811  0.2929
 7126SOL    HW133014   3.768   3.052  16.286  0.1199  2.6806 -0.9133
 7126SOL    HW233015   3.659   3.132  16.228 -1.2122 -0.3019 -0.4143
 7127SOL     OW33016   0.776   1.483   7.949  0.2282  0.6312  0.3596
 7127SOL    HW133017   0.692   1.519   7.920  0.8311  1.1095 -0.7834
 7127SOL    HW233018   0.818   1.469   7.864 -0.0897 -0.8988  0.4670
 7128SOL     OW33019   2.342   2.412   5.757  0.0415  0.0795  0.1967
 7128SOL    HW133020   2.417   2.427   5.700  1.7659 -1.8511  1.9483
 7128SOL    HW233021   2.301   2.498   5.769 -2.1117 -0.8847 -0.3278
 7129SOL     OW33022   0.254   4.063  11.081  0.1122  0.2163 -0.0189
 7129SOL    HW133023   0.295   3.995  11.135 -1.9853 -1.0715 -0.0595
 7129SOL    HW233024   0.327   4.093  11.027  0.3995  0.6731  0.6235
 7130SOL     OW33025   1.978   4.452  13.383  0.1348 -0.2558  0.0767
 7130SOL    HW133026   1.968   4.498  13.300  0.0428 -0.8820 -0.2588
 7130SOL    HW233027   2.027   4.373  13.364  1.6958  0.4716  1.1005
 7131SOL     OW33028   1.526   4.453   0.480  0.2043  0.2797  0.0504
 7131SOL    HW133029   1.587   4.395   0.435 -0.9908 -0.0591 -1.1145
 7131SOL    HW233030   1.493   4.501   0.404 -0.1060 -0.2694 -0.1574
 7132SOL     OW33031   4.347   4.566  14.845  0.0531  0.3801 -0.2682
 7132SOL    HW133032   4.281   4.635  14.840  1.4785  1.6944 -0.9722
 7132SOL    HW233033   4.369   4.573  14.938 -3.0180 -0.7224  0.5345
 7133SOL     OW33034   1.822   1.512   7.517  0.9747  0.2935  0.7904
 7133SOL    HW133035   1.917   1.509   7.514  0.9568 -0.1836  0.7259
 7133SOL    HW233036   1.821   1.602   7.549 -1.3632  1.4296 -2.5051
 7134SOL     OW33037   2.170   3.969  13.177 -0.0521  0.0361  0.1347
 7134SOL    HW133038   2.224   3.968  13.256  0.6383  2.0764 -0.3318
 7134SOL    HW233039   2.087   4.001  13.213 -0.5856 -1.5323  0.3377
 7135SOL     OW33040   0.481   1.948   5.903  0.0541  0.1341 -0.3949
 7135SOL    HW133041   0.521   2.024   5.861  1.7530 -1.2301 -1.2595
 7135SOL    HW233042   0.521   1.875   5.856  0.2988  1.5064 -2.2861
 7136SOL     OW33043   1.266   3.039   1.439  0.9549  0.5761  0.6100
 7136SOL    HW133044   1.344   3.027   1.493 -0.0695 -0.3509  1.8583
 7136SOL    HW233045   1.208   3.102   1.482 -0.1335  0.0848 -0.1321
 7137SOL     OW33046   4.707   3.696   2.967  0.5241  0.1902 -0.2980
 7137SOL    HW133047   4.721   3.754   2.891 -0.7525  2.1292  0.9460
 7137SOL    HW233048   0.063   3.668   2.981  0.5376  0.7859  0.7578
 7138SOL     OW33049   2.340   4.549   9.002 -0.3668  0.0755  0.2600
 7138SOL    HW133050   2.431   4.559   9.027 -0.5046  0.2358  0.6951
 7138SOL    HW233051   2.331   4.459   8.971  2.4024  0.6461 -2.1546
 7139SOL     OW33052   3.999   1.991   9.342 -0.0829  0.2811 -0.2576
 7139SOL    HW133053   4.087   1.959   9.365 -1.6505 -2.0812  2.5584
 7139SOL    HW233054   4.021   2.079   9.312  1.2747 -0.4804 -1.5069
 7140SOL     OW33055   2.909   0.509   3.235  0.4251  0.0628 -0.4383
 7140SOL    HW133056   2.932   0.569   3.306  1.1960 -0.1763 -0.4846
 7140SOL    HW233057   2.987   0.465   3.201 -1.5184 -1.8583 -2.4115
 7141SOL     OW33058   3.498   3.466   1.270  0.0697  0.5453  0.1258
 7141SOL    HW133059   3.533   3.446   1.184  1.9775  1.7794  0.6262
 7141SOL    HW233060   3.505   3.383   1.318  2.7620 -0.8641 -2.7542
 7142SOL     OW33061   3.408   3.456   8.152 -0.1947  0.0486  0.3216
 7142SOL    HW133062   3.435   3.546   8.171 -1.8279  0.2641  1.6533
 7142SOL    HW233063   3.317   3.470   8.126  0.0611 -0.3434 -0.7733
 7143SOL     OW33064   2.897   4.051   3.583  0.4324  0.4235  0.3240
 7143SOL    HW133065   2.972   4.007   3.621  0.1363 -1.6308 -1.4728
 7143SOL    HW233066   2.829   3.988   3.606  0.7148  0.0093  0.0186
 7144SOL     OW33067   1.991   3.278   8.798  0.2210  0.2565 -0.3274
 7144SOL    HW133068   2.068   3.231   8.830  0.5506 -0.5712 -2.3651
 7144SOL    HW233069   2.026   3.341   8.735 -1.2763 -0.7590 -2.1579
 7145SOL     OW33070   0.483   4.121   3.167  0.0903 -0.5605  0.2837
 7145SOL    HW133071   0.557   4.075   3.128  0.8852  1.2113 -0.2560
 7145SOL    HW233072   0.424   4.120   3.091  0.3695 -0.9136  0.0706
 7146SOL     OW33073   0.039   0.560   4.775  0.3898  1.0019  0.2788
 7146SOL    HW133074   0.071   0.477   4.739 -2.0755  0.7402 -1.3648
 7146SOL    HW233075   4.705   0.586   4.712 -0.4891 -2.7277 -0.3682
 7147SOL     OW33076   1.138   0.753   7.523  0.0076 -0.4120  1.0029
 7147SOL    HW133077   1.173   0.684   7.578  0.9044 -1.4387 -0.8357
 7147SOL    HW233078   1.046   0.730   7.514 -0.4872  2.2251 -0.8114
 7148SOL     OW33079   0.418   0.274   3.407 -0.2429 -0.0474 -0.2118
 7148SOL    HW133080   0.340   0.230   3.372 -1.1362  1.7574 -0.4774
 7148SOL    HW233081   0.482   0.203   3.413 -2.4463 -1.7683  3.2683
 7149SOL     OW33082   3.356   1.122   6.412  0.1902  0.5783 -0.0454
 7149SOL    HW133083   3.435   1.175   6.416  0.3616  0.3237 -0.0651
 7149SOL    HW233084   3.316   1.137   6.498  1.0630 -0.3507  0.5314
 7150SOL     OW33085   0.482   1.539  10.739  0.3091 -0.9656  0.1819
 7150SOL    HW133086   0.511   1.493  10.660  0.3475  1.7715 -1.3676
 7150SOL    HW233087   0.427   1.474  10.783 -0.6171 -0.6501 -0.4861
 7151SOL     OW33088   4.388   3.818   0.533  0.3213  0.1365  0.2330
 7151SOL    HW133089   4.357   3.771   0.456 -2.8139  1.4330  0.6762
 7151SOL    HW233090   4.313   3.808   0.592 -0.2360 -0.3838 -0.5609
 7152SOL     OW33091   1.899   3.671   3.633  0.1225  0.1758 -0.4711
 7152SOL    HW133092   1.822   3.669   3.690  1.4406 -0.8410  1.2441
 7152SOL    HW233093   1.971   3.691   3.693 -0.8176 -0.4673  0.8797
 7153SOL     OW33094   4.540   1.758  12.100  0.0222 -0.0945 -1.1691
 7153SOL    HW133095   4.484   1.755  12.022 -1.0088 -1.8882 -0.3436
 7153SOL    HW233096   4.612   1.697  12.083  0.3240  0.4858 -1.9954
 7154SOL     OW33097   2.559   2.059   9.318 -0.2880  0.3950 -0.4373
 7154SOL    HW133098   2.554   2.054   9.414  1.5853 -0.3332 -0.3912
 7154SOL    HW233099   2.546   2.154   9.312 -0.5369  0.3627 -0.4351
 7155SOL     OW33100   0.933   2.488   2.024 -0.3141  0.1579 -0.3199
 7155SOL    HW133101   1.014   2.465   2.068  0.0277 -0.3455 -1.2204
 7155SOL    HW233102   0.878   2.510   2.100 -0.0323  3.7789 -1.1907
 7156SOL     OW33103   2.316   4.211   7.541 -0.5148  0.4084  0.2769
 7156SOL    HW133104   2.374   4.135   7.548 -1.6919 -0.3822  1.5338
 7156SOL    HW233105   2.340   4.255   7.623 -1.5936 -1.5121  1.6331
 7157SOL     OW33106   2.692   3.597   2.882  0.4895  0.7173 -0.7128
 7157SOL    HW133107   2.678   3.667   2.818 -1.6727 -0.5486 -1.5984
 7157SOL    HW233108   2.738   3.537   2.824 -1.7671 -0.4449 -1.2588
 7158SOL     OW33109   3.163   4.488   9.030 -0.1573  0.4855  0.1642
 7158SOL    HW133110   3.092   4.456   9.084 -1.5473  2.4217 -0.4908
 7158SOL    HW233111   3.171   4.578   9.062 -1.1916  0.6115  0.0633
 7159SOL     OW33112   2.017   1.959   6.926  0.3069 -0.5451  0.5489
 7159SOL    HW133113   1.988   2.021   6.993 -0.6753  0.3203 -0.6631
 7159SOL    HW233114   2.104   1.996   6.914 -0.5971  1.0562 -1.3031
 7160SOL     OW33115   2.810   1.863   5.652  0.1879 -0.4288 -0.4006
 7160SOL    HW133116   2.893   1.832   5.616  1.3175  2.3815 -0.2538
 7160SOL    HW233117   2.747   1.815   5.598  1.4815 -1.0026 -1.3889
 7161SOL     OW33118   3.746   0.985   5.083  0.0478  0.5158  0.2137
 7161SOL    HW133119   3.715   1.028   5.162  0.1042 -0.7797  0.9359
 7161SOL    HW233120   3.778   1.060   5.033 -0.6853  0.9912  0.4638
 7162SOL     OW33121   1.906   2.275   5.877  0.3553  0.0805  0.4386
 7162SOL    HW133122   1.891   2.365   5.849 -0.4331 -0.0223  0.5300
 7162SOL    HW233123   1.826   2.241   5.918  1.2102 -1.0348  1.1829
 7163SOL     OW33124   4.006   1.531   2.785 -0.0988  0.1697 -0.0616
 7163SOL    HW133125   4.080   1.526   2.845 -0.5071 -2.0611  0.2626
 7163SOL    HW233126   3.963   1.610   2.816  2.7913  2.0254 -0.7904
 7164SOL     OW33127   2.874   2.650   3.726 -0.4495  0.0190 -0.1204
 7164SOL    HW133128   2.949   2.652   3.666  1.6313 -0.2325  2.4854
 7164SOL    HW233129   2.815   2.717   3.690  1.1706  0.8616 -1.2204
 7165SOL     OW33130   2.605   2.312   3.561  0.2389 -0.2523  0.2199
 7165SOL    HW133131   2.641   2.272   3.483 -1.6523  1.6028 -1.6192
 7165SOL    HW233132   2.544   2.380   3.530 -0.4896 -1.6270 -1.3688
 7166SOL     OW33133   2.569   4.341  12.106 -0.8532 -0.0815  0.1805
 7166SOL    HW133134   2.660   4.323  12.129 -0.6685 -1.7912 -1.9235
 7166SOL    HW233135   2.526   4.296  12.179 -0.6304 -1.0660 -0.3011
 7167SOL     OW33136   4.678   0.274   1.500  0.1270 -0.6060 -0.3571
 7167SOL    HW133137   4.680   0.268   1.404  0.5880  1.2204 -0.4690
 7167SOL    HW233138   4.590   0.299   1.527 -0.2167 -1.0898 -1.0466
 7168SOL     OW33139   2.641   2.782   3.256 -0.3090 -0.5762 -0.0748
 7168SOL    HW133140   2.671   2.744   3.339  0.3215 -0.4960 -0.2609
 7168SOL    HW233141   2.711   2.764   3.193  0.7079  0.2977  0.7815
 7169SOL     OW33142   4.059   0.733   5.100 -0.5732 -0.3705 -0.4504
 7169SOL    HW133143   4.129   0.671   5.121 -0.1792 -0.1216 -0.9840
 7169SOL    HW233144   4.037   0.763   5.188 -0.7308 -3.9647  0.7432
 7170SOL     OW33145   3.558   4.021   1.912  0.3053  0.1614 -0.7429
 7170SOL    HW133146   3.590   3.938   1.949 -0.1054  0.3818  0.0979
 7170SOL    HW233147   3.631   4.041   1.853  0.1655  3.0058  0.0375
 7171SOL     OW33148   4.398   4.377   3.461 -0.5601 -0.7163 -0.0052
 7171SOL    HW133149   4.415   4.453   3.517 -1.1455 -0.3901 -0.2784
 7171SOL    HW233150   4.332   4.407   3.399  1.7933 -1.8070 -3.0586
 7172SOL     OW33151   0.952   3.867   4.435  0.0089 -0.6393 -0.1777
 7172SOL    HW133152   0.970   3.959   4.414  0.7738 -1.1214 -1.5968
 7172SOL    HW233153   0.862   3.853   4.406 -0.2898  1.8686 -0.5271
 7173SOL     OW33154   3.045   4.581  16.795  0.4753 -0.0877  0.5726
 7173SOL    HW133155   2.950   4.583  16.810  0.4117 -0.1079  0.1650
 7173SOL    HW233156   3.084   4.636  16.863 -0.3620  0.0826  0.9256
 7174SOL     OW33157   2.824   4.245   1.342 -0.2674  0.2951  0.0495
 7174SOL    HW133158   2.773   4.269   1.264 -0.3330  0.2575  0.0814
 7174SOL    HW233159   2.900   4.201   1.305 -3.0515 -2.8609 -1.8169
 7175SOL     OW33160   2.523   2.767   1.802 -0.5382 -0.0288 -0.0023
 7175SOL    HW133161   2.574   2.734   1.876 -1.0322  0.9610  0.7841
 7175SOL    HW233162   2.433   2.740   1.824 -0.3869 -0.2319  0.3698
 7176SOL     OW33163   4.423   3.051   0.011  0.3243 -0.1635  0.3766
 7176SOL    HW133164   4.367   3.112   0.058 -0.1901 -0.4050  0.0684
 7176SOL    HW233165   4.451   3.105  17.672  2.0895 -0.9167  0.4758
 7177SOL     OW33166   0.552   0.188  13.265 -0.2381 -0.0443 -0.3455
 7177SOL    HW133167   0.541   0.116  13.328  2.8233  1.1743  1.5771
 7177SOL    HW233168   0.631   0.230  13.299 -0.2822 -2.0710  2.2757
 7178SOL     OW33169   0.608   2.096   7.477  0.0013  0.1358 -0.4286
 7178SOL    HW133170   0.695   2.130   7.455 -1.0939  2.1299 -1.7718
 7178SOL    HW233171   0.581   2.064   7.391 -2.1488  1.0225 -0.0643
 7179SOL     OW33172   3.856   0.148   5.543  0.1497 -0.1558 -0.0103
 7179SOL    HW133173   3.763   0.123   5.545  0.5847 -1.7209  0.5116
 7179SOL    HW233174   3.869   0.166   5.450 -1.6632 -1.1828 -0.4641
 7180SOL     OW33175   2.875   2.105   7.096  0.1404 -0.7700 -0.0594
 7180SOL    HW133176   2.959   2.082   7.056 -0.1789 -1.2080 -0.4836
 7180SOL    HW233177   2.854   2.186   7.050 -1.5651 -0.5877  1.0309
 7181SOL     OW33178   0.653   1.033   1.816 -0.4670  0.3406 -0.6963
 7181SOL    HW133179   0.649   1.128   1.808 -3.4160  0.2968  0.1151
 7181SOL    HW233180   0.674   1.021   1.909  0.1791 -0.4616 -0.9493
 7182SOL     OW33181   2.943   4.057  17.135  0.1940  0.2299  0.4576
 7182SOL    HW133182   2.970   4.028  17.048 -3.0306 -0.4574 -0.3384
 7182SOL    HW233183   2.852   4.086  17.123 -0.4796 -2.7498 -1.6820
 7183SOL     OW33184   3.063   2.519   8.928  0.3584  0.5057  0.7559
 7183SOL    HW133185   3.010   2.468   8.989  0.3756 -0.3380  0.0665
 7183SOL    HW233186   3.086   2.452   8.864 -0.3063  0.7118  0.3020
 7184SOL     OW33187   1.736   0.987  17.050  0.0233 -0.0189 -0.0341
 7184SOL    HW133188   1.695   1.049  16.990 -2.3376  0.0159  1.6071
 7184SOL    HW233189   1.705   0.903  17.016 -0.9677  0.1276  0.5012
 7185SOL     OW33190   1.964   2.115   6.640 -0.0158  0.3181 -0.6719
 7185SOL    HW133191   2.058   2.109   6.624  0.6550 -1.2114  3.9359
 7185SOL    HW233192   1.933   2.079   6.556 -3.3020  1.2966  0.1370
 7186SOL     OW33193   1.627   1.858   3.770 -0.4922  0.7206  0.0965
 7186SOL    HW133194   1.650   1.824   3.683  1.2451  3.8158 -0.6801
 7186SOL    HW233195   1.592   1.779   3.811  0.9382 -1.3704 -2.6877
 7187SOL     OW33196   4.448   4.571   7.649 -0.7573  0.1043  0.1978
 7187SOL    HW133197   4.372   4.564   7.707  0.0132  0.4190  1.2466
 7187SOL    HW233198   4.446   4.499   7.586  1.8211 -1.0665  1.4607
 7188SOL     OW33199   2.923   2.489   5.591 -0.3522 -0.0722  0.0423
 7188SOL    HW133200   2.863   2.426   5.632 -0.6611 -0.9886 -1.8338
 7188SOL    HW233201   2.875   2.571   5.606  0.2696 -0.0427  1.9257
 7189SOL     OW33202   0.098   2.033  11.618  0.8106  0.0396 -0.2063
 7189SOL    HW133203   0.085   1.962  11.555 -1.2261  1.5700 -1.5471
 7189SOL    HW233204   0.086   2.114  11.568  0.1874  0.8061  1.1823
 7190SOL     OW33205   1.981   2.113   2.817  0.2095  0.6021 -0.2029
 7190SOL    HW133206   2.054   2.171   2.839 -0.4110  0.7681  1.3742
 7190SOL    HW233207   2.015   2.027   2.791 -0.7687  0.5710 -1.3877
 7191SOL     OW33208   1.042   0.369   0.738 -0.2615 -0.3286  0.0512
 7191SOL    HW133209   0.959   0.413   0.760 -0.6495 -0.8635 -0.3296
 7191SOL    HW233210   1.098   0.437   0.776 -1.7740  0.8044  0.2797
 7192SOL     OW33211   1.148   0.107   4.051 -0.1617  0.8530  0.3669
 7192SOL    HW133212   1.178   0.198   4.052 -2.5217  1.6805 -1.9861
 7192SOL    HW233213   1.218   0.055   4.090 -0.8220 -0.6825 -0.5021
 7193SOL     OW33214   4.693   3.167   9.091  0.6639 -0.2792 -0.3292
 7193SOL    HW133215   4.645   3.092   9.126 -0.8575  0.7865 -0.1389
 7193SOL    HW233216   4.725   3.208   9.171  1.7972  0.8154 -1.3422
 7194SOL     OW33217   2.087   3.845  17.531  0.5451 -0.7679 -0.2728
 7194SOL    HW133218   2.124   3.758  17.513 -1.8302 -1.2384 -2.9623
 7194SOL    HW233219   2.029   3.863  17.457  0.4475 -1.0225 -0.2603
 7195SOL     OW33220   2.378   4.609   6.139 -0.0340  0.3382  0.3010
 7195SOL    HW133221   2.427   4.679   6.096 -2.0689  1.4413 -0.1997
 7195SOL    HW233222   2.318   4.588   6.069 -0.7921  1.8178  0.5000
 7196SOL     OW33223   1.428   1.055   9.326 -0.2005  0.3471 -0.1353
 7196SOL    HW133224   1.487   1.056   9.251 -1.1447  1.5660 -0.8586
 7196SOL    HW233225   1.454   0.969   9.359 -1.8162 -0.8951 -2.1331
 7197SOL     OW33226   4.605   4.516   4.122 -0.1846 -0.3166  0.1599
 7197SOL    HW133227   4.552   4.461   4.066 -0.0188 -0.0749 -0.2363
 7197SOL    HW233228   4.671   4.534   4.054  1.8285 -0.5910  2.0183
 7198SOL     OW33229   4.214   4.311   8.309  0.0311  0.4265 -0.0473
 7198SOL    HW133230   4.256   4.355   8.383 -0.6770  2.1529 -0.6999
 7198SOL    HW233231   4.125   4.341   8.324 -1.1950 -2.8779 -0.6149
 7199SOL     OW33232   2.877   3.974   7.602 -0.4966 -0.6048  0.5692
 7199SOL    HW133233   2.859   4.005   7.513  1.6329  0.5315  0.5359
 7199SOL    HW233234   2.945   3.910   7.583 -1.4028 -1.4873  0.2956
 7200SOL     OW33235   4.270   3.221   5.435  0.1276  0.2878 -0.3112
 7200SOL    HW133236   4.312   3.230   5.349  2.5672  0.1316  0.8815
 7200SOL    HW233237   4.213   3.298   5.433 -0.3998 -0.1371 -1.4910
 7201SOL     OW33238   0.633   3.452   3.426  0.3782 -0.6159  0.2581
 7201SOL    HW133239   0.696   3.524   3.430 -1.7536  1.2779 -0.1258
 7201SOL    HW233240   0.624   3.419   3.515  0.7756  1.4755  1.0761
 7202SOL     OW33241   2.810   2.245   7.333  0.2315 -0.8931 -0.0579
 7202SOL    HW133242   2.885   2.259   7.391 -0.9255  2.5226  0.6456
 7202SOL    HW233243   2.846   2.214   7.250  0.9161  0.1329 -0.1517
 7203SOL     OW33244   1.921   3.723   2.789  0.2349 -0.4351  0.0681
 7203SOL    HW133245   1.957   3.715   2.701 -0.3093 -0.1144 -0.1804
 7203SOL    HW233246   1.900   3.631   2.806  1.2757 -1.1157 -2.4006
 7204SOL     OW33247   2.149   1.741   3.712  0.2220 -0.5961 -0.0469
 7204SOL    HW133248   2.165   1.824   3.758  2.8938 -0.7669 -0.6405
 7204SOL    HW233249   2.188   1.677   3.771  0.4567  0.0964  0.5532
 7205SOL     OW33250   0.569   0.564   6.261  0.2181 -0.3423 -0.1584
 7205SOL    HW133251   0.656   0.579   6.298 -0.5911 -1.8858  2.3624
 7205SOL    HW233252   0.596   0.498   6.197  0.7428  0.8062 -1.1227
 7206SOL     OW33253   3.392   3.699   2.841  0.2778  0.3267 -0.1766
 7206SOL    HW133254   3.434   3.785   2.839  1.0493 -0.0699 -0.8662
 7206SOL    HW233255   3.334   3.708   2.766 -0.7036  0.4568  0.5997
 7207SOL     OW33256   0.820   3.071  14.960  0.2680  0.1195  0.2754
 7207SOL    HW133257   0.798   3.062  14.868 -2.0492  1.1018  0.7377
 7207SOL    HW233258   0.915   3.085  14.962  0.6659 -2.6277  0.0721
 7208SOL     OW33259   0.924   0.155   2.787 -0.0948  0.0450  0.2801
 7208SOL    HW133260   1.002   0.207   2.769 -0.4129  0.5044  0.2130
 7208SOL    HW233261   0.857   0.208   2.743  1.1503  0.4500 -1.1023
 7209SOL     OW33262   1.343   2.738   3.333 -0.1233  0.6994  0.4386
 7209SOL    HW133263   1.318   2.646   3.344 -0.6484  0.5567 -2.0343
 7209SOL    HW233264   1.426   2.742   3.380  0.0913  2.4020 -0.0813
 7210SOL     OW33265   3.550   2.921   6.764 -0.1155 -0.5805  0.1471
 7210SOL    HW133266   3.454   2.925   6.774 -0.1102 -0.5929  0.2004
 7210SOL    HW233267   3.572   2.887   6.850 -0.5746  0.0059  0.4956
 7211SOL     OW33268   3.623   1.137  10.686  0.3878 -0.3421 -0.3386
 7211SOL    HW133269   3.570   1.064  10.654 -2.4758  1.5129  0.1500
 7211SOL    HW233270   3.570   1.164  10.761 -1.6869 -2.1696 -1.1323
 7212SOL     OW33271   1.170   0.054  14.257  0.4537  0.5419  0.3728
 7212SOL    HW133272   1.089   0.042  14.208  0.8523  2.7601 -0.8379
 7212SOL    HW233273   1.157   0.137  14.303 -0.2803  0.0439  1.0460
 7213SOL     OW33274   3.647   0.291  13.192  0.4351 -0.2878  0.1191
 7213SOL    HW133275   3.586   0.220  13.170  1.3810 -1.0045 -0.1698
 7213SOL    HW233276   3.641   0.293  13.288 -2.2340 -1.7905 -0.0153
 7214SOL     OW33277   3.201   3.270  10.910  0.2449  0.4206  0.4673
 7214SOL    HW133278   3.172   3.335  10.973 -0.0532 -1.2566  2.0375
 7214SOL    HW233279   3.288   3.255  10.946  1.1346  3.2436 -0.5297
 7215SOL     OW33280   1.880   2.328   2.410  0.2231 -0.1915  0.3664
 7215SOL    HW133281   1.842   2.416   2.403  1.0630  0.1620  0.2870
 7215SOL    HW233282   1.929   2.336   2.492 -0.6524 -0.1793  0.8938
 7216SOL     OW33283   4.373   4.304  14.729  0.5164 -0.2399 -0.1451
 7216SOL    HW133284   4.285   4.270  14.715  0.2453  0.7108 -0.7175
 7216SOL    HW233285   4.361   4.397  14.747  0.6526 -0.4895  1.1936
 7217SOL     OW33286   1.040   1.903   1.408 -0.0253 -0.0488 -0.7018
 7217SOL    HW133287   1.086   1.933   1.486  1.1942  0.5234 -1.6410
 7217SOL    HW233288   1.100   1.932   1.340  2.0401  0.1993  1.2265
 7218SOL     OW33289   1.533   4.121   3.677 -0.4740  0.8698  0.0673
 7218SOL    HW133290   1.501   4.093   3.591 -2.7791  2.3226  0.4581
 7218SOL    HW233291   1.510   4.045   3.729  0.3625  0.0135 -0.8035
 7219SOL     OW33292   1.497   4.271   7.251 -0.8902  0.4197 -0.8335
 7219SOL    HW133293   1.422   4.304   7.300 -0.7385 -0.4290 -0.0434
 7219SOL    HW233294   1.561   4.341   7.263  0.3432 -0.8694  0.1456
 7220SOL     OW33295   2.371   1.056  13.777  0.1526 -0.3435 -0.1324
 7220SOL    HW133296   2.416   1.058  13.693  0.5162 -0.4846  0.0607
 7220SOL    HW233297   2.280   1.033  13.758 -0.2247  1.8353 -1.0087
 7221SOL     OW33298   3.199   0.185  16.074  0.4408 -0.0990  0.1771
 7221SOL    HW133299   3.264   0.161  16.009 -0.8797  1.6197 -1.7617
 7221SOL    HW233300   3.124   0.186  16.015 -0.4655  0.9480  1.3437
 7222SOL     OW33301   2.809   0.386   3.561  0.5464  0.5021 -0.0417
 7222SOL    HW133302   2.724   0.355   3.591  0.8661  1.1153  1.5313
 7222SOL    HW233303   2.812   0.354   3.471 -0.9329 -1.7563  0.7254
 7223SOL     OW33304   1.808   3.818   1.062 -0.3876  0.2341 -0.4543
 7223SOL    HW133305   1.879   3.876   1.090 -0.3113  0.4417 -1.0805
 7223SOL    HW233306   1.749   3.886   1.030 -0.6958 -0.1375 -0.6718
 7224SOL     OW33307   2.767   2.361   5.797  0.6729 -0.5238  0.1674
 7224SOL    HW133308   2.830   2.291   5.780  2.0090  0.7678 -0.2455
 7224SOL    HW233309   2.692   2.310   5.827  0.9393  0.3881  2.4114
 7225SOL     OW33310   0.445   0.761   6.887 -0.7584  0.2468 -0.1485
 7225SOL    HW133311   0.471   0.676   6.853 -1.1305  0.3572 -0.7149
 7225SOL    HW233312   0.534   0.795   6.900 -0.1570 -1.4626  0.1255
 7226SOL     OW33313   4.605   3.648   6.600  0.1202 -0.1874  0.5880
 7226SOL    HW133314   4.527   3.611   6.558 -0.3590  0.5414  0.8156
 7226SOL    HW233315   4.561   3.691   6.673  0.2949  2.2518 -0.7370
 7227SOL     OW33316   0.564   0.414   0.670  0.0391  0.1815  0.1664
 7227SOL    HW133317   0.616   0.345   0.711 -0.1201 -0.1969 -0.2654
 7227SOL    HW233318   0.576   0.491   0.725  3.3955 -0.5612  0.4562
 7228SOL     OW33319   3.174   2.019   5.890  0.4094  0.3410  0.4967
 7228SOL    HW133320   3.135   1.998   5.975  1.9647 -0.5341  0.9765
 7228SOL    HW233321   3.168   2.115   5.891 -3.4324  0.1030  1.7227
 7229SOL     OW33322   4.139   4.018   0.147 -0.4821  0.3707  0.4664
 7229SOL    HW133323   4.230   4.012   0.119  0.0554  2.5279  1.7154
 7229SOL    HW233324   4.121   4.112   0.148 -1.1333  0.2545  0.2483
 7230SOL     OW33325   0.656   0.421   3.766  0.3628  0.0366  0.5880
 7230SOL    HW133326   0.674   0.473   3.687 -1.5128  1.0376  0.8237
 7230SOL    HW233327   0.612   0.345   3.726 -1.1868  1.0164  0.4260
 7231SOL     OW33328   2.690   0.607  13.998 -0.5506 -0.0305  0.0121
 7231SOL    HW133329   2.779   0.644  13.999 -0.2776 -0.6173 -1.6328
 7231SOL    HW233330   2.659   0.661  13.925  0.9685 -2.4028 -2.4088
 7232SOL     OW33331   1.054   0.689   2.206  0.3142  0.1002 -0.3919
 7232SOL    HW133332   1.036   0.771   2.253 -0.0453 -0.2075  0.0171
 7232SOL    HW233333   1.137   0.668   2.248 -0.5696 -0.7674  0.9174
 7233SOL     OW33334   3.812   0.152   1.085 -0.1364  0.1568 -0.2734
 7233SOL    HW133335   3.790   0.060   1.089  1.8350 -0.3373 -0.5370
 7233SOL    HW233336   3.722   0.181   1.072  0.3316  0.7315 -2.1248
 7234SOL     OW33337   0.486   3.294   5.004  0.4351  0.1041  0.2293
 7234SOL    HW133338   0.396   3.315   5.027 -0.4589 -2.2194 -1.1411
 7234SOL    HW233339   0.480   3.203   4.975 -1.8498  0.0890  0.7363
 7235SOL     OW33340   2.779   2.835   7.455  0.1671  0.1749 -0.0276
 7235SOL    HW133341   2.773   2.899   7.384  1.4827 -0.9029 -1.1239
 7235SOL    HW233342   2.859   2.789   7.429  0.5587  0.4636  0.6865
 7236SOL     OW33343   3.569   1.416  15.092  0.4113 -0.1911 -0.7964
 7236SOL    HW133344   3.629   1.439  15.162 -0.0344 -0.4177 -0.3412
 7236SOL    HW233345   3.585   1.325  15.070 -0.1054 -0.4150 -0.2409
 7237SOL     OW33346   2.488   3.543   9.184  0.0831 -0.0351 -0.5047
 7237SOL    HW133347   2.573   3.562   9.223  0.0373  0.3958 -0.6217
 7237SOL    HW233348   2.498   3.580   9.097  4.0273  0.6046  0.2495
 7238SOL     OW33349   1.230   1.854   9.772  0.3802 -0.1673 -0.0935
 7238SOL    HW133350   1.246   1.766   9.737 -2.1083 -0.5181 -0.3620
 7238SOL    HW233351   1.156   1.868   9.714  2.0237  2.8035 -1.4784
 7239SOL     OW33352   4.570   1.789   8.553 -0.1970  0.1538 -0.6486
 7239SOL    HW133353   4.655   1.745   8.553  0.1013  0.7423  0.3777
 7239SOL    HW233354   4.590   1.869   8.601 -0.0967 -0.3396  0.1376
 7240SOL     OW33355   3.556   3.335   5.283 -0.5807  0.0739  0.0757
 7240SOL    HW133356   3.624   3.352   5.217 -0.9825  0.0165 -0.3452
 7240SOL    HW233357   3.600   3.346   5.368 -2.4302  1.6508  0.8288
 7241SOL     OW33358   1.623   2.845   2.099  0.2624  0.1265 -0.0580
 7241SOL    HW133359   1.601   2.752   2.106  0.4507  0.0862  0.0030
 7241SOL    HW233360   1.549   2.868   2.044  0.1711  2.6570  1.1201
 7242SOL     OW33361   4.461   3.504   5.174  0.1152 -0.0702  0.0365
 7242SOL    HW133362   4.518   3.462   5.239  0.2692 -1.5773 -1.0667
 7242SOL    HW233363   4.386   3.531   5.227 -1.2285 -3.2576 -0.2357
 7243SOL     OW33364   2.009   0.097   4.282 -0.0253  0.5545 -0.1107
 7243SOL    HW133365   1.928   0.132   4.244  1.6508  2.6232 -1.7437
 7243SOL    HW233366   1.998   0.002   4.272  2.7822  0.1238  0.8975
 7244SOL     OW33367   4.699   0.833   2.817  0.2169  0.3087 -0.0842
 7244SOL    HW133368   4.610   0.798   2.810  0.9542 -1.7235  0.7728
 7244SOL    HW233369   4.690   0.866   2.907  1.9064  2.6826 -0.7898
 7245SOL     OW33370   2.561   3.071   4.660  0.1321  0.2804  0.0912
 7245SOL    HW133371   2.608   3.043   4.738  0.8574  1.6079  0.1396
 7245SOL    HW233372   2.510   2.993   4.637 -0.8079 -0.1164  3.5947
 7246SOL     OW33373   0.284   0.983   3.618  0.4362 -0.3502 -0.6825
 7246SOL    HW133374   0.326   0.922   3.557 -0.3924 -1.3529 -0.2551
 7246SOL    HW233375   0.321   1.066   3.587 -2.5868  1.0631 -0.4278
 7247SOL     OW33376   3.008   0.129  12.067  0.0852 -0.5541  0.4475
 7247SOL    HW133377   2.974   0.219  12.067  0.0477 -0.5659  1.3567
 7247SOL    HW233378   3.091   0.152  12.026 -0.3809 -1.1866 -0.8453
 7248SOL     OW33379   1.448   1.569   3.095  0.5666  0.9163  0.2592
 7248SOL    HW133380   1.515   1.504   3.115  0.6660  1.4197  1.5598
 7248SOL    HW233381   1.448   1.582   3.000 -1.5768  2.6442  0.4834
 7249SOL     OW33382   3.768   0.322   8.635  0.1689  0.6812 -0.0825
 7249SOL    HW133383   3.766   0.232   8.667 -1.3308  0.6973 -0.1606
 7249SOL    HW233384   3.722   0.365   8.706 -1.0926 -1.1350  0.1995
 7250SOL     OW33385   4.590   2.074   5.755 -0.2655  0.0867  0.0208
 7250SOL    HW133386   4.679   2.107   5.747 -0.2876  0.1113 -0.1195
 7250SOL    HW233387   4.584   1.998   5.698 -0.1300 -0.8515  1.2471
 7251SOL     OW33388   1.281   0.060  13.784  0.0110  0.0404 -0.3671
 7251SOL    HW133389   1.305   0.023  13.699  0.8421  0.8025 -0.4577
 7251SOL    HW233390   1.328   4.732  13.840  0.1556  2.2200  1.9231
 7252SOL     OW33391   0.991   0.949   2.993  0.0979  0.0317 -0.6936
 7252SOL    HW133392   0.986   1.032   2.947  0.6285 -1.3700 -3.2918
 7252SOL    HW233393   0.937   0.891   2.939  0.2025 -1.2995  0.6072
 7253SOL     OW33394   2.629   1.929   4.120  0.2901  0.1431 -0.2842
 7253SOL    HW133395   2.634   1.963   4.210  1.3666  1.8992 -1.0259
 7253SOL    HW233396   2.542   1.891   4.107  1.3787 -2.6926  0.6254
 7254SOL     OW33397   3.069   0.549  15.116 -0.2824  0.5430 -0.2442
 7254SOL    HW133398   3.112   0.555  15.031  3.2385  0.7811  1.5716
 7254SOL    HW233399   3.066   0.456  15.135  0.6183  0.3520 -1.0027
 7255SOL     OW33400   2.681   1.379  15.431  0.2745  0.0447 -0.0104
 7255SOL    HW133401   2.597   1.409  15.397 -0.6992 -1.6504  0.9096
 7255SOL    HW233402   2.669   1.409  15.521  0.3386 -1.6543  0.5733
 7256SOL     OW33403   2.132   1.509   7.618 -0.1316 -0.1290  0.1757
 7256SOL    HW133404   2.112   1.479   7.706  2.3702 -0.3820  0.6614
 7256SOL    HW233405   2.206   1.455   7.590  0.0462 -0.1543  0.7088
 7257SOL     OW33406   3.396   2.901   1.195  1.0008 -0.1935  0.5458
 7257SOL    HW133407   3.444   2.883   1.114 -0.8246 -1.8233 -0.1699
 7257SOL    HW233408   3.367   2.990   1.176 -0.0838 -0.7536 -0.4072
 7258SOL     OW33409   0.422   0.214  14.417 -0.0984 -1.3219 -0.0969
 7258SOL    HW133410   0.479   0.220  14.494 -0.6169 -2.3941  0.3673
 7258SOL    HW233411   0.484   0.209  14.344  0.5191 -0.2357  0.3551
 7259SOL     OW33412   4.488   4.623   2.191 -0.2063  0.3947 -0.2507
 7259SOL    HW133413   4.447   4.618   2.278 -0.6373  1.2519 -0.4046
 7259SOL    HW233414   4.499   4.718   2.188 -1.3794  0.5671  0.8949
 7260SOL     OW33415   1.394   1.099   7.454  0.5862 -0.2624  0.4479
 7260SOL    HW133416   1.402   1.118   7.360  0.0271 -0.3052  0.3880
 7260SOL    HW233417   1.473   1.140   7.488 -0.4637  1.2137  1.1332
 7261SOL     OW33418   0.925   2.050   7.784 -0.2901  0.2072 -0.1600
 7261SOL    HW133419   0.972   2.105   7.723  1.8284 -1.2369  0.1596
 7261SOL    HW233420   0.858   2.014   7.726 -0.1332 -0.6212  0.1690
 7262SOL     OW33421   1.908   0.494   9.430  0.1578 -0.3505  0.0632
 7262SOL    HW133422   1.821   0.455   9.435 -0.8050  1.6976 -0.6361
 7262SOL    HW233423   1.959   0.428   9.384  1.5239  1.0685 -0.4669
 7263SOL     OW33424   4.403   3.010   3.841  0.3254  0.2231  0.5086
 7263SOL    HW133425   4.452   3.044   3.767 -2.9136  3.1845 -0.3045
 7263SOL    HW233426   4.321   2.988   3.796  1.1033 -0.5431 -0.5335
 7264SOL     OW33427   1.842   3.021   4.780  0.0594 -0.2133 -0.3864
 7264SOL    HW133428   1.921   3.034   4.833  1.0671 -2.1155 -1.4143
 7264SOL    HW233429   1.837   3.106   4.738  0.0828  0.0118  0.0697
 7265SOL     OW33430   2.283   1.407   4.566 -0.3711  0.1384 -0.2740
 7265SOL    HW133431   2.268   1.353   4.643  3.8491  0.1647  0.5565
 7265SOL    HW233432   2.376   1.429   4.576 -0.7592  1.1244  1.1299
 7266SOL     OW33433   0.101   2.086  15.127 -0.1572  0.0072 -0.1061
 7266SOL    HW133434   0.012   2.120  15.135 -0.8222 -1.5465 -0.9129
 7266SOL    HW233435   0.113   2.054  15.037  2.2103 -1.1343  0.6173
 7267SOL     OW33436   1.125   1.421   2.420 -0.3000 -0.1956  0.3274
 7267SOL    HW133437   1.207   1.464   2.395 -0.5313 -0.9270 -1.7119
 7267SOL    HW233438   1.078   1.483   2.476 -0.9902 -0.6219  0.2209
 7268SOL     OW33439   4.364   0.106   3.718  0.2579  0.4095  0.1168
 7268SOL    HW133440   4.447   0.060   3.705  0.3247  0.9332 -1.3768
 7268SOL    HW233441   4.297   0.049   3.679 -0.0949  0.1016  1.1886
 7269SOL     OW33442   4.441   1.377   8.284  0.0568 -0.2673 -0.1969
 7269SOL    HW133443   4.386   1.320   8.230 -0.1412 -1.2709  1.0772
 7269SOL    HW233444   4.385   1.454   8.295  1.9934  1.0986  0.1298
 7270SOL     OW33445   1.608   1.870   8.625 -0.1338 -0.2053 -0.0786
 7270SOL    HW133446   1.523   1.847   8.663 -0.1229 -0.6736 -0.3258
 7270SOL    HW233447   1.671   1.851   8.694 -0.3882 -0.2930  0.1263
 7271SOL     OW33448   0.629   0.703   3.885 -0.5403 -0.1066 -0.2214
 7271SOL    HW133449   0.653   0.636   3.822  2.8556  1.2441 -0.3815
 7271SOL    HW233450   0.534   0.705   3.876 -0.8725 -0.7868  3.1756
 7272SOL     OW33451   0.509   2.596   8.448 -0.3728 -0.0787 -0.5118
 7272SOL    HW133452   0.515   2.670   8.387 -0.1821  0.3276 -0.0014
 7272SOL    HW233453   0.472   2.642   8.523 -0.3533  0.3070 -0.7328
 7273SOL     OW33454   1.105   1.030  11.807  0.0924  0.6163  0.0709
 7273SOL    HW133455   1.108   0.935  11.793 -3.0378  0.5390 -0.0275
 7273SOL    HW233456   1.200   1.043  11.798  0.4399 -1.8299 -0.0879
 7274SOL     OW33457   2.709   3.535   1.814 -0.3183  0.0909  0.1809
 7274SOL    HW133458   2.616   3.536   1.794 -0.4042  2.3159  0.6911
 7274SOL    HW233459   2.722   3.443   1.790  1.2145  1.3766 -3.9433
 7275SOL     OW33460   3.904   4.045   7.944  0.0661 -0.1069 -0.0120
 7275SOL    HW133461   3.914   4.033   8.039  0.9999 -2.2785 -0.3883
 7275SOL    HW233462   3.852   4.125   7.949  1.3277  0.5852  2.0474
 7276SOL     OW33463   3.764   4.523  14.329  0.0249 -0.2915  0.0941
 7276SOL    HW133464   3.757   4.616  14.309 -0.3297  0.1872  2.3613
 7276SOL    HW233465   3.712   4.486  14.258 -0.2683 -0.9832  0.6658
 7277SOL     OW33466   3.767   4.692   7.056 -0.6547  0.3583  0.0825
 7277SOL    HW133467   3.682   0.001   7.066  0.1415  1.5863  1.6385
 7277SOL    HW233468   3.753   4.651   6.971  1.7986  0.6962 -0.4904
 7278SOL     OW33469   1.115   1.324   0.903  0.1068  0.0163 -0.0070
 7278SOL    HW133470   1.148   1.270   0.830  2.1441  1.8528 -0.4414
 7278SOL    HW233471   1.202   1.360   0.920  0.5057 -1.1411  0.4278
 7279SOL     OW33472   3.639   3.474   0.544 -0.4676  0.1541  0.3533
 7279SOL    HW133473   3.585   3.474   0.623 -0.7521 -0.0807  0.1551
 7279SOL    HW233474   3.649   3.568   0.527  0.5973 -0.4055 -2.1246
 7280SOL     OW33475   1.317   3.450   2.942  0.3432  0.2934 -0.5199
 7280SOL    HW133476   1.298   3.498   3.023  0.0786 -0.4741 -0.1284
 7280SOL    HW233477   1.294   3.510   2.871  3.6105 -0.9161 -2.6305
 7281SOL     OW33478   2.724   1.765   8.533 -0.2904  0.4911 -0.6653
 7281SOL    HW133479   2.652   1.804   8.583  0.6071  1.0209  0.2238
 7281SOL    HW233480   2.788   1.837   8.531  0.3966 -0.0832  0.9918
 7282SOL     OW33481   2.715   3.696   5.536 -0.1562 -0.1809 -0.3791
 7282SOL    HW133482   2.798   3.663   5.502 -0.7120 -1.7744 -0.1762
 7282SOL    HW233483   2.749   3.771   5.585 -0.9164  0.8325 -1.3863
 7283SOL     OW33484   1.370   1.379   0.464 -0.5488 -0.5228 -0.3104
 7283SOL    HW133485   1.291   1.372   0.518 -0.9989  0.0912 -0.8827
 7283SOL    HW233486   1.403   1.465   0.490 -0.1230  0.1040 -2.9199
 7284SOL     OW33487   3.496   1.042   5.706  0.4835  0.4312 -0.5544
 7284SOL    HW133488   3.540   1.056   5.790  0.4716  2.3573 -0.8579
 7284SOL    HW233489   3.503   1.132   5.674 -0.2878  0.1457 -1.5251
 7285SOL     OW33490   1.611   3.764   4.122  0.0553 -0.6959  0.4983
 7285SOL    HW133491   1.694   3.718   4.138  0.0954 -0.5924  0.5858
 7285SOL    HW233492   1.553   3.698   4.161 -0.3096  0.2250  1.4824
 7286SOL     OW33493   2.026   0.198   9.897  0.0025 -0.2830  0.0504
 7286SOL    HW133494   2.029   0.281   9.849  0.4363  0.3558  1.1793
 7286SOL    HW233495   1.997   0.153   9.818  0.0897 -2.1465  1.0841
 7287SOL     OW33496   4.357   0.869   2.773 -0.6612 -0.0296 -0.3172
 7287SOL    HW133497   4.325   0.846   2.860 -0.2009 -1.4497 -0.5093
 7287SOL    HW233498   4.284   0.835   2.721 -1.1447  0.1111  0.2798
 7288SOL     OW33499   0.482   3.783   3.339 -0.2574  0.0233 -0.0979
 7288SOL    HW133500   0.442   3.870   3.340 -1.0964 -0.3380 -1.4668
 7288SOL    HW233501   0.531   3.788   3.258 -0.6904 -2.5127 -0.5262
 7289SOL     OW33502   0.355   1.594  17.495  0.3673 -0.5814  0.5948
 7289SOL    HW133503   0.267   1.558  17.505 -0.2071  0.5527 -0.4893
 7289SOL    HW233504   0.373   1.634  17.580  0.7085  1.7078 -0.5711
 7290SOL     OW33505   0.227   4.519   9.422  0.2892  0.5394  0.0335
 7290SOL    HW133506   0.197   4.590   9.479 -0.2985  1.3418 -1.2723
 7290SOL    HW233507   0.156   4.507   9.359 -2.0746  1.3357  2.5982
 7291SOL     OW33508   0.299   4.327  17.173  0.7412 -0.1953  0.0054
 7291SOL    HW133509   0.250   4.352  17.251 -2.6949 -1.4900 -1.7443
 7291SOL    HW233510   0.369   4.392  17.173 -0.2043  0.8354  0.1490
 7292SOL     OW33511   0.868   3.528   7.845 -0.1387 -0.3227  0.2915
 7292SOL    HW133512   0.891   3.573   7.926  1.5089 -1.1094  0.2691
 7292SOL    HW233513   0.857   3.440   7.881 -3.3117 -0.7015 -1.5677
 7293SOL     OW33514   1.855   2.755   8.382  0.4782 -0.2792 -0.5457
 7293SOL    HW133515   1.782   2.695   8.374 -0.2815  0.5672  0.0172
 7293SOL    HW233516   1.853   2.792   8.294 -1.8018  0.6619 -0.0840
 7294SOL     OW33517   3.112   3.926  16.899 -0.8753  0.0070  0.1617
 7294SOL    HW133518   3.182   3.986  16.871 -1.0036  0.4727  0.8309
 7294SOL    HW233519   3.115   3.875  16.818  1.4243  0.1331  0.1561
 7295SOL     OW33520   0.468   4.071   6.392 -0.3002  0.1743  0.4969
 7295SOL    HW133521   0.508   4.017   6.460 -0.4039  0.7551  1.0225
 7295SOL    HW233522   0.544   4.088   6.337 -1.6710  1.1515 -1.1182
 7296SOL     OW33523   3.074   2.163   2.488 -0.1629 -0.9182  0.0329
 7296SOL    HW133524   3.130   2.095   2.525  1.0711  0.1120  0.0661
 7296SOL    HW233525   2.994   2.146   2.538 -0.7464  1.1042 -0.2135
 7297SOL     OW33526   3.152   2.883   3.193  0.3013  0.1011 -0.8875
 7297SOL    HW133527   3.181   2.792   3.182  0.4289  0.0465 -0.0824
 7297SOL    HW233528   3.233   2.918   3.229  0.1146  2.0085 -2.2943
 7298SOL     OW33529   1.423   2.356   6.798 -0.3784  0.4591 -0.5176
 7298SOL    HW133530   1.480   2.292   6.840  0.1029  0.6987 -0.8039
 7298SOL    HW233531   1.427   2.325   6.707 -0.7193  0.1015 -0.4093
 7299SOL     OW33532   3.026   1.577   2.969 -0.3961  0.2454 -0.1665
 7299SOL    HW133533   3.028   1.653   3.026 -0.2862  1.1339 -1.3432
 7299SOL    HW233534   3.119   1.553   2.964 -0.3726  0.4368 -0.7339
 7300SOL     OW33535   2.280   3.044   1.827 -0.0258 -0.2375  0.4913
 7300SOL    HW133536   2.370   3.061   1.852 -0.0622  1.9715 -0.8583
 7300SOL    HW233537   2.287   2.955   1.792  1.2154  0.6314 -1.4296
 7301SOL     OW33538   1.107   1.814   6.134  0.0345 -0.0335 -0.2005
 7301SOL    HW133539   1.028   1.822   6.081 -0.6175  1.5418  1.0219
 7301SOL    HW233540   1.174   1.788   6.071 -0.5464 -0.2482 -0.7347
 7302SOL     OW33541   1.777   0.732   1.905 -0.0692  0.1764 -0.3501
 7302SOL    HW133542   1.722   0.672   1.854  2.1979 -0.3637 -2.1286
 7302SOL    HW233543   1.861   0.708   1.866  0.3481  1.0970 -0.0088
 7303SOL     OW33544   1.262   2.348  11.115 -0.4162 -0.4420  0.0458
 7303SOL    HW133545   1.291   2.438  11.097 -3.4471  0.4747 -0.2035
 7303SOL    HW233546   1.253   2.350  11.210  0.0820  0.6886  0.0741
 7304SOL     OW33547   2.543   4.232   8.577 -0.3963 -0.1934  0.3569
 7304SOL    HW133548   2.522   4.177   8.501 -1.1324 -0.9017  1.0684
 7304SOL    HW233549   2.610   4.176   8.616  1.6194 -0.8225 -3.9846
 7305SOL     OW33550   4.218   4.473   4.028 -0.2043 -0.2071 -0.0128
 7305SOL    HW133551   4.170   4.544   3.985 -2.0102 -1.9304 -0.7895
 7305SOL    HW233552   4.241   4.513   4.113  0.8489  1.9590 -1.3151
 7306SOL     OW33553   1.479   3.258   2.715  0.6638 -0.5884 -0.1199
 7306SOL    HW133554   1.442   3.291   2.797  0.6062 -0.6105 -0.1365
 7306SOL    HW233555   1.513   3.339   2.677  0.5008 -0.2943  0.3631
 7307SOL     OW33556   2.267   3.562   8.930 -0.4081  0.1211 -0.1147
 7307SOL    HW133557   2.349   3.515   8.918 -0.7713 -0.1540 -1.5119
 7307SOL    HW233558   2.234   3.513   9.006  0.5940  1.4153  1.1604
 7308SOL     OW33559   3.127   3.402   3.632 -0.3327  0.2328 -0.6493
 7308SOL    HW133560   3.162   3.350   3.560 -3.5083 -0.7681 -1.4546
 7308SOL    HW233561   3.153   3.352   3.709  0.3253  1.9794  0.2783
 7309SOL     OW33562   1.291   4.440   7.313 -0.2692 -0.0519 -0.2011
 7309SOL    HW133563   1.320   4.529   7.296 -0.8731  0.2354  0.2608
 7309SOL    HW233564   1.199   4.465   7.325  0.0880  1.3924 -0.4958
 7310SOL     OW33565   2.804   2.567   6.327  0.0196  0.0397 -0.5070
 7310SOL    HW133566   2.819   2.630   6.257 -0.7024  1.2580  0.4251
 7310SOL    HW233567   2.769   2.486   6.291 -1.2083  0.9489 -1.3631
 7311SOL     OW33568   0.260   2.082   7.679 -0.1806  0.4799 -0.7450
 7311SOL    HW133569   0.217   2.166   7.660 -1.3496  0.2989  1.0243
 7311SOL    HW233570   0.281   2.096   7.771 -0.1767 -1.0056 -0.5150
 7312SOL     OW33571   4.004   1.349   1.852 -0.1699  0.1351  0.6136
 7312SOL    HW133572   4.027   1.347   1.945 -0.2712  0.6035  0.6482
 7312SOL    HW233573   4.092   1.376   1.824  0.3674  0.1351  2.3259
 7313SOL     OW33574   2.555   0.376   7.489  0.0486 -0.4362  0.2487
 7313SOL    HW133575   2.582   0.300   7.541  0.4230  0.6047  1.5598
 7313SOL    HW233576   2.500   0.348   7.415  1.0332 -1.4233 -0.1022
 7314SOL     OW33577   3.374   2.281   5.717 -0.1514  0.2072 -0.2917
 7314SOL    HW133578   3.341   2.275   5.807  0.6067  2.0040  0.0950
 7314SOL    HW233579   3.294   2.289   5.664 -0.0822  0.9919 -0.2661
 7315SOL     OW33580   0.879   1.717   1.892 -0.6207  0.0475  0.4422
 7315SOL    HW133581   0.846   1.666   1.966 -2.8988  1.9367  0.7394
 7315SOL    HW233582   0.917   1.796   1.930  0.9160 -1.1040  1.2720
 7316SOL     OW33583   4.196   0.412   7.662 -0.8385  0.5909 -0.0826
 7316SOL    HW133584   4.204   0.372   7.749  0.5271  0.6540 -0.1741
 7316SOL    HW233585   4.264   0.364   7.615  0.3163  1.8108  0.3308
 7317SOL     OW33586   2.535   0.538  11.389  0.3174  0.0697 -0.0457
 7317SOL    HW133587   2.612   0.482  11.394 -0.3602 -1.0157 -1.8294
 7317SOL    HW233588   2.465   0.473  11.393 -0.7497  1.2924  1.3348
 7318SOL     OW33589   1.947   0.937   6.804 -0.3193 -0.1444  0.0049
 7318SOL    HW133590   1.973   1.014   6.753 -1.1168 -0.1600 -0.4113
 7318SOL    HW233591   1.879   0.981   6.854 -0.5031  0.2712 -0.6107
 7319SOL     OW33592   2.171   4.508   4.672  0.0060  0.0551 -0.1191
 7319SOL    HW133593   2.222   4.427   4.674 -1.6909 -1.0428 -0.8711
 7319SOL    HW233594   2.177   4.524   4.766 -2.9680 -0.2101  0.1087
 7320SOL     OW33595   4.302   1.686   8.568 -0.6408  0.1392 -0.1497
 7320SOL    HW133596   4.393   1.714   8.576 -0.6695  0.2278 -0.1327
 7320SOL    HW233597   4.261   1.759   8.614  1.4609 -0.8291  3.2210
 7321SOL     OW33598   0.508   1.976  14.937 -0.3132  0.6036  0.0612
 7321SOL    HW133599   0.444   2.009  15.001  0.1901 -0.0222  0.8923
 7321SOL    HW233600   0.465   1.912  14.881 -1.7600  0.8291  0.8942
 7322SOL     OW33601   1.408   2.443   6.047  0.1148  0.4644  0.0461
 7322SOL    HW133602   1.474   2.509   6.026 -2.2102  2.3288 -1.4478
 7322SOL    HW233603   1.448   2.414   6.129  0.2259  0.3466 -0.0512
 7323SOL     OW33604   2.325   3.991   7.051  0.2085 -0.0602 -0.0268
 7323SOL    HW133605   2.229   3.986   7.043  0.3181 -2.9470  0.5177
 7323SOL    HW233606   2.340   3.908   7.096  0.7090 -0.1716 -0.4117
 7324SOL     OW33607   3.012   4.545   2.374 -0.0952  0.0068 -0.6425
 7324SOL    HW133608   2.970   4.619   2.329  1.6207  1.0941 -0.4789
 7324SOL    HW233609   3.078   4.534   2.306 -0.7982 -3.3096 -0.7553
 7325SOL     OW33610   4.518   4.468   5.620  0.0410 -0.4163 -0.2365
 7325SOL    HW133611   4.522   4.392   5.561 -0.8918 -0.1659 -0.6226
 7325SOL    HW233612   4.424   4.484   5.628  0.1047 -0.2567  0.1690
 7326SOL     OW33613   4.404   1.192  13.278 -0.2618  0.5545 -0.1151
 7326SOL    HW133614   4.476   1.156  13.331  1.7719  0.3940 -2.9871
 7326SOL    HW233615   4.332   1.194  13.341 -0.0495 -1.8337  0.2109
 7327SOL     OW33616   2.539   4.137   7.212  0.2243  0.1251  0.3659
 7327SOL    HW133617   2.505   4.225   7.196 -0.2471 -0.1755 -0.3073
 7327SOL    HW233618   2.469   4.090   7.167 -0.4003  0.9721  0.4445
 7328SOL     OW33619   1.700   0.129   7.800  0.1123  1.2296  0.0288
 7328SOL    HW133620   1.725   0.218   7.773 -2.0395  1.7122 -0.3956
 7328SOL    HW233621   1.748   0.117   7.882  0.0292  0.2477 -0.0717
 7329SOL     OW33622   0.331   4.689   3.518 -0.2736  0.4505 -0.2515
 7329SOL    HW133623   0.299   4.661   3.604  2.1443 -3.6281 -0.6686
 7329SOL    HW233624   0.407   4.631   3.509 -2.0801 -1.6736 -1.7098
 7330SOL     OW33625   4.285   4.135   3.576 -0.0111  0.4362 -0.2997
 7330SOL    HW133626   4.305   4.076   3.503 -0.7062 -0.1860  0.0151
 7330SOL    HW233627   4.326   4.214   3.541  1.8326 -0.7667 -0.8714
 7331SOL     OW33628   0.756   0.748   8.232 -0.4839  0.2496 -0.3010
 7331SOL    HW133629   0.766   0.831   8.278  1.5705 -0.3216  0.3009
 7331SOL    HW233630   0.848   0.723   8.222 -0.9935 -1.5353 -0.4384
 7332SOL     OW33631   4.582   1.779   8.240 -0.0934 -0.5191  0.4021
 7332SOL    HW133632   4.676   1.792   8.240 -0.3905  1.6925 -2.1877
 7332SOL    HW233633   4.570   1.767   8.334 -2.3387  2.9139  0.5594
 7333SOL     OW33634   1.889   2.932   2.031 -0.2452  0.1172 -0.5750
 7333SOL    HW133635   1.802   2.916   2.069  0.4439 -0.7306  0.6291
 7333SOL    HW233636   1.902   2.846   1.991  0.6390 -0.8947  1.9117
 7334SOL     OW33637   4.540   4.103   7.864 -0.3107  0.9261  0.3688
 7334SOL    HW133638   4.499   4.027   7.907 -0.0109  0.2824 -0.4805
 7334SOL    HW233639   4.527   4.174   7.927 -1.2082 -0.5227  1.8077
 7335SOL     OW33640   0.349   4.407   2.894  0.1349  0.1860  0.3180
 7335SOL    HW133641   0.290   4.432   2.824  1.8188  1.5594 -0.6120
 7335SOL    HW233642   0.333   4.315   2.916 -0.4309 -0.1311 -1.4329
 7336SOL     OW33643   3.056   4.286  17.240 -0.4114  0.2008 -0.4182
 7336SOL    HW133644   3.140   4.261  17.201 -1.4426 -0.3034 -2.2932
 7336SOL    HW233645   3.003   4.211  17.213  0.3653 -0.3328 -0.4811
 7337SOL     OW33646   0.451   1.418  10.223 -0.6140  0.0127 -0.2719
 7337SOL    HW133647   0.520   1.397  10.159 -1.2467  2.5567 -1.8067
 7337SOL    HW233648   0.379   1.361  10.198 -0.5064 -0.8297  1.3407
 7338SOL     OW33649   0.500   0.092   6.491  0.5451  0.1526  0.3219
 7338SOL    HW133650   0.509   0.146   6.569  0.6245 -0.7466  0.9334
 7338SOL    HW233651   0.488   0.156   6.420  0.2825  0.4988  0.6736
 7339SOL     OW33652   2.573   2.292   7.718 -0.1063  0.8167  0.3706
 7339SOL    HW133653   2.629   2.216   7.701  0.9127  2.1243 -2.0784
 7339SOL    HW233654   2.564   2.324   7.629  2.0776  2.2772  0.6647
 7340SOL     OW33655   3.795   1.569   0.228 -0.2781  0.4774 -0.1552
 7340SOL    HW133656   3.845   1.518   0.165  2.2806 -0.8194  2.9456
 7340SOL    HW233657   3.702   1.545   0.221 -0.4181  0.7202  0.8848
 7341SOL     OW33658   1.699   4.415   6.022 -0.2599  0.6979 -0.5694
 7341SOL    HW133659   1.665   4.387   5.937  2.3270 -1.7437 -0.8165
 7341SOL    HW233660   1.778   4.461   5.993  1.5671 -1.4461  1.0115
 7342SOL     OW33661   0.361   0.378   1.353 -0.5525  0.3906  0.4960
 7342SOL    HW133662   0.357   0.340   1.265  2.2185 -1.4807  1.1701
 7342SOL    HW233663   0.270   0.404   1.368 -0.2005  1.1894  1.2371
 7343SOL     OW33664   1.897   2.419  14.992  0.3883 -0.7179 -0.3320
 7343SOL    HW133665   1.877   2.427  15.085  0.4325  1.6933 -0.5263
 7343SOL    HW233666   1.941   2.334  14.987 -1.9402 -1.9146 -0.6628
 7344SOL     OW33667   0.688   1.111   7.704 -0.6581  0.7807  0.1534
 7344SOL    HW133668   0.769   1.149   7.669  0.7763  0.5363  3.1694
 7344SOL    HW233669   0.709   1.017   7.699 -2.3208  0.6028 -2.8058
 7345SOL     OW33670   1.363   3.057  14.976  0.3641 -0.0676  0.1321
 7345SOL    HW133671   1.442   3.104  15.002 -0.2432 -0.6213  2.9830
 7345SOL    HW233672   1.382   2.967  15.003  0.0181 -0.0755  0.3361
 7346SOL     OW33673   1.328   1.003   8.023 -0.5620  0.2937  0.2763
 7346SOL    HW133674   1.258   0.943   7.997  0.5557 -0.7249 -0.3622
 7346SOL    HW233675   1.402   0.961   7.979  0.0401  1.1020  0.5007
 7347SOL     OW33676   1.360   1.991   8.072 -0.3417 -0.4789 -0.2258
 7347SOL    HW133677   1.334   1.899   8.065  1.7695 -1.2098  1.6520
 7347SOL    HW233678   1.354   2.017   8.164  0.5511  0.7094 -0.5086
 7348SOL     OW33679   1.596   4.626   8.117 -0.0558  0.4943 -0.1282
 7348SOL    HW133680   1.573   4.716   8.141  0.3215  1.0068 -1.6275
 7348SOL    HW233681   1.577   4.632   8.023 -2.7573 -2.7522  0.2176
 7349SOL     OW33682   2.103   2.282   8.492  0.3504  0.6364  0.3307
 7349SOL    HW133683   2.060   2.353   8.541 -0.7563 -0.8831  1.5496
 7349SOL    HW233684   2.036   2.269   8.425  0.2508 -2.3021  1.0165
 7350SOL     OW33685   2.289   4.727  17.106 -0.4526 -0.0858 -0.2180
 7350SOL    HW133686   2.367   4.724  17.051  1.3469  1.4045  2.2259
 7350SOL    HW233687   2.271   4.640  17.140  0.8214 -0.1999  0.1779
 7351SOL     OW33688   3.740   3.713   3.595  0.0075  0.3447  0.5190
 7351SOL    HW133689   3.830   3.687   3.617  1.4715  4.6157 -0.3644
 7351SOL    HW233690   3.690   3.632   3.609 -0.7649  0.8107  0.4608
 7352SOL     OW33691   0.214   3.378   9.556  0.1339 -0.2823 -0.4356
 7352SOL    HW133692   0.181   3.355   9.642 -1.9505 -1.1861 -1.4734
 7352SOL    HW233693   0.237   3.471   9.558 -1.8700  0.2215 -0.6082
 7353SOL     OW33694   2.077   1.852  11.114 -0.7623 -0.0214  0.0619
 7353SOL    HW133695   2.134   1.925  11.092 -0.5282  0.2414  1.5708
 7353SOL    HW233696   1.989   1.890  11.116 -0.4152  0.7394  0.4987
 7354SOL     OW33697   1.532   0.523   9.149  0.1609 -0.0919  0.0699
 7354SOL    HW133698   1.515   0.471   9.071 -3.3103 -1.0187  1.4514
 7354SOL    HW233699   1.580   0.455   9.197 -0.4976  0.3708  1.3826
 7355SOL     OW33700   0.016   1.048   9.356 -0.7756 -0.1617 -0.0917
 7355SOL    HW133701   4.716   1.034   9.445 -0.1595  0.8724  0.3053
 7355SOL    HW233702   0.107   1.026   9.375 -0.5197 -0.6803 -1.9311
 7356SOL     OW33703   2.936   3.586   7.240  0.5732  0.2817  0.4332
 7356SOL    HW133704   2.952   3.680   7.253  1.9868  0.2906 -1.3356
 7356SOL    HW233705   2.902   3.568   7.152  2.2698 -0.6618 -0.0371
 7357SOL     OW33706   3.881   3.589  14.476  0.1401  0.6959 -0.1660
 7357SOL    HW133707   3.809   3.642  14.510 -0.6345 -0.3664 -0.1579
 7357SOL    HW233708   3.957   3.620  14.526 -0.1060  2.3832 -0.8209
 7358SOL     OW33709   0.981   4.159   5.811 -0.1689 -0.0202 -0.1195
 7358SOL    HW133710   0.927   4.238   5.809  0.0979  0.1765  0.6137
 7358SOL    HW233711   0.945   4.119   5.731 -1.3996 -0.1018  0.4717
 7359SOL     OW33712   3.470   0.358   3.572 -0.1374 -0.1220  0.2043
 7359SOL    HW133713   3.453   0.345   3.479 -0.5726 -0.3988  0.3228
 7359SOL    HW233714   3.563   0.382   3.566 -0.3835  0.2095 -2.2722
 7360SOL     OW33715   3.367   0.338   4.017  0.5472  0.1473  0.3945
 7360SOL    HW133716   3.423   0.409   3.985  1.3167 -0.4899  0.3210
 7360SOL    HW233717   3.311   0.386   4.077  1.9814  0.8950  1.1398
 7361SOL     OW33718   3.994   3.453   5.152 -0.2207  0.0697 -0.1678
 7361SOL    HW133719   4.071   3.494   5.191 -1.8476  2.2847  0.7092
 7361SOL    HW233720   3.996   3.370   5.200 -1.7737  0.4337  0.5229
 7362SOL     OW33721   3.512   1.556   8.289  0.1887 -0.3554  0.0297
 7362SOL    HW133722   3.525   1.632   8.233 -0.3852 -0.7719 -0.6652
 7362SOL    HW233723   3.474   1.488   8.234 -1.8715  1.5775 -0.9129
 7363SOL     OW33724   3.384   1.880   7.825 -0.1584 -0.4120 -0.0011
 7363SOL    HW133725   3.451   1.888   7.757 -0.0796 -1.1731 -0.0109
 7363SOL    HW233726   3.367   1.968   7.859 -0.8110  0.2827 -2.1217
 7364SOL     OW33727   4.264   3.981   4.243 -0.3537  0.3407 -0.5817
 7364SOL    HW133728   4.263   3.888   4.220 -1.0613 -0.1459  1.3854
 7364SOL    HW233729   4.168   3.989   4.243 -0.4342 -0.6675 -0.6661
 7365SOL     OW33730   2.956   3.211   9.635 -0.4227  0.4197  0.2036
 7365SOL    HW133731   2.868   3.185   9.608 -0.6901  1.1569  0.3515
 7365SOL    HW233732   2.945   3.211   9.730  3.1400  0.7733  0.6042
 7366SOL     OW33733   3.678   4.082   2.170 -0.0590  0.4931  0.0448
 7366SOL    HW133734   3.740   4.069   2.097 -0.9457  0.8215 -0.7721
 7366SOL    HW233735   3.736   4.048   2.237 -0.8203 -0.5869  0.1475
 7367SOL     OW33736   4.240   2.133   5.703  0.3505  0.4355 -0.1921
 7367SOL    HW133737   4.300   2.208   5.696  0.7847  0.1672  0.7059
 7367SOL    HW233738   4.219   2.134   5.796  2.8544  3.0293  0.3514
 7368SOL     OW33739   0.496   0.047   6.173 -0.0043  1.0543 -0.3492
 7368SOL    HW133740   0.454   0.116   6.224  1.5001  1.6800  0.0345
 7368SOL    HW233741   0.447   4.700   6.190 -0.2918  0.7772 -2.3919
 7369SOL     OW33742   2.193   0.780   5.718 -0.4625  0.3182 -0.3733
 7369SOL    HW133743   2.118   0.823   5.678 -1.2179 -1.0946 -0.4873
 7369SOL    HW233744   2.172   0.803   5.809  0.2904  1.1679 -0.4126
 7370SOL     OW33745   2.360   0.133   3.481  0.0785  0.0789 -0.7609
 7370SOL    HW133746   2.425   0.103   3.544 -0.1629  0.4540 -0.3311
 7370SOL    HW233747   2.386   0.073   3.411 -1.5241 -1.4320 -0.0614
 7371SOL     OW33748   3.988   0.891  16.406 -0.3996  0.4671 -0.1839
 7371SOL    HW133749   4.033   0.974  16.391 -0.7645  0.6256 -0.3948
 7371SOL    HW233750   3.911   0.893  16.348 -0.0555 -1.2679 -0.7147
 7372SOL     OW33751   0.778   2.505   2.795 -0.0736  0.5164 -0.1400
 7372SOL    HW133752   0.706   2.498   2.733 -0.2700  0.0347  0.1383
 7372SOL    HW233753   0.812   2.415   2.793  0.0275  0.4603  2.9554
 7373SOL     OW33754   3.272   2.322  14.741 -0.8318  0.1094  0.0887
 7373SOL    HW133755   3.319   2.239  14.734 -2.1102 -0.5770 -0.2846
 7373SOL    HW233756   3.199   2.278  14.785  1.5630 -2.8899  1.0266
 7374SOL     OW33757   2.496   0.767   8.634  0.1878  0.1823  0.0616
 7374SOL    HW133758   2.416   0.814   8.608  0.3054 -0.4418 -1.4230
 7374SOL    HW233759   2.565   0.831   8.618  1.7712 -1.4028  0.5975
 7375SOL     OW33760   2.751   0.236  10.522  0.4755  0.1290 -0.3887
 7375SOL    HW133761   2.805   0.214  10.597 -0.8189  2.1327  1.1328
 7375SOL    HW233762   2.672   0.269  10.565 -0.6569 -1.9566 -0.8673
 7376SOL     OW33763   1.490   3.264  14.725  0.0375  0.0734 -0.1431
 7376SOL    HW133764   1.550   3.190  14.718 -0.0545 -0.1211  1.0195
 7376SOL    HW233765   1.418   3.230  14.778  1.4419 -4.0598 -0.8840
 7377SOL     OW33766   3.348   0.923  10.960 -0.0450 -0.5371  0.0200
 7377SOL    HW133767   3.265   0.971  10.964 -0.1685 -1.2526  6.3499
 7377SOL    HW233768   3.399   0.968  11.028  0.6062 -0.4713 -0.5171
 7378SOL     OW33769   0.532   2.188  13.754 -0.5361  0.5545 -0.2904
 7378SOL    HW133770   0.526   2.202  13.849  1.5386  0.6139 -0.1549
 7378SOL    HW233771   0.579   2.105  13.742 -0.3578  0.2976  2.1547
 7379SOL     OW33772   1.972   1.457   1.847  1.3375  0.0578  0.0349
 7379SOL    HW133773   1.992   1.504   1.927  0.4317 -0.8800  0.8093
 7379SOL    HW233774   1.916   1.522   1.806  0.5300 -1.2136 -0.8710
 7380SOL     OW33775   3.150   2.763   6.546  0.4700  0.4078 -0.0440
 7380SOL    HW133776   3.212   2.766   6.618 -0.8859  1.3606  1.0831
 7380SOL    HW233777   3.093   2.836   6.570  0.4473 -0.0569  1.2806
 7381SOL     OW33778   1.673   3.318  14.392  0.8308 -0.8015 -0.4508
 7381SOL    HW133779   1.613   3.369  14.446  1.2754 -1.8367  1.0142
 7381SOL    HW233780   1.753   3.370  14.392  0.3227 -0.0217 -0.1110
 7382SOL     OW33781   4.696   2.312   3.436 -0.6906  0.2748  0.7674
 7382SOL    HW133782   4.650   2.385   3.477 -0.6685  1.6833 -1.7440
 7382SOL    HW233783   4.725   2.262   3.512 -1.1185  1.3051  1.5972
 7383SOL     OW33784   0.275   4.630  13.407 -0.4511  0.7950  0.2058
 7383SOL    HW133785   0.320   4.697  13.459 -0.5792  1.5383 -0.6441
 7383SOL    HW233786   0.352   4.601  13.359 -0.4755 -0.7154  1.1049
 7384SOL     OW33787   3.271   4.545   2.737 -0.2953 -0.2160 -0.2759
 7384SOL    HW133788   3.261   4.521   2.829 -1.0531  0.7713 -0.0974
 7384SOL    HW233789   3.270   4.457   2.701  1.4003 -0.3973  0.0807
 7385SOL     OW33790   3.025   0.838  13.697 -0.4440 -0.0788  0.0382
 7385SOL    HW133791   3.052   0.790  13.618 -2.6242  0.9239 -1.3201
 7385SOL    HW233792   3.076   0.782  13.756  0.2918  0.7444  0.1938
 7386SOL     OW33793   4.441   2.514   8.777  0.6838  0.0744 -0.2759
 7386SOL    HW133794   4.519   2.509   8.723 -0.2781 -1.7918 -1.4686
 7386SOL    HW233795   4.451   2.606   8.802  0.8129 -0.0334  0.0629
 7387SOL     OW33796   1.939   3.458  16.104 -0.0787 -0.2925 -0.3452
 7387SOL    HW133797   1.898   3.527  16.052 -0.5567 -0.0029  0.4174
 7387SOL    HW233798   1.864   3.433  16.157  1.0013 -0.4899  1.1041
 7388SOL     OW33799   4.586   1.368  13.528 -0.1587 -0.0089  0.0222
 7388SOL    HW133800   4.666   1.317  13.536 -0.0474 -0.1350 -1.9660
 7388SOL    HW233801   4.525   1.312  13.575  0.6805 -1.6023 -0.7809
 7389SOL     OW33802   2.745   2.073  10.491  0.2128  0.4284  0.3067
 7389SOL    HW133803   2.824   2.122  10.515  0.9397 -0.2661 -0.7107
 7389SOL    HW233804   2.754   2.004  10.557 -0.5306  0.8276  0.8291
 7390SOL     OW33805   4.579   0.669   9.936 -0.8347  0.4724  0.2392
 7390SOL    HW133806   4.508   0.609   9.913 -0.4981  1.0922 -2.3983
 7390SOL    HW233807   4.578   0.674  10.032 -2.1048 -0.5745  0.2774
 7391SOL     OW33808   3.341   0.151  13.591 -0.8617  0.6644 -0.4665
 7391SOL    HW133809   3.346   0.066  13.636  0.4457  1.9922  1.9144
 7391SOL    HW233810   3.256   0.149  13.547 -1.4509  1.8352  0.6449
 7392SOL     OW33811   2.983   2.110  16.256  0.2763 -0.7488 -0.5503
 7392SOL    HW133812   3.070   2.118  16.216  0.0218 -1.2120 -1.1945
 7392SOL    HW233813   2.993   2.036  16.316  3.6327  0.6273  0.5892
 7393SOL     OW33814   0.183   3.435   8.358 -0.2240 -1.0841 -0.0552
 7393SOL    HW133815   0.181   3.387   8.276  0.2439  0.7417 -1.1336
 7393SOL    HW233816   0.201   3.524   8.329 -2.6338 -0.4079  0.5085
 7394SOL     OW33817   4.140   3.416   7.904  0.4028 -0.3801 -0.0025
 7394SOL    HW133818   4.051   3.398   7.937 -0.2267  0.4577 -1.2664
 7394SOL    HW233819   4.166   3.326   7.884  0.1000 -0.3959 -0.3212
 7395SOL     OW33820   4.566   3.417   9.217 -0.8963  0.1053  0.4825
 7395SOL    HW133821   4.625   3.372   9.276  0.2462  1.0894  0.1016
 7395SOL    HW233822   4.487   3.366   9.233  1.2832 -2.4067  3.1142
 7396SOL     OW33823   0.141   3.185   8.549 -0.2649 -0.1484 -0.1292
 7396SOL    HW133824   0.086   3.173   8.626  0.3785 -1.0273  0.1891
 7396SOL    HW233825   0.085   3.199   8.472 -0.4684  0.5310  0.1440
 7397SOL     OW33826   4.495   1.050   3.300  0.5779 -0.2746 -0.0022
 7397SOL    HW133827   4.421   1.050   3.360 -0.2156  1.7793 -0.9808
 7397SOL    HW233828   4.544   0.973   3.330 -1.5498 -1.6244  0.0009
 7398SOL     OW33829   3.105   3.839   3.326 -0.0770  0.0281  0.2055
 7398SOL    HW133830   3.032   3.842   3.264 -1.5445 -0.2811  1.8913
 7398SOL    HW233831   3.125   3.745   3.328 -1.1774 -0.1838  1.5548
 7399SOL     OW33832   2.195   2.208   5.274  0.0570  0.5873 -0.0229
 7399SOL    HW133833   2.127   2.275   5.286  0.8066  1.3803 -0.2065
 7399SOL    HW233834   2.186   2.171   5.362  0.8780 -0.2414 -0.2926
 7400SOL     OW33835   0.717   4.657   8.943 -0.1513 -0.1658  0.4487
 7400SOL    HW133836   0.752   4.627   9.027  0.5996 -0.3798  0.0593
 7400SOL    HW233837   0.622   4.653   8.956  0.0363  0.4227  2.0249
 7401SOL     OW33838   4.397   4.077   1.320  0.3800  0.0477 -0.8382
 7401SOL    HW133839   4.424   3.998   1.274 -1.6830 -1.1903  0.0917
 7401SOL    HW233840   4.390   4.051   1.412  3.3348 -0.4180 -0.7348
 7402SOL     OW33841   3.647   2.666   7.934  0.1097  0.0061  0.1436
 7402SOL    HW133842   3.591   2.743   7.945  0.0213 -0.2533  1.4599
 7402SOL    HW233843   3.608   2.625   7.856  3.6071  0.4997 -1.8258
 7403SOL     OW33844   1.598   2.485   4.882 -0.3848 -0.0760 -0.2734
 7403SOL    HW133845   1.580   2.426   4.809 -0.6047  0.7210 -0.8619
 7403SOL    HW233846   1.563   2.428   4.951  1.9008 -1.2915 -0.1013
 7404SOL     OW33847   1.512   4.061   6.877 -0.0828 -0.1631 -0.0748
 7404SOL    HW133848   1.419   4.078   6.862 -0.4866 -3.2876 -1.0126
 7404SOL    HW233849   1.514   4.042   6.970 -0.2250  0.2362  0.0105
 7405SOL     OW33850   1.065   4.253   3.431  0.1891  0.2283 -0.3509
 7405SOL    HW133851   1.001   4.324   3.427  0.0995  0.2463  1.2182
 7405SOL    HW233852   1.015   4.180   3.394 -1.7523  2.2702 -1.7817
 7406SOL     OW33853   1.241   1.598   8.647 -0.2633  0.1034 -0.2908
 7406SOL    HW133854   1.259   1.690   8.625  1.0726 -0.2487 -0.6733
 7406SOL    HW233855   1.260   1.595   8.741 -5.4033  1.4635  0.7780
 7407SOL     OW33856   2.692   2.590   3.471  0.0961 -0.4911  0.3059
 7407SOL    HW133857   2.733   2.526   3.412  0.1009 -1.0754  0.9465
 7407SOL    HW233858   2.613   2.543   3.500 -1.2823 -0.2030 -2.9707
 7408SOL     OW33859   4.273   4.259   6.691 -0.0791  0.1896 -0.4396
 7408SOL    HW133860   4.229   4.193   6.745  0.8206 -0.6863 -0.7652
 7408SOL    HW233861   4.238   4.232   6.606  1.7316 -1.8933 -0.5409
 7409SOL     OW33862   1.596   1.943   1.394  0.5770 -0.2795 -0.4743
 7409SOL    HW133863   1.580   1.903   1.308  0.4163 -2.0115  0.3581
 7409SOL    HW233864   1.680   1.986   1.377  0.9902 -0.7781  0.2942
 7410SOL     OW33865   1.240   1.530   2.001  0.1378 -0.2417  0.2848
 7410SOL    HW133866   1.328   1.566   1.990  1.6450 -4.1640 -0.6679
 7410SOL    HW233867   1.210   1.576   2.079  0.7633  0.9864 -0.2122
 7411SOL     OW33868   3.310   2.243  13.627 -0.0575  0.4047 -0.4451
 7411SOL    HW133869   3.234   2.289  13.662  0.4966  0.6024  0.5116
 7411SOL    HW233870   3.286   2.152  13.647  1.3731  0.4561  1.5122
 7412SOL     OW33871   1.811   2.461   4.205 -0.4573 -1.0211  0.1199
 7412SOL    HW133872   1.731   2.512   4.189  0.3452  0.5240  1.1083
 7412SOL    HW233873   1.825   2.418   4.120  0.9048 -0.1225 -0.1223
 7413SOL     OW33874   1.843   2.035   6.399 -0.2834 -0.0509 -0.0267
 7413SOL    HW133875   1.878   1.967   6.340 -0.1440 -0.7551  0.8663
 7413SOL    HW233876   1.760   1.993   6.420 -1.2577  1.2247 -1.2756
 7414SOL     OW33877   4.474   2.096   1.843  0.2864 -0.3737 -0.6565
 7414SOL    HW133878   4.533   2.099   1.918 -2.1632 -0.4955  1.2810
 7414SOL    HW233879   4.419   2.021   1.862  1.0932 -1.8194 -3.9216
 7415SOL     OW33880   2.415   0.076   1.628  0.9747  0.1036  0.5537
 7415SOL    HW133881   2.400   0.038   1.714  0.1978 -1.5329 -0.2980
 7415SOL    HW233882   2.463   0.157   1.648  2.5894 -0.5262 -0.7333
 7416SOL     OW33883   4.426   3.853   4.618  0.6221 -0.2165  0.4383
 7416SOL    HW133884   4.478   3.922   4.577  0.9250  0.2462  1.5972
 7416SOL    HW233885   4.431   3.788   4.548 -0.5953 -0.1794  0.3083
 7417SOL     OW33886   0.405   3.373  16.208 -0.1036 -0.2303  0.3397
 7417SOL    HW133887   0.430   3.364  16.116 -1.2204 -0.5803  0.0766
 7417SOL    HW233888   0.493   3.399  16.236 -0.1304 -0.0035  0.2161
 7418SOL     OW33889   1.454   2.813   6.080 -0.3043  0.2345  0.2475
 7418SOL    HW133890   1.457   2.855   5.994 -0.3897  0.4560  0.3537
 7418SOL    HW233891   1.452   2.894   6.132  1.3250  1.2073 -1.2026
 7419SOL     OW33892   3.193   0.664   5.110  0.3476  0.1440  0.8602
 7419SOL    HW133893   3.102   0.638   5.126  0.1728  0.7663  0.8765
 7419SOL    HW233894   3.187   0.730   5.041  1.6770 -0.0734  0.5267
 7420SOL     OW33895   0.698   2.848   6.442 -0.0243  0.0612 -0.3045
 7420SOL    HW133896   0.727   2.835   6.352  0.4121 -0.2878 -0.1180
 7420SOL    HW233897   0.765   2.914   6.462  0.2801  0.1419 -1.6139
 7421SOL     OW33898   2.876   1.591   3.610  0.3014  0.0283 -0.0056
 7421SOL    HW133899   2.889   1.579   3.516  1.9731 -0.7024  0.3160
 7421SOL    HW233900   2.790   1.550   3.618 -0.6565  1.9089 -0.5544
 7422SOL     OW33901   1.812   4.096   0.226 -0.3440 -0.2207  0.9286
 7422SOL    HW133902   1.817   4.011   0.269 -1.2837 -1.3915 -1.2708
 7422SOL    HW233903   1.868   4.082   0.150 -0.9476 -1.8028  0.7688
 7423SOL     OW33904   1.119   1.894  11.416 -0.6856  0.1260  0.5178
 7423SOL    HW133905   1.081   1.846  11.342 -0.0217 -0.9540  0.8718
 7423SOL    HW233906   1.072   1.976  11.403 -0.5169  0.5621  2.6348
 7424SOL     OW33907   1.272   1.170   5.785  0.3684  0.2996 -0.1884
 7424SOL    HW133908   1.222   1.154   5.866  0.1380 -0.2095 -0.4306
 7424SOL    HW233909   1.237   1.257   5.768 -0.2425 -0.1447 -1.2115
 7425SOL     OW33910   2.978   1.844   6.795  0.1483 -0.1123  0.1600
 7425SOL    HW133911   2.904   1.821   6.851  0.9911 -1.6805  0.6271
 7425SOL    HW233912   2.950   1.902   6.725 -0.1631 -1.7918 -1.0888
 7426SOL     OW33913   1.237   2.372   9.053 -0.3525  0.1262  0.3425
 7426SOL    HW133914   1.220   2.329   9.137 -0.1413  0.5807  0.6182
 7426SOL    HW233915   1.181   2.448   9.069 -0.9699 -0.0624 -0.9621
 7427SOL     OW33916   1.270   2.070   9.118  0.3779  0.2196  0.4295
 7427SOL    HW133917   1.311   2.020   9.188 -1.0370 -2.6156 -0.7758
 7427SOL    HW233918   1.349   2.111   9.082  0.0127  1.2241  0.7721
 7428SOL     OW33919   0.201   1.145   3.112  0.3674  0.2219  0.0784
 7428SOL    HW133920   0.209   1.099   3.028  1.6568 -1.0855  0.9116
 7428SOL    HW233921   0.293   1.161   3.130  0.0866  2.6206 -0.6311
 7429SOL     OW33922   3.447   3.015   8.218  0.0646  0.1459 -0.3738
 7429SOL    HW133923   3.486   2.965   8.290 -0.5243  0.4716  0.1707
 7429SOL    HW233924   3.370   3.047   8.264  0.0980  0.6433 -0.6596
 7430SOL     OW33925   2.149   2.487   0.671  0.3277  0.2331  0.1344
 7430SOL    HW133926   2.062   2.449   0.670  0.1808  0.5726 -0.1683
 7430SOL    HW233927   2.143   2.553   0.601  2.2256  0.2731  0.0043
 7431SOL     OW33928   1.037   4.427  16.975  0.0961 -0.0639  0.1450
 7431SOL    HW133929   0.974   4.444  16.905  0.2031 -0.8362 -0.1416
 7431SOL    HW233930   1.109   4.478  16.938  0.7791 -0.3141  1.1401
 7432SOL     OW33931   1.676   1.773   3.491  0.0149 -0.1649 -0.1283
 7432SOL    HW133932   1.750   1.735   3.539 -1.4134  0.0132  2.1970
 7432SOL    HW233933   1.722   1.833   3.432 -1.9364  2.1690  0.7310
 7433SOL     OW33934   2.316   0.188  16.176 -0.0807  0.2034  0.0060
 7433SOL    HW133935   2.349   0.277  16.192 -2.3729  1.0673 -0.1478
 7433SOL    HW233936   2.288   0.158  16.262  0.4723 -0.2624  0.0299
 7434SOL     OW33937   0.218   1.586   9.093  0.2800 -0.3281 -0.0253
 7434SOL    HW133938   0.248   1.578   9.184 -1.7967 -0.2044  0.6636
 7434SOL    HW233939   0.186   1.677   9.096  0.4073 -0.3379  2.1188
 7435SOL     OW33940   0.228   3.425  14.972  0.1787 -0.6327 -0.0220
 7435SOL    HW133941   0.191   3.462  15.051  0.0965 -0.3814 -0.1780
 7435SOL    HW233942   0.165   3.358  14.944  0.5180 -0.1028 -2.0425
 7436SOL     OW33943   3.353   1.599  17.513  0.1545  0.4370 -0.2778
 7436SOL    HW133944   3.376   1.506  17.514 -0.3202  0.3211  0.1021
 7436SOL    HW233945   3.266   1.600  17.472  0.5265  1.2925 -1.0603
 7437SOL     OW33946   4.027   1.060   2.669  0.7542  0.3591 -0.0544
 7437SOL    HW133947   3.969   0.994   2.705  0.5694  0.7655  0.3830
 7437SOL    HW233948   3.973   1.134   2.698  1.1083  1.7668 -2.9326
 7438SOL     OW33949   3.159   3.301   3.156 -0.0185  0.2213 -0.3549
 7438SOL    HW133950   3.221   3.227   3.157  0.2787  0.4721  0.0727
 7438SOL    HW233951   3.115   3.276   3.075 -1.0170  0.1047  0.2276
 7439SOL     OW33952   1.359   2.362   8.814 -0.4003 -0.0430 -0.5069
 7439SOL    HW133953   1.294   2.311   8.766 -0.3747 -2.4891  2.1009
 7439SOL    HW233954   1.319   2.362   8.901  0.3781 -0.0027 -0.1502
 7440SOL     OW33955   2.066   0.118   4.775  0.5573  0.2443 -0.2057
 7440SOL    HW133956   2.126   0.044   4.768  0.6696  0.2812  0.3549
 7440SOL    HW233957   2.108   0.161   4.849  1.2631 -0.5335 -0.1564
 7441SOL     OW33958   2.699   2.731   5.185 -0.0596 -0.4749  0.0634
 7441SOL    HW133959   2.765   2.662   5.197 -0.5090 -0.4680  2.6997
 7441SOL    HW233960   2.747   2.807   5.218 -0.9880 -0.3586  1.1232
 7442SOL     OW33961   1.860   3.196   5.710 -0.0222  0.4213  0.1269
 7442SOL    HW133962   1.823   3.231   5.791 -2.0088  0.3369 -0.7437
 7442SOL    HW233963   1.780   3.176   5.662  2.1740 -0.0073 -3.3146
 7443SOL     OW33964   1.616   0.629   8.604 -0.3302  0.8174  0.2299
 7443SOL    HW133965   1.709   0.633   8.584 -0.2179 -1.4549  0.2577
 7443SOL    HW233966   1.616   0.650   8.698  1.0786 -1.5619  0.7772
 7444SOL     OW33967   3.484   3.591  13.837 -0.4599  0.2246 -0.5934
 7444SOL    HW133968   3.431   3.543  13.901 -0.7510  1.2019 -0.1023
 7444SOL    HW233969   3.460   3.554  13.752 -0.7349  1.8971 -1.2509
 7445SOL     OW33970   4.512   4.626   4.608 -0.1121 -0.2562 -0.7034
 7445SOL    HW133971   4.463   4.612   4.688 -1.0073  0.6424 -1.0933
 7445SOL    HW233972   4.517   4.535   4.581 -0.4916 -0.7755  1.0000
 7446SOL     OW33973   2.691   3.685   8.298 -0.1434  0.1992 -0.4048
 7446SOL    HW133974   2.637   3.751   8.340 -1.0290 -0.6753 -0.1760
 7446SOL    HW233975   2.702   3.729   8.213 -2.2927  0.0256 -0.7726
 7447SOL     OW33976   1.898   4.167   3.906  0.3093  0.0735  0.1428
 7447SOL    HW133977   1.870   4.251   3.942  1.4740  0.3400  0.4202
 7447SOL    HW233978   1.969   4.136   3.962  0.7816  1.1889  0.1561
 7448SOL     OW33979   2.208   3.437  17.066 -0.0398  0.4904 -0.7793
 7448SOL    HW133980   2.281   3.427  17.127 -0.9353  0.2662  0.2651
 7448SOL    HW233981   2.168   3.517  17.102  2.0809  1.3316 -0.2844
 7449SOL     OW33982   2.941   1.600   1.039 -0.0223  0.0514 -0.2061
 7449SOL    HW133983   2.856   1.558   1.052  0.3563 -1.0654 -1.3112
 7449SOL    HW233984   2.973   1.552   0.963  1.4223  0.9406 -0.1587
 7450SOL     OW33985   4.629   1.877   3.679  0.3854  0.2022  0.0105
 7450SOL    HW133986   4.646   1.784   3.664 -3.0185 -0.6730  1.5023
 7450SOL    HW233987   4.553   1.892   3.622 -0.4299 -1.9086  0.5480
 7451SOL     OW33988   0.073   3.871   5.608  0.3065  0.2281 -0.3658
 7451SOL    HW133989   0.038   3.788   5.642  0.7484  0.1982  0.0122
 7451SOL    HW233990   0.125   3.896   5.684  1.0551 -2.3208 -0.0428
 7452SOL     OW33991   4.643   4.092  16.185  0.3073 -0.1291 -0.8228
 7452SOL    HW133992   4.724   4.121  16.143 -0.8407  1.7935 -1.7405
 7452SOL    HW233993   4.605   4.180  16.193  0.9615  0.0103  0.6859
 7453SOL     OW33994   0.158   3.813   3.245 -0.3164 -0.1579 -0.1663
 7453SOL    HW133995   0.172   3.769   3.329  1.3505 -1.1285 -0.9470
 7453SOL    HW233996   0.174   3.744   3.180  1.9924 -1.1189  1.4118
 7454SOL     OW33997   4.189   0.275   7.885  0.3953 -0.1340  0.0993
 7454SOL    HW133998   4.115   0.224   7.851 -1.6862  1.8658  1.5948
 7454SOL    HW233999   4.167   0.281   7.978 -2.1874 -2.5795 -0.3431
 7455SOL     OW34000   2.913   4.432   3.237  0.2509  0.0454 -0.4958
 7455SOL    HW134001   2.972   4.382   3.293  0.3936  0.7870  0.0162
 7455SOL    HW234002   2.886   4.377   3.163 -1.8491  0.4755 -0.0370
 7456SOL     OW34003   1.434   2.896   1.922 -0.1893 -0.3883  0.4041
 7456SOL    HW134004   1.388   2.812   1.912 -0.7544  0.0760 -0.9404
 7456SOL    HW234005   1.363   2.959   1.910  0.0879 -0.0053  0.7763
 7457SOL     OW34006   3.881   3.204   6.754  0.1780  0.8233 -0.4164
 7457SOL    HW134007   3.825   3.235   6.683 -0.1938  2.5037  0.6097
 7457SOL    HW234008   3.947   3.157   6.703 -1.8375 -0.0818 -2.1850
 7458SOL     OW34009   1.619   0.850   1.031  0.2388 -0.2396  1.2264
 7458SOL    HW134010   1.539   0.815   1.071  0.5076 -0.9325  1.1620
 7458SOL    HW234011   1.668   0.862   1.113  0.4834 -0.1142  1.0590
 7459SOL     OW34012   0.739   4.021   2.092  0.0157  0.2838  0.0778
 7459SOL    HW134013   0.710   3.962   2.022  1.6434  1.0163 -1.2224
 7459SOL    HW234014   0.727   4.107   2.052  0.8575  0.5891  0.4803
 7460SOL     OW34015   4.384   1.766   9.679  0.5589  0.3348 -0.1038
 7460SOL    HW134016   4.297   1.800   9.700  1.4938  1.7455  1.4458
 7460SOL    HW234017   4.365   1.676   9.706  1.4025  0.3810  0.6514
 7461SOL     OW34018   4.371   1.743  10.194  0.1852  0.0236 -0.0252
 7461SOL    HW134019   4.450   1.746  10.247 -1.3811 -1.2186  2.3823
 7461SOL    HW234020   4.305   1.697  10.247 -2.2426  1.5733 -1.7141
 7462SOL     OW34021   0.406   1.630   8.442 -0.1665  0.6398 -0.2400
 7462SOL    HW134022   0.443   1.679   8.369  0.1528 -0.8852 -1.0948
 7462SOL    HW234023   0.354   1.564   8.396 -0.1047 -0.4030  1.2003
 7463SOL     OW34024   3.257   2.906   5.844 -0.5824  0.0917  0.7291
 7463SOL    HW134025   3.250   2.823   5.892  1.7963 -0.2426  0.5248
 7463SOL    HW234026   3.189   2.950   5.895  0.1544 -0.1203  1.9116
 7464SOL     OW34027   0.441   2.161   1.262  0.0377 -0.4390 -0.1841
 7464SOL    HW134028   0.358   2.114   1.261 -0.0079 -0.3395 -1.1869
 7464SOL    HW234029   0.484   2.120   1.338 -0.5912  1.0236  0.9465
 7465SOL     OW34030   3.248   3.608  10.805  0.1824 -0.4852 -0.3972
 7465SOL    HW134031   3.236   3.679  10.869  0.1742  1.0604 -2.1020
 7465SOL    HW234032   3.330   3.568  10.834  1.1550  0.7151 -1.4719
 7466SOL     OW34033   1.701   3.558   0.981 -0.2859 -0.2677 -0.2635
 7466SOL    HW134034   1.623   3.572   0.926  0.4490  1.4531 -0.8830
 7466SOL    HW234035   1.722   3.649   1.002 -1.5862 -0.2832  1.1828
 7467SOL     OW34036   0.426   1.780   7.098  0.2495  0.1776  0.3070
 7467SOL    HW134037   0.497   1.781   7.033 -0.4726  1.2335 -0.4707
 7467SOL    HW234038   0.351   1.765   7.040  0.5268  0.6210 -0.1705
 7468SOL     OW34039   1.840   2.073   1.399 -0.2554  0.5233  0.0824
 7468SOL    HW134040   1.880   2.007   1.456  1.4628  0.5230 -1.1275
 7468SOL    HW234041   1.866   2.142   1.461 -0.8218 -0.0394  0.9401
 7469SOL     OW34042   2.287   4.180   6.399  0.2835 -0.6606  0.3407
 7469SOL    HW134043   2.315   4.093   6.427 -0.4015 -1.3201 -1.0570
 7469SOL    HW234044   2.202   4.191   6.440 -0.0943  1.9536 -1.1383
 7470SOL     OW34045   1.908   4.409  14.627  0.9270 -0.1810  0.6062
 7470SOL    HW134046   1.872   4.497  14.619 -1.6968 -1.4660 -1.8053
 7470SOL    HW234047   1.834   4.361  14.589  0.1059  2.1487 -0.7423
 7471SOL     OW34048   3.303   4.703   0.004 -0.4495 -0.4789 -0.5990
 7471SOL    HW134049   3.217   0.010   0.011  0.2853  0.9921 -0.1863
 7471SOL    HW234050   3.292   4.634   0.069 -2.0293  1.0420  0.7444
 7472SOL     OW34051   4.108   4.116  13.184  0.7815  0.3675 -0.4014
 7472SOL    HW134052   4.104   4.211  13.173 -0.0427  0.3063 -0.6752
 7472SOL    HW234053   4.160   4.109  13.264 -0.3667  2.8372  0.5590
 7473SOL     OW34054   3.465   3.035   4.145 -0.2291  0.2328  0.1782
 7473SOL    HW134055   3.497   3.105   4.088 -0.0326  0.1971  0.2446
 7473SOL    HW234056   3.428   2.980   4.075  1.9439 -0.9945 -0.0098
 7474SOL     OW34057   4.412   0.277   7.542 -0.1217 -0.3521  0.1053
 7474SOL    HW134058   4.488   0.332   7.524  0.1313 -0.8354 -0.2934
 7474SOL    HW234059   4.452   0.197   7.575  1.2876  0.6814  0.8693
 7475SOL     OW34060   3.680   2.952  17.580 -0.6980 -0.0499 -0.2406
 7475SOL    HW134061   3.680   2.858  17.563  1.7162 -0.0513 -0.2315
 7475SOL    HW234062   3.774   2.970  17.584 -1.0784  1.5183  1.9372
 7476SOL     OW34063   1.506   0.372   8.931  0.6199  0.2628  0.5891
 7476SOL    HW134064   1.594   0.403   8.911 -0.5113  3.1485 -0.0032
 7476SOL    HW234065   1.519   0.283   8.898 -0.2859  0.1273  0.5919
 7477SOL     OW34066   3.177   4.668  11.375 -0.0029 -0.1004 -0.2558
 7477SOL    HW134067   3.226   4.676  11.456 -1.5386 -1.5801  0.8160
 7477SOL    HW234068   3.087   4.651  11.403  0.2758 -0.7407  0.2254
 7478SOL     OW34069   4.028   0.707   6.432 -0.0988  0.2096 -0.4247
 7478SOL    HW134070   4.103   0.682   6.486 -2.3937 -1.0156  2.1819
 7478SOL    HW234071   3.956   0.685   6.491 -1.2000 -2.4223 -2.7354
 7479SOL     OW34072   3.095   2.508   6.445  0.2323  0.4190  0.1162
 7479SOL    HW134073   3.026   2.539   6.386  0.8834  2.9881  0.7409
 7479SOL    HW234074   3.129   2.584   6.490  3.3696 -1.1937  0.4542
 7480SOL     OW34075   2.420   2.716   0.348  0.4933 -0.3796 -0.0265
 7480SOL    HW134076   2.513   2.700   0.334  0.4466 -0.9768  0.3422
 7480SOL    HW234077   2.418   2.714   0.444 -0.0171  1.3667  0.0006
 7481SOL     OW34078   1.244   2.892   3.789 -0.0463  0.1830  0.0808
 7481SOL    HW134079   1.157   2.908   3.754  0.6517  0.7496 -1.3964
 7481SOL    HW234080   1.279   2.826   3.730 -0.1077 -0.6625  0.9959
 7482SOL     OW34081   3.804   4.270  15.179 -0.5624 -0.4510  0.2655
 7482SOL    HW134082   3.782   4.209  15.109 -2.1115 -1.5244  1.6732
 7482SOL    HW234083   3.737   4.337  15.164  1.5380  0.8264 -3.3663
 7483SOL     OW34084   2.684   4.222  17.298  0.1418 -0.5044  0.0824
 7483SOL    HW134085   2.597   4.263  17.298 -0.5194 -1.9460  2.6651
 7483SOL    HW234086   2.669   4.130  17.276  0.9055 -1.1031  2.1153
 7484SOL     OW34087   4.316   4.027   3.288  0.1793  0.0537 -0.5269
 7484SOL    HW134088   4.293   4.099   3.229  3.0831  1.2281 -0.2645
 7484SOL    HW234089   4.270   3.959   3.238  2.1024 -1.2614 -0.5567
 7485SOL     OW34090   1.668   1.770   7.465 -0.4451  0.5063  0.0899
 7485SOL    HW134091   1.676   1.795   7.557  0.8516  2.5506 -0.5750
 7485SOL    HW234092   1.624   1.685   7.468  1.0571 -0.2689  0.5691
 7486SOL     OW34093   0.807   4.558   7.212 -0.1610 -0.1404  0.4036
 7486SOL    HW134094   0.748   4.618   7.257  2.1521  1.3101  1.5245
 7486SOL    HW234095   0.761   4.551   7.128 -3.7262  2.6089  2.1197
 7487SOL     OW34096   3.748   3.331   2.641 -0.1033  0.6248 -0.2930
 7487SOL    HW134097   3.770   3.307   2.731  0.5574 -1.6531 -1.0626
 7487SOL    HW234098   3.664   3.371   2.663 -0.4675  0.1395 -0.7944
 7488SOL     OW34099   3.257   4.392   4.088  0.2379  0.1479  0.6424
 7488SOL    HW134100   3.250   4.397   4.183 -1.3659 -0.1052  0.5338
 7488SOL    HW234101   3.253   4.484   4.062  0.2361 -0.2662 -0.8377
 7489SOL     OW34102   4.323   1.328   2.681 -0.2673  0.8101  0.2799
 7489SOL    HW134103   4.295   1.357   2.768  1.0687  2.5590  0.1194
 7489SOL    HW234104   4.297   1.237   2.665 -1.5620  1.3817 -0.8878
 7490SOL     OW34105   1.090   1.044   5.320 -0.5808 -0.2140  0.1711
 7490SOL    HW134106   0.996   1.040   5.301 -0.1758  1.6274 -2.3361
 7490SOL    HW234107   1.083   1.140   5.321 -0.0103 -0.1860  1.4823
 7491SOL     OW34108   1.647   0.444   9.498 -0.2121 -0.0858 -0.6580
 7491SOL    HW134109   1.604   0.395   9.568  0.5173  2.0331  1.2752
 7491SOL    HW234110   1.614   0.534   9.500 -0.8136 -0.2755 -2.1839
 7492SOL     OW34111   2.209   2.676   5.793 -0.0720  0.6480  0.1181
 7492SOL    HW134112   2.159   2.691   5.713 -1.7813  1.3646  1.3220
 7492SOL    HW234113   2.140   2.708   5.851  1.3266  1.5181  1.3018
 7493SOL     OW34114   2.313   4.369   2.744  0.1453 -0.1078  0.4231
 7493SOL    HW134115   2.330   4.295   2.686 -4.3381 -0.4809 -0.4326
 7493SOL    HW234116   2.248   4.343   2.809 -0.7437  0.3398 -0.2874
 7494SOL     OW34117   2.607   0.216   5.822  0.0149 -0.4775 -0.0912
 7494SOL    HW134118   2.606   0.191   5.730 -4.8182 -0.0837 -0.1868
 7494SOL    HW234119   2.623   0.308   5.805 -0.3839 -0.3918 -0.0114
 7495SOL     OW34120   2.981   0.556  11.855  0.3591 -0.3948  0.0482
 7495SOL    HW134121   2.972   0.609  11.776  0.3041 -0.0052  0.3181
 7495SOL    HW234122   3.069   0.523  11.840  0.4559  0.6094 -1.5334
 7496SOL     OW34123   0.407   2.332   4.092 -0.0677 -0.0653  0.1479
 7496SOL    HW134124   0.409   2.427   4.077  0.7762 -0.0832  0.1772
 7496SOL    HW234125   0.337   2.333   4.157 -2.4545 -0.8204 -2.4056
 7497SOL     OW34126   1.034   3.600   5.959  0.3982 -0.2270  0.3521
 7497SOL    HW134127   1.047   3.637   5.872  2.1339 -1.6100  0.0354
 7497SOL    HW234128   0.940   3.613   5.973 -0.2072 -2.6848 -1.5725
 7498SOL     OW34129   0.716   4.690   4.183 -0.2606  0.5976 -0.1287
 7498SOL    HW134130   0.769   4.615   4.210  1.3187  1.6453 -0.2914
 7498SOL    HW234131   0.784   0.022   4.196  0.9183 -0.7901  0.6939
 7499SOL     OW34132   1.375   1.434   3.620  0.5190  0.3346  0.7159
 7499SOL    HW134133   1.468   1.422   3.641  0.7828 -0.0409 -0.6336
 7499SOL    HW234134   1.383   1.519   3.577  1.8528  0.2788  0.8488
 7500SOL     OW34135   0.504   1.764   8.232 -0.3862  0.1809 -0.1337
 7500SOL    HW134136   0.513   1.772   8.137 -0.1359  3.5988  0.1939
 7500SOL    HW234137   0.575   1.819   8.264 -1.3956 -0.2972  2.9891
 7501SOL     OW34138   2.441   1.100   4.595  0.0629 -0.4183  0.4761
 7501SOL    HW134139   2.492   1.022   4.617  3.3374  1.8837  1.1561
 7501SOL    HW234140   2.485   1.162   4.653  0.1013 -1.5201  1.6053
 7502SOL     OW34141   0.667   2.893   3.033 -0.1838  0.2319 -0.6926
 7502SOL    HW134142   0.611   2.964   2.999  0.6341  1.7461  1.1569
 7502SOL    HW234143   0.731   2.890   2.962  0.4594 -1.7746 -0.0041
 7503SOL     OW34144   2.155   1.549   6.498  0.3135  0.5095 -1.1510
 7503SOL    HW134145   2.159   1.565   6.593  0.2854 -1.6330 -0.7967
 7503SOL    HW234146   2.249   1.557   6.482  0.9107 -0.8659  1.5998
 7504SOL     OW34147   1.079   3.189   7.805 -0.2555  0.2089  0.2984
 7504SOL    HW134148   1.000   3.179   7.859 -1.1773  0.8437 -0.9241
 7504SOL    HW234149   1.083   3.109   7.753  0.4320 -0.6572  1.6779
 7505SOL     OW34150   1.134   1.195  13.565  0.5448 -0.1458 -0.0884
 7505SOL    HW134151   1.151   1.256  13.494 -0.8958 -0.0452 -0.3503
 7505SOL    HW234152   1.045   1.164  13.545  1.2815 -1.1445 -1.8213
 7506SOL     OW34153   2.183   0.549  11.567 -0.1804 -0.5435 -0.2161
 7506SOL    HW134154   2.183   0.645  11.556  1.1046 -0.2637  2.3759
 7506SOL    HW234155   2.239   0.517  11.496 -0.6417  0.8882 -1.2438
 7507SOL     OW34156   1.457   3.346  10.732  0.0895  0.2445 -1.0322
 7507SOL    HW134157   1.481   3.355  10.824  1.2953 -1.7136 -1.1627
 7507SOL    HW234158   1.485   3.257  10.709  1.4696  0.6205 -0.8336
 7508SOL     OW34159   3.809   3.998   7.125  0.6389  0.3321 -0.1256
 7508SOL    HW134160   3.849   3.941   7.190 -0.5957 -0.9188 -0.4742
 7508SOL    HW234161   3.825   3.954   7.042 -0.5841 -0.8980  0.3037
 7509SOL     OW34162   2.326   2.886   2.097  0.0559  0.3870 -0.0273
 7509SOL    HW134163   2.406   2.933   2.118  0.5854 -1.0745  1.2281
 7509SOL    HW234164   2.282   2.947   2.037 -0.6248 -0.8940 -0.8337
 7510SOL     OW34165   1.528   1.907  16.206 -0.2205  0.8272 -0.2641
 7510SOL    HW134166   1.472   1.929  16.132 -0.5340 -1.8700 -0.8349
 7510SOL    HW234167   1.553   1.990  16.247  1.2536  0.5246 -0.5477
 7511SOL     OW34168   1.395   2.972  16.035 -0.1237  0.0803 -0.2149
 7511SOL    HW134169   1.369   2.896  16.087 -1.8547  0.1388 -0.9864
 7511SOL    HW234170   1.436   2.933  15.958  2.9238  1.0419  0.9006
 7512SOL     OW34171   2.714   0.012   6.238  0.5452 -0.1110  0.5137
 7512SOL    HW134172   2.649   0.058   6.185 -0.6297 -2.0198  0.3022
 7512SOL    HW234173   2.676   4.661   6.217 -0.0602  0.2336  0.2058
 7513SOL     OW34174   0.381   1.774   5.412  0.0326  0.3544  0.0844
 7513SOL    HW134175   0.395   1.690   5.455  0.2831  0.2595 -0.1802
 7513SOL    HW234176   0.383   1.833   5.487  3.2993  1.4386 -0.8247
 7514SOL     OW34177   1.403   0.625  12.572 -0.4020 -0.0830  0.5581
 7514SOL    HW134178   1.324   0.571  12.570  0.1682 -0.9041  0.1583
 7514SOL    HW234179   1.469   0.567  12.609  0.2963  0.2337 -0.1834
 7515SOL     OW34180   2.656   1.056  16.260  0.6034 -0.2836 -0.5007
 7515SOL    HW134181   2.577   1.053  16.206  0.8120 -1.1351 -0.7488
 7515SOL    HW234182   2.677   0.964  16.274  4.0095  0.2836 -1.7953
 7516SOL     OW34183   0.320   1.578   6.923 -0.7921 -0.7968  0.1739
 7516SOL    HW134184   0.235   1.622   6.931  0.4629  1.8164 -1.0411
 7516SOL    HW234185   0.308   1.494   6.969 -3.2315 -0.8078 -0.4933
 7517SOL     OW34186   1.805   3.568   7.816 -0.0038  0.0681  0.0725
 7517SOL    HW134187   1.711   3.583   7.804  0.1951  1.4878  0.2152
 7517SOL    HW234188   1.799   3.507   7.889 -1.1023  0.8149  0.6041
 7518SOL     OW34189   0.558   4.445  11.160  0.3427  0.7625  0.1732
 7518SOL    HW134190   0.578   4.539  11.159  1.6914  0.4735  0.7995
 7518SOL    HW234191   0.578   4.431  11.067 -1.9236  0.2536 -0.2607
 7519SOL     OW34192   2.336   4.289   8.951 -0.0391  0.0411 -0.3129
 7519SOL    HW134193   2.407   4.231   8.925  0.4690  0.0571  1.0410
 7519SOL    HW234194   2.296   4.237   9.020 -0.9289  0.8938 -0.1687
 7520SOL     OW34195   1.349   3.416   7.132 -0.8698 -0.2072  0.3004
 7520SOL    HW134196   1.417   3.378   7.187 -2.3632 -0.4993  1.9449
 7520SOL    HW234197   1.320   3.498   7.173  0.0402 -0.3868  1.3062
 7521SOL     OW34198   0.732   3.334   5.099  0.2246  0.3510  0.3473
 7521SOL    HW134199   0.639   3.317   5.087  0.3928 -1.2337  1.3177
 7521SOL    HW234200   0.776   3.306   5.019  0.2696 -0.6972  0.7371
 7522SOL     OW34201   1.782   4.081   6.869  0.2713  0.4150  0.1047
 7522SOL    HW134202   1.689   4.064   6.855  0.0408  2.2031 -0.5301
 7522SOL    HW234203   1.825   3.999   6.844  0.1975  1.1917 -2.5255
 7523SOL     OW34204   1.901   1.192  10.273 -0.3534 -0.1738 -0.0469
 7523SOL    HW134205   1.972   1.184  10.210  1.0549  0.4778  1.4769
 7523SOL    HW234206   1.890   1.286  10.285 -2.1956 -0.5426  1.2265
 7524SOL     OW34207   2.792   0.976   7.328  0.2161 -0.1452 -0.0543
 7524SOL    HW134208   2.731   0.943   7.394 -0.0244 -0.3396 -0.3718
 7524SOL    HW234209   2.845   1.033   7.383  0.2155 -0.5139  0.3355
 7525SOL     OW34210   3.724   4.696   4.347 -0.4289 -0.0147 -0.4867
 7525SOL    HW134211   3.666   0.032   4.317 -0.2993 -1.0923 -3.2369
 7525SOL    HW234212   3.806   4.718   4.302  0.8163 -1.4436  1.0472
 7526SOL     OW34213   1.547   3.912   7.917  0.1840  0.8643 -0.1417
 7526SOL    HW134214   1.466   3.937   7.961  1.2577  2.4355  0.9081
 7526SOL    HW234215   1.510   3.911   7.829 -0.9748  0.3378  0.3408
 7527SOL     OW34216   0.894   3.647  14.279 -0.3402  0.2337 -0.2514
 7527SOL    HW134217   0.912   3.708  14.207 -0.7881 -1.3731 -1.7196
 7527SOL    HW234218   0.854   3.703  14.346  0.0627  1.1107 -0.7399
 7528SOL     OW34219   1.347   0.295  10.953 -0.3075  0.2177 -0.0086
 7528SOL    HW134220   1.355   0.223  11.016 -0.9231 -0.9736 -1.2891
 7528SOL    HW234221   1.419   0.276  10.893  1.6995  1.4843  2.0018
 7529SOL     OW34222   1.963   2.212   9.585 -0.6280 -0.2827 -0.7151
 7529SOL    HW134223   1.960   2.148   9.657 -2.5146 -1.4820 -1.8671
 7529SOL    HW234224   1.880   2.257   9.600  0.0445  0.4668  0.7659
 7530SOL     OW34225   3.175   3.646   0.417 -0.3084  0.4577  0.1195
 7530SOL    HW134226   3.095   3.634   0.365 -0.2998  1.0774 -0.0465
 7530SOL    HW234227   3.140   3.681   0.499  0.1033 -1.5758  1.1582
 7531SOL     OW34228   1.162   2.235   8.678  0.1835  0.0872 -0.2270
 7531SOL    HW134229   1.082   2.233   8.731 -0.5858  2.6772 -1.3075
 7531SOL    HW234230   1.135   2.187   8.600  0.5199 -0.9376  0.2859
 7532SOL     OW34231   1.452   2.904   1.228  0.1124  0.0075 -0.0288
 7532SOL    HW134232   1.490   2.834   1.281  0.0664 -1.1670 -1.5427
 7532SOL    HW234233   1.410   2.959   1.294 -1.5804 -0.4681 -0.7266
 7533SOL     OW34234   3.483   1.793   8.096 -0.3287 -0.0934  0.0457
 7533SOL    HW134235   3.433   1.839   8.028  0.0954 -0.8213 -0.7629
 7533SOL    HW234236   3.550   1.750   8.043 -1.5386 -2.6558  0.5958
 7534SOL     OW34237   0.949   1.103  16.108 -0.2214 -0.2644  0.2585
 7534SOL    HW134238   0.949   1.088  16.014  1.4204 -3.3933  0.7616
 7534SOL    HW234239   0.923   1.196  16.112  0.9893  0.1020 -0.6050
 7535SOL     OW34240   0.002   3.339   6.113  0.0512 -0.1095 -0.8494
 7535SOL    HW134241   4.650   3.307   6.084 -0.8487  0.8725  0.7257
 7535SOL    HW234242   0.062   3.301   6.049  0.2388 -0.1130 -0.6720
 7536SOL     OW34243   3.363   3.210   6.032  0.0244 -0.0897  1.0586
 7536SOL    HW134244   3.379   3.266   6.108  1.0300  1.5943 -0.3954
 7536SOL    HW234245   3.269   3.211   6.019  0.0187  0.8416  1.2021
 7537SOL     OW34246   0.367   2.106  15.143  0.2406 -0.1232  0.6933
 7537SOL    HW134247   0.412   2.029  15.180  0.5623 -1.2280 -2.0180
 7537SOL    HW234248   0.277   2.086  15.170  0.1803 -2.4937 -1.2288
 7538SOL     OW34249   0.827   1.465   3.199 -0.5736 -0.1107 -0.1302
 7538SOL    HW134250   0.803   1.378   3.230 -1.5689 -0.5121 -2.0003
 7538SOL    HW234251   0.786   1.464   3.112 -0.2981 -1.2161 -0.2413
 7539SOL     OW34252   3.222   2.609   5.123 -0.2024 -0.0891  0.2729
 7539SOL    HW134253   3.257   2.613   5.212  0.8835 -1.5928 -0.0948
 7539SOL    HW234254   3.303   2.603   5.073 -0.2372  0.3271  0.1691
 7540SOL     OW34255   3.907   1.647   8.542  0.1375  0.6765 -0.6974
 7540SOL    HW134256   3.921   1.738   8.568  0.4035  0.6787 -0.8517
 7540SOL    HW234257   3.949   1.651   8.456  1.6838  1.5509  0.1031
 7541SOL     OW34258   2.640   2.585   9.010 -0.0393  0.1896 -0.2991
 7541SOL    HW134259   2.546   2.572   8.992  0.6772 -2.6257 -2.0699
 7541SOL    HW234260   2.650   2.550   9.098  0.2661  0.8687 -0.0669
 7542SOL     OW34261   1.197   2.377   2.720  0.1707  0.2491  0.0018
 7542SOL    HW134262   1.170   2.286   2.737  2.0657 -0.2802  0.2015
 7542SOL    HW234263   1.174   2.417   2.803 -4.0205  1.2127 -1.5868
 7543SOL     OW34264   4.652   0.331   0.437 -0.0445 -0.4080 -0.3387
 7543SOL    HW134265   4.603   0.251   0.419  0.2540  0.1783 -3.7746
 7543SOL    HW234266   4.645   0.380   0.355  0.8216  0.0917 -0.1072
 7544SOL     OW34267   4.595   0.789   6.905 -0.4848 -0.3610  0.6211
 7544SOL    HW134268   4.572   0.874   6.942 -0.1141  0.4231 -0.9241
 7544SOL    HW234269   4.689   0.787   6.924 -0.5090  1.4789  0.9791
 7545SOL     OW34270   3.520   2.732   5.689  0.1691  0.2266  0.3478
 7545SOL    HW134271   3.461   2.662   5.714 -1.3817  1.0974 -0.8675
 7545SOL    HW234272   3.503   2.734   5.595 -1.3428 -1.2442  0.5951
 7546SOL     OW34273   4.661   4.248  16.740 -0.2822 -0.2377 -0.3400
 7546SOL    HW134274   4.662   4.247  16.644 -1.5278 -1.0142 -0.3466
 7546SOL    HW234275   4.572   4.234  16.774  0.0250  0.0289  0.5778
 7547SOL     OW34276   0.601   0.372   4.337  0.1047  0.1279 -0.3118
 7547SOL    HW134277   0.657   0.410   4.269 -0.6627  0.6890 -0.6313
 7547SOL    HW234278   0.608   0.434   4.409  1.4684  0.5542 -0.8063
 7548SOL     OW34279   3.039   1.103  17.332  0.6887 -0.3714  0.5859
 7548SOL    HW134280   3.097   1.174  17.304 -0.7646  1.2028  1.5495
 7548SOL    HW234281   2.958   1.149  17.355  1.3531 -0.1580  2.4960
 7549SOL     OW34282   2.168   4.631   5.383 -0.0703 -0.4211 -0.1659
 7549SOL    HW134283   2.141   4.664   5.297 -0.1098 -0.5221 -0.1916
 7549SOL    HW234284   2.124   4.685   5.449  1.4343  2.0141 -1.1356
 7550SOL     OW34285   2.427   0.252   3.970 -0.0063 -0.5012 -0.0929
 7550SOL    HW134286   2.404   0.336   3.931  1.6918  0.2979  0.6201
 7550SOL    HW234287   2.353   0.211   4.014  1.3878 -1.7251  1.1239
 7551SOL     OW34288   4.225   2.959   8.518  0.2464 -0.3387  0.0457
 7551SOL    HW134289   4.259   2.886   8.466  1.0995  0.5574 -0.6559
 7551SOL    HW234290   4.131   2.958   8.502  0.2833  1.6164 -0.2367
 7552SOL     OW34291   3.562   0.284   6.552  0.4225  0.4124  0.1150
 7552SOL    HW134292   3.559   0.339   6.630  0.3211 -1.7504  1.6321
 7552SOL    HW234293   3.559   0.193   6.583  0.8917  0.0011 -1.0128
 7553SOL     OW34294   1.557   4.030   9.430  0.3029 -0.3435  0.0761
 7553SOL    HW134295   1.604   4.043   9.348 -0.5494  2.2237  0.0091
 7553SOL    HW234296   1.620   3.971   9.471  1.0277 -1.0600 -2.0736
 7554SOL     OW34297   1.300   3.905   4.755 -0.5811  0.2266 -0.7516
 7554SOL    HW134298   1.278   3.818   4.786  1.6351 -0.6537 -1.7248
 7554SOL    HW234299   1.355   3.935   4.828 -0.0713  1.6293 -1.7047
 7555SOL     OW34300   3.177   3.690   4.461  0.1873 -0.2531  0.2048
 7555SOL    HW134301   3.255   3.724   4.419 -0.5461 -0.0809 -1.0222
 7555SOL    HW234302   3.221   3.636   4.526  1.4183  0.2585 -0.2140
 7556SOL     OW34303   0.205   3.337   5.012  0.6319  0.3939 -0.5512
 7556SOL    HW134304   0.114   3.327   5.042  1.3034  1.3797  1.8445
 7556SOL    HW234305   0.200   3.409   4.949  3.3007  2.0124  1.0855
 7557SOL     OW34306   0.554   4.375   5.350 -0.1144 -0.1264  0.0857
 7557SOL    HW134307   0.460   4.395   5.352  0.4429  2.4004  0.4388
 7557SOL    HW234308   0.579   4.422   5.271 -0.2742 -0.2934 -0.0659
 7558SOL     OW34309   3.816   3.391  15.704 -0.1865 -0.2243 -0.0794
 7558SOL    HW134310   3.822   3.298  15.681  1.0045  0.0756 -0.9871
 7558SOL    HW234311   3.850   3.437  15.628  1.4285  1.4284  1.6316
 7559SOL     OW34312   3.515   3.928  11.754 -0.1723  0.0490 -0.6005
 7559SOL    HW134313   3.519   3.982  11.833  0.8849 -0.1228 -0.5403
 7559SOL    HW234314   3.568   3.848  11.762  0.1349  0.2111 -1.0101
 7560SOL     OW34315   3.092   2.991   4.661 -0.1573  0.8219 -0.3970
 7560SOL    HW134316   3.169   3.048   4.659  0.3589  0.1113 -0.7987
 7560SOL    HW234317   3.043   3.028   4.587 -0.3617  0.8533 -0.2454
 7561SOL     OW34318   3.388   4.260   6.130 -0.2759 -0.8132 -0.0399
 7561SOL    HW134319   3.358   4.351   6.139  1.0079 -0.2408 -1.4801
 7561SOL    HW234320   3.320   4.224   6.073  0.3368  0.1810 -1.4115
 7562SOL     OW34321   1.708   3.994   3.324 -0.1071  0.0813 -0.2760
 7562SOL    HW134322   1.782   3.941   3.294  0.8554  1.0133  0.4822
 7562SOL    HW234323   1.713   3.961   3.413 -1.1733 -0.0599 -0.2643
 7563SOL     OW34324   0.675   1.586   2.628  0.2431  0.3039 -0.0546
 7563SOL    HW134325   0.627   1.655   2.673 -1.0553 -0.1746 -0.6704
 7563SOL    HW234326   0.633   1.512   2.672 -1.0471  1.2616  0.3186
 7564SOL     OW34327   4.070   3.874   0.431  0.0624  0.0612 -0.5812
 7564SOL    HW134328   4.086   3.947   0.371  0.0455  1.6306  1.3233
 7564SOL    HW234329   4.099   3.801   0.376  0.2677  0.5205 -1.0863
 7565SOL     OW34330   3.167   3.982   7.425  0.0176 -0.2829  0.6019
 7565SOL    HW134331   3.200   3.949   7.342 -2.3134  1.0669 -0.8869
 7565SOL    HW234332   3.130   4.064   7.390  0.0253 -0.2545  0.6606
 7566SOL     OW34333   2.762   3.606   5.084 -0.6475  0.0192  0.2003
 7566SOL    HW134334   2.745   3.692   5.046 -2.3460 -0.3254  0.1978
 7566SOL    HW234335   2.679   3.566   5.059 -1.0345  0.7930  0.2368
 7567SOL     OW34336   3.345   0.147  15.840 -0.6402 -0.0619  0.2047
 7567SOL    HW134337   3.439   0.163  15.854 -0.5068 -2.0428  1.5401
 7567SOL    HW234338   3.353   0.074  15.778  1.6153  0.1620  0.2075
 7568SOL     OW34339   2.049   3.942   5.104 -0.1899  0.4267 -0.1547
 7568SOL    HW134340   2.035   3.880   5.033  2.0762  0.9327 -1.0477
 7568SOL    HW234341   2.130   3.916   5.148  0.4850 -1.2121 -2.3916
 7569SOL     OW34342   0.996   3.119   4.674 -0.5081  0.7647  0.2830
 7569SOL    HW134343   1.064   3.096   4.737 -0.5865 -0.2515 -0.0043
 7569SOL    HW234344   1.053   3.117   4.597  1.1490  1.3930  1.5016
 7570SOL     OW34345   2.479   0.999  11.344 -0.1516 -0.2322  0.0340
 7570SOL    HW134346   2.449   0.966  11.260  1.4836  2.1677 -1.4791
 7570SOL    HW234347   2.555   1.042  11.306  1.2762 -0.4332  2.6502
 7571SOL     OW34348   1.497   1.557   7.523 -0.0313  0.1451  0.2075
 7571SOL    HW134349   1.439   1.500   7.574 -2.8013  2.4106 -0.4695
 7571SOL    HW234350   1.553   1.497   7.474  0.0013  0.5523 -0.2468
 7572SOL     OW34351   3.095   0.307  17.228  0.0179  0.3188  0.4305
 7572SOL    HW134352   3.181   0.294  17.267 -0.7933  2.9966  3.0606
 7572SOL    HW234353   3.071   0.215  17.212  0.3872  0.3892 -0.5099
 7573SOL     OW34354   2.643   2.350   1.506 -0.1914  0.1841 -0.0753
 7573SOL    HW134355   2.655   2.424   1.566  1.4500  0.2649 -0.5052
 7573SOL    HW234356   2.719   2.300   1.534  0.2282  0.5885 -0.5063
 7574SOL     OW34357   0.691   3.291  15.071  0.5645 -0.1737 -0.6811
 7574SOL    HW134358   0.726   3.211  15.032 -0.4317 -0.5360 -0.8544
 7574SOL    HW234359   0.654   3.331  14.993 -0.7592  1.7536  0.9369
 7575SOL     OW34360   3.982   3.301   9.555 -0.0115 -0.2341  0.2038
 7575SOL    HW134361   3.887   3.305   9.564  0.1871  1.3646  1.6071
 7575SOL    HW234362   4.001   3.282   9.647  0.2019 -0.1982  0.1665
 7576SOL     OW34363   1.922   2.833   0.578 -0.3849  0.3151  0.3554
 7576SOL    HW134364   1.885   2.748   0.552  0.5236  0.1020 -0.2278
 7576SOL    HW234365   1.932   2.824   0.672 -0.7151  2.1133  0.5546
 7577SOL     OW34366   1.051   0.471  16.175 -0.0439  0.6191  0.0997
 7577SOL    HW134367   1.053   0.459  16.080  1.7002  0.7488  0.1140
 7577SOL    HW234368   0.963   0.437  16.188  0.8112 -1.8750 -0.6105
 7578SOL     OW34369   0.038   4.264   1.877  0.5707  0.2115 -0.3166
 7578SOL    HW134370   0.086   4.298   1.801  1.6249  1.2889  0.8329
 7578SOL    HW234371   4.713   4.338   1.894  2.5696  1.5823  0.6162
 7579SOL     OW34372   3.356   1.142   7.186 -0.3076  0.1844  0.2064
 7579SOL    HW134373   3.425   1.141   7.253  0.5654 -0.7926 -0.7032
 7579SOL    HW234374   3.327   1.234   7.182  0.3396  0.3750 -0.1361
 7580SOL     OW34375   0.746   3.963   8.664 -0.1333  0.0753 -0.3963
 7580SOL    HW134376   0.712   3.915   8.589  0.8069 -0.3710 -0.5381
 7580SOL    HW234377   0.715   3.912   8.739  1.3305 -1.1280 -0.6100
 7581SOL     OW34378   0.994   1.639   1.350  0.3502 -0.3244 -0.0096
 7581SOL    HW134379   0.976   1.725   1.386  1.7785 -0.0468  0.0409
 7581SOL    HW234380   1.032   1.655   1.264  0.9907 -2.4246 -0.1138
 7582SOL     OW34381   3.696   2.867   7.624  0.0878 -0.0101 -0.0670
 7582SOL    HW134382   3.714   2.805   7.695  2.3320 -0.8926 -1.4039
 7582SOL    HW234383   3.786   2.889   7.598  0.6209 -1.4590  0.5368
 7583SOL     OW34384   2.256   4.359   0.151  0.0339 -0.0050  0.0955
 7583SOL    HW134385   2.232   4.268   0.168  0.3304 -0.4384 -1.7996
 7583SOL    HW234386   2.337   4.358   0.100  0.3208  0.6158  0.5394
 7584SOL     OW34387   1.173   3.098  13.002  0.0410  0.1831 -0.3696
 7584SOL    HW134388   1.091   3.056  13.024  0.5165 -0.8507 -0.5864
 7584SOL    HW234389   1.164   3.139  12.916  0.7608  1.3208  0.0987
 7585SOL     OW34390   2.509   0.717   7.012 -0.3045 -0.0941 -0.5768
 7585SOL    HW134391   2.430   0.685   6.969 -0.4730 -3.1535  2.0665
 7585SOL    HW234392   2.546   0.787   6.958  1.9170 -0.2843  0.7106
 7586SOL     OW34393   3.989   2.214   2.158 -0.2316  0.5480  0.3655
 7586SOL    HW134394   3.925   2.217   2.087 -2.1407 -2.8007  1.9293
 7586SOL    HW234395   4.068   2.189   2.110  0.0339 -1.0581  1.6169
 7587SOL     OW34396   4.406   0.291   8.148  0.2672 -0.5039  0.9936
 7587SOL    HW134397   4.491   0.276   8.188  2.3214  1.0464 -2.8769
 7587SOL    HW234398   4.353   0.231   8.202 -0.1730 -0.0551  1.0551
 7588SOL     OW34399   0.735   1.485   4.980  0.7779 -0.1016 -0.0813
 7588SOL    HW134400   0.692   1.509   5.062  1.3634 -1.0059  0.4934
 7588SOL    HW234401   0.750   1.390   4.986 -1.3819 -0.2090  4.0259
 7589SOL     OW34402   2.277   0.866   6.758  0.3918  0.4635  0.5784
 7589SOL    HW134403   2.299   0.904   6.844  0.1394  0.5500  0.6057
 7589SOL    HW234404   2.197   0.917   6.741 -0.0526 -0.8298 -1.1127
 7590SOL     OW34405   1.910   4.452  10.757 -0.1873  0.6157  0.5604
 7590SOL    HW134406   1.904   4.537  10.712 -1.4516  0.6107  0.7138
 7590SOL    HW234407   1.929   4.486  10.845  2.7798 -0.8406  0.4800
 7591SOL     OW34408   4.237   0.743  12.744 -0.1326 -0.5498 -0.2357
 7591SOL    HW134409   4.301   0.720  12.677 -0.6151 -2.1231 -0.1538
 7591SOL    HW234410   4.268   0.829  12.773 -1.3618 -0.5484  1.0651
 7592SOL     OW34411   1.533   3.195   7.036  0.1113  0.8235 -0.2298
 7592SOL    HW134412   1.495   3.259   6.976 -0.3620  2.4532  1.8330
 7592SOL    HW234413   1.596   3.260   7.066  0.1726  1.2510 -1.3136
 7593SOL     OW34414   3.813   3.419  11.865 -0.3563 -0.4932 -0.3337
 7593SOL    HW134415   3.892   3.460  11.899  0.5970 -2.3424 -0.3117
 7593SOL    HW234416   3.834   3.327  11.881 -1.2874 -0.8055 -0.9266
 7594SOL     OW34417   0.470   2.185   1.645  0.6024 -0.5189 -0.4799
 7594SOL    HW134418   0.484   2.121   1.574 -2.5909  1.7091 -3.1316
 7594SOL    HW234419   0.414   2.253   1.607 -0.8150 -0.9800  0.8007
 7595SOL     OW34420   4.646   2.624  10.684 -0.3081 -0.0274  0.3346
 7595SOL    HW134421   4.569   2.588  10.727 -0.8183 -1.2785 -1.6013
 7595SOL    HW234422   4.673   2.553  10.626  0.6182  0.3068  0.3593
 7596SOL     OW34423   3.103   0.895   3.926 -0.0709  0.0426 -0.2360
 7596SOL    HW134424   3.028   0.880   3.869 -0.8898 -0.7321  1.0374
 7596SOL    HW234425   3.171   0.891   3.859  0.1208  1.2464 -0.1091
 7597SOL     OW34426   3.433   4.548   9.801  0.1445 -0.0561  0.2998
 7597SOL    HW134427   3.440   4.476   9.739  1.7650 -0.3219  0.7940
 7597SOL    HW234428   3.383   4.511   9.873 -1.8062  0.3801 -0.8545
 7598SOL     OW34429   1.557   1.194   3.060 -0.5124  0.4992 -0.1875
 7598SOL    HW134430   1.637   1.247   3.061  0.8942 -1.6077  3.1795
 7598SOL    HW234431   1.557   1.150   3.146  1.0146  1.0828  0.1118
 7599SOL     OW34432   3.301   4.725   3.587 -0.8205  0.1591  0.5975
 7599SOL    HW134433   3.313   0.073   3.637 -1.0872  0.4942  0.1175
 7599SOL    HW234434   3.282   4.657   3.652 -1.3961 -0.2235  0.0185
 7600SOL     OW34435   3.124   4.371  17.609  0.4330  0.0923 -0.1475
 7600SOL    HW134436   3.123   4.432  17.682 -2.0400 -0.7073  0.5030
 7600SOL    HW234437   3.156   4.292  17.653 -1.7025  0.1910  1.6176
 7601SOL     OW34438   3.880   2.990  12.116 -0.7260  0.1060 -0.0479
 7601SOL    HW134439   3.865   2.910  12.065  1.5840 -1.2405  1.3858
 7601SOL    HW234440   3.916   2.949  12.195  0.2357  1.4975  0.2275
 7602SOL     OW34441   0.967   3.480   2.125 -0.1080 -0.1482  0.3428
 7602SOL    HW134442   1.035   3.544   2.146  0.8376 -2.2583  3.7674
 7602SOL    HW234443   0.891   3.508   2.176 -0.0912  0.8292 -0.1746
 7603SOL     OW34444   0.600   1.704   3.662  0.3139 -0.4842 -0.1725
 7603SOL    HW134445   0.575   1.784   3.617 -1.1845 -1.4665 -1.0796
 7603SOL    HW234446   0.624   1.738   3.748  0.7043  1.6115 -1.1240
 7604SOL     OW34447   2.509   3.086   7.739 -0.0804 -0.0468 -0.0893
 7604SOL    HW134448   2.433   3.031   7.758  0.3110 -0.3278  0.6631
 7604SOL    HW234449   2.572   3.015   7.730 -0.6517 -0.5599 -0.0732
 7605SOL     OW34450   3.278   0.679  10.852 -0.0834  0.1049 -0.0943
 7605SOL    HW134451   3.200   0.700  10.801 -0.5065 -0.9538  0.1138
 7605SOL    HW234452   3.321   0.762  10.872 -1.6577  0.5131  1.5904
 7606SOL     OW34453   1.853   3.124  11.124  0.4014  0.2153 -0.0019
 7606SOL    HW134454   1.901   3.123  11.042  0.8394 -1.0383  0.2679
 7606SOL    HW234455   1.785   3.190  11.111 -0.4392 -0.7773 -0.6502
 7607SOL     OW34456   4.334   1.501   5.219 -0.2251 -0.0141 -0.7052
 7607SOL    HW134457   4.260   1.503   5.279  0.1436 -2.6318 -0.1445
 7607SOL    HW234458   4.334   1.409   5.195 -0.5625 -0.0708 -0.4854
 7608SOL     OW34459   0.255   3.341   7.190 -0.1335  0.1531  0.4122
 7608SOL    HW134460   0.175   3.297   7.162  0.2802  0.5203 -1.3451
 7608SOL    HW234461   0.270   3.295   7.273  1.7092  0.5488  0.3142
 7609SOL     OW34462   2.546   0.712   6.341  0.2515 -0.1821  0.1978
 7609SOL    HW134463   2.504   0.777   6.284  0.9014 -0.3506 -0.4648
 7609SOL    HW234464   2.520   0.743   6.428  1.0521 -1.1763  0.7786
 7610SOL     OW34465   1.426   0.932   5.700 -0.6495  0.2914  0.0234
 7610SOL    HW134466   1.391   0.928   5.611 -0.8670  0.0698  0.1182
 7610SOL    HW234467   1.412   1.020   5.736  1.3011  1.1312 -1.2790
 7611SOL     OW34468   3.006   0.421  14.022  0.6003  0.6252 -0.6452
 7611SOL    HW134469   3.067   0.357  14.061  0.0296  0.9407  0.7751
 7611SOL    HW234470   2.942   0.356  13.994  0.1223  0.5711  0.5876
 7612SOL     OW34471   1.952   4.689   8.600  0.2363  0.4063 -0.4787
 7612SOL    HW134472   1.900   4.693   8.519  0.7367  0.8490 -0.7779
 7612SOL    HW234473   1.908   4.618   8.646  0.2449  3.0232  3.5946
 7613SOL     OW34474   0.667   0.123   8.055 -0.2973 -0.5315  0.5220
 7613SOL    HW134475   0.577   0.112   8.085 -0.4302  0.8749  0.6512
 7613SOL    HW234476   0.679   0.044   8.003  3.1071  0.4115 -0.1117
 7614SOL     OW34477   2.460   3.339   4.283  0.2493 -0.0636 -0.0131
 7614SOL    HW134478   2.410   3.401   4.337 -0.4213 -0.2529 -0.4227
 7614SOL    HW234479   2.520   3.306   4.350  1.2749 -0.9327 -1.3609
 7615SOL     OW34480   4.367   2.818  13.503  0.0493 -0.5852 -0.1953
 7615SOL    HW134481   4.398   2.825  13.412 -1.3264 -0.4666 -0.6581
 7615SOL    HW234482   4.272   2.828  13.498 -0.2145 -2.2320  1.9314
 7616SOL     OW34483   2.604   3.839  15.989  0.1253 -0.2214  0.0618
 7616SOL    HW134484   2.565   3.916  15.948 -0.8519 -0.8986 -0.2869
 7616SOL    HW234485   2.525   3.785  15.993 -0.0915  0.1436  0.7916
 7617SOL     OW34486   2.976   2.644   2.120 -0.0526  0.3082  0.3097
 7617SOL    HW134487   2.903   2.582   2.117 -0.0820  0.2666  1.8547
 7617SOL    HW234488   3.031   2.611   2.050 -0.2749 -0.0055  0.2815
 7618SOL     OW34489   3.189   0.989   5.207  0.2462 -0.3461  0.3736
 7618SOL    HW134490   3.120   1.009   5.270  2.2963 -0.0967  2.5813
 7618SOL    HW234491   3.147   0.943   5.134  0.4105 -0.7515  0.5354
 7619SOL     OW34492   3.378   2.552   6.549  0.0839  0.1152  0.4857
 7619SOL    HW134493   3.431   2.627   6.521  0.1763  0.0419  0.4632
 7619SOL    HW234494   3.425   2.532   6.630  0.8306  0.3503  0.1046
 7620SOL     OW34495   3.657   0.135   0.208 -0.2441  0.1843  0.3828
 7620SOL    HW134496   3.647   0.227   0.230  0.1298  0.3720 -0.2102
 7620SOL    HW234497   3.614   0.138   0.122 -1.0209  0.6183  0.7922
 7621SOL     OW34498   2.733   2.721   9.405  0.0434  0.7086  0.5731
 7621SOL    HW134499   2.727   2.638   9.357  0.4528 -0.0627  1.8644
 7621SOL    HW234500   2.810   2.700   9.457  0.1818  2.2951  1.0073
 7622SOL     OW34501   1.723   3.791   3.832  0.4109 -0.2028  0.6438
 7622SOL    HW134502   1.686   3.784   3.920  0.6024 -0.4508  0.7026
 7622SOL    HW234503   1.813   3.817   3.850  0.7566 -2.2754  1.8559
 7623SOL     OW34504   1.920   4.274   9.311  0.8541  0.1879 -0.3305
 7623SOL    HW134505   2.000   4.271   9.364  0.2941  0.9985  0.5792
 7623SOL    HW234506   1.938   4.367   9.292  0.8885 -0.0624 -1.5163
 7624SOL     OW34507   3.475   0.472  15.741 -0.6202 -0.2330  0.1523
 7624SOL    HW134508   3.480   0.408  15.812 -3.3729  0.3937  0.9046
 7624SOL    HW234509   3.427   0.543  15.784  1.5149  1.4858 -0.2918
 7625SOL     OW34510   3.027   3.199  15.136  0.0360 -0.1272  0.0730
 7625SOL    HW134511   3.060   3.287  15.151 -1.5072  0.5496 -0.5099
 7625SOL    HW234512   3.028   3.169  15.227  1.5514 -1.1262 -0.2584
 7626SOL     OW34513   1.729   1.085   8.830 -0.4594 -0.7376  0.2800
 7626SOL    HW134514   1.656   1.119   8.778  0.3383  0.2472 -0.1897
 7626SOL    HW234515   1.795   1.077   8.761  0.3711  2.6460  0.6911
 7627SOL     OW34516   1.923   4.692   0.627  0.2352 -0.2254 -0.0662
 7627SOL    HW134517   1.986   4.620   0.619  0.6840  0.0298  1.2235
 7627SOL    HW234518   1.927   4.712   0.721 -0.7668 -0.8071  0.1009
 7628SOL     OW34519   0.544   3.413   4.773  0.4416  0.0128  0.0730
 7628SOL    HW134520   0.536   3.373   4.859 -2.1648  1.2352  0.3941
 7628SOL    HW234521   0.636   3.437   4.779  0.0209  1.8078 -0.4951
 7629SOL     OW34522   1.807   4.280   8.715 -0.1692 -0.1080  0.3492
 7629SOL    HW134523   1.856   4.279   8.633  2.2076  1.6030  1.7399
 7629SOL    HW234524   1.721   4.257   8.680  0.2758 -1.3465  0.0645
 7630SOL     OW34525   1.143   2.667  11.465  0.0034  0.1445  0.3373
 7630SOL    HW134526   1.058   2.631  11.438  1.2849 -0.2214 -3.1329
 7630SOL    HW234527   1.195   2.653  11.386  0.2758 -1.0239  0.7237
 7631SOL     OW34528   1.082   1.683   2.253 -0.5278 -0.3866 -0.2778
 7631SOL    HW134529   1.020   1.669   2.182 -1.0767 -1.1584  0.3559
 7631SOL    HW234530   1.060   1.611   2.312 -0.5617 -1.5798 -1.7538
 7632SOL     OW34531   4.302   0.823  13.819 -0.3476 -0.0201 -0.2066
 7632SOL    HW134532   4.349   0.864  13.746  1.4353 -0.7338  0.5518
 7632SOL    HW234533   4.288   0.900  13.874  2.2053 -1.5204  2.5290
 7633SOL     OW34534   0.448   3.652   8.816 -0.0303  0.1208 -0.2332
 7633SOL    HW134535   0.440   3.572   8.867  0.5292  0.8073  0.9217
 7633SOL    HW234536   0.394   3.620   8.744  0.3801  0.5801 -0.7445
 7634SOL     OW34537   2.580   2.994   2.179 -0.2083  0.1333  0.4761
 7634SOL    HW134538   2.619   3.072   2.218 -1.1143  0.0426  1.5903
 7634SOL    HW234539   2.636   2.921   2.205  0.5226  0.4330 -0.2625
 7635SOL     OW34540   4.238   2.144   7.851  0.1896 -0.6128  0.6588
 7635SOL    HW134541   4.284   2.080   7.906  1.2689  0.4046  0.9514
 7635SOL    HW234542   4.201   2.200   7.919  0.8023  1.0209 -0.3498
 7636SOL     OW34543   1.273   4.639   7.941  0.0061  0.0198  0.0127
 7636SOL    HW134544   1.217   4.677   7.873 -1.6411 -2.1066  0.1743
 7636SOL    HW234545   1.359   4.665   7.910 -0.5938  1.5205 -0.4006
 7637SOL     OW34546   3.511   1.050   9.398  0.0323 -0.6667  0.6778
 7637SOL    HW134547   3.599   1.042   9.359  0.0500  0.2044  0.5390
 7637SOL    HW234548   3.465   1.070   9.316  0.0086 -0.4080  0.7544
 7638SOL     OW34549   0.315   3.375   4.593 -0.1188 -0.0529  0.0378
 7638SOL    HW134550   0.395   3.408   4.634  1.0148 -2.3515 -0.3298
 7638SOL    HW234551   0.325   3.281   4.608  1.3795  0.0611 -0.2650
 7639SOL     OW34552   4.231   1.578   0.029 -0.1680  0.3814 -0.2399
 7639SOL    HW134553   4.173   1.546   0.098 -1.0017  0.9205 -0.6978
 7639SOL    HW234554   4.307   1.527   0.057  0.3152  0.6599 -1.0611
 7640SOL     OW34555   3.309   1.101   5.459  0.0577  0.2788 -0.5640
 7640SOL    HW134556   3.327   1.126   5.549 -0.4256  1.9795 -0.9419
 7640SOL    HW234557   3.242   1.033   5.467  0.1741 -0.0441 -2.3130
 7641SOL     OW34558   3.956   4.170   9.716 -0.0092  0.0146 -0.0820
 7641SOL    HW134559   3.869   4.139   9.739 -1.4539  2.5579 -2.0726
 7641SOL    HW234560   3.937   4.245   9.659  1.2524 -0.1865 -0.7701
 7642SOL     OW34561   3.068   2.217   7.953  0.2426 -0.0447  1.1080
 7642SOL    HW134562   3.077   2.244   8.044 -1.2693  1.3446  0.8499
 7642SOL    HW234563   3.081   2.122   7.951 -1.4003 -0.2426 -0.0588
 7643SOL     OW34564   3.822   4.652   6.184 -0.6102 -0.1267  0.0674
 7643SOL    HW134565   3.914   4.647   6.157 -0.2159  1.3514  1.1424
 7643SOL    HW234566   3.802   0.011   6.176  1.6481  0.1268 -2.4193
 7644SOL     OW34567   3.141   3.372   0.423 -0.1304  0.3422  0.3389
 7644SOL    HW134568   3.148   3.467   0.423  1.9013  0.1914 -1.3262
 7644SOL    HW234569   3.105   3.344   0.507 -2.1090  0.4570 -0.4753
 7645SOL     OW34570   2.264   3.119  16.066 -0.1749 -0.2190 -0.0207
 7645SOL    HW134571   2.330   3.143  16.000  0.0838  0.1407  0.3721
 7645SOL    HW234572   2.319   3.107  16.143  2.0203  0.1161 -1.5160
 7646SOL     OW34573   3.971   1.665   5.046  0.0899  0.0092 -0.1020
 7646SOL    HW134574   3.887   1.637   5.083 -0.2491 -0.7551 -1.4475
 7646SOL    HW234575   4.021   1.587   5.025 -0.7890 -0.3851 -0.6959
 7647SOL     OW34576   0.456   2.640   7.766  0.6017 -0.0790 -0.7959
 7647SOL    HW134577   0.374   2.688   7.751  0.2184  0.2486  2.3496
 7647SOL    HW234578   0.521   2.710   7.772  0.6044 -0.0734 -0.8921
 7648SOL     OW34579   0.545   3.381   2.212 -0.0160 -0.7834 -0.2383
 7648SOL    HW134580   0.563   3.475   2.218 -0.1392 -0.8098  0.5699
 7648SOL    HW234581   0.584   3.341   2.289 -2.5286 -0.7553  1.0485
 7649SOL     OW34582   4.659   2.492   9.543 -0.2334 -0.2196 -0.3058
 7649SOL    HW134583   4.664   2.534   9.629 -1.3642  0.1456 -0.4107
 7649SOL    HW234584   4.699   2.562   9.492 -1.1506 -1.6061 -2.9584
 7650SOL     OW34585   1.810   2.095  15.454 -0.1077 -0.4296  0.3988
 7650SOL    HW134586   1.784   2.127  15.367 -1.2343 -2.8891 -0.1683
 7650SOL    HW234587   1.790   2.172  15.506  0.6235  1.1142 -1.6013
 7651SOL     OW34588   0.655   1.498   5.843  0.0217 -0.1746  0.9899
 7651SOL    HW134589   0.693   1.431   5.786  0.2376 -0.9479  2.0492
 7651SOL    HW234590   0.723   1.518   5.907  0.6231  1.5820 -0.2130
 7652SOL     OW34591   0.395   0.099   7.223 -0.2790 -0.2228 -0.0960
 7652SOL    HW134592   0.354   0.110   7.137 -1.7215 -0.6977  0.5287
 7652SOL    HW234593   0.331   0.045   7.268  1.0053 -0.3315  1.5865
 7653SOL     OW34594   0.597   3.762   8.512 -0.8198  0.1242 -0.2096
 7653SOL    HW134595   0.607   3.706   8.589 -1.1822 -0.4008 -0.5397
 7653SOL    HW234596   0.527   3.817   8.546 -2.0064  0.9213 -3.9689
 7654SOL     OW34597   2.580   2.645  13.926 -0.2141  0.1440 -0.4111
 7654SOL    HW134598   2.563   2.560  13.967  0.7042  0.5136  0.7485
 7654SOL    HW234599   2.647   2.690  13.978  0.9318 -2.7622  0.6225
 7655SOL     OW34600   1.440   1.827   1.583 -0.0137  0.5681  0.0981
 7655SOL    HW134601   1.389   1.763   1.534 -1.4181  2.8998 -1.4888
 7655SOL    HW234602   1.490   1.870   1.513 -0.7020  1.9368  0.4464
 7656SOL     OW34603   0.535   2.836  17.144  0.6674 -0.5410 -0.6135
 7656SOL    HW134604   0.491   2.882  17.072  2.1830  1.2355 -0.4139
 7656SOL    HW234605   0.457   2.784  17.165  1.4668 -1.2115  0.6504
 7657SOL     OW34606   3.772   2.399   3.555 -0.2654  0.0165 -1.0804
 7657SOL    HW134607   3.751   2.448   3.476  1.9677  2.3339 -0.2375
 7657SOL    HW234608   3.865   2.391   3.532 -0.4533 -0.0920 -1.7985
 7658SOL     OW34609   3.730   2.696   8.406  0.1293  0.3330 -0.0164
 7658SOL    HW134610   3.763   2.612   8.439  3.5519  1.5171 -0.4268
 7658SOL    HW234611   3.789   2.712   8.333 -0.1370 -0.7746 -0.4686
 7659SOL     OW34612   2.093   2.101  15.656  0.3636  0.1098 -0.0507
 7659SOL    HW134613   2.158   2.046  15.699 -0.0067 -0.5016 -0.2658
 7659SOL    HW234614   2.017   2.043  15.653  1.1990 -0.8672 -2.4788
 7660SOL     OW34615   2.524   0.663   7.511  0.2439 -0.3349 -0.7109
 7660SOL    HW134616   2.475   0.590   7.549  1.9041 -0.4419  1.2004
 7660SOL    HW234617   2.587   0.606   7.466  0.2952 -0.4828 -0.4536
 7661SOL     OW34618   3.187   1.800   4.355 -0.5222 -0.4573 -0.4965
 7661SOL    HW134619   3.269   1.800   4.306 -0.8083 -1.1336 -0.9758
 7661SOL    HW234620   3.204   1.731   4.418  0.7242 -0.9036 -1.3279
 7662SOL     OW34621   0.400   3.358   3.602  0.7388 -0.3930  0.4161
 7662SOL    HW134622   0.490   3.372   3.632  1.4673 -1.9080 -1.0803
 7662SOL    HW234623   0.352   3.440   3.611 -2.7257 -2.6043  2.1887
 7663SOL     OW34624   1.735   0.236  14.713 -0.1343  0.0254  0.5923
 7663SOL    HW134625   1.660   0.181  14.691 -0.2764  0.2272  0.5787
 7663SOL    HW234626   1.803   0.172  14.736 -0.7308 -0.1340  1.8954
 7664SOL     OW34627   0.106   4.125  16.905  0.4257 -0.7427  0.0217
 7664SOL    HW134628   0.041   4.167  16.848  0.4820 -2.8976 -1.6125
 7664SOL    HW234629   0.071   4.163  16.985 -0.5310  0.7165 -1.0848
 7665SOL     OW34630   4.577   0.374   2.795  0.0812 -0.4832 -0.2632
 7665SOL    HW134631   4.603   0.440   2.731  0.3480  0.4493  0.8080
 7665SOL    HW234632   4.543   0.433   2.862 -0.7055 -0.3406 -0.7932
 7666SOL     OW34633   3.818   3.434   3.737 -0.3693  0.1360 -0.0446
 7666SOL    HW134634   3.903   3.457   3.774  0.9436 -0.1904 -2.8539
 7666SOL    HW234635   3.852   3.400   3.654 -1.0753  1.2405 -0.7905
 7667SOL     OW34636   4.532   2.795   3.626 -0.4647  0.7526 -0.1615
 7667SOL    HW134637   4.573   2.810   3.711  0.3080 -2.1409 -0.0201
 7667SOL    HW234638   4.478   2.718   3.642  2.3475 -0.9331  1.1784
 7668SOL     OW34639   2.993   1.992   4.380  0.3829 -0.4200 -0.5954
 7668SOL    HW134640   3.054   1.918   4.381 -0.2898 -0.9466  1.1004
 7668SOL    HW234641   3.055   2.062   4.401 -0.3921  0.3030 -0.6953
 7669SOL     OW34642   0.678   0.240   2.672  0.0467  0.7208  0.1357
 7669SOL    HW134643   0.583   0.226   2.678  0.0962  0.7338  0.9148
 7669SOL    HW234644   0.708   0.167   2.617 -2.6820 -0.9896  0.8840
 7670SOL     OW34645   3.294   0.904  16.032 -0.4236  0.0286 -0.1608
 7670SOL    HW134646   3.289   1.000  16.031 -0.9284  0.0001 -0.3966
 7670SOL    HW234647   3.355   0.892  16.105  0.7077  0.5129 -1.0244
 7671SOL     OW34648   2.149   3.645   0.905 -0.1486 -0.3726  0.0910
 7671SOL    HW134649   2.186   3.644   0.994 -2.9156  0.4761  1.2457
 7671SOL    HW234650   2.078   3.584   0.921 -1.1790  0.0894 -2.7758
 7672SOL     OW34651   3.938   3.139   0.664 -0.2987  0.4051  0.0294
 7672SOL    HW134652   3.973   3.135   0.753 -3.0324 -0.0742  1.0843
 7672SOL    HW234653   3.990   3.060   0.647 -1.2465  0.0760 -1.3737
 7673SOL     OW34654   2.053   0.961  15.336  0.2806 -0.2998 -0.1508
 7673SOL    HW134655   2.073   0.873  15.306  1.1455 -0.7979  1.9091
 7673SOL    HW234656   2.131   0.983  15.388 -0.1393  3.0131 -0.8923
 7674SOL     OW34657   3.714   1.031   7.109 -0.2244 -0.3858 -0.1055
 7674SOL    HW134658   3.779   1.075   7.055 -0.2677 -2.7307 -2.0362
 7674SOL    HW234659   3.642   1.047   7.048  1.6067  1.9554 -1.6313
 7675SOL     OW34660   0.453   4.354   9.382 -0.1371 -0.2274 -0.0945
 7675SOL    HW134661   0.518   4.409   9.426 -0.1257 -0.4260  0.1334
 7675SOL    HW234662   0.372   4.393   9.415  0.1731 -0.5629  1.0600
 7676SOL     OW34663   1.925   1.224   0.502  0.3381 -0.2922  0.0119
 7676SOL    HW134664   2.007   1.187   0.469  1.3119  1.4776  0.4582
 7676SOL    HW234665   1.863   1.178   0.447 -0.1345  0.8874 -0.4289
 7677SOL     OW34666   4.194   4.326   7.237 -0.3109  0.1540 -0.2209
 7677SOL    HW134667   4.110   4.323   7.284 -0.8143 -3.7477 -1.3266
 7677SOL    HW234668   4.167   4.281   7.157  1.4602  1.5129 -1.5711
 7678SOL     OW34669   3.331   1.178   6.695 -0.2985 -0.3830  0.3895
 7678SOL    HW134670   3.260   1.241   6.707  1.6734  2.3417 -2.4313
 7678SOL    HW234671   3.286   1.094   6.702 -0.8500 -0.3562 -2.9573
 7679SOL     OW34672   1.827   0.764   9.344 -0.1486  0.1789 -0.2628
 7679SOL    HW134673   1.864   0.683   9.378 -1.6950 -1.5042 -2.6438
 7679SOL    HW234674   1.905   0.808   9.310 -0.6209 -0.5002 -2.2085
 7680SOL     OW34675   3.654   1.748   4.564 -0.0040  0.3896  0.1314
 7680SOL    HW134676   3.703   1.697   4.628  1.3094  0.6618 -0.6536
 7680SOL    HW234677   3.694   1.835   4.568  0.4582  0.1214  1.2720
 7681SOL     OW34678   3.502   3.700   8.175  0.2091  0.5717  0.3766
 7681SOL    HW134679   3.493   3.795   8.167  2.9195  0.8086  0.1195
 7681SOL    HW234680   3.596   3.688   8.188  0.0490 -0.4432  0.5654
 7682SOL     OW34681   4.445   1.195   4.690 -0.3259  0.0643  0.1279
 7682SOL    HW134682   4.510   1.125   4.697  0.1832  0.8075  3.0220
 7682SOL    HW234683   4.482   1.252   4.622 -3.2780  1.7172 -0.1101
 7683SOL     OW34684   0.334   3.552  12.113 -0.2448  0.0739 -0.4672
 7683SOL    HW134685   0.327   3.547  12.017  1.2591 -1.1948 -0.5165
 7683SOL    HW234686   0.387   3.632  12.119 -0.3087  0.2456 -2.1353
 7684SOL     OW34687   3.745   3.313   0.794  0.2491  0.4223  0.0742
 7684SOL    HW134688   3.837   3.295   0.776 -0.1787 -0.5214 -1.1393
 7684SOL    HW234689   3.711   3.283   0.710 -0.4938  0.7955  0.2420
 7685SOL     OW34690   0.829   0.885   1.637 -0.1683  0.0755  0.5717
 7685SOL    HW134691   0.906   0.935   1.664  0.3913  0.1397 -1.1724
 7685SOL    HW234692   0.759   0.935   1.679  1.8168  2.1078  1.4384
 7686SOL     OW34693   3.172   2.578   8.145  0.0479  0.2318 -0.0561
 7686SOL    HW134694   3.100   2.533   8.101  0.2671 -0.9410  0.7859
 7686SOL    HW234695   3.165   2.550   8.237  3.4933  1.4190  0.5656
 7687SOL     OW34696   0.399   2.464  12.353  0.4439 -0.0522 -0.1807
 7687SOL    HW134697   0.373   2.479  12.262  1.4010  1.8172 -0.1453
 7687SOL    HW234698   0.459   2.537  12.367  0.2073  0.2315 -0.6327
 7688SOL     OW34699   4.057   1.660   8.022  0.0071 -0.5884  0.1512
 7688SOL    HW134700   4.151   1.664   8.009 -0.0939  1.6582  0.0829
 7688SOL    HW234701   4.058   1.569   7.990  2.2446 -0.5937  0.2581
 7689SOL     OW34702   3.680   4.387   6.595 -0.0652  0.2985  0.0038
 7689SOL    HW134703   3.594   4.397   6.635  0.3808  0.5729  0.9042
 7689SOL    HW234704   3.684   4.460   6.533  0.7406 -1.2114 -1.7351
 7690SOL     OW34705   3.941   3.350   8.870 -0.4292  0.2810  0.2916
 7690SOL    HW134706   3.988   3.318   8.948  0.7267  0.1544 -0.4556
 7690SOL    HW234707   3.956   3.276   8.811 -1.3537  1.0629 -0.8936
 7691SOL     OW34708   0.812   0.086  11.456  0.5648 -0.0871 -0.5288
 7691SOL    HW134709   0.783   0.174  11.430  3.2292  0.8861 -0.2638
 7691SOL    HW234710   0.901   0.099  11.490 -0.4577  1.7131  1.3962
 7692SOL     OW34711   4.070   1.022   2.018  0.3076 -0.0943 -0.5844
 7692SOL    HW134712   4.117   1.106   2.017 -0.6151  0.4300 -0.1805
 7692SOL    HW234713   4.073   1.017   1.922  0.8862 -0.7353 -0.5313
 7693SOL     OW34714   1.123   1.610   2.809  0.2078  0.2993  0.4586
 7693SOL    HW134715   1.201   1.664   2.792  0.3830  0.3448  1.4057
 7693SOL    HW234716   1.051   1.673   2.805 -0.8600 -0.8832  1.2492
 7694SOL     OW34717   3.221   4.680  15.214 -0.2206 -0.0195  0.4512
 7694SOL    HW134718   3.135   4.689  15.174 -1.2443 -2.2658  2.1531
 7694SOL    HW234719   3.268   4.659  15.133 -0.5847 -2.3368  0.8378
 7695SOL     OW34720   2.081   3.971   9.560 -0.1293 -0.3609  0.1788
 7695SOL    HW134721   2.047   3.886   9.587 -4.2927  0.2853 -3.0298
 7695SOL    HW234722   2.145   3.990   9.628 -1.2049  0.1011  1.0755
 7696SOL     OW34723   4.716   4.602   8.100 -0.2511 -0.5770 -0.5404
 7696SOL    HW134724   4.660   4.624   8.025 -0.0508  0.5537 -0.3622
 7696SOL    HW234725   0.068   4.622   8.063  0.3094 -2.6777 -0.3441
 7697SOL     OW34726   1.694   4.489  15.394  0.0026 -0.7120  0.3188
 7697SOL    HW134727   1.690   4.574  15.352 -0.7116 -1.3318 -0.8663
 7697SOL    HW234728   1.779   4.488  15.438  0.5089  1.7252 -0.6417
 7698SOL     OW34729   0.821   3.288   7.936  0.6094  0.1287  0.3672
 7698SOL    HW134730   0.880   3.256   8.004 -2.5469  0.7786  3.3944
 7698SOL    HW234731   0.767   3.209   7.927  1.7085 -0.3894 -1.7209
 7699SOL     OW34732   0.550   2.350   8.382 -0.4507  0.2414  0.2308
 7699SOL    HW134733   0.463   2.352   8.342 -0.2163 -2.1189 -0.3821
 7699SOL    HW234734   0.558   2.446   8.386 -0.9526  0.2524  0.8889
 7700SOL     OW34735   3.973   0.455   3.239  1.2589 -0.0247  0.4580
 7700SOL    HW134736   3.951   0.411   3.157 -0.3162  0.7162  0.4783
 7700SOL    HW234737   3.988   0.546   3.210  0.0218  0.1987  0.5350
 7701SOL     OW34738   3.627   0.453   7.033  0.0686  0.1676  0.1686
 7701SOL    HW134739   3.701   0.394   7.024 -0.3805 -0.1996 -1.1383
 7701SOL    HW234740   3.599   0.443   7.125 -0.2567 -0.0433  0.0480
 7702SOL     OW34741   2.292   4.255   0.693  0.2827 -0.6572  0.3113
 7702SOL    HW134742   2.302   4.160   0.692  1.4344 -0.5350  0.2769
 7702SOL    HW234743   2.263   4.276   0.781  1.7471  0.8634  0.4290
 7703SOL     OW34744   0.830   3.182  12.259 -0.7088 -0.0716  0.2710
 7703SOL    HW134745   0.761   3.228  12.212 -1.5566 -4.3018 -2.6651
 7703SOL    HW234746   0.816   3.206  12.350  0.9021 -0.1450  0.5477
 7704SOL     OW34747   3.233   4.508  11.095  0.7062 -0.4301  0.7302
 7704SOL    HW134748   3.308   4.504  11.036  0.6399  1.1435  0.5364
 7704SOL    HW234749   3.243   4.598  11.126  3.2323 -0.2446 -0.6354
 7705SOL     OW34750   2.371   1.135  13.095  0.2260 -0.4243  0.3166
 7705SOL    HW134751   2.276   1.138  13.100  0.2262 -0.9713  0.6708
 7705SOL    HW234752   2.392   1.206  13.035 -1.0530  1.0721  1.6609
 7706SOL     OW34753   0.077   0.066   5.913  0.2418  0.2346 -0.3300
 7706SOL    HW134754   0.134   0.140   5.893  0.7583 -0.9598 -3.2396
 7706SOL    HW234755   0.020   0.072   5.836 -0.0143 -1.6150 -0.2805
 7707SOL     OW34756   3.153   0.749   8.626 -0.7072  0.0132  0.1056
 7707SOL    HW134757   3.165   0.753   8.721 -2.2931 -0.8402  0.3349
 7707SOL    HW234758   3.112   0.835   8.620 -0.6071 -0.0330 -1.2446
 7708SOL     OW34759   2.070   2.197   3.612  0.5600  0.0673  0.1407
 7708SOL    HW134760   2.032   2.283   3.591  1.9131  0.3849 -1.0623
 7708SOL    HW234761   2.135   2.228   3.676  0.8314 -0.0017 -0.1017
 7709SOL     OW34762   2.907   2.909  14.934 -0.2807 -0.4261  0.3535
 7709SOL    HW134763   2.942   2.844  14.873 -1.0398  0.9079 -1.4759
 7709SOL    HW234764   2.948   2.988  14.898  0.5246 -1.0001 -0.0022
 7710SOL     OW34765   2.227   4.004  10.869  0.0898  0.0624  0.4121
 7710SOL    HW134766   2.133   4.018  10.854 -0.6579 -3.3949  1.9211
 7710SOL    HW234767   2.245   4.067  10.939 -0.0717 -0.0973  0.5989
 7711SOL     OW34768   2.815   2.568  14.434  0.1518  0.0334  0.5513
 7711SOL    HW134769   2.738   2.520  14.403  0.0953  2.1329 -2.5313
 7711SOL    HW234770   2.775   2.645  14.473  0.9110  0.0031  1.4103
 7712SOL     OW34771   1.331   0.214  16.426  0.3448 -0.2252 -0.3369
 7712SOL    HW134772   1.335   0.283  16.361  1.4029  0.3533  0.3518
 7712SOL    HW234773   1.245   0.184  16.397  1.2627 -1.2793 -1.9840
 7713SOL     OW34774   0.790   2.878   1.992  0.2310  0.0342 -0.4360
 7713SOL    HW134775   0.774   2.791   1.957 -2.7212 -0.1646  1.4488
 7713SOL    HW234776   0.701   2.911   1.999  0.6381  1.0251  0.0604
 7714SOL     OW34777   3.200   3.813   6.876  0.2265 -0.3961  0.1656
 7714SOL    HW134778   3.281   3.861   6.856  0.1807 -0.3672  0.0465
 7714SOL    HW234779   3.234   3.739   6.925  3.5235  0.7580 -0.3479
 7715SOL     OW34780   3.396   0.775  12.302 -0.3661 -0.3696  0.8224
 7715SOL    HW134781   3.481   0.802  12.267 -0.9178 -0.6001 -0.7088
 7715SOL    HW234782   3.420   0.736  12.385  0.3572 -2.4857 -0.3783
 7716SOL     OW34783   3.270   1.936   9.959 -0.0328  0.0526  0.5315
 7716SOL    HW134784   3.349   1.932   9.905 -1.2171 -0.1784 -1.2170
 7716SOL    HW234785   3.209   2.001   9.925 -1.6771 -0.9865  1.4939
 7717SOL     OW34786   2.421   2.813   2.524  0.4638 -0.6798  0.1579
 7717SOL    HW134787   2.491   2.870   2.492 -0.5129  1.2704  1.4531
 7717SOL    HW234788   2.427   2.751   2.452  0.7949 -0.5062  0.0361
 7718SOL     OW34789   0.661   2.931   7.568 -0.2846  0.2841  0.1130
 7718SOL    HW134790   0.719   2.905   7.496 -0.2232 -0.5933  0.4794
 7718SOL    HW234791   0.692   2.880   7.643 -1.0480  2.6295  2.0129
 7719SOL     OW34792   3.204   4.449   4.358 -0.1833  0.6229 -0.0143
 7719SOL    HW134793   3.274   4.515   4.363 -1.2629  1.5179  3.0170
 7719SOL    HW234794   3.225   4.390   4.431  1.4930  1.1478 -0.0578
 7720SOL     OW34795   3.412   4.536   6.569  0.1047  0.4053  0.2460
 7720SOL    HW134796   3.348   4.507   6.635  0.9249  2.4574  1.9555
 7720SOL    HW234797   3.385   4.487   6.491  0.2445 -0.8653  1.0037
 7721SOL     OW34798   3.644   0.874   3.863  0.6356 -0.0795  0.0158
 7721SOL    HW134799   3.715   0.938   3.856  1.8107 -1.3552  0.0261
 7721SOL    HW234800   3.670   0.812   3.794  0.7708  0.1006 -0.0943
 7722SOL     OW34801   3.173   0.163   2.812 -0.1126  0.1670 -0.1545
 7722SOL    HW134802   3.109   0.092   2.819 -0.1533  0.3853  1.7761
 7722SOL    HW234803   3.172   0.167   2.717 -1.2426 -0.0346 -0.1542
 7723SOL     OW34804   0.672   0.831  10.484 -0.2937  0.4275  0.7179
 7723SOL    HW134805   0.745   0.776  10.456 -2.0302 -0.1044 -2.7561
 7723SOL    HW234806   0.718   0.872  10.558  0.9134 -2.3514  1.4775
 7724SOL     OW34807   0.968   4.095   6.225  0.2372 -0.5031  0.5622
 7724SOL    HW134808   0.885   4.092   6.177  0.2199  0.4147  0.5254
 7724SOL    HW234809   1.023   4.023   6.195  0.4586  0.3596 -1.1164
 7725SOL     OW34810   0.976   4.520   9.778  0.5289 -0.4142  0.7792
 7725SOL    HW134811   0.920   4.577   9.830 -0.1263 -0.5483  0.2224
 7725SOL    HW234812   0.923   4.441   9.771 -1.0229  0.5960  1.2395
 7726SOL     OW34813   4.669   0.491  11.183  0.0310  0.7422  0.0283
 7726SOL    HW134814   4.616   0.509  11.261 -0.1001 -0.0061  0.1106
 7726SOL    HW234815   0.022   0.478  11.220 -0.3821  0.9675  1.0903
 7727SOL     OW34816   3.238   0.725   1.535 -0.7158 -0.1164 -1.3320
 7727SOL    HW134817   3.160   0.685   1.573 -0.5735 -1.0451 -2.0214
 7727SOL    HW234818   3.228   0.820   1.536  0.9565  0.0440  0.1546
 7728SOL     OW34819   1.044   2.289  12.772 -0.2232  1.0362 -0.5819
 7728SOL    HW134820   1.028   2.277  12.865 -0.0808 -1.4088 -0.8543
 7728SOL    HW234821   0.993   2.369  12.759  1.0767  1.7633 -1.2842
 7729SOL     OW34822   1.386   0.064  12.837  0.1650 -0.3584 -0.1683
 7729SOL    HW134823   1.465   0.081  12.888  1.2993 -2.7539 -1.1586
 7729SOL    HW234824   1.416   0.010  12.764 -4.0011 -2.5035 -0.2787
 7730SOL     OW34825   4.645   2.487   5.943  0.5464 -0.3866 -0.7563
 7730SOL    HW134826   4.588   2.548   5.896  1.6243  0.1749 -1.3241
 7730SOL    HW234827   4.598   2.404   5.935 -0.3138  0.0751 -0.5604
 7731SOL     OW34828   3.992   3.168   9.096  0.0231  0.2877  0.0460
 7731SOL    HW134829   3.997   3.167   9.192  1.5244 -0.6896 -0.0414
 7731SOL    HW234830   3.917   3.108   9.087  1.4907 -1.0562 -3.0162
 7732SOL     OW34831   4.294   2.443   4.703  0.9334  0.2258  0.0876
 7732SOL    HW134832   4.388   2.425   4.705  0.7072 -0.8521  0.6912
 7732SOL    HW234833   4.259   2.386   4.771  1.0230 -0.1384 -0.1720
 7733SOL     OW34834   4.636   0.691   5.922 -0.3639 -0.5526 -0.0035
 7733SOL    HW134835   4.707   0.749   5.896 -0.6042 -0.7569 -1.1205
 7733SOL    HW234836   4.589   0.756   5.975  1.2229  0.1425  0.5453
 7734SOL     OW34837   3.234   0.757  14.147  0.3470  0.3209  0.4653
 7734SOL    HW134838   3.147   0.716  14.150 -0.9487  3.0374 -0.4182
 7734SOL    HW234839   3.228   0.811  14.225 -1.8850  0.5953  0.1059
 7735SOL     OW34840   3.297   2.846   9.563 -0.1731  0.0481 -0.4914
 7735SOL    HW134841   3.231   2.845   9.494 -0.7151 -1.9526  0.0741
 7735SOL    HW234842   3.271   2.929   9.602 -0.1578 -0.1395 -0.0779
 7736SOL     OW34843   3.531   3.650   1.478  0.1129 -0.3129  0.1549
 7736SOL    HW134844   3.527   3.602   1.395 -0.1947 -0.6771  0.3842
 7736SOL    HW234845   3.626   3.645   1.491 -0.0494  1.4523  2.0353
 7737SOL     OW34846   1.465   4.729   2.357 -0.0565 -0.3030  0.1555
 7737SOL    HW134847   1.419   0.051   2.294  1.8743  0.9189 -0.1814
 7737SOL    HW234848   1.477   0.052   2.433 -0.2132  0.3252 -0.2835
 7738SOL     OW34849   0.203   4.710   8.438  0.1693 -0.4166  0.4106
 7738SOL    HW134850   0.250   4.627   8.430  0.5646 -0.0305 -1.2184
 7738SOL    HW234851   0.259   0.025   8.499 -2.3073  0.1814  2.2369
 7739SOL     OW34852   2.473   3.751  14.434  0.1052 -0.7799  0.0021
 7739SOL    HW134853   2.517   3.752  14.519 -1.9411 -3.2447  1.1135
 7739SOL    HW234854   2.515   3.674  14.395 -0.9901 -1.2961 -0.1725
 7740SOL     OW34855   3.077   0.466  14.340  0.0821 -0.0055  0.0742
 7740SOL    HW134856   3.088   0.504  14.427  0.9076  0.8945 -0.4117
 7740SOL    HW234857   3.026   0.388  14.362 -0.7003  0.2434 -0.8530
 7741SOL     OW34858   3.158   4.048   8.763  0.1463 -0.3100  0.3397
 7741SOL    HW134859   3.128   4.031   8.853  0.1936 -1.9489  0.0479
 7741SOL    HW234860   3.238   4.099   8.772  0.5521 -0.7889 -0.5146
 7742SOL     OW34861   0.831   2.477   8.605  0.7132  0.0747  0.0532
 7742SOL    HW134862   0.842   2.530   8.684 -1.0543  0.6575 -0.0926
 7742SOL    HW234863   0.820   2.539   8.533  0.5244  2.0606  1.7696
 7743SOL     OW34864   4.534   1.351   7.652  0.3034 -0.1961 -0.0725
 7743SOL    HW134865   4.616   1.392   7.624 -0.6102  2.5705  1.2374
 7743SOL    HW234866   4.548   1.368   7.745  0.0887  1.4775 -0.3421
 7744SOL     OW34867   0.279   3.756  13.177  0.7293 -0.4074 -0.7258
 7744SOL    HW134868   0.255   3.848  13.163 -0.9388 -0.6455  0.6027
 7744SOL    HW234869   0.193   3.715  13.182 -0.4127  1.9604 -0.7676
 7745SOL     OW34870   2.909   4.275  16.448 -0.3773 -0.2105 -0.1183
 7745SOL    HW134871   2.867   4.361  16.461  1.1728  0.6549 -0.9183
 7745SOL    HW234872   2.836   4.224  16.411  0.1544 -1.5825  0.7172
 7746SOL     OW34873   3.456   3.758   7.296 -0.2808  0.2903  0.0891
 7746SOL    HW134874   3.482   3.846   7.271 -0.4756  0.2002 -0.4456
 7746SOL    HW234875   3.547   3.729   7.296 -0.4996 -0.4156  0.1870
 7747SOL     OW34876   2.985   3.444  15.316 -0.3314  0.3189 -0.0946
 7747SOL    HW134877   3.024   3.370  15.363  2.1865  1.6077 -0.2094
 7747SOL    HW234878   3.042   3.466  15.242 -3.1147 -0.3724 -2.4562
 7748SOL     OW34879   0.232   2.469  10.443 -0.0597  0.2439  0.0421
 7748SOL    HW134880   0.161   2.407  10.459 -2.1069  2.4353 -0.6143
 7748SOL    HW234881   0.302   2.418  10.402  1.3624  0.7169  1.8933
 7749SOL     OW34882   1.743   0.511   1.082 -0.1682 -0.2118  0.8077
 7749SOL    HW134883   1.665   0.461   1.106 -1.7534  1.1385 -1.4867
 7749SOL    HW234884   1.807   0.493   1.151  2.7601 -2.9538 -2.5545
 7750SOL     OW34885   2.579   1.097  13.580  0.6038 -0.6139 -0.5277
 7750SOL    HW134886   2.660   1.050  13.602  0.5890 -0.2526  0.3051
 7750SOL    HW234887   2.583   1.110  13.485  0.7329 -2.3387 -0.7541
 7751SOL     OW34888   1.184   2.192  11.612 -0.5988  0.2617  0.0093
 7751SOL    HW134889   1.091   2.209  11.625 -0.4101 -0.9190  2.9334
 7751SOL    HW234890   1.218   2.245  11.684 -2.0216  1.6488 -0.3407
 7752SOL     OW34891   3.653   0.484   4.849  0.5201 -0.2166  0.1619
 7752SOL    HW134892   3.680   0.496   4.940  2.0473  0.0765 -0.3160
 7752SOL    HW234893   3.670   0.391   4.840  0.5913 -0.0870 -1.0514
 7753SOL     OW34894   2.628   1.190  10.080 -0.1449  0.4554  0.2857
 7753SOL    HW134895   2.602   1.151   9.997 -0.0522 -0.3678  0.6375
 7753SOL    HW234896   2.666   1.112  10.121 -0.4897 -0.5986 -1.4106
 7754SOL     OW34897   2.178   1.180   0.399  0.8318 -0.3571  0.3603
 7754SOL    HW134898   2.225   1.096   0.398 -1.6698 -1.7657 -0.6486
 7754SOL    HW234899   2.209   1.232   0.325  1.2608  0.7313  1.3150
 7755SOL     OW34900   0.928   3.784   2.073 -0.5826 -0.1341 -0.2957
 7755SOL    HW134901   0.846   3.764   2.117  1.0936 -1.6301  2.1864
 7755SOL    HW234902   0.917   3.878   2.063  1.1099 -0.1258 -2.1126
 7756SOL     OW34903   1.081   2.548   4.008  0.4484  0.2916  0.8681
 7756SOL    HW134904   1.037   2.587   3.932 -0.1758 -2.0477  0.0038
 7756SOL    HW234905   1.023   2.599   4.064  0.8127  0.4696  1.0817
 7757SOL     OW34906   3.267   2.782   8.016 -0.0823  0.4796 -0.0621
 7757SOL    HW134907   3.229   2.710   8.066 -0.5572 -0.4790 -1.7923
 7757SOL    HW234908   3.194   2.844   8.024 -2.6824 -2.3940 -1.4664
 7758SOL     OW34909   2.311   3.960  17.686 -0.4649 -0.4530 -0.1022
 7758SOL    HW134910   2.379   3.948   0.017 -0.4154 -0.4486 -0.1529
 7758SOL    HW234911   2.258   3.881  17.677 -0.9003  0.0057 -1.6238
 7759SOL     OW34912   2.775   1.367   5.139  0.2947 -0.1482  0.3080
 7759SOL    HW134913   2.815   1.410   5.214 -2.1125  0.9691  0.9738
 7759SOL    HW234914   2.748   1.443   5.087  0.8253  0.8378  1.4588
 7760SOL     OW34915   2.826   0.748   7.750  0.0401  0.1519 -0.2555
 7760SOL    HW134916   2.843   0.752   7.844 -0.2247  0.5199 -0.2219
 7760SOL    HW234917   2.866   0.665   7.725 -1.8057 -0.9153  0.3072
 7761SOL     OW34918   1.691   4.297   1.679 -0.4603  0.0855 -0.1790
 7761SOL    HW134919   1.718   4.379   1.636  0.9686 -0.2574  0.0476
 7761SOL    HW234920   1.753   4.293   1.751  0.6230 -0.1686 -1.1199
 7762SOL     OW34921   1.199   4.225   8.218  0.5158  0.4744  0.1262
 7762SOL    HW134922   1.155   4.283   8.157 -0.4852  0.6493  1.0151
 7762SOL    HW234923   1.284   4.205   8.179  1.1459  2.0913  0.6500
 7763SOL     OW34924   2.816   3.877  16.632  0.9436 -0.3504  0.1769
 7763SOL    HW134925   2.882   3.946  16.631 -1.9140  2.4167 -0.5989
 7763SOL    HW234926   2.812   3.839  16.544  1.0766 -0.0703  0.0507
 7764SOL     OW34927   2.033   0.843  11.053  0.5287  0.3764 -0.2272
 7764SOL    HW134928   2.030   0.871  11.145  1.0102 -2.1162  0.5536
 7764SOL    HW234929   1.965   0.901  11.021 -1.3971 -3.1193 -2.4404
 7765SOL     OW34930   0.873   2.748   2.885  0.8159  0.1420  0.2383
 7765SOL    HW134931   0.833   2.720   2.967  0.0429 -0.2175 -0.2607
 7765SOL    HW234932   0.822   2.693   2.825 -1.0649  1.4851  0.5868
 7766SOL     OW34933   2.851   3.088  14.459  0.1093 -0.0289  0.3771
 7766SOL    HW134934   2.799   3.025  14.509 -0.8892 -0.0095 -0.6259
 7766SOL    HW234935   2.791   3.130  14.397  2.3216  1.4650 -0.7548
 7767SOL     OW34936   3.947   2.743  11.993  0.4833 -0.0728  0.2759
 7767SOL    HW134937   3.924   2.656  11.962  0.0237  0.9767 -2.3140
 7767SOL    HW234938   4.035   2.721  12.024  0.8275  2.0058  0.7667
 7768SOL     OW34939   0.920   4.575   0.763 -1.0780  0.1337 -0.1106
 7768SOL    HW134940   0.961   4.582   0.676 -2.2350  1.0488 -0.5752
 7768SOL    HW234941   0.958   4.649   0.811  0.7500 -0.4418 -0.6620
 7769SOL     OW34942   0.685   1.731   9.762 -0.6418  0.2430 -0.0556
 7769SOL    HW134943   0.767   1.687   9.784 -0.1630  2.3584  2.4417
 7769SOL    HW234944   0.706   1.767   9.675 -0.0746 -0.5325 -0.2356
 7770SOL     OW34945   1.417   1.580   2.701  0.3103  0.1760  0.1915
 7770SOL    HW134946   1.399   1.650   2.638  0.3215  0.0861  0.0880
 7770SOL    HW234947   1.450   1.635   2.772 -0.8474  0.8996  0.1751
 7771SOL     OW34948   3.065   0.182  15.785  0.2433 -0.0980 -0.3484
 7771SOL    HW134949   3.034   0.233  15.711  1.1527 -0.8651 -1.2590
 7771SOL    HW234950   3.160   0.191  15.783  0.1895 -0.2090 -2.7142
 7772SOL     OW34951   2.148   0.472   5.412 -0.7652 -0.1590  0.2350
 7772SOL    HW134952   2.067   0.432   5.444 -0.7118 -0.4491  0.0047
 7772SOL    HW234953   2.191   0.495   5.495 -0.6608 -1.7803  0.6223
 7773SOL     OW34954   1.769   0.557   5.810 -0.6105  0.2444 -0.5552
 7773SOL    HW134955   1.704   0.487   5.810  0.5999 -0.8776  1.8715
 7773SOL    HW234956   1.730   0.623   5.867 -0.8004  0.0120 -0.4163
 7774SOL     OW34957   0.008   0.140   5.459  0.4804  0.1639 -0.5247
 7774SOL    HW134958   4.704   0.057   5.488  0.1757  0.5923  0.3230
 7774SOL    HW234959   4.675   0.193   5.415 -0.6415 -1.1003 -0.3143
 7775SOL     OW34960   0.463   1.275   5.728 -0.3044  0.0470  0.1900
 7775SOL    HW134961   0.466   1.245   5.818 -0.9298 -0.3200  0.0876
 7775SOL    HW234962   0.371   1.295   5.711  0.2275  2.1041 -0.3267
 7776SOL     OW34963   2.869   4.321   2.993 -0.4916 -0.6544  0.3845
 7776SOL    HW134964   2.900   4.273   2.916  1.5442 -2.4282  2.3230
 7776SOL    HW234965   2.778   4.293   2.990 -0.2918 -1.2473 -0.0865
 7777SOL     OW34966   0.509   3.650   2.852  0.1091  0.4721  0.5019
 7777SOL    HW134967   0.575   3.717   2.836  1.0685 -0.2084  1.6077
 7777SOL    HW234968   0.514   3.607   2.767  1.0756  1.1746  0.2100
 7778SOL     OW34969   2.281   1.984   6.781  0.7489 -0.2362  0.2475
 7778SOL    HW134970   2.303   2.040   6.855  1.4804  0.9695 -0.8782
 7778SOL    HW234971   2.249   2.049   6.719 -0.3161 -0.2430  0.7904
 7779SOL     OW34972   4.441   4.080   5.968 -0.0234  0.3444 -0.3087
 7779SOL    HW134973   4.479   3.998   6.000  0.6404  0.3615 -1.0611
 7779SOL    HW234974   4.521   4.123   5.937 -0.9586  1.8151 -0.6939
 7780SOL     OW34975   0.937   1.157   2.818 -0.0625  0.0169  0.9873
 7780SOL    HW134976   0.917   1.117   2.733  0.5054 -1.3659  1.5004
 7780SOL    HW234977   0.968   1.243   2.789  1.2297 -1.1160 -1.0122
 7781SOL     OW34978   4.541   0.900   6.085  0.3482  0.1673 -0.8707
 7781SOL    HW134979   4.507   0.978   6.042 -0.3298  1.1556  1.4236
 7781SOL    HW234980   4.579   0.931   6.168 -0.4562  0.3631 -0.5708
 7782SOL     OW34981   2.618   0.487   5.766 -0.2175  0.4005 -0.2057
 7782SOL    HW134982   2.625   0.540   5.846 -0.6265  0.9220 -0.5136
 7782SOL    HW234983   2.529   0.512   5.743 -0.6181  1.6470  2.6273
 7783SOL     OW34984   3.004   2.471   4.302 -0.1669 -0.0268  0.2989
 7783SOL    HW134985   2.944   2.494   4.374 -0.0557 -1.1282  0.7422
 7783SOL    HW234986   2.935   2.443   4.242 -0.3520  0.1867  0.4076
 7784SOL     OW34987   1.573   0.444   3.020  0.1532  0.6204  0.0115
 7784SOL    HW134988   1.609   0.410   2.938  0.7099  1.8467 -0.2531
 7784SOL    HW234989   1.653   0.456   3.072  1.4424 -1.4892 -1.4854
 7785SOL     OW34990   0.229   0.457   8.605  0.0024  0.0792  0.2014
 7785SOL    HW134991   0.300   0.419   8.553  0.9548 -0.1340  1.6685
 7785SOL    HW234992   0.270   0.542   8.622 -1.6705  0.5381  1.9741
 7786SOL     OW34993   0.244   0.120   2.236  0.4500 -0.1949 -0.1101
 7786SOL    HW134994   0.295   0.181   2.289  0.1352 -2.4800  2.8331
 7786SOL    HW234995   0.273   0.033   2.261 -0.1254 -0.1884  0.5906
 7787SOL     OW34996   1.980   1.176   4.428  0.6629 -0.1611 -0.0703
 7787SOL    HW134997   1.963   1.256   4.478  2.2053  0.2648 -0.2314
 7787SOL    HW234998   1.921   1.106   4.455 -2.1160  2.5053  0.7089
 7788SOL     OW34999   3.101   3.252  17.570 -0.1246 -0.4414 -0.0511
 7788SOL    HW135000   3.047   3.316  17.524 -0.5091  0.0058  1.0260
 7788SOL    HW235001   3.117   3.313  17.642 -0.8122 -0.5739  0.2147
 7789SOL     OW35002   2.051   3.632   6.019 -0.5532  0.0482  0.5636
 7789SOL    HW135003   2.032   3.589   5.935 -0.7817 -0.6955  0.9993
 7789SOL    HW235004   2.120   3.577   6.055  1.1415  0.5750 -1.8344
 7790SOL     OW35005   4.445   0.217   4.816  0.2454 -0.3129  0.0387
 7790SOL    HW135006   4.499   0.251   4.888  2.8016 -0.8685 -1.6047
 7790SOL    HW235007   4.516   0.179   4.764 -1.1485 -2.7550 -0.0592
 7791SOL     OW35008   0.592   0.963   3.752 -0.4879 -0.2140 -0.2357
 7791SOL    HW135009   0.638   0.881   3.771  1.2307  1.1631  1.4785
 7791SOL    HW235010   0.559   0.990   3.838 -1.5573 -1.4507 -0.2558
 7792SOL     OW35011   1.671   1.096  10.144 -0.4293  0.0264  0.6985
 7792SOL    HW135012   1.737   1.030  10.123  0.8079  0.6504  2.5810
 7792SOL    HW235013   1.725   1.132  10.214  0.2329 -0.8883  0.6634
 7793SOL     OW35014   1.308   3.749   2.515 -0.5347  0.8213  0.0147
 7793SOL    HW135015   1.335   3.822   2.459  1.4349  0.8875  1.0566
 7793SOL    HW235016   1.361   3.765   2.593 -1.0376  0.1842  0.4884
 7794SOL     OW35017   0.009   0.593  10.938 -0.6927  0.0964 -0.0969
 7794SOL    HW135018   4.728   0.554  11.024  2.7930 -1.2621 -0.0980
 7794SOL    HW235019   0.103   0.586  10.923 -0.3608  1.2360  1.5223
 7795SOL     OW35020   3.681   1.432   4.190 -0.0853 -0.0194  0.3278
 7795SOL    HW135021   3.761   1.452   4.239  0.5512 -2.1873  0.1679
 7795SOL    HW235022   3.607   1.453   4.247 -1.2506 -2.7819 -0.1805
 7796SOL     OW35023   1.175   0.009   6.899  0.2016  0.3548 -0.4229
 7796SOL    HW135024   1.117   0.043   6.831  0.8490 -0.2705 -1.2981
 7796SOL    HW235025   1.214   4.668   6.853 -1.4886  0.6015 -2.2653
 7797SOL     OW35026   0.272   3.278   9.833 -0.5284 -0.0681 -0.4288
 7797SOL    HW135027   0.334   3.345   9.860  0.7000 -1.0677 -0.7610
 7797SOL    HW235028   0.187   3.301   9.871  0.3152  2.3467  0.0202
 7798SOL     OW35029   0.228   1.455  10.456  0.1701  0.4512 -0.0788
 7798SOL    HW135030   0.197   1.433  10.368 -1.0544  1.0465  0.2053
 7798SOL    HW235031   0.323   1.438  10.453  0.0939  0.0932 -0.4937
 7799SOL     OW35032   4.687   3.781   2.319 -0.0970 -0.0540  0.0580
 7799SOL    HW135033   0.045   3.760   2.337 -0.0769  0.4537  0.5637
 7799SOL    HW235034   4.643   3.723   2.381  1.9563 -0.4585  1.1676
 7800SOL     OW35035   4.357   0.024   7.069 -0.3471  0.2769  0.4742
 7800SOL    HW135036   4.398   4.681   7.029 -0.4825  0.5101 -0.1104
 7800SOL    HW235037   4.276   4.713   7.091  0.0438 -0.7041 -0.0930
 7801SOL     OW35038   2.084   1.928   2.135  0.1553  0.5073 -0.4634
 7801SOL    HW135039   2.109   1.983   2.061  1.7748  0.1368 -0.1959
 7801SOL    HW235040   2.115   1.986   2.205  2.1933 -2.1189  0.7860
 7802SOL     OW35041   2.354   2.696   6.497  0.0422  0.3613  0.1316
 7802SOL    HW135042   2.429   2.647   6.531  0.5889  1.1520  0.0910
 7802SOL    HW235043   2.331   2.734   6.582 -1.3687 -0.5532  0.1530
 7803SOL     OW35044   2.373   0.090  14.058  0.2105  0.5881  0.1017
 7803SOL    HW135045   2.364   0.185  14.047 -1.2890  0.2223 -1.8711
 7803SOL    HW235046   2.299   0.042  14.021  0.1998 -0.5414  1.6197
 7804SOL     OW35047   1.481   4.636   2.847 -0.4186  0.1448 -0.0947
 7804SOL    HW135048   1.506   4.597   2.931 -2.8073 -1.0493  0.0894
 7804SOL    HW235049   1.564   4.667   2.811  2.2360 -1.3910  4.6639
 7805SOL     OW35050   1.954   1.988  12.713  0.0846  0.2866 -0.0947
 7805SOL    HW135051   1.975   1.977  12.806 -2.3717 -1.1266  0.2943
 7805SOL    HW235052   1.876   2.040  12.732 -0.0760  0.2746 -0.7424
 7806SOL     OW35053   4.713   3.554   4.611  0.0340 -0.1909 -0.1472
 7806SOL    HW135054   4.621   3.557   4.636  0.1370  0.2357  0.1952
 7806SOL    HW235055   4.715   3.508   4.528 -0.2378 -1.2114  0.4132
 7807SOL     OW35056   3.940   4.215   5.891  0.7648  0.0555  0.0241
 7807SOL    HW135057   3.934   4.266   5.810 -2.0336 -1.3243 -0.6409
 7807SOL    HW235058   3.978   4.278   5.953  0.2235 -1.1208  1.5382
 7808SOL     OW35059   3.592   1.615   7.897 -0.0676  0.1127  0.1294
 7808SOL    HW135060   3.530   1.605   7.825  1.2450 -1.0867 -0.8431
 7808SOL    HW235061   3.677   1.603   7.854 -0.5491 -1.2743 -0.4469
 7809SOL     OW35062   2.393   1.455  13.990 -0.5045  0.3295 -0.3121
 7809SOL    HW135063   2.364   1.536  13.951 -3.7423 -0.8599 -0.3327
 7809SOL    HW235064   2.377   1.473  14.083  1.1118 -1.6282  0.3691
 7810SOL     OW35065   4.424   4.706   2.980  0.0509 -0.4699  0.0113
 7810SOL    HW135066   4.403   0.011   3.065  2.0512 -2.0685  1.2476
 7810SOL    HW235067   4.442   0.049   2.926 -1.0341 -0.2953 -0.1004
 7811SOL     OW35068   3.492   2.331   3.055  0.1546 -0.1127 -0.0064
 7811SOL    HW135069   3.485   2.294   2.967 -0.6887  1.3326 -0.5391
 7811SOL    HW235070   3.534   2.413   3.029  1.2162 -0.4355  0.6566
 7812SOL     OW35071   0.535   0.498   3.493  0.0584  0.2876  0.4588
 7812SOL    HW135072   0.553   0.531   3.405  0.8020 -0.8963  0.1616
 7812SOL    HW235073   0.482   0.421   3.472 -2.0598  1.7847  0.3434
 7813SOL     OW35074   1.336   0.782  17.530  0.3343 -0.5425  0.1831
 7813SOL    HW135075   1.331   0.715  17.462  0.9760 -0.9346  0.5159
 7813SOL    HW235076   1.321   0.859  17.475 -2.9023 -0.4522  1.2226
 7814SOL     OW35077   0.958   0.193   7.908 -0.0237 -0.1750 -0.5985
 7814SOL    HW135078   0.912   0.133   7.966  1.2239 -2.2306 -1.7359
 7814SOL    HW235079   1.027   0.232   7.961 -2.2207 -0.8713  2.7538
 7815SOL     OW35080   0.707   2.651   2.174  0.3738 -0.0407 -0.1722
 7815SOL    HW135081   0.679   2.580   2.232 -0.3840 -0.3435 -0.8973
 7815SOL    HW235082   0.771   2.700   2.225  2.0652 -2.4217 -0.0147
 7816SOL     OW35083   4.326   2.304   8.897  0.1676 -0.6114  0.2097
 7816SOL    HW135084   4.408   2.322   8.943  0.8523  0.1063 -1.2925
 7816SOL    HW235085   4.335   2.371   8.830 -1.9152  1.3452  1.8873
 7817SOL     OW35086   2.131   1.123   6.693 -0.4208  0.8720  0.3498
 7817SOL    HW135087   2.187   1.125   6.615 -0.6952 -0.0252  0.1288
 7817SOL    HW235088   2.192   1.150   6.762  1.0557  1.0592 -1.0105
 7818SOL     OW35089   1.360   3.374  14.993  0.4140 -0.3199  0.1344
 7818SOL    HW135090   1.331   3.464  15.001 -1.5897 -0.7125 -2.8867
 7818SOL    HW235091   1.456   3.379  14.999  0.6485 -2.5677 -1.7023
 7819SOL     OW35092   2.364   1.052  10.362 -0.1644 -0.0003 -0.0023
 7819SOL    HW135093   2.416   1.048  10.282 -1.3487 -1.0583 -0.7165
 7819SOL    HW235094   2.331   1.142  10.354 -0.6744 -0.2019 -0.2029
 7820SOL     OW35095   2.681   0.857   5.547  0.6229  0.0343  0.3762
 7820SOL    HW135096   2.710   0.778   5.594  3.7696  1.3703  0.6440
 7820SOL    HW235097   2.700   0.833   5.456 -0.6742  1.1078 -0.1819
 7821SOL     OW35098   3.421   1.087   3.307 -0.3403 -0.3999  0.3723
 7821SOL    HW135099   3.474   1.079   3.386 -2.0510  0.9099  1.6409
 7821SOL    HW235100   3.389   0.998   3.301 -2.8796  0.5480 -0.0537
 7822SOL     OW35101   0.345   3.300   2.974  0.1469 -0.4272 -0.2773
 7822SOL    HW135102   0.397   3.367   3.018 -1.6530  0.2965  0.7472
 7822SOL    HW235103   0.324   3.236   3.042 -1.1246  2.1606  1.7738
 7823SOL     OW35104   3.774   1.015  17.713 -0.0364 -0.5458 -0.1823
 7823SOL    HW135105   3.780   0.985  17.623  1.3352 -3.4037  0.8643
 7823SOL    HW235106   3.858   1.060  17.715 -1.0921  1.4047  0.0305
 7824SOL     OW35107   2.843   3.252  15.537 -0.2752 -0.0872  0.0760
 7824SOL    HW135108   2.869   3.184  15.474 -0.3483  0.4775 -0.5671
 7824SOL    HW235109   2.869   3.338  15.503 -0.9179 -0.5206 -1.4906
 7825SOL     OW35110   0.550   2.982  15.390 -0.0428 -0.3463  0.2227
 7825SOL    HW135111   0.527   3.019  15.305  0.4817  1.1328  0.7164
 7825SOL    HW235112   0.469   2.936  15.414  0.9507 -1.2630  1.8414
 7826SOL     OW35113   4.015   2.065  13.809  0.5215  0.3902  0.3063
 7826SOL    HW135114   4.089   2.019  13.770  1.1165  1.0135  0.6971
 7826SOL    HW235115   3.949   1.995  13.803  1.2773 -0.3628  0.8917
 7827SOL     OW35116   0.032   3.531  10.366 -0.0627  0.5081  0.2549
 7827SOL    HW135117   0.040   3.597  10.434  1.7502 -0.6732  1.1786
 7827SOL    HW235118   0.089   3.570  10.300 -0.2183  1.2475  0.5571
 7828SOL     OW35119   1.554   3.349  12.059 -0.3038  0.0719 -0.0326
 7828SOL    HW135120   1.495   3.305  11.998  0.1838 -1.2176  0.4168
 7828SOL    HW235121   1.496   3.350  12.136  1.5090 -0.1178  1.3496
 7829SOL     OW35122   2.892   2.202   2.182 -0.0789 -0.5753 -0.4202
 7829SOL    HW135123   2.860   2.112   2.177 -0.4743 -0.3474 -2.0699
 7829SOL    HW235124   2.985   2.186   2.165 -0.3765 -0.0243 -2.5649
 7830SOL     OW35125   3.883   0.607  14.395  0.1805 -0.1436  0.1372
 7830SOL    HW135126   3.801   0.567  14.424  0.2341 -1.3067 -1.3374
 7830SOL    HW235127   3.899   0.551  14.319  0.4599  0.0235  0.0728
 7831SOL     OW35128   1.599   4.139   2.338  0.0232  0.4594 -0.1247
 7831SOL    HW135129   1.599   4.219   2.390 -1.3820  1.3175 -1.4476
 7831SOL    HW235130   1.556   4.080   2.400  0.9732  1.6402  1.6567
 7832SOL     OW35131   4.572   2.104   8.883 -0.1580 -0.1101  0.1386
 7832SOL    HW135132   4.562   2.122   8.977  0.2103 -1.8625  0.5199
 7832SOL    HW235133   4.520   2.023   8.880 -2.3286  1.2500  1.4124
 7833SOL     OW35134   0.447   0.301   7.858  0.4212  0.0936 -0.1590
 7833SOL    HW135135   0.406   0.319   7.942  2.8062 -1.8396  1.4012
 7833SOL    HW235136   0.383   0.334   7.795 -0.0587 -0.0418  0.2580
 7834SOL     OW35137   0.311   2.095   4.421 -0.4220 -0.5727 -0.2427
 7834SOL    HW135138   0.254   2.077   4.496 -0.3171 -0.2748 -0.0919
 7834SOL    HW235139   0.274   2.170   4.374 -2.9073 -1.4924  0.2210
 7835SOL     OW35140   4.187   2.866   3.127  0.2011 -0.8240 -0.3314
 7835SOL    HW135141   4.239   2.931   3.080 -1.3521  0.7265  0.0838
 7835SOL    HW235142   4.246   2.825   3.190 -0.8678 -0.7140  0.7555
 7836SOL     OW35143   3.716   3.714   7.104 -0.3663  0.3261  0.2454
 7836SOL    HW135144   3.665   3.633   7.095 -0.8359  0.6713 -0.1824
 7836SOL    HW235145   3.805   3.679   7.099 -0.6883 -0.4507 -0.1527
 7837SOL     OW35146   3.294   3.960   3.190  0.2023  0.6041  0.3117
 7837SOL    HW135147   3.236   3.913   3.251  0.0939 -0.1436 -0.3684
 7837SOL    HW235148   3.372   3.909   3.213  1.8715  3.4278  0.8583
 7838SOL     OW35149   0.984   2.552  12.157  0.3112  0.0676  0.1710
 7838SOL    HW135150   1.018   2.523  12.242 -3.3579  0.0748  1.6365
 7838SOL    HW235151   1.045   2.503  12.102  0.2018 -1.1342  1.1122
 7839SOL     OW35152   2.092   3.002   6.993  0.0862 -0.2754 -0.4206
 7839SOL    HW135153   2.032   2.932   7.016  0.9603 -1.5797 -2.1380
 7839SOL    HW235154   2.169   2.956   7.027  0.7966  1.8055  0.8375
 7840SOL     OW35155   0.701   2.216  12.786 -0.9365 -0.0738  0.4265
 7840SOL    HW135156   0.759   2.286  12.757 -3.0489  0.9651 -1.3144
 7840SOL    HW235157   0.615   2.237  12.749 -0.3492  1.3164 -0.1648
 7841SOL     OW35158   2.374   0.778   0.962  0.0173  0.1522 -0.6716
 7841SOL    HW135159   2.328   0.839   1.020  1.4244  1.1327 -0.5767
 7841SOL    HW235160   2.389   0.700   1.015  0.5600 -0.3996 -1.6473
 7842SOL     OW35161   4.602   1.572   4.781  0.5216 -0.2274  0.4599
 7842SOL    HW135162   4.656   1.515   4.835 -0.8714 -3.9156 -1.9867
 7842SOL    HW235163   4.662   1.573   4.706 -1.6047  2.1310 -1.1828
 7843SOL     OW35164   2.518   1.324  11.875 -0.1282 -0.2622 -0.2224
 7843SOL    HW135165   2.510   1.244  11.823  0.3183 -0.5745  0.1904
 7843SOL    HW235166   2.498   1.389  11.809  1.3922  0.5842  0.1421
 7844SOL     OW35167   4.109   2.358   3.536 -0.2349  0.5202 -0.2366
 7844SOL    HW135168   4.180   2.389   3.479  0.3423 -1.2274 -0.4688
 7844SOL    HW235169   4.096   2.433   3.593 -1.0920  0.0113  0.2428
 7845SOL     OW35170   3.386   4.088   6.973 -0.2989  0.1194 -0.5563
 7845SOL    HW135171   3.409   4.058   6.885 -0.0209  0.5434 -0.6300
 7845SOL    HW235172   3.438   4.028   7.026  0.3114 -0.3041 -1.6270
 7846SOL     OW35173   3.573   1.568   7.613 -0.3603  0.2090  0.3950
 7846SOL    HW135174   3.657   1.542   7.651 -0.8054 -0.0598  1.1684
 7846SOL    HW235175   3.584   1.662   7.594 -0.5852  0.2252  0.3507
 7847SOL     OW35176   2.239   0.177   5.878  0.0236 -0.0284  0.1893
 7847SOL    HW135177   2.287   0.257   5.896 -1.0849  0.9762 -1.3560
 7847SOL    HW235178   2.247   0.178   5.783  1.1590 -0.6661  0.2813
 7848SOL     OW35179   4.676   1.204  11.599  0.0185  0.5031  0.0683
 7848SOL    HW135180   4.631   1.235  11.521 -0.0980 -0.2086 -0.1526
 7848SOL    HW235181   4.661   1.111  11.581 -0.6366  1.1544 -2.7004
 7849SOL     OW35182   1.049   4.353   5.508 -0.2452  0.5828 -0.2241
 7849SOL    HW135183   1.051   4.367   5.414 -0.1375 -3.9311 -0.8675
 7849SOL    HW235184   0.995   4.274   5.513  1.4528 -0.7054 -2.7785
 7850SOL     OW35185   1.840   2.011   1.968 -0.0130  0.3685  0.0969
 7850SOL    HW135186   1.842   2.034   2.060  0.2647  2.0390 -0.3287
 7850SOL    HW235187   1.932   1.993   1.950  0.0545 -0.7772  1.5874
 7851SOL     OW35188   2.120   0.489   8.212 -0.7145 -0.5925  0.3830
 7851SOL    HW135189   2.214   0.489   8.233 -1.1695 -0.0984  2.3524
 7851SOL    HW235190   2.092   0.567   8.260 -0.6972  1.6382 -3.2479
 7852SOL     OW35191   3.636   1.896   3.887 -0.2007  0.2221  0.0800
 7852SOL    HW135192   3.711   1.912   3.944 -0.3557  0.4563  0.2212
 7852SOL    HW235193   3.649   1.802   3.876  1.1861  0.5213 -0.8559
 7853SOL     OW35194   0.806   3.234   5.339 -0.0624 -0.2387  0.2042
 7853SOL    HW135195   0.743   3.277   5.280 -0.3288  2.0344  2.1634
 7853SOL    HW235196   0.838   3.158   5.290 -0.5781 -0.3516  0.0426
 7854SOL     OW35197   2.270   1.928  14.217  0.0120  0.4460 -0.4664
 7854SOL    HW135198   2.202   1.932  14.285 -0.8343 -0.5478 -1.2520
 7854SOL    HW235199   2.245   1.850  14.167  0.4708 -1.5692  2.4487
 7855SOL     OW35200   0.040   3.744   1.107 -0.0529  0.3480  0.5708
 7855SOL    HW135201   0.034   3.738   1.012 -2.6847 -1.3375  0.8502
 7855SOL    HW235202   0.064   3.833   1.132  0.5024 -0.5305  3.1689
 7856SOL     OW35203   0.311   3.211   0.712  0.2407  0.0229  0.4943
 7856SOL    HW135204   0.267   3.239   0.792 -2.9540  0.4859 -1.4159
 7856SOL    HW235205   0.319   3.121   0.745 -0.7384  0.8113  2.8987
 7857SOL     OW35206   1.889   2.142   7.094  0.0440 -0.3938 -0.0939
 7857SOL    HW135207   1.815   2.132   7.155  0.9114  1.0759  1.2066
 7857SOL    HW235208   1.950   2.186   7.153  0.6550  1.3438 -2.0331
 7858SOL     OW35209   2.139   3.415   8.302  0.2394  0.0139 -0.3038
 7858SOL    HW135210   2.118   3.372   8.385 -2.3350  2.4768  0.3270
 7858SOL    HW235211   2.075   3.378   8.241 -0.2271  1.1895 -0.5306
 7859SOL     OW35212   3.801   0.115   2.370 -0.6732  0.0941 -0.1474
 7859SOL    HW135213   3.730   0.161   2.415 -0.0227  2.1928 -1.3037
 7859SOL    HW235214   3.876   0.174   2.368 -0.6336  0.0823  0.7600
 7860SOL     OW35215   0.663   2.783  16.444 -0.4351 -0.4583  0.1866
 7860SOL    HW135216   0.746   2.740  16.466 -0.0314  0.5998  0.7071
 7860SOL    HW235217   0.608   2.706  16.456 -1.7600  0.2626 -1.3382
 7861SOL     OW35218   3.922   4.272  12.278  0.5433  0.5109  0.2534
 7861SOL    HW135219   3.960   4.355  12.247 -0.9015  0.7776 -0.8288
 7861SOL    HW235220   3.957   4.258  12.366  1.1613 -1.2096 -0.2641
 7862SOL     OW35221   4.132   0.612   5.707  0.3792  0.1981 -0.2885
 7862SOL    HW135222   4.127   0.570   5.621 -0.3698  0.7512 -0.5094
 7862SOL    HW235223   4.066   0.681   5.713 -0.9069 -1.2312  2.0676
 7863SOL     OW35224   3.757   2.910  12.549 -0.1625  0.2232 -0.2084
 7863SOL    HW135225   3.791   2.998  12.564 -0.3592  0.4933 -1.3851
 7863SOL    HW235226   3.796   2.877  12.630 -0.5696 -0.1086 -0.1472
 7864SOL     OW35227   1.603   1.826   1.135 -0.0651  0.0460 -0.2184
 7864SOL    HW135228   1.528   1.856   1.084  0.4641 -0.6648 -1.4189
 7864SOL    HW235229   1.673   1.829   1.070  1.6403 -1.9933  1.5300
 7865SOL     OW35230   3.942   3.285   0.397  0.5808 -0.1487  0.6633
 7865SOL    HW135231   3.914   3.282   0.488 -2.1406 -0.2064 -0.1815
 7865SOL    HW235232   3.869   3.239   0.355  0.8539  1.6508 -1.7447
 7866SOL     OW35233   0.924   4.402  12.533 -0.2177  0.1188 -0.3972
 7866SOL    HW135234   0.896   4.382  12.444  1.8653  0.4784 -1.1159
 7866SOL    HW235235   0.941   4.496  12.538 -0.5235  0.1281  0.5668
 7867SOL     OW35236   4.719   4.393  15.240  0.6183  0.3911 -0.0582
 7867SOL    HW135237   0.017   4.479  15.212 -0.3589  0.6769 -0.2989
 7867SOL    HW235238   4.624   4.399  15.248  0.2446 -2.0700 -2.5652
 7868SOL     OW35239   2.135   3.239   1.352  0.0705  0.5381 -0.1933
 7868SOL    HW135240   2.116   3.332   1.363  0.2961  0.4422  1.0130
 7868SOL    HW235241   2.086   3.234   1.270  0.9509  0.0160 -0.6879
 7869SOL     OW35242   3.117   4.721  14.623 -0.2496  0.1475  0.5072
 7869SOL    HW135243   3.049   4.656  14.642 -0.8431  0.0260 -2.0377
 7869SOL    HW235244   3.196   4.673  14.597 -0.8907  1.8230 -4.4535
 7870SOL     OW35245   3.975   0.410   8.068 -0.2786 -0.3685  0.0530
 7870SOL    HW135246   4.011   0.488   8.026  1.3472 -0.3970  1.3780
 7870SOL    HW235247   3.894   0.386   8.023  0.7603  0.4558 -2.2631
 7871SOL     OW35248   1.244   0.260   6.955  0.5093 -0.3724 -0.0000
 7871SOL    HW135249   1.229   0.165   6.949  0.4163 -0.1207 -3.6898
 7871SOL    HW235250   1.254   0.279   7.048 -2.5627  0.6097  0.1280
 7872SOL     OW35251   4.062   3.803   3.119  0.1361  0.7154 -0.2213
 7872SOL    HW135252   4.037   3.771   3.205 -0.9051  1.3105 -0.3009
 7872SOL    HW235253   4.006   3.880   3.122 -0.7922  0.0645 -1.0286
 7873SOL     OW35254   0.534   4.036  10.418 -0.2473  0.0481  0.0481
 7873SOL    HW135255   0.499   4.121  10.447 -0.9560 -0.0824 -0.4465
 7873SOL    HW235256   0.472   3.985  10.470  0.8491 -3.0824 -1.7756
 7874SOL     OW35257   1.065   2.560  12.426 -0.1197 -0.6921 -0.3224
 7874SOL    HW135258   1.104   2.481  12.465 -0.0020  0.4652  1.9111
 7874SOL    HW235259   1.004   2.583  12.496  0.4209 -2.2606  0.6684
 7875SOL     OW35260   1.565   0.996   8.264 -0.2167  0.1645  0.4520
 7875SOL    HW135261   1.591   0.913   8.224 -1.5655 -0.2998  0.4998
 7875SOL    HW235262   1.476   1.002   8.228 -0.3742  0.6846  0.9357
 7876SOL     OW35263   4.258   1.283   5.637  0.1064  0.2903 -0.2846
 7876SOL    HW135264   4.247   1.310   5.546  0.6676 -0.5810 -0.6000
 7876SOL    HW235265   4.166   1.263   5.652  0.3247  0.2606  1.0301
 7877SOL     OW35266   3.917   4.051   3.103  0.6268  0.3605 -0.3374
 7877SOL    HW135267   3.879   4.017   3.021  2.9446  1.0310 -1.6913
 7877SOL    HW235268   3.837   4.070   3.151  0.9233  0.6489  0.0385
 7878SOL     OW35269   3.060   3.242   8.406 -0.1076  0.2512 -0.1542
 7878SOL    HW135270   3.130   3.178   8.393  0.4930  1.5177 -3.0839
 7878SOL    HW235271   3.002   3.191   8.463  2.0619 -0.1326  1.7012
 7879SOL     OW35272   4.550   3.071   3.561 -0.1369  0.2593 -0.3586
 7879SOL    HW135273   4.468   3.061   3.512  0.2353 -0.1446 -0.9029
 7879SOL    HW235274   4.568   2.980   3.587  1.0799 -0.2018 -2.7370
 7880SOL     OW35275   4.699   0.469   9.532 -0.3905  0.0455 -0.2949
 7880SOL    HW135276   4.651   0.533   9.586  0.6076 -0.0710  0.7262
 7880SOL    HW235277   4.705   0.509   9.445 -0.0889  0.1670 -0.2180
 7881SOL     OW35278   4.681   1.585   1.853 -0.2421  0.3584  0.4083
 7881SOL    HW135279   4.590   1.558   1.849  0.0550 -0.9261  2.4896
 7881SOL    HW235280   4.684   1.664   1.908  0.7730  0.6496 -0.0522
 7882SOL     OW35281   3.823   0.434   3.873 -0.0458 -0.0762  0.3509
 7882SOL    HW135282   3.790   0.347   3.851 -2.4885  1.2103 -1.0474
 7882SOL    HW235283   3.878   0.427   3.951  2.1325 -0.4275 -1.2247
 7883SOL     OW35284   1.643   1.440   3.654 -0.0186 -0.3262  0.4220
 7883SOL    HW135285   1.723   1.459   3.703 -0.0842  2.5321 -0.5436
 7883SOL    HW235286   1.680   1.401   3.575 -0.6649 -0.9435  0.4267
 7884SOL     OW35287   0.365   1.587   3.505  0.0076 -0.2585  0.7432
 7884SOL    HW135288   0.415   1.628   3.576  1.2000  1.6103 -1.1910
 7884SOL    HW235289   0.287   1.641   3.516 -1.3463 -1.8253 -1.2239
 7885SOL     OW35290   4.646   2.976  11.747  0.0558 -0.0091 -0.0447
 7885SOL    HW135291   4.655   3.065  11.714 -0.5315 -0.5405 -1.6243
 7885SOL    HW235292   4.677   2.920  11.676 -2.0175  1.0548 -1.7684
 7886SOL     OW35293   2.746   4.684   3.366  0.1390 -0.6885 -0.9215
 7886SOL    HW135294   2.813   4.640   3.315  1.2788  0.7396 -0.6474
 7886SOL    HW235295   2.773   4.656   3.454  0.9536 -1.8993 -1.5662
 7887SOL     OW35296   4.053   1.278  14.502 -0.2643 -0.0489  0.6730
 7887SOL    HW135297   3.971   1.293  14.549 -0.1310  1.9259  0.2473
 7887SOL    HW235298   4.040   1.329  14.422  1.0418 -0.2599  0.3244
 7888SOL     OW35299   2.196   3.572   5.338 -0.2270 -0.1190 -0.7273
 7888SOL    HW135300   2.110   3.530   5.341 -0.6012  0.7698  1.0464
 7888SOL    HW235301   2.246   3.504   5.293 -0.1480 -0.9435  0.6162
 7889SOL     OW35302   2.015   0.955   8.456  0.0079 -0.0742 -0.3449
 7889SOL    HW135303   2.051   1.015   8.390  1.2740 -0.8286 -0.3306
 7889SOL    HW235304   1.975   0.888   8.400  0.5074 -0.5665 -0.1044
 7890SOL     OW35305   4.451   0.151   2.727  0.1383 -0.6683  0.2305
 7890SOL    HW135306   4.518   0.100   2.680 -0.5410 -2.8438  1.6284
 7890SOL    HW235307   4.495   0.232   2.751 -3.9995  1.1076  1.7894
 7891SOL     OW35308   4.317   1.949   4.159  0.0579  0.4048 -0.3157
 7891SOL    HW135309   4.302   1.940   4.253  2.2488  1.4100  0.1299
 7891SOL    HW235310   4.366   1.868   4.142 -0.3925  0.1293 -0.3168
 7892SOL     OW35311   1.193   1.475  12.160 -0.6039 -0.3396  0.6023
 7892SOL    HW135312   1.223   1.416  12.091 -0.8196  1.6274 -1.1548
 7892SOL    HW235313   1.167   1.407  12.223 -2.0286  1.2331  1.7145
 7893SOL     OW35314   2.767   3.623  15.902 -0.5862  0.0593  0.2728
 7893SOL    HW135315   2.736   3.711  15.925 -0.6742 -0.6680  2.8998
 7893SOL    HW235316   2.851   3.641  15.859 -0.8881  1.0382  0.0918
 7894SOL     OW35317   0.102   2.570   9.096 -0.9861  0.3111  0.1632
 7894SOL    HW135318   0.050   2.650   9.107  1.9687  1.9607  2.2876
 7894SOL    HW235319   0.081   2.528   9.013 -1.0516 -0.7328  0.7092
 7895SOL     OW35320   0.237   1.008   8.574  0.0938  0.0121 -0.4002
 7895SOL    HW135321   0.265   1.024   8.484 -1.7765 -0.7211 -1.0992
 7895SOL    HW235322   0.143   1.006   8.557  0.6171 -2.0468 -2.9691
 7896SOL     OW35323   3.929   3.222   5.356 -0.0160 -0.2696 -0.0702
 7896SOL    HW135324   3.876   3.166   5.413  0.3964  0.1684  0.7374
 7896SOL    HW235325   3.981   3.274   5.418 -0.7934 -0.4268  0.7130
 7897SOL     OW35326   3.766   3.061   7.213 -0.5969  0.3908 -0.5150
 7897SOL    HW135327   3.788   3.149   7.244 -1.3533 -1.0327  4.0056
 7897SOL    HW235328   3.739   3.083   7.124 -0.9829 -0.7056 -0.6725
 7898SOL     OW35329   3.873   4.020   6.073  0.0514 -0.4426 -0.1202
 7898SOL    HW135330   3.951   3.972   6.102  0.5442  0.4494  0.0041
 7898SOL    HW235331   3.913   4.065   5.999 -0.7764 -1.3270 -1.1040
 7899SOL     OW35332   0.310   1.079   8.035  0.1138 -0.1299  0.3421
 7899SOL    HW135333   0.376   1.124   7.983 -0.1179 -0.1399  0.0423
 7899SOL    HW235334   0.311   0.995   7.990  0.2187  0.9675 -1.6890
 7900SOL     OW35335   1.644   0.143   1.111  0.7403  0.5562  0.2802
 7900SOL    HW135336   1.635   0.056   1.151 -2.0147  1.0053  0.6281
 7900SOL    HW235337   1.724   0.124   1.062  0.1897 -0.6016 -0.1932
 7901SOL     OW35338   1.045   1.794   6.410  0.2290 -0.7190 -0.5654
 7901SOL    HW135339   1.062   1.809   6.317  2.4723  1.8540  0.2563
 7901SOL    HW235340   1.047   1.883   6.445 -0.3211 -0.5660 -0.9243
 7902SOL     OW35341   3.025   3.677   2.573 -0.3247  0.1743  0.2710
 7902SOL    HW135342   3.001   3.590   2.542 -1.9511  1.1149 -1.1010
 7902SOL    HW235343   3.082   3.703   2.500 -2.1386  1.1484 -0.8020
 7903SOL     OW35344   2.511   3.360   9.902 -0.3712 -0.0814  0.2075
 7903SOL    HW135345   2.528   3.363   9.808  0.1937 -2.3035  0.2427
 7903SOL    HW235346   2.479   3.270   9.912 -2.0919  0.5204  0.1049
 7904SOL     OW35347   4.412   0.960   8.639 -0.1362  0.3881  0.0859
 7904SOL    HW135348   4.374   1.047   8.633  0.4950  0.4811 -2.6799
 7904SOL    HW235349   4.360   0.914   8.573  0.7625 -0.3649 -0.1049
 7905SOL     OW35350   4.327   0.282  13.390 -0.4751  0.0051 -0.4986
 7905SOL    HW135351   4.258   0.344  13.413 -0.1362 -0.1483  0.9163
 7905SOL    HW235352   4.342   0.312  13.300 -0.2929 -1.5057 -0.9776
 7906SOL     OW35353   3.055   4.723   8.002  0.4754  0.1188 -0.5415
 7906SOL    HW135354   3.045   4.629   8.016  0.3504  0.3057  0.6135
 7906SOL    HW235355   2.988   0.016   8.065  0.7366  0.0741 -0.2424
 7907SOL     OW35356   0.281   1.537   0.258 -0.2652  0.5433  0.1352
 7907SOL    HW135357   0.221   1.464   0.243 -3.4171  3.3716 -1.3264
 7907SOL    HW235358   0.254   1.575   0.342  0.8240  1.5662  0.0241
 7908SOL     OW35359   0.273   2.266   8.257 -0.3934  0.2300 -0.3035
 7908SOL    HW135360   0.226   2.346   8.237 -0.1671  0.2061 -0.9117
 7908SOL    HW235361   0.224   2.223   8.328 -1.3066 -0.2095 -1.2058
 7909SOL     OW35362   3.807   2.267   6.040 -0.6010  0.1258  0.7736
 7909SOL    HW135363   3.791   2.334   6.106  1.7401  1.6270 -0.1722
 7909SOL    HW235364   3.751   2.302   5.971 -4.3673 -1.4116  3.0960
 7910SOL     OW35365   2.572   4.236   1.950  0.2375 -0.2949 -0.3824
 7910SOL    HW135366   2.528   4.191   1.878  0.5884  1.3751 -1.6248
 7910SOL    HW235367   2.555   4.323   1.916  0.7169 -0.3792 -0.8393
 7911SOL     OW35368   1.095   1.456   0.585  0.1657  0.4277 -0.0817
 7911SOL    HW135369   1.145   1.514   0.642  1.0806 -1.4679  1.0136
 7911SOL    HW235370   1.043   1.413   0.652 -0.0424  0.3542 -0.2895
 7912SOL     OW35371   2.936   0.357  14.764  0.9614  0.0659 -0.3946
 7912SOL    HW135372   3.006   0.293  14.774  0.2449 -0.4554  1.4488
 7912SOL    HW235373   2.973   0.411  14.695  2.9237  2.4429  2.5628
 7913SOL     OW35374   3.918   2.164   4.535  0.6788 -0.4143 -0.0848
 7913SOL    HW135375   3.952   2.110   4.607 -1.8500 -0.5223  1.0344
 7913SOL    HW235376   3.871   2.101   4.480  1.6008 -1.4997  0.3506
 7914SOL     OW35377   0.065   3.240   7.607  0.1348 -0.3789 -0.1244
 7914SOL    HW135378   4.717   3.289   7.602  1.1910  1.6966  2.7587
 7914SOL    HW235379   0.087   3.272   7.695  0.8347  0.4555 -0.6146
 7915SOL     OW35380   4.514   2.866   5.291  0.7043 -0.6120 -0.2552
 7915SOL    HW135381   4.506   2.864   5.195 -0.4884  4.4150 -0.2576
 7915SOL    HW235382   4.551   2.953   5.310 -0.3016  0.1329 -1.6719
 7916SOL     OW35383   1.740   4.645   0.948 -0.1949 -0.2683 -0.4001
 7916SOL    HW135384   1.818   4.597   0.919  2.3090  2.9794  0.9747
 7916SOL    HW235385   1.680   4.610   0.882  0.2933 -0.5857 -0.6806
 7917SOL     OW35386   2.271   2.142  16.065 -0.0710 -0.4132 -0.2545
 7917SOL    HW135387   2.289   2.194  16.144 -1.1996 -1.7053  0.8562
 7917SOL    HW235388   2.175   2.136  16.060 -0.1315  0.7536 -0.6094
 7918SOL     OW35389   2.975   1.161   8.068  0.9865 -0.5358 -0.2290
 7918SOL    HW135390   3.045   1.110   8.109 -0.1009 -2.2131 -0.4354
 7918SOL    HW235391   3.015   1.163   7.981  0.4522  0.1787 -0.4614
 7919SOL     OW35392   1.492   3.980  10.594 -0.3601 -0.1955 -0.0355
 7919SOL    HW135393   1.432   4.027  10.653 -0.7294  0.3859 -0.8848
 7919SOL    HW235394   1.577   4.017  10.615 -0.2029 -0.6769  0.1965
 7920SOL     OW35395   3.547   2.118  13.538 -0.1663 -0.5982 -0.1174
 7920SOL    HW135396   3.482   2.179  13.574 -0.2032 -2.6090  3.2609
 7920SOL    HW235397   3.559   2.167  13.457 -1.7552 -0.4091 -0.2336
 7921SOL     OW35398   1.426   4.464   5.549  0.6930 -0.3662  0.0030
 7921SOL    HW135399   1.458   4.395   5.491 -1.0512 -0.2457 -1.1063
 7921SOL    HW235400   1.339   4.431   5.573  0.1600  0.0742 -1.3331
 7922SOL     OW35401   3.676   2.945   4.723  0.0917  0.6462  0.3370
 7922SOL    HW135402   3.753   2.911   4.767 -2.4691 -1.9422  2.8508
 7922SOL    HW235403   3.611   2.886   4.761  0.9182  1.1764  2.5256
 7923SOL     OW35404   1.645   1.202   0.672 -0.0024  0.4164 -0.2555
 7923SOL    HW135405   1.692   1.216   0.590  0.2587  0.5727 -0.0803
 7923SOL    HW235406   1.711   1.159   0.726 -1.2664 -2.8917 -1.3630
 7924SOL     OW35407   2.550   3.179   7.314 -0.3784 -0.2741 -0.0235
 7924SOL    HW135408   2.479   3.216   7.366 -0.0073  1.4036 -0.7158
 7924SOL    HW235409   2.598   3.259   7.293 -2.0358  0.9645  0.8865
 7925SOL     OW35410   0.039   2.059   8.045 -0.1800 -0.4165 -0.3006
 7925SOL    HW135411   0.015   2.092   8.132  0.0839 -0.3293 -0.2597
 7925SOL    HW235412   0.087   1.980   8.072 -0.4222 -0.3407  0.3693
 7926SOL     OW35413   2.401   1.026   5.326 -0.0144 -0.0818  0.1287
 7926SOL    HW135414   2.349   1.068   5.395 -0.9879  1.5756 -1.6096
 7926SOL    HW235415   2.450   0.971   5.387  0.1719  0.5339  0.5339
 7927SOL     OW35416   2.619   4.370   5.150 -0.1061 -0.3700 -0.4160
 7927SOL    HW135417   2.636   4.389   5.242  0.2401  0.1712 -0.5923
 7927SOL    HW235418   2.561   4.443   5.129  0.4931 -0.1205 -1.2013
 7928SOL     OW35419   0.279   4.313   4.166 -0.0096  0.3812 -0.3928
 7928SOL    HW135420   0.209   4.357   4.214  0.5472  1.0312 -0.1839
 7928SOL    HW235421   0.292   4.374   4.094 -1.7569 -1.2199 -2.0581
 7929SOL     OW35422   1.097   1.116  12.067  0.0323 -0.4197  0.4724
 7929SOL    HW135423   1.088   1.073  11.982  0.9291 -2.4769  1.4150
 7929SOL    HW235424   1.023   1.073  12.110  2.4563 -1.7062  3.3656
 7930SOL     OW35425   4.351   3.146   9.598 -0.3683 -0.1116  0.1840
 7930SOL    HW135426   4.324   3.115   9.685  1.5102  2.5067  1.6873
 7930SOL    HW235427   4.305   3.085   9.541 -0.1156 -0.8804  0.8020
 7931SOL     OW35428   3.010   1.034   4.738  0.2522  0.2278  0.4094
 7931SOL    HW135429   2.932   1.074   4.699  0.9170 -0.0447 -1.1903
 7931SOL    HW235430   3.060   1.110   4.768  1.9413 -0.1736 -1.4402
 7932SOL     OW35431   4.051   3.580   6.137  0.6837 -0.0209 -0.6327
 7932SOL    HW135432   4.061   3.669   6.104 -1.5306 -0.4353 -2.3473
 7932SOL    HW235433   3.985   3.594   6.205  2.0837 -0.2363  0.7859
 7933SOL     OW35434   2.810   0.053   3.800 -0.1371 -0.0303 -0.1809
 7933SOL    HW135435   2.898   0.078   3.829  0.1697 -2.5940  1.1205
 7933SOL    HW235436   2.832   4.704   3.758 -0.1108 -0.3868  0.5329
 7934SOL     OW35437   0.826   0.947   5.667 -0.6228 -0.2653  0.2682
 7934SOL    HW135438   0.817   1.042   5.659 -1.2501 -0.2394  1.2783
 7934SOL    HW235439   0.921   0.943   5.653 -0.4044  1.1779  1.4436
 7935SOL     OW35440   3.279   4.434  10.583  0.3736 -0.2646 -0.2999
 7935SOL    HW135441   3.286   4.345  10.615  0.5068 -0.8741 -2.0476
 7935SOL    HW235442   3.283   4.478  10.669  1.3827 -0.3883 -0.2798
 7936SOL     OW35443   2.539   1.307  16.497 -0.3806 -0.1619  0.9698
 7936SOL    HW135444   2.458   1.268  16.466  0.2552 -0.4480 -0.3561
 7936SOL    HW235445   2.504   1.393  16.518  1.5707  0.5646  1.3152
 7937SOL     OW35446   1.041   2.733   1.710  0.4434  0.1422  0.2375
 7937SOL    HW135447   0.976   2.664   1.692 -1.5858  1.9273  0.7569
 7937SOL    HW235448   0.986   2.809   1.730 -0.0197 -0.3563  0.8824
 7938SOL     OW35449   0.245   0.330   2.483 -0.0293 -0.2703  0.2859
 7938SOL    HW135450   0.320   0.285   2.521  0.2436  0.4192  0.5786
 7938SOL    HW235451   0.261   0.421   2.510 -0.7604 -0.4937  1.4576
 7939SOL     OW35452   2.737   4.505   5.940  0.8871 -0.4746 -0.1840
 7939SOL    HW135453   2.827   4.512   5.972  0.1717  1.5113  1.4273
 7939SOL    HW235454   2.698   4.494   6.026  0.0025  0.5852 -0.4566
 7940SOL     OW35455   3.295   4.062   1.931  0.2160 -0.1507 -0.0515
 7940SOL    HW135456   3.390   4.052   1.919  0.2536 -1.0855  1.0207
 7940SOL    HW235457   3.261   4.040   1.845  2.1431 -0.7642 -0.6563
 7941SOL     OW35458   0.110   1.858   0.827  0.1206 -0.8093  0.2533
 7941SOL    HW135459   0.135   1.869   0.735 -0.5173 -2.9496 -0.1752
 7941SOL    HW235460   0.172   1.791   0.855  0.5055 -0.1380  0.9958
 7942SOL     OW35461   3.652   2.708   2.113 -0.0232 -0.1163  0.2503
 7942SOL    HW135462   3.690   2.722   2.200  0.3087 -1.4707  0.3159
 7942SOL    HW235463   3.574   2.763   2.121 -0.9186 -1.5174  1.2211
 7943SOL     OW35464   0.200   4.413  12.392 -0.1598  0.1330  0.4416
 7943SOL    HW135465   0.135   4.385  12.327  1.0898 -2.1922  0.1932
 7943SOL    HW235466   0.155   4.386  12.473 -0.7052 -0.4936 -0.0651
 7944SOL     OW35467   0.674   3.445   3.705 -0.3583  0.2847  0.4002
 7944SOL    HW135468   0.669   3.539   3.689 -3.1321 -0.1124 -1.0742
 7944SOL    HW235469   0.769   3.436   3.712 -0.2387  0.4105 -1.0419
 7945SOL     OW35470   2.691   4.488   8.617 -0.2103  0.4974 -0.3509
 7945SOL    HW135471   2.658   4.539   8.691  1.8653  2.0949 -0.5252
 7945SOL    HW235472   2.664   4.402   8.650  2.1047  0.4978  1.5597
 7946SOL     OW35473   0.332   1.373   0.531 -0.4964  0.2905 -0.0156
 7946SOL    HW135474   0.282   1.449   0.501 -0.8486  0.7527  1.7354
 7946SOL    HW235475   0.265   1.304   0.536 -1.1089  0.7866 -1.2437
 7947SOL     OW35476   2.231   3.110   3.128 -0.6547 -0.2376 -0.1464
 7947SOL    HW135477   2.306   3.142   3.077 -1.7467 -0.0305 -1.6081
 7947SOL    HW235478   2.234   3.015   3.118 -2.4671 -0.3001  0.0010
 7948SOL     OW35479   3.806   1.564   7.732  0.3200  0.1099  0.0686
 7948SOL    HW135480   3.878   1.614   7.769  0.9876 -1.1321  0.4419
 7948SOL    HW235481   3.852   1.493   7.687 -1.7641 -0.8634 -0.5287
 7949SOL     OW35482   3.746   2.784   2.410  0.0493  0.2089  0.0481
 7949SOL    HW135483   3.778   2.871   2.385 -0.9952  0.5354 -0.1173
 7949SOL    HW235484   3.779   2.782   2.500 -0.4191 -1.8343  0.1839
 7950SOL     OW35485   4.058   3.448  13.186 -0.6169 -0.2265  0.0482
 7950SOL    HW135486   4.117   3.372  13.179 -1.1571 -0.8474  2.1508
 7950SOL    HW235487   4.111   3.508  13.238 -1.8513  1.0934 -0.2312
 7951SOL     OW35488   4.556   3.814   3.646  0.0571  0.4215 -0.2814
 7951SOL    HW135489   4.585   3.905   3.633  1.0545  0.3033  1.0759
 7951SOL    HW235490   4.538   3.793   3.555 -1.3833 -0.7843  0.2910
 7952SOL     OW35491   0.191   0.469  11.265 -0.4626  0.3547 -0.1950
 7952SOL    HW135492   0.141   0.483  11.346 -0.9389 -0.3604 -0.3636
 7952SOL    HW235493   0.274   0.447  11.306 -0.5917 -0.5035 -0.3955
 7953SOL     OW35494   2.530   2.649   6.955 -0.1419 -0.0873 -0.2016
 7953SOL    HW135495   2.562   2.739   6.963  3.3896 -1.4023  0.4200
 7953SOL    HW235496   2.439   2.648   6.984  0.1779  0.6303  0.8235
 7954SOL     OW35497   2.417   1.622   8.571 -0.8547 -0.0134 -0.0404
 7954SOL    HW135498   2.440   1.670   8.491  1.2392  0.0167  0.5753
 7954SOL    HW235499   2.494   1.565   8.574  0.6313  1.7460 -3.6837
 7955SOL     OW35500   1.765   3.202   9.979  0.1985  0.1514  0.1296
 7955SOL    HW135501   1.830   3.179   9.913  0.9979 -1.3702  1.4404
 7955SOL    HW235502   1.767   3.138  10.051  0.0819  0.5753  0.5127
 7956SOL     OW35503   3.640   1.298   3.517 -0.3309  0.3327  0.0952
 7956SOL    HW135504   3.730   1.276   3.540 -0.7344 -1.8514 -0.4769
 7956SOL    HW235505   3.624   1.225   3.458  2.4883  0.5434 -0.9328
 7957SOL     OW35506   1.644   2.503   0.785 -0.0042 -0.4495 -0.0794
 7957SOL    HW135507   1.712   2.552   0.830 -0.9204  1.5004 -0.8378
 7957SOL    HW235508   1.570   2.549   0.825  2.5391  0.5683  3.4661
 7958SOL     OW35509   1.450   1.229   4.214  0.3549 -0.0435  0.3210
 7958SOL    HW135510   1.387   1.194   4.150  1.5599 -0.1315 -0.8390
 7958SOL    HW235511   1.447   1.164   4.283  2.7829  0.4971  0.9322
 7959SOL     OW35512   3.292   3.084   9.183  0.9686  0.3052  0.0368
 7959SOL    HW135513   3.214   3.085   9.237  0.5476  0.4059 -0.5736
 7959SOL    HW235514   3.279   3.008   9.127 -2.4661  2.7689 -2.5549
 7960SOL     OW35515   4.658   3.383   3.804  0.0568  0.0009  0.0789
 7960SOL    HW135516   4.711   3.331   3.865 -1.5587 -1.7656 -0.0258
 7960SOL    HW235517   4.577   3.404   3.850  0.6309  1.5892  0.3398
 7961SOL     OW35518   1.592   2.654   4.168  0.0324 -0.3874 -0.0795
 7961SOL    HW135519   1.607   2.647   4.074  1.3650  2.1363 -0.0485
 7961SOL    HW235520   1.500   2.628   4.180  0.6557 -1.2000  2.9545
 7962SOL     OW35521   1.528   3.654   2.949 -0.1242 -0.1112 -0.5266
 7962SOL    HW135522   1.433   3.660   2.945 -0.0869  2.3975  1.5832
 7962SOL    HW235523   1.542   3.560   2.952  0.0773 -0.0307  1.3605
 7963SOL     OW35524   1.754   1.634   2.197  0.1302  0.7361  0.5731
 7963SOL    HW135525   1.838   1.632   2.150 -1.0186 -0.8380 -1.4223
 7963SOL    HW235526   1.790   1.605   2.281 -1.0621  0.0923  0.8687
 7964SOL     OW35527   2.206   0.299   2.592 -0.3521  0.3271 -0.1461
 7964SOL    HW135528   2.138   0.234   2.572  0.2530 -0.3606  0.0629
 7964SOL    HW235529   2.214   0.276   2.685  1.5627  0.5710 -0.2682
 7965SOL     OW35530   0.517   0.947   8.992  0.1751 -0.9441  0.4091
 7965SOL    HW135531   0.597   0.943   8.939  0.6033  1.6296  0.8833
 7965SOL    HW235532   0.449   0.904   8.940  0.3198  0.4922 -0.9745
 7966SOL     OW35533   1.389   1.496   5.825 -0.1315  0.3138 -0.0046
 7966SOL    HW135534   1.321   1.547   5.783 -0.1673 -0.9945 -1.5247
 7966SOL    HW235535   1.344   1.459   5.901 -0.0905  3.4257  1.5013
 7967SOL     OW35536   2.075   0.082   8.810  0.6663 -0.5155 -0.1605
 7967SOL    HW135537   2.074   4.734   8.859  1.1134 -1.2442 -1.3835
 7967SOL    HW235538   2.039   0.055   8.726  1.5343  1.8715 -1.3023
 7968SOL     OW35539   2.680   0.032   8.387  0.0771  0.3776 -0.4433
 7968SOL    HW135540   2.726   0.072   8.460 -0.0177  1.8092 -1.1568
 7968SOL    HW235541   2.590   0.043   8.418  0.7898 -2.9377  2.7456
 7969SOL     OW35542   1.706   4.352   8.247  0.4402  0.0942 -0.1650
 7969SOL    HW135543   1.625   4.397   8.222 -0.0012 -0.8677 -0.4539
 7969SOL    HW235544   1.762   4.355   8.170  0.2667 -1.7704 -0.3668
 7970SOL     OW35545   4.699   1.678   3.252 -0.1975 -0.6009  0.2360
 7970SOL    HW135546   4.640   1.609   3.222 -0.3410 -1.4062  2.3830
 7970SOL    HW235547   0.047   1.633   3.234  0.5463  0.7527  0.2083
 7971SOL     OW35548   2.647   1.265   4.775  0.1162 -1.3037  0.0745
 7971SOL    HW135549   2.594   1.267   4.855 -1.5171  0.7132 -1.0428
 7971SOL    HW235550   2.737   1.260   4.807  0.2337 -0.4561 -0.1093
 7972SOL     OW35551   0.812   2.800  13.989 -0.3825  0.3344 -0.1467
 7972SOL    HW135552   0.766   2.716  13.985 -1.5829  1.1229 -2.2720
 7972SOL    HW235553   0.902   2.770  13.973 -0.3790 -0.3198  1.0416
 7973SOL     OW35554   3.968   2.916   7.508  0.0875  0.2763  0.0736
 7973SOL    HW135555   3.957   3.008   7.483 -0.7406 -0.3974 -2.1121
 7973SOL    HW235556   4.063   2.927   7.512  0.1097 -0.6970  2.0956
 7974SOL     OW35557   2.138   2.326   2.918 -0.9420  0.2447 -0.3830
 7974SOL    HW135558   2.190   2.299   2.994 -0.5694  1.2144 -0.2985
 7974SOL    HW235559   2.189   2.403   2.896 -1.1886  0.2076 -1.0642
 7975SOL     OW35560   4.486   2.022  15.387  0.4901 -0.0225 -0.5212
 7975SOL    HW135561   4.472   2.038  15.294 -0.4455  4.4345  0.3695
 7975SOL    HW235562   4.563   1.966  15.398 -0.2105 -1.1375 -1.3188
 7976SOL     OW35563   4.480   0.464   1.187  0.2919  0.2141  0.0561
 7976SOL    HW135564   4.417   0.432   1.252 -0.7719  3.2955  0.5467
 7976SOL    HW235565   4.510   0.544   1.230 -0.6547  0.2085  0.7213
 7977SOL     OW35566   2.251   2.720   6.974 -0.1722 -0.1509 -0.2820
 7977SOL    HW135567   2.210   2.633   6.977 -0.7419  0.0110 -2.7887
 7977SOL    HW235568   2.219   2.769   7.049  0.1176 -1.0405  0.4192
 7978SOL     OW35569   0.519   4.421   3.213 -0.1502  0.1752  0.1826
 7978SOL    HW135570   0.492   4.330   3.205 -0.3107  0.2772 -0.4387
 7978SOL    HW235571   0.469   4.461   3.142  0.0770 -2.0536 -1.2373
 7979SOL     OW35572   2.319   0.741   8.380  0.8847 -0.0453  0.5108
 7979SOL    HW135573   2.237   0.723   8.426  0.4751 -0.3840 -0.3542
 7979SOL    HW235574   2.358   0.654   8.377 -0.2557 -0.3790 -4.0976
 7980SOL     OW35575   4.371   3.516   6.503 -0.1591  0.0893 -0.1988
 7980SOL    HW135576   4.282   3.552   6.497  1.5543  4.3913  0.5286
 7980SOL    HW235577   4.358   3.421   6.511  1.1547 -0.1862 -1.5205
 7981SOL     OW35578   1.919   4.596   4.567  0.8437 -0.5864 -0.0844
 7981SOL    HW135579   1.995   4.553   4.607  1.9698  0.8410 -0.6926
 7981SOL    HW235580   1.948   4.621   4.480 -0.1592 -0.2708 -0.3276
 7982SOL     OW35581   3.513   0.601   3.189 -0.3659  0.1763 -0.0719
 7982SOL    HW135582   3.578   0.544   3.148 -0.3549  0.6508 -0.7242
 7982SOL    HW235583   3.459   0.609   3.110 -0.9088  1.1775  0.4067
 7983SOL     OW35584   3.811   4.665   0.323  0.0915  0.6802  0.1876
 7983SOL    HW135585   3.745   4.724   0.287  1.0617  2.2874  1.0573
 7983SOL    HW235586   3.753   4.596   0.356 -2.6332  1.9309 -2.0367
 7984SOL     OW35587   1.497   0.754   0.798 -0.4714 -0.7643 -0.0228
 7984SOL    HW135588   1.549   0.791   0.870 -1.1169  0.8527 -0.3755
 7984SOL    HW235589   1.558   0.683   0.778  0.5729  0.4157 -1.0352
 7985SOL     OW35590   0.005   4.632  10.124 -0.3402 -0.6031 -0.0476
 7985SOL    HW135591   0.032   4.718  10.156  0.9410 -1.0058 -0.0182
 7985SOL    HW235592   4.673   4.659  10.061 -0.3015  0.8589  0.5453
 7986SOL     OW35593   0.919   1.220   1.067  0.7543  0.1971  0.2648
 7986SOL    HW135594   0.842   1.275   1.075  1.2454  0.7269  1.3602
 7986SOL    HW235595   0.972   1.270   1.005  0.0672  1.5185  0.7568
 7987SOL     OW35596   0.143   1.842   6.315 -1.1543 -0.4493 -0.9192
 7987SOL    HW135597   0.184   1.874   6.235  2.4307  0.0340  1.1344
 7987SOL    HW235598   0.212   1.782   6.341 -1.4186  0.9203  2.9605
 7988SOL     OW35599   1.170   2.863   6.053 -0.2569  0.2577 -0.2771
 7988SOL    HW135600   1.118   2.806   5.996  1.2674 -1.0728 -0.3386
 7988SOL    HW235601   1.251   2.813   6.056 -0.2396  0.3618  1.0565
 7989SOL     OW35602   2.412   1.577   7.414 -0.4938  0.7925 -0.2633
 7989SOL    HW135603   2.360   1.572   7.495  0.4352 -0.0502  0.2695
 7989SOL    HW235604   2.499   1.556   7.445 -0.3279  1.3849 -0.3292
 7990SOL     OW35605   0.003   4.346   8.244  0.0455 -0.0927  0.0042
 7990SOL    HW135606   0.020   4.427   8.196 -1.3742  1.1173  1.5361
 7990SOL    HW235607   0.077   4.287   8.228 -0.2261 -0.8802  1.6091
 7991SOL     OW35608   3.476   4.038   3.793 -0.1772  0.4880 -0.5189
 7991SOL    HW135609   3.387   4.029   3.757  1.0243 -0.3671 -3.2723
 7991SOL    HW235610   3.517   4.104   3.737 -2.3022  0.6442 -1.9330
 7992SOL     OW35611   1.095   1.032  16.360  0.3311 -0.3086  0.3168
 7992SOL    HW135612   1.176   1.058  16.317  1.6638 -0.1152  2.9469
 7992SOL    HW235613   1.025   1.052  16.298  1.0642  2.2627  0.3048
 7993SOL     OW35614   1.225   2.325  16.648  0.0752 -0.2213  0.6000
 7993SOL    HW135615   1.299   2.264  16.653  0.9219  0.5800 -1.8469
 7993SOL    HW235616   1.161   2.283  16.705 -1.5099  0.1914 -0.8884
 7994SOL     OW35617   1.798   2.840   7.758  0.2039 -0.1301 -0.0476
 7994SOL    HW135618   1.846   2.761   7.734 -2.1720 -1.0839 -1.6146
 7994SOL    HW235619   1.741   2.856   7.683 -0.3234  1.9530  0.7955
 7995SOL     OW35620   2.382   1.508   5.488 -0.0326  0.3860 -0.2154
 7995SOL    HW135621   2.351   1.598   5.486  2.1771  1.1772  0.8335
 7995SOL    HW235622   2.305   1.469   5.529  0.4414  1.6913  1.9466
 7996SOL     OW35623   2.760   1.140   0.577 -0.6567  0.0010 -0.3497
 7996SOL    HW135624   2.771   1.091   0.496  0.5344  2.6426 -1.7748
 7996SOL    HW235625   2.792   1.077   0.642  0.5385  2.1317  1.1144
 7997SOL     OW35626   1.924   0.111   5.043  0.1073  0.2402 -0.4901
 7997SOL    HW135627   2.014   0.132   5.018  0.8603 -0.6077  1.4538
 7997SOL    HW235628   1.941   0.018   5.058  1.8621  0.4518 -1.1859
 7998SOL     OW35629   1.379   1.743   0.892 -0.2664 -0.1362  0.3135
 7998SOL    HW135630   1.318   1.726   0.821 -1.7382  2.4398  0.9466
 7998SOL    HW235631   1.460   1.723   0.846 -0.1326 -2.0839  1.3908
 7999SOL     OW35632   1.732   1.041   6.953 -0.2810  0.4507  0.0806
 7999SOL    HW135633   1.764   1.060   7.041 -0.8751  1.0857  0.1575
 7999SOL    HW235634   1.667   0.974   6.974 -0.9762  0.5958 -1.5696
 8000SOL     OW35635   2.397   0.501   3.543 -0.7894  0.0816  0.3254
 8000SOL    HW135636   2.462   0.551   3.494 -1.1331 -0.0066 -0.2249
 8000SOL    HW235637   2.347   0.570   3.587  1.7621  1.5840  0.8610
 8001SOL     OW35638   1.078   3.673   5.699  0.1455  0.0298  0.0110
 8001SOL    HW135639   1.128   3.593   5.682  0.4717  0.2935 -0.2615
 8001SOL    HW235640   1.026   3.671   5.619 -1.5247 -3.7566  1.1828
 8002SOL     OW35641   2.470   4.574  16.888  0.2260 -0.7471 -0.6322
 8002SOL    HW135642   2.476   4.648  16.828 -0.4814  1.4096  1.9216
 8002SOL    HW235643   2.495   4.501  16.832  0.1600  0.2731 -1.9826
 8003SOL     OW35644   4.073   3.760   1.688  0.6581 -0.0970 -0.2338
 8003SOL    HW135645   4.146   3.821   1.684  0.7695 -0.2305 -0.2551
 8003SOL    HW235646   4.115   3.674   1.696 -0.6224 -0.5174  1.8219
 8004SOL     OW35647   0.243   2.366   2.406 -0.0117 -0.1691 -0.1247
 8004SOL    HW135648   0.219   2.427   2.476 -0.8136 -0.4991 -0.1142
 8004SOL    HW235649   0.317   2.325   2.451  0.7804  1.1015 -0.2532
 8005SOL     OW35650   3.719   3.727  10.489 -0.2440  0.8770  0.2455
 8005SOL    HW135651   3.790   3.777  10.449 -0.6223  1.4938  0.3514
 8005SOL    HW235652   3.771   3.660  10.533 -1.1943 -1.1828 -1.7111
 8006SOL     OW35653   1.214   1.734   1.137  0.2608 -0.4816 -0.3268
 8006SOL    HW135654   1.224   1.696   1.050  1.1734 -0.8938 -0.0506
 8006SOL    HW235655   1.296   1.698   1.172  0.6850 -0.4889 -1.3335
 8007SOL     OW35656   3.582   2.938   3.070 -0.0111  0.0440 -0.0799
 8007SOL    HW135657   3.653   2.874   3.066  1.2171  1.2567  2.3624
 8007SOL    HW235658   3.601   2.975   3.156  1.6366  0.1715 -0.4983
 8008SOL     OW35659   3.193   2.240   2.887  0.0528  0.1576 -0.3293
 8008SOL    HW135660   3.228   2.279   2.968 -0.3717  0.1971 -0.1676
 8008SOL    HW235661   3.275   2.236   2.837  1.4272 -2.0767  2.1001
 8009SOL     OW35662   0.219   3.463   0.329  0.5815 -0.5628 -0.6360
 8009SOL    HW135663   0.150   3.418   0.378 -1.4974  3.0031 -0.3166
 8009SOL    HW235664   0.265   3.396   0.279  0.4549  0.7487 -2.5122
 8010SOL     OW35665   1.570   0.883   3.850 -0.1461  0.0844 -0.0731
 8010SOL    HW135666   1.497   0.910   3.794 -0.1576 -0.2264 -0.2096
 8010SOL    HW235667   1.542   0.898   3.940 -1.1201 -0.2283 -0.3268
 8011SOL     OW35668   3.072   3.768   9.421  0.2529 -0.3722 -0.1126
 8011SOL    HW135669   3.092   3.861   9.433 -1.7608 -0.2851  2.5607
 8011SOL    HW235670   3.101   3.725   9.502  2.3889  2.9635  0.8583
 8012SOL     OW35671   3.549   1.857   5.077 -0.7162 -0.0803  0.3068
 8012SOL    HW135672   3.503   1.898   5.150 -0.0831  0.6876  0.2750
 8012SOL    HW235673   3.484   1.882   5.011 -0.2691  0.6613  0.1530
 8013SOL     OW35674   3.514   2.854   8.460 -0.0639 -0.5761 -0.0121
 8013SOL    HW135675   3.460   2.802   8.520  0.8317 -1.3056  0.1672
 8013SOL    HW235676   3.592   2.800   8.446  1.2184  1.1236  0.6477
 8014SOL     OW35677   3.663   4.136   4.228 -0.0710  0.4904 -0.3965
 8014SOL    HW135678   3.747   4.178   4.208 -0.1239  0.8522  0.1331
 8014SOL    HW235679   3.597   4.184   4.179  1.0508 -0.2807 -2.6668
 8015SOL     OW35680   0.991   0.257   3.722 -0.6834 -0.1978 -0.6765
 8015SOL    HW135681   0.984   0.253   3.627 -0.7155 -1.0685 -0.6356
 8015SOL    HW235682   1.044   0.177   3.729 -1.0039 -0.5432 -2.1586
 8016SOL     OW35683   1.859   4.527   8.815  0.3495 -0.2730 -0.3390
 8016SOL    HW135684   1.858   4.434   8.795 -0.4140 -0.4478  0.4925
 8016SOL    HW235685   1.945   4.533   8.856 -0.0706 -2.9739  0.9104
 8017SOL     OW35686   2.143   3.778   2.114 -0.7290 -0.1013  0.3716
 8017SOL    HW135687   2.134   3.868   2.144  1.9673  0.2263  0.2327
 8017SOL    HW235688   2.173   3.734   2.193 -1.2292 -1.1943 -0.0520
 8018SOL     OW35689   0.442   2.279  17.666 -0.2540  0.3369 -0.5762
 8018SOL    HW135690   0.520   2.228  17.685 -1.3960 -1.4715 -0.7346
 8018SOL    HW235691   0.462   2.288  17.573  2.1474 -0.9004 -0.1708
 8019SOL     OW35692   2.190   2.038   1.923 -0.7970 -0.2998  0.2201
 8019SOL    HW135693   2.186   2.128   1.891  0.8536  0.9078  3.4001
 8019SOL    HW235694   2.220   1.993   1.844  0.2064 -1.3454  1.2161
 8020SOL     OW35695   4.206   0.662   3.784 -0.2161  0.3952 -0.3382
 8020SOL    HW135696   4.146   0.720   3.830  1.8450  1.6338  0.7447
 8020SOL    HW235697   4.166   0.576   3.795  1.9585 -0.7725 -1.4807
 8021SOL     OW35698   4.492   4.082  14.680 -0.2402 -1.2957  0.5563
 8021SOL    HW135699   4.460   4.170  14.702  2.5219  0.0576 -0.8753
 8021SOL    HW235700   4.584   4.101  14.666 -0.6450 -0.1558 -0.5275
 8022SOL     OW35701   3.393   4.666   8.877 -0.0328  0.0517 -0.4416
 8022SOL    HW135702   3.435   4.590   8.915 -0.2843 -1.6782 -3.5941
 8022SOL    HW235703   3.468   4.725   8.878  0.9046 -1.1825  0.9082
 8023SOL     OW35704   2.918   1.916   2.292  0.1655  0.0982 -0.1128
 8023SOL    HW135705   2.867   1.847   2.251  0.6327  0.6900 -1.6621
 8023SOL    HW235706   3.009   1.923   2.265  1.2301 -2.4370  2.7983
 8024SOL     OW35707   2.280   2.320  16.286  0.1709  0.7968 -0.4474
 8024SOL    HW135708   2.340   2.393  16.273  1.4472 -0.3268 -0.8576
 8024SOL    HW235709   2.202   2.375  16.279 -0.7046 -0.2477  1.0009
 8025SOL     OW35710   3.294   3.697   6.542 -0.5857 -0.1612 -0.5224
 8025SOL    HW135711   3.353   3.633   6.581  0.5175  1.0879 -0.1133
 8025SOL    HW235712   3.204   3.665   6.537 -0.9279  1.1866 -3.0632
 8026SOL     OW35713   1.319   0.812   7.777  0.2541 -0.0240 -0.0765
 8026SOL    HW135714   1.388   0.749   7.759  2.9815  3.0047 -0.1615
 8026SOL    HW235715   1.242   0.767   7.741 -0.3681 -0.2608  1.5818
 8027SOL     OW35716   3.794   2.948   6.564 -0.2215 -0.7927 -0.3560
 8027SOL    HW135717   3.759   2.912   6.645  0.2898 -1.4908 -0.4393
 8027SOL    HW235718   3.889   2.937   6.572 -0.0458  1.8662  1.0607
 8028SOL     OW35719   1.820   1.626   6.686  0.2793  0.7896 -0.2262
 8028SOL    HW135720   1.860   1.701   6.642  0.0234  0.9393 -0.2074
 8028SOL    HW235721   1.749   1.607   6.625 -1.7620 -0.0636  2.4327
 8029SOL     OW35722   0.912   0.116   1.982 -0.0000  0.0465 -0.2285
 8029SOL    HW135723   0.993   0.165   1.974  0.9032 -1.8407 -2.9053
 8029SOL    HW235724   0.848   0.186   1.993  1.0954  1.1574 -1.0020
 8030SOL     OW35725   2.397   2.440   0.768  0.2655  0.1056  0.1609
 8030SOL    HW135726   2.442   2.521   0.743 -0.1023 -0.4570 -2.2917
 8030SOL    HW235727   2.317   2.442   0.715  0.6286 -0.2123 -0.4014
 8031SOL     OW35728   3.088   2.793   5.405 -0.9053 -0.2374 -0.4311
 8031SOL    HW135729   3.068   2.876   5.362 -1.0738  0.1743  0.4306
 8031SOL    HW235730   3.152   2.824   5.470 -1.7882 -1.1641  0.8742
 8032SOL     OW35731   2.121   3.072   4.624 -0.0335  0.0621  0.1697
 8032SOL    HW135732   2.069   3.099   4.549 -0.2625 -0.4714  0.1395
 8032SOL    HW235733   2.110   2.977   4.634 -1.0821  0.0999 -0.6861
 8033SOL     OW35734   3.954   1.852   6.826 -0.1932 -0.0072  0.2849
 8033SOL    HW135735   3.863   1.823   6.837 -0.3025 -0.0521 -0.7713
 8033SOL    HW235736   3.945   1.906   6.748  0.4206  0.7547  0.7491
 8034SOL     OW35737   1.260   4.610   9.768 -0.7741 -0.0563  0.3681
 8034SOL    HW135738   1.278   4.562   9.848 -0.7947  0.1708  0.5089
 8034SOL    HW235739   1.172   4.576   9.750 -0.7194  1.9086 -3.7304
 8035SOL     OW35740   3.208   4.074   2.522 -0.2902 -0.0146 -0.0737
 8035SOL    HW135741   3.187   4.069   2.429 -0.8810 -2.1076  0.1781
 8035SOL    HW235742   3.131   4.042   2.569  0.0615  0.0625  0.5517
 8036SOL     OW35743   1.000   2.910   3.668 -0.5050 -0.1037 -0.2214
 8036SOL    HW135744   1.054   2.928   3.591 -0.2075 -1.3427 -0.3024
 8036SOL    HW235745   0.916   2.884   3.631 -1.1769  2.6127 -0.6373
 8037SOL     OW35746   0.433   4.383   2.032 -0.3424 -0.3864 -0.0778
 8037SOL    HW135747   0.482   4.459   2.000  1.3174 -1.1230  0.7436
 8037SOL    HW235748   0.493   4.312   2.010  1.7183  1.1806  0.4234
 8038SOL     OW35749   1.306   0.096   2.182  0.8079 -0.1758 -0.2845
 8038SOL    HW135750   1.217   0.131   2.191  0.1814 -1.7162 -0.5385
 8038SOL    HW235751   1.316   0.073   2.090  1.8974  0.3548 -0.2989
 8039SOL     OW35752   1.190   2.478   6.902 -0.5046  0.2361 -0.0013
 8039SOL    HW135753   1.263   2.435   6.856 -0.7028  1.6730 -1.6706
 8039SOL    HW235754   1.158   2.394   6.936  1.6724 -0.6410 -0.1129
 8040SOL     OW35755   3.554   4.169  14.185  0.3033 -0.3877 -0.3549
 8040SOL    HW135756   3.616   4.137  14.250  0.2589  1.6731  0.7191
 8040SOL    HW235757   3.586   4.259  14.175 -2.2753  0.4455 -1.0753
 8041SOL     OW35758   3.378   2.637  14.234 -0.3113  0.0867 -0.0703
 8041SOL    HW135759   3.409   2.548  14.248  0.8973  0.7706  1.5870
 8041SOL    HW235760   3.416   2.648  14.147  2.0666 -2.1065  0.7155
 8042SOL     OW35761   3.994   1.837  13.013 -0.5689  0.1813  0.1525
 8042SOL    HW135762   4.074   1.861  13.059  0.0589  0.1000 -0.8760
 8042SOL    HW235763   4.020   1.747  12.991 -1.2397  0.2845 -1.0882
 8043SOL     OW35764   1.939   2.176  16.612  0.1163  0.4884 -0.2361
 8043SOL    HW135765   2.019   2.189  16.560  0.2421 -2.0101 -0.6401
 8043SOL    HW235766   1.907   2.090  16.587 -1.1678  0.8122  0.2914
 8044SOL     OW35767   3.190   0.875   4.908 -0.3524 -0.5200 -0.1397
 8044SOL    HW135768   3.134   0.934   4.858  0.0150 -0.9113 -1.0118
 8044SOL    HW235769   3.278   0.901   4.881 -0.2161 -0.3298  0.4912
 8045SOL     OW35770   3.319   0.141   1.059  0.0643 -0.0752 -0.5134
 8045SOL    HW135771   3.318   0.229   1.096  0.5197  0.3434 -1.4975
 8045SOL    HW235772   3.326   0.086   1.138 -0.8045 -2.2974 -1.9792
 8046SOL     OW35773   3.827   4.499   7.825 -0.2871  0.0118  0.2148
 8046SOL    HW135774   3.781   4.425   7.865  0.2019  0.3370  1.3740
 8046SOL    HW235775   3.894   4.461   7.768 -0.9181  2.4849 -2.1696
 8047SOL     OW35776   2.689   0.290  16.807 -0.3778  0.4777 -0.4638
 8047SOL    HW135777   2.644   0.367  16.841 -2.1087 -1.1062  0.8123
 8047SOL    HW235778   2.699   0.319  16.716  1.0897  3.5187  0.6683
 8048SOL     OW35779   3.690   2.131   5.550  0.6131 -0.5849 -0.2374
 8048SOL    HW135780   3.685   2.225   5.529  1.4773 -0.4109  0.3258
 8048SOL    HW235781   3.782   2.134   5.577  0.6574 -0.8367 -0.3636
 8049SOL     OW35782   4.103   3.036  10.133 -0.0614 -0.0962  0.3311
 8049SOL    HW135783   4.115   2.971  10.063  1.3403 -0.5021  0.9597
 8049SOL    HW235784   4.016   3.008  10.162  0.4827 -0.6544  1.3956
 8050SOL     OW35785   4.242   0.592   8.821  0.0022  0.0800  0.3939
 8050SOL    HW135786   4.283   0.677   8.806  2.3587 -1.0894  0.1494
 8050SOL    HW235787   4.248   0.558   8.731  0.1365  3.4632 -0.8818
 8051SOL     OW35788   1.722   1.604  15.277 -0.0078  0.0911  0.1120
 8051SOL    HW135789   1.702   1.511  15.262 -0.8634 -0.2838  3.6475
 8051SOL    HW235790   1.670   1.636  15.204  0.4357  0.1119 -0.1995
 8052SOL     OW35791   1.875   3.168   6.301 -0.5146 -0.3227  0.1168
 8052SOL    HW135792   1.808   3.234   6.287 -0.8617 -0.2267  2.1555
 8052SOL    HW235793   1.893   3.176   6.395  0.3126 -0.9342  0.0193
 8053SOL     OW35794   4.297   3.067   6.819  0.2821  0.2937 -0.2675
 8053SOL    HW135795   4.294   2.979   6.856 -1.2483  0.4371 -0.0819
 8053SOL    HW235796   4.344   3.042   6.739  0.2300 -1.3052  0.1900
 8054SOL     OW35797   3.620   0.481  14.401 -0.4599  0.3068  0.5319
 8054SOL    HW135798   3.686   0.415  14.422 -1.9973 -0.3983  3.1419
 8054SOL    HW235799   3.545   0.428  14.372  1.1109 -0.9895 -1.2094
 8055SOL     OW35800   3.318   4.324   8.864 -0.1694 -0.1767  0.3310
 8055SOL    HW135801   3.278   4.388   8.923  0.4489 -1.7174  2.3947
 8055SOL    HW235802   3.291   4.372   8.785 -0.4528 -2.9136 -1.2209
 8056SOL     OW35803   1.844   1.316   5.479 -0.2333  0.1520 -0.5181
 8056SOL    HW135804   1.824   1.229   5.445 -0.3867 -0.2428  0.5793
 8056SOL    HW235805   1.769   1.364   5.442 -1.8540 -0.4084  2.0144
 8057SOL     OW35806   0.249   1.642   7.812 -0.4077 -0.5481  0.7433
 8057SOL    HW135807   0.303   1.693   7.752 -1.0392  0.5901  1.1209
 8057SOL    HW235808   0.163   1.663   7.775 -0.0148  0.6985  0.5166
 8058SOL     OW35809   0.686   2.701   9.960  0.0755  0.4750  0.3106
 8058SOL    HW135810   0.650   2.787   9.937 -0.1758  0.3188  0.1140
 8058SOL    HW235811   0.637   2.647   9.898 -0.6273  0.8613  0.5264
 8059SOL     OW35812   0.572   1.635  13.234 -0.0195  0.2050 -0.2742
 8059SOL    HW135813   0.570   1.560  13.175 -0.0390  0.2114 -0.2814
 8059SOL    HW235814   0.664   1.650  13.259  0.2426 -1.8216 -0.0636
 8060SOL     OW35815   2.161   3.825   0.156 -0.4431 -0.4031 -0.2540
 8060SOL    HW135816   2.205   3.774   0.088  0.3018 -2.2132  1.5794
 8060SOL    HW235817   2.073   3.791   0.141  0.9207 -3.3556 -1.4458
 8061SOL     OW35818   1.499   2.410   8.576 -0.2426 -0.1256 -0.0145
 8061SOL    HW135819   1.446   2.380   8.650 -0.5855  1.3945  0.3444
 8061SOL    HW235820   1.503   2.325   8.532  2.2497 -0.9983  1.8892
 8062SOL     OW35821   3.464   1.320   0.896  0.1669 -0.1548 -0.1224
 8062SOL    HW135822   3.397   1.372   0.851  0.2571 -0.4971 -0.6537
 8062SOL    HW235823   3.520   1.392   0.924  2.0793 -2.1474  1.1141
 8063SOL     OW35824   1.113   2.140   5.881 -0.1888  0.0149  0.0804
 8063SOL    HW135825   1.066   2.184   5.810 -2.3158  0.0794  1.5306
 8063SOL    HW235826   1.156   2.068   5.835  0.4074  1.1770 -1.1809
 8064SOL     OW35827   0.687   1.750   3.322  0.1496  0.2945  0.0977
 8064SOL    HW135828   0.704   1.669   3.274 -0.6357  1.0409 -1.4625
 8064SOL    HW235829   0.591   1.752   3.319  0.1366  1.3068  1.1415
 8065SOL     OW35830   1.916   0.091   6.540 -0.1888 -0.0316  0.3871
 8065SOL    HW135831   1.853   0.032   6.500 -0.6366 -1.7023  3.6712
 8065SOL    HW235832   1.975   0.115   6.468 -1.0333  0.3543 -0.1717
 8066SOL     OW35833   2.632   4.390   3.267 -0.6005 -0.1625 -0.0036
 8066SOL    HW135834   2.718   4.429   3.252 -1.3195  1.1945 -0.6076
 8066SOL    HW235835   2.660   4.345   3.347 -0.0749  1.8128  0.9144
 8067SOL     OW35836   3.644   1.948  14.748 -0.1505  0.3856 -0.3269
 8067SOL    HW135837   3.737   1.958  14.766 -0.4651  2.2086  0.3473
 8067SOL    HW235838   3.635   1.949  14.653 -0.0724 -0.8261 -0.3438
 8068SOL     OW35839   2.583   3.689   5.923 -0.2131 -0.0111 -0.7786
 8068SOL    HW135840   2.557   3.744   5.849 -0.7481 -0.5397 -0.9834
 8068SOL    HW235841   2.516   3.729   5.979  0.9974  1.1352 -0.1548
 8069SOL     OW35842   2.146   3.513   4.867 -0.4911 -0.0355 -0.1630
 8069SOL    HW135843   2.151   3.462   4.786  0.1490 -1.2997  0.6800
 8069SOL    HW235844   2.181   3.454   4.933  0.3103 -0.0388 -0.5840
 8070SOL     OW35845   3.624   0.633  13.411 -0.1451 -0.0962 -0.1346
 8070SOL    HW135846   3.535   0.599  13.400  0.6666 -2.0994 -0.5635
 8070SOL    HW235847   3.612   0.664  13.500  1.5413 -0.3173  0.1678
 8071SOL     OW35848   4.169   3.114  11.875  0.3792  0.4480 -0.8494
 8071SOL    HW135849   4.094   3.170  11.894  0.1955 -0.4472  1.0650
 8071SOL    HW235850   4.242   3.158  11.920 -1.0867  1.7904  0.2511
 8072SOL     OW35851   1.622   0.413  16.567 -0.1037 -0.0061  0.4574
 8072SOL    HW135852   1.608   0.446  16.478 -1.0515  1.1478  1.0389
 8072SOL    HW235853   1.641   0.320  16.553  0.6285  0.0154  1.2678
 8073SOL     OW35854   2.083   0.234   3.990  0.1301 -0.3085 -0.3300
 8073SOL    HW135855   2.063   0.279   3.908  1.8552  0.0571 -0.5403
 8073SOL    HW235856   2.024   0.289   4.042 -0.4421 -1.4050  0.1814
 8074SOL     OW35857   2.770   0.060   7.781 -0.0318 -0.4466 -0.3718
 8074SOL    HW135858   2.817   0.121   7.726  2.0961 -0.6112  1.2723
 8074SOL    HW235859   2.681   0.080   7.752 -0.3980 -2.7068 -0.8478
 8075SOL     OW35860   1.517   0.377  11.403 -0.5946 -0.3032 -0.0627
 8075SOL    HW135861   1.494   0.468  11.421 -0.4007 -0.5686  1.5359
 8075SOL    HW235862   1.533   0.381  11.309 -2.1481 -2.1579 -0.4124
 8076SOL     OW35863   1.790   0.573   2.471  0.1446 -0.0914 -0.4027
 8076SOL    HW135864   1.711   0.567   2.524  0.6773  0.4574  0.4589
 8076SOL    HW235865   1.786   0.495   2.416 -0.1504  0.1100 -0.6695
 8077SOL     OW35866   3.788   3.132   9.382  0.2214  0.2385 -0.7850
 8077SOL    HW135867   3.693   3.134   9.392  0.3784 -0.2041  0.8287
 8077SOL    HW235868   3.812   3.046   9.416  2.6943 -0.0413 -3.2532
 8078SOL     OW35869   2.696   0.336   7.030  0.3013  0.6238  0.1088
 8078SOL    HW135870   2.735   0.293   7.106 -0.9243 -1.7781 -0.6187
 8078SOL    HW235871   2.623   0.378   7.075  0.5998 -0.8912  2.0038
 8079SOL     OW35872   1.779   1.376   1.496 -0.1472 -0.3004 -0.1008
 8079SOL    HW135873   1.715   1.350   1.562 -1.0120  2.0733 -0.0325
 8079SOL    HW235874   1.779   1.471   1.498 -0.5686 -0.3256  1.4291
 8080SOL     OW35875   1.877   0.163   6.064 -0.1285 -0.8467  0.4307
 8080SOL    HW135876   1.896   0.248   6.024  0.9307 -0.7777  1.1020
 8080SOL    HW235877   1.823   0.182   6.141  0.4725  2.2872  0.0550
 8081SOL     OW35878   0.817   0.610   8.893 -0.0260  0.2249 -0.0887
 8081SOL    HW135879   0.889   0.609   8.956 -0.3431 -1.3952  0.2490
 8081SOL    HW235880   0.869   0.584   8.817 -1.4206  1.2066 -1.3833
 8082SOL     OW35881   3.765   1.619   2.581  0.3689 -0.2819  0.4681
 8082SOL    HW135882   3.831   1.554   2.604  2.2316  0.6001 -2.4488
 8082SOL    HW235883   3.752   1.613   2.487  2.3628  0.1671  0.1684
 8083SOL     OW35884   3.872   3.718   6.515 -0.5792 -0.0490 -0.1939
 8083SOL    HW135885   3.862   3.689   6.605 -1.1503  2.4223  0.5554
 8083SOL    HW235886   3.786   3.758   6.503 -0.4487  0.4826  0.6408
 8084SOL     OW35887   1.332   0.405  16.640 -0.2059  0.0199  0.2327
 8084SOL    HW135888   1.367   0.363  16.561  1.9958 -0.1463  1.2816
 8084SOL    HW235889   1.412   0.414  16.693 -0.8658  0.4721  1.1461
 8085SOL     OW35890   3.060   0.184  14.417  0.4490 -0.4614 -0.5098
 8085SOL    HW135891   3.011   0.104  14.438 -0.1486 -0.1399 -0.6911
 8085SOL    HW235892   3.136   0.179  14.475  0.5508 -0.1821 -0.6207
 8086SOL     OW35893   4.139   4.450  11.678  0.4734 -0.2570  0.0050
 8086SOL    HW135894   4.187   4.384  11.627 -2.0328 -1.6936 -0.5353
 8086SOL    HW235895   4.194   4.526  11.662  1.4094 -0.7431  0.9279
 8087SOL     OW35896   2.873   1.484   2.050  0.6078 -0.3841 -0.2176
 8087SOL    HW135897   2.830   1.569   2.039  0.4887 -0.3776  0.2880
 8087SOL    HW235898   2.960   1.512   2.024  0.9040 -0.5465  0.6104
 8088SOL     OW35899   2.251   1.009  10.909  0.0721 -0.2395  0.0569
 8088SOL    HW135900   2.162   0.977  10.891  0.2596 -1.1191  0.6975
 8088SOL    HW235901   2.244   1.059  10.991  0.5329 -2.0159  1.1718
 8089SOL     OW35902   4.082   0.609  14.883 -0.2611  0.0356  0.0839
 8089SOL    HW135903   4.005   0.630  14.936 -0.2371  2.8924 -0.9987
 8089SOL    HW235904   4.058   0.637  14.795 -1.1829 -0.1010  0.2833
 8090SOL     OW35905   4.043   3.094   5.895 -0.4369 -0.1747 -0.0038
 8090SOL    HW135906   4.085   3.058   5.973 -0.8887 -0.2787  0.1898
 8090SOL    HW235907   4.045   3.189   5.912 -0.1841 -0.1792 -0.0067
 8091SOL     OW35908   1.992   0.365  10.767  0.0480  0.5117 -0.0813
 8091SOL    HW135909   1.990   0.293  10.704  3.8716  0.7667 -0.4540
 8091SOL    HW235910   2.081   0.396  10.753  0.2905  0.4878  1.4628
 8092SOL     OW35911   2.005   0.562   3.744 -0.6359  0.2568  0.5707
 8092SOL    HW135912   1.927   0.533   3.791 -1.1484 -1.2033 -1.1846
 8092SOL    HW235913   1.959   0.616   3.679 -0.5140  0.0316  0.2981
 8093SOL     OW35914   1.576   0.690   8.320  0.4676 -0.4099 -0.4764
 8093SOL    HW135915   1.644   0.630   8.289  1.3199 -0.0064  0.6333
 8093SOL    HW235916   1.559   0.649   8.405  0.6707 -0.3532 -0.4084
 8094SOL     OW35917   2.691   1.864   9.170  0.4986  0.6190 -0.4618
 8094SOL    HW135918   2.663   1.943   9.215  1.8963  0.7829  0.1060
 8094SOL    HW235919   2.635   1.801   9.216 -0.4772  1.2725 -0.7492
 8095SOL     OW35920   0.956   3.338   9.938  0.8835  0.8497 -0.0960
 8095SOL    HW135921   1.046   3.344   9.906  1.7003  0.0555  2.0420
 8095SOL    HW235922   0.970   3.290  10.020 -1.1049 -1.0256 -0.8444
 8096SOL     OW35923   3.508   3.497   7.421  0.3361  0.0681 -0.0782
 8096SOL    HW135924   3.464   3.477   7.504  1.4057  1.5699  0.8429
 8096SOL    HW235925   3.571   3.563   7.448  2.7984 -2.6090  0.6849
 8097SOL     OW35926   0.497   3.840   7.385 -0.3809  0.3807  0.1699
 8097SOL    HW135927   0.542   3.761   7.416 -0.6102 -0.5168 -1.7458
 8097SOL    HW235928   0.491   3.903   7.456 -0.8268  0.2792  0.2251
 8098SOL     OW35929   2.560   2.609   7.294  0.0245 -0.2883 -0.3632
 8098SOL    HW135930   2.524   2.535   7.245 -0.7863 -0.4152  0.4250
 8098SOL    HW235931   2.653   2.584   7.290 -1.0860 -4.5544  0.6922
 8099SOL     OW35932   4.103   4.181   2.359 -0.3557 -0.1485  0.1457
 8099SOL    HW135933   4.044   4.256   2.357  1.0018  0.9269 -0.4066
 8099SOL    HW235934   4.047   4.107   2.336 -1.9687  1.0054  0.3888
 8100SOL     OW35935   1.751   0.564  15.582  0.0708 -0.3520 -0.4166
 8100SOL    HW135936   1.822   0.507  15.612  1.1722  0.3783 -1.6066
 8100SOL    HW235937   1.803   0.633  15.541 -1.4223  1.2637  0.4154
 8101SOL     OW35938   1.746   2.114  15.181 -0.4018  0.3557  0.0798
 8101SOL    HW135939   1.821   2.066  15.147 -0.5693  2.2329 -2.9496
 8101SOL    HW235940   1.701   2.149  15.104 -0.6891  0.9795  0.5258
 8102SOL     OW35941   2.917   1.282   4.853  0.3335  0.1261  0.0333
 8102SOL    HW135942   3.011   1.282   4.835  0.5670 -3.4014  1.1982
 8102SOL    HW235943   2.906   1.288   4.948 -0.7398  2.9003 -0.2415
 8103SOL     OW35944   0.846   1.582   6.020  0.1642  0.2884  0.4484
 8103SOL    HW135945   0.900   1.565   6.097 -0.3544  0.2110  0.7920
 8103SOL    HW235946   0.835   1.677   6.018 -2.3036 -0.0786 -3.3220
 8104SOL     OW35947   3.281   4.512   8.649 -0.3768 -0.3658 -0.6960
 8104SOL    HW135948   3.187   4.523   8.637 -0.4580  0.9048  1.0820
 8104SOL    HW235949   3.306   4.574   8.718 -0.3757  1.0490 -1.9977
 8105SOL     OW35950   1.220   4.308   4.871  0.3693  0.1367 -0.5700
 8105SOL    HW135951   1.179   4.222   4.881  2.1561 -0.5559  0.8358
 8105SOL    HW235952   1.307   4.279   4.843  0.0755 -1.1709 -0.1664
 8106SOL     OW35953   4.060   2.557   3.252  0.3848 -0.0576 -0.1010
 8106SOL    HW135954   3.988   2.585   3.195 -0.6115 -2.2791  0.0757
 8106SOL    HW235955   4.062   2.623   3.321 -0.8522 -1.5704  1.3552
 8107SOL     OW35956   0.016   4.674   0.425  0.6717  0.3964  0.4028
 8107SOL    HW135957   0.053   4.633   0.503  3.6391 -0.3488 -1.3983
 8107SOL    HW235958   0.079   0.012   0.416 -1.3122  2.0997  0.0152
 8108SOL     OW35959   1.600   1.006   2.216 -0.0300  0.1727 -0.1743
 8108SOL    HW135960   1.568   0.920   2.190  0.8171 -0.2473  0.1451
 8108SOL    HW235961   1.686   0.978   2.247 -0.5726  0.0852  1.2583
 8109SOL     OW35962   4.095   3.989   8.540  0.0660  0.1027  0.1859
 8109SOL    HW135963   4.067   4.070   8.498 -0.3071 -0.1973 -0.1513
 8109SOL    HW235964   4.177   4.029   8.566 -1.0867  0.7061  2.8986
 8110SOL     OW35965   1.803   3.874   9.545  0.3202 -0.3119  0.1186
 8110SOL    HW135966   1.813   3.902   9.636  1.5521  1.5904 -0.6027
 8110SOL    HW235967   1.869   3.928   9.501  1.5589 -1.7205  0.2936
 8111SOL     OW35968   1.020   2.449   5.899  0.2215  0.4366  0.1168
 8111SOL    HW135969   1.045   2.391   5.827 -1.3895 -1.5884  1.1696
 8111SOL    HW235970   0.942   2.494   5.868 -0.7899 -1.0616  0.4729
 8112SOL     OW35971   3.063   3.060   5.451 -0.3643 -0.3125 -0.3423
 8112SOL    HW135972   3.134   3.094   5.505 -0.1319 -1.1262 -0.1291
 8112SOL    HW235973   3.002   3.133   5.447 -2.7160 -2.1219  2.5280
 8113SOL     OW35974   0.523   0.716   2.819  0.3526 -0.1190  0.0352
 8113SOL    HW135975   0.587   0.776   2.857 -0.9574  0.9061  0.6376
 8113SOL    HW235976   0.535   0.642   2.878 -2.7782  0.4954  1.4147
 8114SOL     OW35977   2.082   1.555   2.585  0.2293  0.2987 -0.5756
 8114SOL    HW135978   2.130   1.631   2.552 -0.3400  0.9967  0.1847
 8114SOL    HW235979   2.024   1.535   2.511  1.4535  1.0215 -1.7402
 8115SOL     OW35980   0.471   4.566   3.811 -0.6154  0.0983 -0.5821
 8115SOL    HW135981   0.506   4.478   3.797 -0.3743  0.2173 -0.7097
 8115SOL    HW235982   0.554   4.611   3.829 -1.3864  1.0795  0.5585
 8116SOL     OW35983   2.447   3.182   8.425  0.2546 -0.0349 -0.3535
 8116SOL    HW135984   2.497   3.245   8.373  1.1697 -0.8055 -0.3973
 8116SOL    HW235985   2.418   3.239   8.497 -2.7337 -1.5315 -0.3890
 8117SOL     OW35986   0.673   2.286   9.434  0.1655 -0.3136 -0.1990
 8117SOL    HW135987   0.736   2.215   9.448  1.3594  0.7793 -0.0182
 8117SOL    HW235988   0.718   2.347   9.493 -0.8427  1.8261 -1.6589
 8118SOL     OW35989   2.777   4.081   7.345 -0.4572 -0.2697 -0.5917
 8118SOL    HW135990   2.802   4.167   7.379 -2.1626  0.5279 -1.3087
 8118SOL    HW235991   2.688   4.094   7.310 -0.5828 -0.0333 -0.1850
 8119SOL     OW35992   1.756   1.578   9.180  0.2046 -0.0457  0.0134
 8119SOL    HW135993   1.824   1.537   9.233  0.9497  2.5118  1.0292
 8119SOL    HW235994   1.792   1.560   9.094  2.0022  0.9508  0.5664
 8120SOL     OW35995   3.150   3.178   7.180  0.7036  0.0248  0.4872
 8120SOL    HW135996   3.078   3.215   7.129  1.6351  2.2110  0.7733
 8120SOL    HW235997   3.171   3.259   7.226 -0.0907  0.0341  0.8368
 8121SOL     OW35998   3.104   3.667   2.837  0.1464 -0.2575  0.0133
 8121SOL    HW135999   3.130   3.575   2.844  0.4017 -0.2489 -0.7502
 8121SOL    HW236000   3.078   3.684   2.746  0.5607  2.1601  0.3611
 8122SOL     OW36001   1.901   2.558   6.067 -0.2936  0.2074 -0.4498
 8122SOL    HW136002   1.929   2.512   6.146  1.1736  0.2306 -0.9632
 8122SOL    HW236003   1.981   2.602   6.039 -0.7818  1.4839  0.1764
 8123SOL     OW36004   3.140   0.565   4.229  0.1264  0.2429  0.2355
 8123SOL    HW136005   3.126   0.634   4.294 -0.1487  0.6366 -0.2477
 8123SOL    HW236006   3.050   0.542   4.209  0.2307  0.5046 -0.5244
 8124SOL     OW36007   4.585   4.587  15.063 -1.0918  0.1994  0.6061
 8124SOL    HW136008   4.517   4.618  15.124 -0.8584 -0.4511  1.2009
 8124SOL    HW236009   4.662   4.608  15.116  0.2192 -2.2629 -0.2899
 8125SOL     OW36010   4.526   4.507  15.628  0.0956  0.1343  0.8610
 8125SOL    HW136011   4.435   4.499  15.655  0.4694  0.7689  2.3286
 8125SOL    HW236012   4.564   4.425  15.661  1.5339  0.6444  0.4650
 8126SOL     OW36013   0.845   4.432   5.139 -0.8492 -0.1336 -0.6360
 8126SOL    HW136014   0.758   4.467   5.159 -0.9316 -0.0299 -1.1775
 8126SOL    HW236015   0.886   4.505   5.093  0.1218 -0.2989 -0.0214
 8127SOL     OW36016   0.892   0.365   4.801  0.7826  0.5947  0.1192
 8127SOL    HW136017   0.961   0.345   4.864  0.2106  0.6436  0.7698
 8127SOL    HW236018   0.808   0.342   4.842  1.3967 -1.2822  0.3114
 8128SOL     OW36019   3.944   3.865   4.011 -0.1800 -0.1214  0.3943
 8128SOL    HW136020   3.980   3.922   3.943  0.6789 -2.6736 -1.3001
 8128SOL    HW236021   3.858   3.851   3.971  1.3641 -2.4606 -2.1145
 8129SOL     OW36022   2.240   0.971   9.365 -0.7521 -0.4358  0.1319
 8129SOL    HW136023   2.243   1.013   9.279 -1.3422 -0.2491  0.2028
 8129SOL    HW236024   2.287   1.041   9.411  0.5595 -1.2459  0.0204
 8130SOL     OW36025   3.139   2.454  14.250 -0.2238  0.5997 -0.0246
 8130SOL    HW136026   3.208   2.515  14.221 -0.7761  0.5528 -1.4583
 8130SOL    HW236027   3.141   2.380  14.189  2.3738  0.6438 -0.0007
 8131SOL     OW36028   0.407   0.793   8.360  0.8477 -0.1820  0.8604
 8131SOL    HW136029   0.352   0.870   8.342 -0.9956 -1.7805 -0.4426
 8131SOL    HW236030   0.487   0.837   8.386  0.2337  1.5533 -0.1456
 8132SOL     OW36031   3.222   3.219   2.124  0.0121 -0.4294 -0.1251
 8132SOL    HW136032   3.272   3.277   2.066 -2.1457  1.9394  0.3918
 8132SOL    HW236033   3.288   3.152   2.143 -2.5013 -2.9058 -0.2832
 8133SOL     OW36034   2.687   2.181  12.718  0.0300  0.1040  0.1536
 8133SOL    HW136035   2.613   2.128  12.687 -0.9305  1.8135 -0.4644
 8133SOL    HW236036   2.743   2.114  12.757 -1.2554 -0.5709  0.8375
 8134SOL     OW36037   2.586   0.057   3.053 -0.3151  0.0709 -0.3075
 8134SOL    HW136038   2.575   0.071   2.958 -0.1005 -2.5413 -0.7232
 8134SOL    HW236039   2.660   4.730   3.049  0.1543  0.6522 -0.4759
 8135SOL     OW36040   4.465   4.361  15.265  0.2750  0.0241 -0.3252
 8135SOL    HW136041   4.413   4.311  15.203  2.1686 -1.1376 -0.9536
 8135SOL    HW236042   4.441   4.454  15.257 -1.2734 -0.4871 -1.4521
 8136SOL     OW36043   3.967   4.331  11.864 -0.0247 -0.0423  0.6208
 8136SOL    HW136044   4.047   4.363  11.822 -0.6825 -0.8324 -1.2335
 8136SOL    HW236045   3.920   4.299  11.787  1.1740  0.2580 -0.2460
 8137SOL     OW36046   0.980   4.448   4.794  0.3538 -0.0524 -0.1050
 8137SOL    HW136047   1.060   4.400   4.814  0.5396 -0.0882 -0.9156
 8137SOL    HW236048   1.000   4.533   4.834 -1.3036  0.3198 -0.0488
 8138SOL     OW36049   3.884   0.435   5.698 -0.3809  0.2776 -0.0888
 8138SOL    HW136050   3.835   0.353   5.710 -1.7851  0.5827 -3.9532
 8138SOL    HW236051   3.905   0.431   5.605  0.1693 -0.1861  0.0526
 8139SOL     OW36052   1.452   2.566  11.838 -0.3568  0.2623  0.1878
 8139SOL    HW136053   1.367   2.603  11.812 -1.1563  0.6223  3.2545
 8139SOL    HW236054   1.487   2.643  11.882 -0.3848 -0.6635  1.8186
 8140SOL     OW36055   1.819   4.201  16.695 -0.1626 -0.4069  0.0922
 8140SOL    HW136056   1.830   4.172  16.604 -1.6729 -0.8971  0.0681
 8140SOL    HW236057   1.731   4.169  16.714 -0.7667  0.2732 -1.4778
 8141SOL     OW36058   2.215   2.468   4.189  0.1331 -0.1497  0.2853
 8141SOL    HW136059   2.283   2.535   4.196  0.5516 -0.5221 -0.2657
 8141SOL    HW236060   2.139   2.525   4.198  0.6644  0.3254  1.8069
 8142SOL     OW36061   3.479   1.701   2.650 -0.4714  0.1520 -0.3949
 8142SOL    HW136062   3.569   1.670   2.653 -0.9039 -1.1109 -0.6155
 8142SOL    HW236063   3.444   1.676   2.564 -0.0264  0.5373 -0.6917
 8143SOL     OW36064   2.328   1.227   6.490 -0.1665 -0.2101 -0.4560
 8143SOL    HW136065   2.374   1.177   6.558  2.0150  3.9648  1.1574
 8143SOL    HW236066   2.376   1.307   6.468 -0.6308 -0.1902 -1.4007
 8144SOL     OW36067   2.074   3.251   0.735  0.3065 -0.2918  0.7363
 8144SOL    HW136068   1.996   3.285   0.691  1.9714  0.1451 -1.8194
 8144SOL    HW236069   2.099   3.320   0.797  1.8595  2.1977 -2.6941
 8145SOL     OW36070   2.772   1.103   7.877  0.1386  0.2370 -0.5307
 8145SOL    HW136071   2.790   1.138   7.964  1.0533  0.6369 -0.8879
 8145SOL    HW236072   2.703   1.039   7.895  0.7725 -0.4042 -0.3721
 8146SOL     OW36073   4.712   1.464   7.874  0.1170  0.0956 -0.0110
 8146SOL    HW136074   4.653   1.519   7.926 -1.4467 -1.2978 -0.2918
 8146SOL    HW236075   4.730   1.398   7.941 -1.0095  0.1846  0.3953
 8147SOL     OW36076   3.565   0.325  12.937 -0.0049 -0.4062 -0.1028
 8147SOL    HW136077   3.599   0.309  13.025  0.7291 -0.6657 -0.4296
 8147SOL    HW236078   3.622   0.268  12.886 -0.2198  0.7768 -1.6697
 8148SOL     OW36079   1.826   2.558  14.777 -0.0642 -0.1162 -0.1791
 8148SOL    HW136080   1.862   2.513  14.854 -0.0644 -3.0276 -1.8957
 8148SOL    HW236081   1.741   2.581  14.816 -0.4520 -1.9614  0.0733
 8149SOL     OW36082   1.541   1.634  14.450 -0.0226 -0.0673 -0.1964
 8149SOL    HW136083   1.564   1.646  14.358  1.2874  1.4137  0.3279
 8149SOL    HW236084   1.472   1.568  14.444  0.5724 -0.6713 -0.3904
 8150SOL     OW36085   4.567   4.727   9.608  0.3357  0.6262 -0.1491
 8150SOL    HW136086   4.631   0.050   9.567 -0.6485  1.3334 -0.7021
 8150SOL    HW236087   4.493   0.027   9.558  1.1712  0.1020 -1.7360
 8151SOL     OW36088   4.620   3.528   9.632  0.4204  0.0665 -0.1292
 8151SOL    HW136089   4.561   3.566   9.567  0.0666  0.2059  0.2672
 8151SOL    HW236090   4.608   3.437   9.608 -0.6711  0.0359  0.5198
 8152SOL     OW36091   3.759   0.048  14.259  0.4141  0.7669 -0.0075
 8152SOL    HW136092   3.790   0.021  14.173 -1.6683  2.2919 -1.2267
 8152SOL    HW236093   3.665   0.060  14.245  0.2419 -0.7271 -0.1391
 8153SOL     OW36094   0.659   3.374   6.045 -0.6256 -0.0285 -0.7764
 8153SOL    HW136095   0.746   3.407   6.025 -0.2150 -1.6959 -1.7726
 8153SOL    HW236096   0.636   3.310   5.978  0.3190 -1.1649 -0.0236
 8154SOL     OW36097   4.682   1.883  11.425 -0.7894 -0.4367 -0.0445
 8154SOL    HW136098   4.605   1.904  11.478 -0.4455  1.1821 -0.1751
 8154SOL    HW236099   4.635   1.820  11.371 -2.9445  0.7881  0.4258
 8155SOL     OW36100   3.868   3.179  11.937  0.0214  0.2571  0.1654
 8155SOL    HW136101   3.878   3.119  12.011 -1.5463 -1.8459 -1.3121
 8155SOL    HW236102   3.790   3.140  11.897  2.0100 -2.2074 -1.3509
 8156SOL     OW36103   3.873   2.117   7.604 -0.3083 -0.0834 -0.1153
 8156SOL    HW136104   3.909   2.101   7.517 -0.9238 -0.9084 -0.2162
 8156SOL    HW236105   3.781   2.141   7.593 -0.3811 -1.9030 -3.6752
 8157SOL     OW36106   3.851   1.810   1.736  0.3004 -0.6894  0.3922
 8157SOL    HW136107   3.820   1.876   1.673 -0.6023 -0.5150  1.0232
 8157SOL    HW236108   3.887   1.749   1.671 -0.3228 -0.0970 -0.5174
 8158SOL     OW36109   3.856   1.836  17.731  0.0607  0.4897 -0.5559
 8158SOL    HW136110   3.833   1.744  17.717  0.9150  0.3521 -1.0303
 8158SOL    HW236111   3.821   1.842   0.086 -0.8028 -2.4397 -0.7027
 8159SOL     OW36112   3.684   3.738  15.610 -0.4105 -0.6460  0.1472
 8159SOL    HW136113   3.780   3.732  15.611 -0.3797  0.1183  2.6607
 8159SOL    HW236114   3.669   3.831  15.598 -2.7989 -0.8435  1.6281
 8160SOL     OW36115   2.224   4.317   3.905 -0.4907  0.4814  0.7318
 8160SOL    HW136116   2.146   4.351   3.861  0.4775 -0.8361 -2.0061
 8160SOL    HW236117   2.289   4.323   3.834 -1.0932 -1.5451  0.0197
 8161SOL     OW36118   0.753   0.954  11.625  0.3651  0.3025  0.0969
 8161SOL    HW136119   0.775   0.996  11.542 -0.3042 -0.7765 -0.6213
 8161SOL    HW236120   0.756   1.028  11.687  0.7564  0.5720 -0.2437
 8162SOL     OW36121   1.739   3.141  16.576  0.1474  0.5852 -0.1940
 8162SOL    HW136122   1.645   3.127  16.582 -0.1074  1.7710 -1.2641
 8162SOL    HW236123   1.748   3.196  16.654 -2.1097 -0.6349  0.9149
 8163SOL     OW36124   0.158   3.914   0.336 -0.1964 -0.2682  0.0879
 8163SOL    HW136125   0.066   3.892   0.320  0.2278 -2.3972  0.5773
 8163SOL    HW236126   0.172   3.858   0.412  2.2973 -0.3492 -0.4476
 8164SOL     OW36127   2.603   2.654  16.060 -0.4927 -0.9799 -0.2024
 8164SOL    HW136128   2.573   2.744  16.064  0.5048 -0.7294  1.6113
 8164SOL    HW236129   2.673   2.654  15.995  0.0159 -1.1062  0.3501
 8165SOL     OW36130   0.727   4.151  12.045 -0.3425  0.4073 -0.1230
 8165SOL    HW136131   0.670   4.177  11.973  0.4182 -0.6894 -1.1052
 8165SOL    HW236132   0.813   4.175  12.010 -0.1905 -1.8804 -1.2856
 8166SOL     OW36133   0.601   3.772   3.967  0.4793  0.0371 -0.4046
 8166SOL    HW136134   0.645   3.819   3.897  3.2883 -2.8613 -0.5684
 8166SOL    HW236135   0.543   3.837   4.007  0.3806 -0.4879  0.3208
 8167SOL     OW36136   2.861   0.064  11.113  0.2910  0.1127  0.2713
 8167SOL    HW136137   2.949   0.067  11.074 -0.6680 -0.4343 -1.8796
 8167SOL    HW236138   2.878   0.125  11.185  0.9886  0.5250 -0.2315
 8168SOL     OW36139   4.470   4.281   9.715  0.2460 -0.0749 -0.1912
 8168SOL    HW136140   4.452   4.370   9.746  0.5830 -0.4783  1.1521
 8168SOL    HW236141   4.406   4.226   9.760 -0.0888 -0.7900 -1.5176
 8169SOL     OW36142   1.791   2.046   3.892  0.0060  0.4179  0.4544
 8169SOL    HW136143   1.734   1.981   3.852 -0.0562  0.2667  0.7890
 8169SOL    HW236144   1.866   2.024   3.837 -1.3693  2.0839 -2.0738
 8170SOL     OW36145   4.320   1.198   8.538  0.9357 -0.4794 -0.3414
 8170SOL    HW136146   4.256   1.251   8.490  0.5363 -1.3154 -0.7254
 8170SOL    HW236147   4.391   1.259   8.561  1.2042 -0.8609 -0.1630
 8171SOL     OW36148   1.943   1.675   9.552  0.0893  0.1243  0.3835
 8171SOL    HW136149   1.850   1.666   9.532 -0.4172  1.6215  2.0393
 8171SOL    HW236150   1.974   1.609   9.491 -0.9319  0.7406 -0.8031
 8172SOL     OW36151   0.560   0.070   7.554  0.5034  0.1321 -0.5145
 8172SOL    HW136152   0.591   0.048   7.466  0.1025 -0.8996 -0.3937
 8172SOL    HW236153   0.569   0.165   7.543  1.0323  0.0939 -0.4080
 8173SOL     OW36154   1.649   3.303   2.450  0.0427  0.0966 -0.0173
 8173SOL    HW136155   1.645   3.234   2.384  0.6543 -0.2690  0.3210
 8173SOL    HW236156   1.554   3.318   2.451 -0.1102 -0.7590 -1.7955
 8174SOL     OW36157   3.182   4.079   4.176 -0.6468  0.6046  0.3644
 8174SOL    HW136158   3.172   4.071   4.271 -2.4591 -2.4548 -0.0976
 8174SOL    HW236159   3.252   4.016   4.160 -3.2647 -1.4153 -3.1846
 8175SOL     OW36160   2.543   3.930  10.530 -0.0433 -0.1356 -0.0411
 8175SOL    HW136161   2.535   3.999  10.596  0.1913  0.5070 -0.6948
 8175SOL    HW236162   2.467   3.876  10.554  0.3952 -1.0798 -0.7761
 8176SOL     OW36163   1.464   3.534   4.650  0.3397  0.0952 -0.1956
 8176SOL    HW136164   1.374   3.538   4.619  0.9939  2.3395 -1.7800
 8176SOL    HW236165   1.504   3.506   4.567 -0.2427 -0.7897 -0.1811
 8177SOL     OW36166   2.841   3.644  11.338  0.7140 -0.0433  0.0274
 8177SOL    HW136167   2.869   3.735  11.333 -1.8743  0.7279 -0.6319
 8177SOL    HW236168   2.854   3.617  11.247  1.0942 -2.1329  0.7131
 8178SOL     OW36169   1.465   1.961   9.619  0.2370 -0.3726 -0.5266
 8178SOL    HW136170   1.514   1.894   9.667 -0.2868  0.2439  0.8551
 8178SOL    HW236171   1.398   1.956   9.687  1.8121  0.0377  1.0508
 8179SOL     OW36172   3.413   3.580   4.353 -0.1689 -0.0908  0.3219
 8179SOL    HW136173   3.464   3.643   4.404  2.0437 -1.0944 -0.6869
 8179SOL    HW236174   3.463   3.564   4.273  1.6285 -0.6675  1.5650
 8180SOL     OW36175   1.306   2.869   2.184  0.1485 -0.0196  0.4506
 8180SOL    HW136176   1.383   2.923   2.199  0.2968 -0.2247  0.4217
 8180SOL    HW236177   1.260   2.926   2.123 -0.6037 -0.2022  0.8460
 8181SOL     OW36178   0.091   3.952   0.641 -0.2058  0.3623  0.0422
 8181SOL    HW136179   0.126   3.863   0.635 -1.7090 -0.0645 -2.0606
 8181SOL    HW236180   0.038   3.936   0.720  2.8917  1.0337  2.2737
 8182SOL     OW36181   1.212   1.952   7.122 -0.1876  0.3495  0.6283
 8182SOL    HW136182   1.300   1.921   7.099  0.4837  1.2260  2.0073
 8182SOL    HW236183   1.172   1.866   7.130  1.4913 -0.4883 -0.1153
 8183SOL     OW36184   3.861   0.247   5.266 -0.0248 -0.5910  0.1025
 8183SOL    HW136185   3.861   0.339   5.239  0.0184 -0.5909  0.1031
 8183SOL    HW236186   3.768   0.226   5.258  0.3144 -0.6391 -3.4063
 8184SOL     OW36187   4.333   4.678   6.377  0.3632 -0.3587  0.9155
 8184SOL    HW136188   4.331   4.714   6.287  0.1988  1.6541  1.7134
 8184SOL    HW236189   4.246   4.682   6.418 -0.2800  0.6157 -0.5167
 8185SOL     OW36190   3.401   1.739   3.702  0.0399 -0.2911 -0.8656
 8185SOL    HW136191   3.362   1.714   3.785  0.1755  1.2646 -0.3349
 8185SOL    HW236192   3.458   1.663   3.689  1.5382  1.1587 -2.8714
 8186SOL     OW36193   4.324   3.504   6.203 -0.4904 -0.1665 -0.1058
 8186SOL    HW136194   4.331   3.518   6.297 -0.0704 -1.2029  0.0124
 8186SOL    HW236195   4.230   3.485   6.204 -0.7469  0.9933 -4.6682
 8187SOL     OW36196   4.509   2.581   5.706  0.7558  0.9207  0.3898
 8187SOL    HW136197   4.491   2.641   5.634 -1.1855  1.4990  1.3493
 8187SOL    HW236198   4.421   2.572   5.742 -0.2807  0.5260 -2.2894
 8188SOL     OW36199   2.957   3.690  10.459  0.3905 -0.6228  0.6988
 8188SOL    HW136200   2.867   3.687  10.426  0.9663 -0.3005 -0.9131
 8188SOL    HW236201   2.964   3.640  10.540  2.9243  1.2030  1.6068
 8189SOL     OW36202   4.643   1.591   5.495  0.2231  0.0854  0.1516
 8189SOL    HW136203   4.597   1.510   5.517  0.3394 -0.0127  0.0341
 8189SOL    HW236204   4.710   1.560   5.434 -0.1304 -3.9934  1.8786
 8190SOL     OW36205   3.261   0.864   3.217  0.6090  0.4373 -0.0412
 8190SOL    HW136206   3.298   0.796   3.162  1.0198  0.8526 -0.2807
 8190SOL    HW236207   3.207   0.816   3.280  1.7364 -0.0393  0.5552
 8191SOL     OW36208   2.464   3.677  12.333  0.3593  0.3169 -0.1171
 8191SOL    HW136209   2.463   3.743  12.263 -0.9379 -0.6090 -0.9405
 8191SOL    HW236210   2.440   3.594  12.293 -0.7767  2.1831 -3.2871
 8192SOL     OW36211   0.090   3.272   8.171 -0.0296  0.2584 -0.5569
 8192SOL    HW136212   0.074   3.253   8.079  0.5372  1.1686 -0.8396
 8192SOL    HW236213   4.731   3.262   8.193  0.3951  1.7574  1.9316
 8193SOL     OW36214   4.255   4.342   4.408 -0.0567 -0.4929 -0.5050
 8193SOL    HW136215   4.287   4.420   4.363  1.4372 -0.4176  0.7042
 8193SOL    HW236216   4.279   4.271   4.348  1.1698 -0.7905  0.3367
 8194SOL     OW36217   0.331   3.827   6.673  0.2642 -0.0052 -0.5355
 8194SOL    HW136218   0.260   3.776   6.713  1.1429  0.2584  1.3956
 8194SOL    HW236219   0.330   3.905   6.730  1.1307  0.7228 -1.5321
 8195SOL     OW36220   0.561   1.970   7.243  0.3402  0.1937 -0.1252
 8195SOL    HW136221   0.579   2.027   7.168  2.4727 -0.7514 -0.3177
 8195SOL    HW236222   0.504   1.909   7.197  1.1544 -2.0439  1.8463
 8196SOL     OW36223   2.278   3.578   8.446 -0.9147  0.2738 -0.2751
 8196SOL    HW136224   2.253   3.496   8.403  0.5462 -0.3231  0.0217
 8196SOL    HW236225   2.370   3.558   8.458 -1.4217 -1.9647 -0.1433
 8197SOL     OW36226   1.722   4.663   2.673 -0.0136 -0.9981  0.1368
 8197SOL    HW136227   1.685   0.004   2.625  2.1726 -0.7702 -1.1624
 8197SOL    HW236228   1.795   4.699   2.722  1.3522 -1.8416 -1.2793
 8198SOL     OW36229   1.061   4.512  14.575  0.2323  0.4896  0.0067
 8198SOL    HW136230   1.066   4.485  14.666 -1.2521 -1.0843 -0.3776
 8198SOL    HW236231   0.966   4.519  14.566 -0.0550  1.0388  3.3775
 8199SOL     OW36232   4.209   0.837   6.738  0.1449 -0.0639 -0.1698
 8199SOL    HW136233   4.207   0.756   6.687  3.7450 -0.7390  0.7264
 8199SOL    HW236234   4.161   0.827   6.821  0.1883 -0.7268 -0.2244
 8200SOL     OW36235   4.414   1.758  11.848  0.0435 -0.0704 -0.4114
 8200SOL    HW136236   4.445   1.844  11.820 -1.8816  0.0510 -2.1690
 8200SOL    HW236237   4.442   1.704  11.774  0.4589  0.4610 -0.6366
 8201SOL     OW36238   2.188   1.348   7.852  0.1080 -0.1816  0.3937
 8201SOL    HW136239   2.168   1.261   7.816 -1.2506 -0.5309  1.9764
 8201SOL    HW236240   2.110   1.378   7.900 -0.2730 -1.2222  0.4276
 8202SOL     OW36241   1.644   1.323   5.711  0.0190  0.4694 -0.2928
 8202SOL    HW136242   1.632   1.338   5.617  0.4192 -1.1943 -0.6139
 8202SOL    HW236243   1.561   1.360   5.742 -0.0688  0.7506 -0.8605
 8203SOL     OW36244   4.513   2.561   1.627  0.3543 -0.4481  0.2611
 8203SOL    HW136245   4.422   2.591   1.635  0.5430  0.3871 -0.7296
 8203SOL    HW236246   4.501   2.466   1.620  0.8434 -0.3249 -2.4079
 8204SOL     OW36247   3.321   0.956   6.991  0.2709  0.1942  0.1472
 8204SOL    HW136248   3.335   1.021   7.059 -0.6094 -0.5053  0.9943
 8204SOL    HW236249   3.233   0.981   6.962 -0.9494  0.6856  4.2879
 8205SOL     OW36250   1.152   0.362   3.416 -0.0965 -0.3756  0.0684
 8205SOL    HW136251   1.115   0.411   3.343 -1.4328 -2.1428 -0.4405
 8205SOL    HW236252   1.094   0.289   3.438  0.3829 -0.7801  0.0032
 8206SOL     OW36253   1.457   0.444   6.264 -0.2142  0.3188 -0.5036
 8206SOL    HW136254   1.366   0.442   6.236 -0.1322  0.3255 -0.7684
 8206SOL    HW236255   1.453   0.439   6.360 -1.0662  0.6234 -0.5288
 8207SOL     OW36256   0.015   4.611   5.029  0.0629 -0.1449 -0.2439
 8207SOL    HW136257   0.092   4.621   5.085 -0.4241  4.6973 -0.4774
 8207SOL    HW236258   4.704   4.695   5.037 -0.4896 -0.2141 -2.7387
 8208SOL     OW36259   1.471   2.949   5.854 -0.4510 -0.1364  0.7134
 8208SOL    HW136260   1.402   2.969   5.790 -1.9062 -2.9804  1.3960
 8208SOL    HW236261   1.512   3.035   5.860 -0.5627 -0.3146  3.7612
 8209SOL     OW36262   1.587   0.175   2.578 -0.0929 -0.6478 -0.1624
 8209SOL    HW136263   1.640   0.216   2.509 -0.7508  1.5957  0.6682
 8209SOL    HW236264   1.607   0.239   2.648 -1.2951 -1.2052  0.6819
 8210SOL     OW36265   4.098   4.308   9.042 -0.4013 -0.0283  0.2156
 8210SOL    HW136266   4.176   4.282   8.993 -0.4564  0.6329 -0.2153
 8210SOL    HW236267   4.103   4.246   9.116  0.9906 -1.1933 -0.8533
 8211SOL     OW36268   3.748   2.554   3.794 -0.2723 -0.0834 -0.6693
 8211SOL    HW136269   3.725   2.501   3.718 -1.7964 -0.2266 -0.1121
 8211SOL    HW236270   3.696   2.510   3.861  1.1071  0.4592  0.7669
 8212SOL     OW36271   4.123   0.822   8.520 -0.3483  0.5194 -0.1308
 8212SOL    HW136272   4.053   0.756   8.520  0.4487 -0.3328 -1.1381
 8212SOL    HW236273   4.071   0.895   8.553  0.1419  0.6295  0.3870
 8213SOL     OW36274   1.955   4.504   0.900 -0.4668  0.3362  0.2369
 8213SOL    HW136275   2.016   4.460   0.959 -0.5708  1.4919  1.1849
 8213SOL    HW236276   2.013   4.569   0.860  0.4938  0.2195  1.4522
 8214SOL     OW36277   1.374   2.440  17.558  0.0772 -0.3055 -0.9274
 8214SOL    HW136278   1.433   2.484  17.619 -0.7419 -0.3346 -0.1231
 8214SOL    HW236279   1.374   2.349  17.587  0.7471  0.1023  0.3514
 8215SOL     OW36280   2.229   2.854   3.970  0.0771 -0.2123  0.1227
 8215SOL    HW136281   2.181   2.811   3.898  2.4009 -0.2446 -1.4093
 8215SOL    HW236282   2.155   2.880   4.025 -0.4268 -0.6084 -0.3655
 8216SOL     OW36283   2.882   1.224  12.742 -0.3454  0.3710 -0.4525
 8216SOL    HW136284   2.903   1.149  12.687  0.2835 -1.3777  2.1950
 8216SOL    HW236285   2.860   1.176  12.821  0.6708  0.6249 -0.0190
 8217SOL     OW36286   4.561   1.387  13.202  0.2538  0.0743  0.2700
 8217SOL    HW136287   4.505   1.334  13.259 -0.1906  1.1667  0.8375
 8217SOL    HW236288   4.510   1.394  13.121  0.3433 -0.4281  0.1670
 8218SOL     OW36289   3.766   4.026   0.177  0.5200  0.0629 -0.7713
 8218SOL    HW136290   3.749   4.108   0.223  0.0819  0.2139 -1.2097
 8218SOL    HW236291   3.700   4.052   0.113  0.2838  0.6541 -0.2801
 8219SOL     OW36292   1.076   4.058   2.540 -0.1856  0.3281 -0.1773
 8219SOL    HW136293   1.106   4.136   2.493 -0.6665  0.2258 -0.6566
 8219SOL    HW236294   0.991   4.054   2.495 -0.5257 -0.7646  0.5532
 8220SOL     OW36295   0.811   4.294   7.396 -0.0251  0.2217 -0.1589
 8220SOL    HW136296   0.768   4.360   7.341 -0.0500  0.1479 -0.2281
 8220SOL    HW236297   0.840   4.355   7.464  0.6254 -1.0618  0.7040
 8221SOL     OW36298   0.799   2.364   6.226  0.0713  0.2864 -0.2579
 8221SOL    HW136299   0.724   2.424   6.220 -1.3066 -1.0838  3.4975
 8221SOL    HW236300   0.862   2.436   6.234  0.4788  0.2094 -2.7652
 8222SOL     OW36301   3.026   0.806  12.071  0.0127 -0.5097  0.0878
 8222SOL    HW136302   2.971   0.728  12.070  1.0277 -1.2061 -0.8630
 8222SOL    HW236303   3.048   0.815  12.164  0.1554  0.8404 -0.0774
 8223SOL     OW36304   2.580   0.148  17.025  0.1158  0.0904  0.1832
 8223SOL    HW136305   2.548   0.225  17.072 -1.4700 -1.0763  1.0243
 8223SOL    HW236306   2.607   0.198  16.948 -1.7476  1.5906  0.5122
 8224SOL     OW36307   1.293   3.793   3.750  0.1330 -0.2761 -0.6914
 8224SOL    HW136308   1.205   3.828   3.763 -0.6119 -2.0052 -1.1123
 8224SOL    HW236309   1.345   3.864   3.788 -0.5146 -1.4647  2.4524
 8225SOL     OW36310   2.770   2.532   8.520 -0.4821 -0.5761 -0.0759
 8225SOL    HW136311   2.717   2.538   8.599  1.1753 -0.0552  0.9929
 8225SOL    HW236312   2.847   2.489   8.558  0.2848 -0.1535 -1.1630
 8226SOL     OW36313   4.426   3.037   8.293 -1.0578 -0.3217 -0.3838
 8226SOL    HW136314   4.465   3.109   8.244 -0.0426  0.0471  0.9786
 8226SOL    HW236315   4.497   3.019   8.354 -0.8499  2.4813  0.1744
 8227SOL     OW36316   3.405   2.658   8.600 -0.2887 -0.0593 -0.0041
 8227SOL    HW136317   3.333   2.668   8.662  0.1747 -0.3391  0.5754
 8227SOL    HW236318   3.434   2.570   8.623  1.1325  0.0721 -1.2939
 8228SOL     OW36319   2.006   1.176   1.057 -0.0268 -0.4880 -0.2495
 8228SOL    HW136320   2.064   1.182   1.133  0.7022  0.5421 -0.9003
 8228SOL    HW236321   2.054   1.119   0.997 -0.0642 -1.8727  1.0313
 8229SOL     OW36322   1.551   2.067   4.961  0.0337  0.6313  0.2207
 8229SOL    HW136323   1.585   1.978   4.956 -0.7638  0.2951  0.6618
 8229SOL    HW236324   1.634   2.115   4.954 -0.3720  1.0472 -1.6202
 8230SOL     OW36325   4.442   2.215   6.248 -0.2563  0.3393  0.5412
 8230SOL    HW136326   4.471   2.220   6.339  2.2974 -1.2068 -0.1834
 8230SOL    HW236327   4.421   2.123   6.231 -2.5695  0.6838  1.5323
 8231SOL     OW36328   4.127   0.412   5.914  0.3520  0.0483 -0.0452
 8231SOL    HW136329   4.075   0.464   5.853  0.2240  0.4616  0.4178
 8231SOL    HW236330   4.088   0.440   5.997 -0.7907  0.8005 -0.8325
 8232SOL     OW36331   1.053   0.349  13.618  0.5448 -0.0250 -0.5070
 8232SOL    HW136332   1.028   0.408  13.547  0.5883  0.9870  0.3214
 8232SOL    HW236333   1.145   0.337  13.595  0.4746 -3.3751  1.0244
 8233SOL     OW36334   3.167   0.728   5.987 -0.4487  0.3223  0.1070
 8233SOL    HW136335   3.220   0.748   5.909  0.4550  0.3408  0.7205
 8233SOL    HW236336   3.104   0.800   5.980 -1.4667 -0.6679 -0.7904
 8234SOL     OW36337   0.290   4.222   2.568  0.6269  0.2606 -0.7369
 8234SOL    HW136338   0.225   4.252   2.504  0.7113  1.7281 -0.1359
 8234SOL    HW236339   0.261   4.131   2.574  1.4996  0.1166  1.4762
 8235SOL     OW36340   3.501   2.784   6.478  0.5976 -0.2792 -1.2523
 8235SOL    HW136341   3.526   2.792   6.570  1.6233  2.4581 -1.7542
 8235SOL    HW236342   3.588   2.813   6.448 -0.1958 -1.0384 -4.3453
 8236SOL     OW36343   3.849   4.180   5.017 -0.1309  0.0004 -0.8759
 8236SOL    HW136344   3.870   4.233   4.940  0.6012  1.2329  0.1773
 8236SOL    HW236345   3.932   4.133   5.030 -1.8702 -2.0739  2.8615
 8237SOL     OW36346   3.807   3.690   4.790 -1.3018  0.3592 -0.4978
 8237SOL    HW136347   3.865   3.753   4.748  1.2341 -0.7400  1.3403
 8237SOL    HW236348   3.857   3.671   4.870 -1.5419  2.0312  0.0602
 8238SOL     OW36349   2.443   1.890   6.341 -0.7812 -0.0470 -0.1283
 8238SOL    HW136350   2.491   1.811   6.315  0.3400  1.3317 -2.2193
 8238SOL    HW236351   2.488   1.939   6.272  0.7733 -0.6617  0.4433
 8239SOL     OW36352   1.274   2.850  10.538  0.1298 -0.6610  0.9268
 8239SOL    HW136353   1.239   2.919  10.481  1.0578  0.2140  1.4111
 8239SOL    HW236354   1.363   2.877  10.561 -0.6721  2.1344  0.7715
 8240SOL     OW36355   4.140   3.997   9.542  0.4886 -0.1040 -0.3500
 8240SOL    HW136356   4.086   4.055   9.595  2.6676  1.2478  0.4140
 8240SOL    HW236357   4.224   3.988   9.588 -0.7553 -2.9141  1.3369
 8241SOL     OW36358   1.667   0.951  13.938 -0.1620  0.1289  0.5591
 8241SOL    HW136359   1.611   0.890  13.986  0.6460 -0.2063  1.0687
 8241SOL    HW236360   1.734   0.886  13.915 -1.9784 -1.3532 -0.5107
 8242SOL     OW36361   3.831   3.537   6.305 -0.4520 -0.2262 -0.1702
 8242SOL    HW136362   3.852   3.572   6.392 -3.3638 -3.4876  1.8568
 8242SOL    HW236363   3.745   3.574   6.285 -1.2148 -1.6301  0.5385
 8243SOL     OW36364   1.414   3.110  15.745  0.0784  0.0366 -0.2126
 8243SOL    HW136365   1.334   3.161  15.741  0.6537  0.7631 -2.2976
 8243SOL    HW236366   1.478   3.167  15.702  1.2916 -1.2210 -0.1012
 8244SOL     OW36367   2.816   2.289  17.064  0.0261  0.1159 -0.3682
 8244SOL    HW136368   2.727   2.253  17.068  0.4873 -0.8547  1.5267
 8244SOL    HW236369   2.826   2.334  17.148 -0.3969 -0.1126 -0.1925
 8245SOL     OW36370   2.520   1.572   0.919 -0.4874 -0.4328 -0.1514
 8245SOL    HW136371   2.431   1.542   0.938 -1.2869  0.5952 -2.2378
 8245SOL    HW236372   2.538   1.631   0.992  1.9485 -1.5301  0.1285
 8246SOL     OW36373   1.413   4.554   0.215  0.3938  0.0151  0.8559
 8246SOL    HW136374   1.430   4.524   0.126  0.1881  0.6752  0.5904
 8246SOL    HW236375   1.338   4.496   0.227 -0.5999  1.4737  1.7041
 8247SOL     OW36376   4.162   3.500   3.163 -0.1218 -0.6942  0.6385
 8247SOL    HW136377   4.160   3.586   3.204 -0.0369 -0.2961 -0.1944
 8247SOL    HW236378   4.241   3.456   3.196  1.1014  1.4123  0.5538
 8248SOL     OW36379   2.668   0.700   1.735 -0.4650  0.2363 -0.4006
 8248SOL    HW136380   2.659   0.706   1.830  0.7092 -2.4714 -0.1260
 8248SOL    HW236381   2.613   0.772   1.703  0.5484  1.1670 -0.0764
 8249SOL     OW36382   4.151   3.231   3.973  0.2571 -0.3805 -0.1944
 8249SOL    HW136383   4.104   3.170   4.029  1.4649 -2.0161 -0.9357
 8249SOL    HW236384   4.239   3.193   3.973  1.0134  1.3830  0.2879
 8250SOL     OW36385   2.590   1.496  13.486  0.6526 -0.3550 -0.2463
 8250SOL    HW136386   2.518   1.553  13.514  1.6282 -0.3783  2.2666
 8250SOL    HW236387   2.602   1.527  13.396  2.1331  0.1851  0.1495
 8251SOL     OW36388   0.579   2.539   1.211  0.1924 -0.3024  0.1131
 8251SOL    HW136389   0.612   2.605   1.150 -0.8628 -0.5028 -0.6769
 8251SOL    HW236390   0.599   2.566   1.300  0.6444 -1.4282  0.3516
 8252SOL     OW36391   3.436   2.398   3.748 -0.4741 -0.2905  0.1098
 8252SOL    HW136392   3.493   2.336   3.794  0.3346  0.2999 -0.0902
 8252SOL    HW236393   3.390   2.437   3.821 -0.0705 -0.0942  0.2582
 8253SOL     OW36394   3.859   3.313   2.380  0.7536  0.0878  0.1709
 8253SOL    HW136395   3.938   3.366   2.386  0.6643  0.1250  1.0550
 8253SOL    HW236396   3.816   3.321   2.465  3.0614 -1.0024  1.4126
 8254SOL     OW36397   3.135   1.732   7.174 -0.3097  0.2735  0.5046
 8254SOL    HW136398   3.079   1.772   7.241  0.6559 -0.5103  1.7769
 8254SOL    HW236399   3.141   1.641   7.201  0.5075 -0.3390 -1.7540
 8255SOL     OW36400   4.566   1.883   3.121  1.0118 -0.2837 -0.2069
 8255SOL    HW136401   4.648   1.932   3.121  0.4528  0.6540 -2.7149
 8255SOL    HW236402   4.599   1.820   3.185 -0.4693  0.2631  1.1062
 8256SOL     OW36403   2.771   0.383   5.508 -0.2305  0.1236 -0.1016
 8256SOL    HW136404   2.716   0.311   5.537  0.6463 -0.0270  1.1760
 8256SOL    HW236405   2.858   0.350   5.532 -1.1558 -2.9624 -0.9794
 8257SOL     OW36406   4.309   3.852  12.192  0.1007 -0.5296 -0.2933
 8257SOL    HW136407   4.351   3.854  12.278  0.2776 -2.9261 -0.3170
 8257SOL    HW236408   4.221   3.835  12.226  0.0912 -1.8190 -0.9536
 8258SOL     OW36409   1.255   3.371   4.821  0.1341  0.1826 -0.4516
 8258SOL    HW136410   1.208   3.360   4.738  1.2177 -1.5935 -0.8353
 8258SOL    HW236411   1.343   3.343   4.794  0.2006 -0.7908  0.7633
 8259SOL     OW36412   1.298   3.834   3.189  0.0745  0.0705 -0.0309
 8259SOL    HW136413   1.246   3.792   3.257  1.3357  0.8369  1.4186
 8259SOL    HW236414   1.246   3.813   3.112 -0.7555  1.8175  0.0519
 8260SOL     OW36415   1.221   1.020   3.242  0.0174  0.2204 -0.2379
 8260SOL    HW136416   1.197   1.073   3.318 -0.2285 -0.7570  0.3699
 8260SOL    HW236417   1.163   1.032   3.167  1.5670 -2.5928 -1.8456
 8261SOL     OW36418   0.705   0.413   5.207 -0.1368  0.1191  0.0539
 8261SOL    HW136419   0.612   0.388   5.202 -0.5236  1.3142  1.0760
 8261SOL    HW236420   0.721   0.411   5.301 -1.2129 -0.9364  0.2209
 8262SOL     OW36421   3.354   4.371  17.416 -0.6055  0.2260  0.5799
 8262SOL    HW136422   3.399   4.451  17.391 -1.0204  0.0036 -0.8988
 8262SOL    HW236423   3.276   4.412  17.453 -1.6145 -1.9116  0.8392
 8263SOL     OW36424   1.882   1.489   6.914  0.4402 -0.1104 -0.2276
 8263SOL    HW136425   1.846   1.509   6.828  1.1555  0.2954 -0.4366
 8263SOL    HW236426   1.927   1.571   6.934  0.3360 -0.5790  1.9785
 8264SOL     OW36427   1.548   2.105   2.098 -0.3590  0.1400  0.0013
 8264SOL    HW136428   1.584   2.192   2.115 -1.4874  1.1733 -2.8105
 8264SOL    HW236429   1.586   2.050   2.166 -1.2718 -3.3365 -2.2789
 8265SOL     OW36430   4.639   4.543   2.832 -0.2412 -0.0135 -0.7194
 8265SOL    HW136431   4.613   4.471   2.889  1.7246 -0.6708 -0.6902
 8265SOL    HW236432   4.672   4.607   2.896  0.1364 -0.6026 -0.3300
 8266SOL     OW36433   3.524   1.539   7.248 -0.3174 -0.6607 -0.2584
 8266SOL    HW136434   3.431   1.540   7.267  0.0319 -2.3148  1.5453
 8266SOL    HW236435   3.547   1.479   7.319  2.3706 -0.8002 -1.2213
 8267SOL     OW36436   2.735   3.605   9.319 -0.5364 -0.0311 -0.6576
 8267SOL    HW136437   2.788   3.674   9.278  0.5242 -0.0194  0.7686
 8267SOL    HW236438   2.795   3.576   9.387 -1.2644  0.4945  0.1951
 8268SOL     OW36439   1.704   3.822   3.088 -0.5893 -0.8037 -0.0610
 8268SOL    HW136440   1.638   3.768   3.045 -2.5113  0.4870  1.2406
 8268SOL    HW236441   1.659   3.839   3.171  0.6378  2.5385 -0.0866
 8269SOL     OW36442   3.512   1.750   6.606  0.1747 -0.4921  0.1790
 8269SOL    HW136443   3.550   1.664   6.623  3.1091  1.0641  1.5555
 8269SOL    HW236444   3.424   1.721   6.584 -0.5097  1.0052  0.9558
 8270SOL     OW36445   1.158   2.924   3.452 -0.3794  0.2405 -0.2186
 8270SOL    HW136446   1.106   2.908   3.374  0.0161  2.0608 -0.8444
 8270SOL    HW236447   1.224   2.855   3.445 -0.5537  0.2178 -1.5341
 8271SOL     OW36448   2.849   3.480  14.376 -0.6065 -0.2922  0.0183
 8271SOL    HW136449   2.887   3.483  14.288  0.3251  2.4338  0.5084
 8271SOL    HW236450   2.859   3.571  14.405  0.4674 -0.8348  1.3821
 8272SOL     OW36451   3.690   4.345   9.425 -0.4583 -0.0495 -0.2643
 8272SOL    HW136452   3.645   4.321   9.506  1.2671  1.6807  1.2526
 8272SOL    HW236453   3.733   4.262   9.404 -0.1784  0.1332 -0.4137
 8273SOL     OW36454   3.701   3.026  15.958  0.4976 -0.4962  0.0293
 8273SOL    HW136455   3.677   3.020  16.050  0.7049  1.1573  0.1928
 8273SOL    HW236456   3.796   3.017  15.962  0.6847  1.1332 -0.5366
 8274SOL     OW36457   4.571   1.756   0.820  0.0631 -0.5934 -0.2739
 8274SOL    HW136458   4.512   1.817   0.865 -0.3652 -0.0970 -1.5076
 8274SOL    HW236459   4.640   1.802   0.772  2.2612 -2.4406  1.0864
 8275SOL     OW36460   3.525   0.577   0.973  0.0229  0.0645  0.3242
 8275SOL    HW136461   3.590   0.600   1.040 -0.1594 -0.3353  0.6369
 8275SOL    HW236462   3.468   0.654   0.968 -0.0696  0.0068  0.5023
 8276SOL     OW36463   0.199   0.116   0.347 -0.3596  0.1235  0.2632
 8276SOL    HW136464   0.284   0.158   0.329 -0.4476 -0.6065 -1.9462
 8276SOL    HW236465   0.207   0.037   0.293  1.0746  0.5162 -0.1185
 8277SOL     OW36466   1.982   3.816   3.881  0.1929  0.1118  0.4062
 8277SOL    HW136467   2.055   3.876   3.897  0.3643 -0.2388  0.9399
 8277SOL    HW236468   2.018   3.741   3.929 -0.0444 -1.1220 -1.3339
 8278SOL     OW36469   0.349   4.491   4.550  0.2193  0.6805 -0.7888
 8278SOL    HW136470   0.308   4.424   4.496  0.5731  1.0189 -1.4762
 8278SOL    HW236471   0.325   4.567   4.498 -2.4168  0.2045 -0.2525
 8279SOL     OW36472   1.070   2.236   7.617  0.3867  0.4841 -0.0404
 8279SOL    HW136473   1.166   2.239   7.612  0.3134 -0.7108 -1.9661
 8279SOL    HW236474   1.046   2.311   7.672  0.2399  0.4105 -0.0040
 8280SOL     OW36475   3.143   2.711   4.198  0.1756 -0.1726  0.6747
 8280SOL    HW136476   3.141   2.746   4.287 -0.2708 -1.6597  1.2459
 8280SOL    HW236477   3.110   2.621   4.207 -1.3075  0.4046  1.0636
 8281SOL     OW36478   2.152   1.832   2.460  0.0216  0.2784  0.3727
 8281SOL    HW136479   2.150   1.775   2.383  0.0836 -0.3856  0.8648
 8281SOL    HW236480   2.219   1.895   2.434 -0.2476  0.4557  0.1149
 8282SOL     OW36481   2.831   1.777   4.547  0.2115 -1.0368  0.4915
 8282SOL    HW136482   2.883   1.706   4.507  0.3117 -1.5349  1.4935
 8282SOL    HW236483   2.742   1.756   4.519 -0.3725 -1.0186  2.3285
 8283SOL     OW36484   2.610   3.073  11.898  0.0495 -0.2698 -0.2910
 8283SOL    HW136485   2.630   2.980  11.890 -1.3538 -0.4669 -1.5348
 8283SOL    HW236486   2.674   3.106  11.834  0.8873 -0.4497  0.4539
 8284SOL     OW36487   0.805   3.129   3.480  0.3326  0.1341  0.7549
 8284SOL    HW136488   0.840   3.216   3.498  1.3240 -0.6569  2.7014
 8284SOL    HW236489   0.720   3.136   3.523 -1.3757 -1.2285 -2.4123
 8285SOL     OW36490   4.224   3.156   8.706 -0.3959 -0.0403  0.4583
 8285SOL    HW136491   4.213   3.243   8.667 -1.1303 -1.6042 -2.7514
 8285SOL    HW236492   4.165   3.096   8.660 -0.4130 -0.6962  1.3390
 8286SOL     OW36493   4.616   0.299  16.437  0.2566 -0.3962  0.3184
 8286SOL    HW136494   4.702   0.261  16.422  1.2697  1.2601  1.9401
 8286SOL    HW236495   4.560   0.238  16.390 -0.3227  0.7022 -0.4367
 8287SOL     OW36496   2.069   3.433   3.012  0.2413  0.1609  0.2308
 8287SOL    HW136497   2.030   3.423   2.925 -0.3544 -3.3609  0.8808
 8287SOL    HW236498   2.162   3.433   2.989  0.2678  3.5514  0.3371
 8288SOL     OW36499   4.283   2.180  10.920 -0.1984 -0.3751  0.4975
 8288SOL    HW136500   4.234   2.240  10.976  0.0195  0.6057 -0.3668
 8288SOL    HW236501   4.366   2.229  10.920 -0.3102 -0.1832  0.9070
 8289SOL     OW36502   2.298   0.660  13.440  0.4145 -0.1928  0.0779
 8289SOL    HW136503   2.314   0.691  13.529  1.9713  0.8415 -0.5667
 8289SOL    HW236504   2.361   0.589  13.441 -0.9019 -1.3607  0.9578
 8290SOL     OW36505   3.689   0.928   1.618  0.6465 -0.2853  0.3929
 8290SOL    HW136506   3.596   0.949   1.613  0.9136  0.5347 -1.1406
 8290SOL    HW236507   3.720   1.006   1.662 -2.4032  1.5770 -0.7492
 8291SOL     OW36508   1.717   3.844   6.026  0.5634  0.1158  0.4843
 8291SOL    HW136509   1.633   3.889   6.015 -0.3220 -1.2638  1.4643
 8291SOL    HW236510   1.705   3.764   5.974 -0.7809  0.2215  0.6190
 8292SOL     OW36511   0.419   3.160  15.199  0.7187 -0.3893  0.4439
 8292SOL    HW136512   0.455   3.246  15.218  0.9486  0.2011 -2.7596
 8292SOL    HW236513   0.429   3.149  15.105  2.0673  0.5725  0.4837
 8293SOL     OW36514   4.261   2.293   4.944 -0.0950 -0.2467 -0.4272
 8293SOL    HW136515   4.199   2.279   5.016  1.0452 -0.2587  0.5694
 8293SOL    HW236516   4.246   2.208   4.904  0.2262 -1.7766  2.6758
 8294SOL     OW36517   2.818   0.868   8.418  0.3152 -0.0519 -0.1929
 8294SOL    HW136518   2.835   0.915   8.336  1.7980 -0.3919 -0.0871
 8294SOL    HW236519   2.892   0.808   8.425 -0.9872 -1.5388  0.6615
 8295SOL     OW36520   4.282   0.416   0.554  0.0938 -0.1907 -0.7694
 8295SOL    HW136521   4.258   0.501   0.518  4.4099  0.7862 -1.3789
 8295SOL    HW236522   4.230   0.359   0.497  0.9264 -0.6567 -1.0607
 8296SOL     OW36523   2.736   4.324   7.454 -0.3858  0.4965  0.2197
 8296SOL    HW136524   2.759   4.400   7.507 -1.6439  0.4667  0.8029
 8296SOL    HW236525   2.641   4.338   7.453  0.0412  3.2100 -1.3850
 8297SOL     OW36526   3.496   0.870   4.941 -0.2600  0.9428  0.7818
 8297SOL    HW136527   3.487   0.848   5.033 -0.7507  2.3417  1.0636
 8297SOL    HW236528   3.591   0.881   4.942 -0.1053 -0.3401  0.4692
 8298SOL     OW36529   2.842   0.007  17.327 -0.1990 -0.2034  0.4554
 8298SOL    HW136530   2.771   4.698  17.280 -0.7336  0.9804  0.1657
 8298SOL    HW236531   2.841   0.102  17.314  0.1117  0.1523  3.1669
 8299SOL     OW36532   2.499   2.799   8.502 -0.5424 -0.0026 -0.0166
 8299SOL    HW136533   2.511   2.756   8.587  0.5453 -1.7652 -1.0645
 8299SOL    HW236534   2.554   2.738   8.453 -1.1915  0.8933 -1.8640
 8300SOL     OW36535   2.412   1.161   7.914 -0.3722 -0.1900  0.3555
 8300SOL    HW136536   2.337   1.221   7.907 -0.5427 -0.5713 -1.0074
 8300SOL    HW236537   2.434   1.147   7.822  1.9139 -1.5548  1.1202
 8301SOL     OW36538   0.723   0.217   4.999  0.4522 -0.4759 -0.1306
 8301SOL    HW136539   0.725   0.281   5.070  1.3887  0.6053 -1.1200
 8301SOL    HW236540   0.637   0.175   5.008 -0.1468  0.8944  0.5647
 8302SOL     OW36541   4.277   1.832   6.496  0.2039 -0.7461  0.4971
 8302SOL    HW136542   4.279   1.871   6.408 -0.5854 -1.7381  0.0318
 8302SOL    HW236543   4.296   1.741   6.471  0.7263 -0.7533  0.9310
 8303SOL     OW36544   1.404   4.189   6.292  0.5908 -0.1172 -0.4643
 8303SOL    HW136545   1.364   4.251   6.231  0.2029  0.2916  0.2129
 8303SOL    HW236546   1.360   4.108   6.263  1.8288 -0.7883 -0.4677
 8304SOL     OW36547   0.722   0.883   0.478  0.0558  0.2581  0.1023
 8304SOL    HW136548   0.630   0.856   0.480 -0.0899  0.9816  2.8398
 8304SOL    HW236549   0.739   0.890   0.384  0.8351 -0.5984  0.1860
 8305SOL     OW36550   2.568   4.572   4.117  0.2896  0.0162 -0.6358
 8305SOL    HW136551   2.482   4.557   4.078 -0.3422  0.4265  0.5920
 8305SOL    HW236552   2.599   4.641   4.059  0.9536 -2.1845 -2.9152
 8306SOL     OW36553   1.842   0.476   4.389  0.5614 -0.4714 -0.6392
 8306SOL    HW136554   1.920   0.470   4.443 -0.7328 -0.9007  1.2104
 8306SOL    HW236555   1.765   0.488   4.445  0.7860 -0.1189 -0.4032
 8307SOL     OW36556   1.522   2.981   4.242  0.3666  0.2346  0.6698
 8307SOL    HW136557   1.495   2.918   4.309  1.4494  2.2240  2.9932
 8307SOL    HW236558   1.454   2.963   4.177  0.5064  0.2289  0.5265
 8308SOL     OW36559   2.456   0.920   6.188 -1.1231  0.3050 -0.4242
 8308SOL    HW136560   2.510   0.984   6.141 -2.1168  0.7377 -0.9782
 8308SOL    HW236561   2.387   0.982   6.211 -1.3282 -0.0837  0.0044
 8309SOL     OW36562   0.377   3.166   8.142 -0.0774  0.1747  0.1764
 8309SOL    HW136563   0.316   3.126   8.205  1.0367  0.1290  1.2250
 8309SOL    HW236564   0.407   3.091   8.091 -0.0725  0.7695 -0.6878
 8310SOL     OW36565   1.344   3.952  15.504 -0.3154 -0.0902 -0.5069
 8310SOL    HW136566   1.363   4.044  15.521 -2.8628  0.2527  0.4761
 8310SOL    HW236567   1.322   3.915  15.590  1.9309  1.0666  0.5819
 8311SOL     OW36568   2.772   0.376   9.194 -0.1282  0.1027 -0.0580
 8311SOL    HW136569   2.691   0.394   9.147  0.9700  0.4780 -1.8115
 8311SOL    HW236570   2.807   0.300   9.148  1.5877  1.4314 -0.9723
 8312SOL     OW36571   3.092   4.116   2.261 -0.4606 -0.0600  0.4138
 8312SOL    HW136572   3.180   4.148   2.239 -0.3585  1.2620  2.6607
 8312SOL    HW236573   3.050   4.196   2.294 -1.0094 -0.8114  1.5243
 8313SOL     OW36574   2.152   0.988   9.661 -0.4782  0.1191 -0.3776
 8313SOL    HW136575   2.244   0.999   9.686 -0.3392  2.3359 -1.8830
 8313SOL    HW236576   2.141   0.898   9.633 -2.0665  0.7119 -1.6629
 8314SOL     OW36577   1.633   4.192  10.151 -0.4749 -0.3624  0.0085
 8314SOL    HW136578   1.561   4.146  10.193 -0.1962  1.0932  2.1116
 8314SOL    HW236579   1.628   4.280  10.190  0.2663  0.0798 -0.8865
 8315SOL     OW36580   4.221   1.155  14.659 -0.0857  0.3588  0.0282
 8315SOL    HW136581   4.276   1.127  14.587 -1.9405 -0.7728 -0.9315
 8315SOL    HW236582   4.164   1.208  14.604 -0.7003  2.3983  2.5902
 8316SOL     OW36583   2.283   3.597   3.573  0.1019 -0.1932 -0.6918
 8316SOL    HW136584   2.215   3.542   3.535 -0.6848  0.3663 -0.0920
 8316SOL    HW236585   2.344   3.613   3.501 -0.7141 -1.4438 -1.6598
 8317SOL     OW36586   4.608   1.012   6.339 -0.0753  0.0158 -0.2271
 8317SOL    HW136587   4.642   1.088   6.292 -0.5443 -0.0907 -0.7386
 8317SOL    HW236588   4.582   1.060   6.417 -0.4714  0.0382 -0.3766
 8318SOL     OW36589   1.514   2.437   9.098  0.3227  0.4961  0.3862
 8318SOL    HW136590   1.432   2.430   9.050  0.9108 -1.0420 -0.3899
 8318SOL    HW236591   1.546   2.354   9.062 -4.1701 -0.9860 -0.0815
 8319SOL     OW36592   3.646   1.604   2.059 -0.0164 -0.3157  0.6127
 8319SOL    HW136593   3.601   1.687   2.038  1.8501 -0.1356 -2.6605
 8319SOL    HW236594   3.739   1.622   2.046 -0.0446 -0.5038  0.1617
 8320SOL     OW36595   4.631   0.065  14.054  0.3021 -0.4195 -0.0676
 8320SOL    HW136596   4.677   0.140  14.092 -1.2987 -1.0768  3.1162
 8320SOL    HW236597   4.646   0.081  13.961  1.6239  1.3369  0.4310
 8321SOL     OW36598   3.272   3.837  16.143 -0.0045 -0.2039 -0.0619
 8321SOL    HW136599   3.332   3.764  16.128 -1.5020 -1.5817  0.6748
 8321SOL    HW236600   3.324   3.917  16.158 -0.1188 -0.6011  2.5144
 8322SOL     OW36601   3.525   0.723   3.457 -0.5877  0.0636  0.3047
 8322SOL    HW136602   3.524   0.664   3.532 -1.0888  0.7134  0.8119
 8322SOL    HW236603   3.532   0.667   3.380 -0.5735  2.0295 -1.1271
 8323SOL     OW36604   2.438   1.840  13.380  0.1842 -0.4343 -0.2381
 8323SOL    HW136605   2.516   1.893  13.393 -0.3643  0.0554  1.0635
 8323SOL    HW236606   2.487   1.775  13.330  1.0527 -0.0435  0.1218
 8324SOL     OW36607   1.076   0.641   1.574  0.5743  0.2017  0.0774
 8324SOL    HW136608   1.106   0.732   1.565 -1.4108  0.7858 -0.8027
 8324SOL    HW236609   1.021   0.639   1.496  0.2189 -2.8587  0.4088
 8325SOL     OW36610   0.661   0.337  11.432 -0.2250  0.0789  0.4730
 8325SOL    HW136611   0.656   0.295  11.517 -1.6950  0.0768  0.3978
 8325SOL    HW236612   0.569   0.359  11.413  0.4638  3.2552  0.8080
 8326SOL     OW36613   1.007   2.126  12.173  0.3465 -0.2109 -0.3062
 8326SOL    HW136614   1.091   2.160  12.142  0.5435 -1.4698 -1.1517
 8326SOL    HW236615   1.023   2.046  12.223 -1.0819 -1.3709 -1.7027
 8327SOL     OW36616   3.044   4.103   7.039  0.1322  0.3500  0.9903
 8327SOL    HW136617   3.074   4.127   7.127 -0.2481 -1.2285  1.5468
 8327SOL    HW236618   2.972   4.166   7.030  0.3151  0.7215  2.0414
 8328SOL     OW36619   2.790   0.719  10.066 -0.2021  0.4032 -0.4698
 8328SOL    HW136620   2.823   0.629  10.064 -0.5881  0.1842  2.8391
 8328SOL    HW236621   2.813   0.742  10.157  2.1503 -1.9718 -0.4430
 8329SOL     OW36622   0.739   3.322   7.196 -0.0442 -0.0996  0.2930
 8329SOL    HW136623   0.793   3.286   7.126 -0.0013  1.3199 -0.3907
 8329SOL    HW236624   0.677   3.250   7.210  0.8508 -0.4334  2.5288
 8330SOL     OW36625   0.974   3.061  12.073  0.5802 -0.0387 -0.3360
 8330SOL    HW136626   0.913   3.096  12.137  1.4759 -1.1186  1.1066
 8330SOL    HW236627   0.955   3.115  11.996 -0.6384  0.4416  0.3014
 8331SOL     OW36628   3.873   1.350   5.513  0.6995 -0.7443 -0.4676
 8331SOL    HW136629   3.788   1.316   5.542 -0.6374  0.7977 -2.5787
 8331SOL    HW236630   3.863   1.444   5.503 -0.7417 -0.7310  0.9628
 8332SOL     OW36631   1.462   4.195   3.012 -0.3598  0.9970  0.2693
 8332SOL    HW136632   1.537   4.141   2.986 -0.4460  1.0460 -0.0808
 8332SOL    HW236633   1.434   4.144   3.088 -3.2949  2.2692  0.0387
 8333SOL     OW36634   1.010   2.718  15.187  0.2682 -0.4519  0.3773
 8333SOL    HW136635   1.034   2.790  15.246 -1.2772 -0.5337  1.1254
 8333SOL    HW236636   1.080   2.653  15.194  0.3791 -0.2869  0.8288
 8334SOL     OW36637   2.057   3.210   6.839 -0.2588 -0.1995  0.1551
 8334SOL    HW136638   2.137   3.256   6.865  0.7700 -1.9811  0.1356
 8334SOL    HW236639   2.054   3.153   6.916  2.0502 -2.1354 -1.1864
 8335SOL     OW36640   0.584   2.878   4.485  0.6252  0.0980 -0.2846
 8335SOL    HW136641   0.662   2.864   4.538  2.4264 -0.6741 -3.1236
 8335SOL    HW236642   0.577   2.973   4.475 -0.8370  0.1692  1.5084
 8336SOL     OW36643   2.511   1.145   6.057 -0.4439  0.2925 -0.8650
 8336SOL    HW136644   2.457   1.223   6.065 -0.8729 -0.0530 -0.4309
 8336SOL    HW236645   2.501   1.121   5.965  1.0741  2.0253 -1.4858
 8337SOL     OW36646   1.654   1.012   4.321 -0.6299  0.3086 -0.0602
 8337SOL    HW136647   1.716   1.054   4.261  0.7354 -0.5317  0.7546
 8337SOL    HW236648   1.718   0.982   4.386 -0.5532  0.5591 -0.0191
 8338SOL     OW36649   2.015   2.076   8.954 -0.7098 -0.1273 -0.4096
 8338SOL    HW136650   1.983   1.986   8.961 -3.4033  0.9000  0.4601
 8338SOL    HW236651   1.996   2.096   8.862 -0.3825 -1.5080 -0.7801
 8339SOL     OW36652   4.364   2.762   2.771 -0.3538 -0.0488 -0.7866
 8339SOL    HW136653   4.452   2.795   2.789 -1.2841  0.3079  2.9365
 8339SOL    HW236654   4.368   2.684   2.826 -0.4230  0.5957  0.1291
 8340SOL     OW36655   0.317   4.454   5.051 -0.3316  0.2547 -0.3783
 8340SOL    HW136656   0.365   4.511   4.991  0.0736 -0.2494 -0.5310
 8340SOL    HW236657   0.270   4.392   4.996 -0.1492  0.5775 -0.8994
 8341SOL     OW36658   4.071   3.385   8.358  0.0851  0.0410 -0.6859
 8341SOL    HW136659   4.102   3.391   8.449  0.3225 -1.2447 -0.6885
 8341SOL    HW236660   4.127   3.448   8.313  1.9532 -0.4746  0.9210
 8342SOL     OW36661   2.041   3.325   5.523 -0.4267 -0.5581  0.1563
 8342SOL    HW136662   1.984   3.383   5.472  2.1508  2.8982  1.1527
 8342SOL    HW236663   1.981   3.285   5.586 -1.7430 -0.3173 -0.9503
 8343SOL     OW36664   1.744   4.067  10.639  0.4813  0.2682 -0.4660
 8343SOL    HW136665   1.767   4.091  10.549  0.1341 -1.2199 -0.9522
 8343SOL    HW236666   1.822   4.096  10.686 -0.4395  1.6522  0.2153
 8344SOL     OW36667   0.078   3.185   7.894 -0.0018  0.0951  0.1364
 8344SOL    HW136668   0.169   3.178   7.865  0.0132 -0.8946  0.4329
 8344SOL    HW236669   0.042   3.105   7.857 -0.9906  0.2073  0.8374
 8345SOL     OW36670   1.167   0.532   3.635 -0.2749  0.4239  0.3642
 8345SOL    HW136671   1.253   0.571   3.643 -0.0181  0.1446 -1.2031
 8345SOL    HW236672   1.172   0.479   3.556  0.8777 -2.7264  2.5512
 8346SOL     OW36673   3.074   2.644  10.019  0.0740 -0.1115  0.3344
 8346SOL    HW136674   3.109   2.565  10.062 -1.0288 -0.6187  0.3003
 8346SOL    HW236675   2.982   2.617  10.021 -0.5518  1.9368 -2.2369
 8347SOL     OW36676   1.712   3.022  13.739  0.5068 -0.0351  0.2123
 8347SOL    HW136677   1.712   2.932  13.707  0.8497 -0.1326  0.4902
 8347SOL    HW236678   1.682   3.019  13.830  3.8397  2.3463  1.4083
 8348SOL     OW36679   4.688   3.717   7.032 -0.1200  0.1520  0.0434
 8348SOL    HW136680   4.705   3.623   7.040 -0.0037  0.0397 -1.3897
 8348SOL    HW236681   4.635   3.732   7.110  0.5183 -0.3668  0.5742
 8349SOL     OW36682   4.071   4.696   3.529  0.1584 -0.0857 -0.2478
 8349SOL    HW136683   4.162   4.685   3.501  0.4606  3.4542 -0.6745
 8349SOL    HW236684   4.029   4.722   3.448  2.5252  0.1493 -1.4043
 8350SOL     OW36685   4.715   2.982   7.734  0.5047  0.5406  0.2903
 8350SOL    HW136686   4.649   2.924   7.696  2.2998 -0.6636 -0.9696
 8350SOL    HW236687   4.709   3.057   7.674 -0.1606  0.1429 -0.1383
 8351SOL     OW36688   4.660   2.739   4.335 -0.0430 -0.3629  0.1020
 8351SOL    HW136689   4.658   2.784   4.251  0.4313 -0.0539  0.2547
 8351SOL    HW236690   4.669   2.815   4.392 -1.3302  0.3810 -0.6806
 8352SOL     OW36691   0.123   3.695   6.832  0.6756 -0.4486  0.3841
 8352SOL    HW136692   0.056   3.730   6.892  0.5040 -1.1467  0.6004
 8352SOL    HW236693   0.073   3.627   6.788  0.9643  0.4290 -1.2895
 8353SOL     OW36694   1.168   0.205  12.102 -0.3884  0.3446 -0.2897
 8353SOL    HW136695   1.230   0.197  12.029 -0.4149  0.9843 -0.3809
 8353SOL    HW236696   1.176   0.300  12.108 -1.2972  0.2799  1.6662
 8354SOL     OW36697   3.630   3.316   4.511  0.4516  0.3227 -0.0438
 8354SOL    HW136698   3.664   3.314   4.422  1.3309 -0.0683  0.3079
 8354SOL    HW236699   3.538   3.299   4.492  0.4131 -1.3443  1.7365
 8355SOL     OW36700   2.720   1.160   6.613 -0.0923  0.6524 -0.1806
 8355SOL    HW136701   2.707   1.185   6.522  1.7211 -0.4384 -0.7407
 8355SOL    HW236702   2.631   1.140   6.640  0.3240  1.7822  2.0652
 8356SOL     OW36703   3.742   4.192   8.303 -0.1958  0.0787 -0.7141
 8356SOL    HW136704   3.806   4.122   8.297  1.8407  1.7337  2.1003
 8356SOL    HW236705   3.763   4.238   8.221  2.5039  1.3883  0.7272
 8357SOL     OW36706   4.622   3.137   5.341  0.2879  0.3874  0.4137
 8357SOL    HW136707   4.545   3.131   5.284  0.4394 -1.9361  0.4369
 8357SOL    HW236708   4.607   3.219   5.386  0.2332  0.2905  0.5713
 8358SOL     OW36709   1.953   2.279   6.854  0.2982  0.2923 -0.1471
 8358SOL    HW136710   1.970   2.234   6.771  1.0685  0.6612 -0.1876
 8358SOL    HW236711   1.933   2.207   6.914 -0.4588 -0.5048 -1.3679
 8359SOL     OW36712   2.282   3.304   4.969  0.0231  1.0495 -0.7613
 8359SOL    HW136713   2.307   3.284   4.879 -1.4309 -1.4605 -0.6009
 8359SOL    HW236714   2.351   3.251   5.007 -1.9875 -0.4383  0.7846
 8360SOL     OW36715   2.615   1.331   7.671  0.1399  0.2062  0.2387
 8360SOL    HW136716   2.603   1.236   7.670 -1.0679  0.3222  2.4382
 8360SOL    HW236717   2.631   1.357   7.762  2.2206  0.0574 -0.0915
 8361SOL     OW36718   1.091   0.844   8.001  0.4897  0.0494  0.4249
 8361SOL    HW136719   1.025   0.912   7.988 -0.4460 -1.3568 -2.2774
 8361SOL    HW236720   1.087   0.834   8.096 -1.3971  0.6446  0.4149
 8362SOL     OW36721   0.183   1.149   7.468 -0.4955 -0.3550  0.0606
 8362SOL    HW136722   0.201   1.155   7.562 -0.7375  1.3039  0.0106
 8362SOL    HW236723   0.200   1.238   7.438  0.5194 -0.3473  0.6680
 8363SOL     OW36724   2.695   1.988   4.385  0.5120 -0.5947  0.3004
 8363SOL    HW136725   2.702   1.905   4.433 -2.0360 -0.6346  0.6004
 8363SOL    HW236726   2.788   2.002   4.370  0.0510  0.6750 -1.2564
 8364SOL     OW36727   3.398   2.029   1.888  0.1051  0.0471 -0.0572
 8364SOL    HW136728   3.339   1.954   1.881 -0.8580  0.9220 -1.4237
 8364SOL    HW236729   3.455   2.001   1.959 -1.4205 -0.8057  0.8305
 8365SOL     OW36730   1.890   0.578   2.857  0.0344  0.0248 -0.0008
 8365SOL    HW136731   1.869   0.562   2.949  1.4863 -2.6067 -0.1334
 8365SOL    HW236732   1.883   0.673   2.847 -2.5262 -0.0906  0.5512
 8366SOL     OW36733   2.059   1.995   9.451 -0.5450 -0.1094  0.1844
 8366SOL    HW136734   1.974   1.958   9.427  0.4597 -0.2627 -3.1333
 8366SOL    HW236735   2.031   2.081   9.482 -0.6768  0.2172 -0.8384
 8367SOL     OW36736   1.875   0.601   8.540  0.1200  0.1576 -0.4792
 8367SOL    HW136737   1.954   0.654   8.540 -0.9211  1.7214 -1.2048
 8367SOL    HW236738   1.898   0.514   8.508  0.0215 -0.0340 -0.0404
 8368SOL     OW36739   4.251   3.916   6.727 -0.5538  1.0436  0.2653
 8368SOL    HW136740   4.343   3.930   6.747 -0.3849  0.7720 -0.3205
 8368SOL    HW236741   4.241   3.965   6.645 -0.4978  0.5020 -0.0678
 8369SOL     OW36742   4.417   1.822  14.299  0.4356 -0.0977  0.3899
 8369SOL    HW136743   4.376   1.789  14.219 -1.8958 -1.8119  2.3017
 8369SOL    HW236744   4.347   1.880  14.327  1.6022  0.7291  1.5843
 8370SOL     OW36745   0.755   4.256  16.163 -0.2233  0.1513  0.2911
 8370SOL    HW136746   0.673   4.261  16.212 -0.3145 -2.9597  0.4274
 8370SOL    HW236747   0.755   4.163  16.140 -1.6108  0.1875  0.1458
 8371SOL     OW36748   0.942   2.352   1.029 -0.4794  0.1503 -0.1124
 8371SOL    HW136749   0.998   2.430   1.030 -0.1781 -0.0723  0.4653
 8371SOL    HW236750   0.889   2.362   1.109 -0.9292  2.0959 -0.6493
 8372SOL     OW36751   1.782   4.366   0.067 -0.2575 -0.1890 -0.1001
 8372SOL    HW136752   1.854   4.426   0.045  0.5652 -1.6900 -1.5464
 8372SOL    HW236753   1.832   4.284   0.070  1.6463  1.0089  0.9951
 8373SOL     OW36754   0.845   3.136  12.723 -0.1022  0.2411 -0.0607
 8373SOL    HW136755   0.932   3.162  12.753 -0.6081  2.7345 -0.7820
 8373SOL    HW236756   0.794   3.156  12.801  2.0197  1.6750  0.9760
 8374SOL     OW36757   1.921   4.148  17.350 -0.2025  0.4312 -0.3445
 8374SOL    HW136758   1.915   4.053  17.353 -1.8229  0.5483  0.4412
 8374SOL    HW236759   1.851   4.166  17.413  0.7345 -1.5737  1.2397
 8375SOL     OW36760   3.345   0.398   0.410 -0.4933  0.2530  0.0543
 8375SOL    HW136761   3.390   0.482   0.400 -0.8729  0.3720 -0.6425
 8375SOL    HW236762   3.364   0.377   0.501 -0.4968  0.4072  0.0911
 8376SOL     OW36763   0.240   4.126   9.293  0.0721 -0.2915  0.1380
 8376SOL    HW136764   0.330   4.152   9.308 -0.6091  1.1782  1.7507
 8376SOL    HW236765   0.252   4.079   9.211  0.9827  0.3090 -0.0675
 8377SOL     OW36766   2.437   4.716   8.493  0.0643 -0.0035 -0.1145
 8377SOL    HW136767   2.427   0.021   8.580  0.0158 -2.4602  0.9753
 8377SOL    HW236768   2.439   4.622   8.510 -2.0694 -0.1846 -0.8799
 8378SOL     OW36769   3.124   1.413   8.273 -0.4184 -0.0453  0.3591
 8378SOL    HW136770   3.160   1.444   8.190  0.1387  1.4191  1.1625
 8378SOL    HW236771   3.162   1.326   8.260 -0.5693 -0.2131  1.0579
 8379SOL     OW36772   3.718   2.600   7.208 -0.2670 -0.0220  0.6632
 8379SOL    HW136773   3.723   2.683   7.255  2.0481 -0.9651  2.0901
 8379SOL    HW236774   3.785   2.541   7.244 -0.2714 -0.3387  0.1606
 8380SOL     OW36775   2.184   0.613   4.151  0.1648 -0.3546 -0.5309
 8380SOL    HW136776   2.207   0.553   4.222 -0.1403 -1.6781 -1.5583
 8380SOL    HW236777   2.089   0.608   4.144  0.0222  0.1366  0.9111
 8381SOL     OW36778   0.895   3.858   1.057 -0.4582  0.0831 -0.4005
 8381SOL    HW136779   0.923   3.929   1.115  2.1109 -0.7997 -0.5467
 8381SOL    HW236780   0.815   3.899   1.026 -0.1323  0.1359 -1.1841
 8382SOL     OW36781   1.150   4.504   4.047 -0.1403 -0.6000 -0.2821
 8382SOL    HW136782   1.218   4.460   4.097  0.0442  0.3575  0.3208
 8382SOL    HW236783   1.175   4.597   4.049 -0.2900 -0.5592 -0.3302
 8383SOL     OW36784   2.246   3.825  14.560  0.4011 -0.0757  0.6408
 8383SOL    HW136785   2.326   3.801  14.513 -0.9036 -0.1930 -1.5593
 8383SOL    HW236786   2.184   3.818  14.487  0.1469 -0.5972  0.9080
 8384SOL     OW36787   4.670   1.855  15.218 -0.2765 -0.3026  0.1100
 8384SOL    HW136788   0.018   1.903  15.205 -1.0567  1.2202  0.8641
 8384SOL    HW236789   4.653   1.830  15.127 -1.9958 -3.3330  1.2374
 8385SOL     OW36790   2.062   3.603   3.996  0.2723  0.2563 -0.2315
 8385SOL    HW136791   2.037   3.518   3.960 -1.7540  1.2554 -1.1675
 8385SOL    HW236792   2.137   3.574   4.047 -0.6723 -3.2336 -0.8396
 8386SOL     OW36793   4.023   2.365   9.946 -0.1156  0.2885  0.9534
 8386SOL    HW136794   4.105   2.322   9.971  1.0436  1.5941 -0.5426
 8386SOL    HW236795   3.975   2.330  10.021  1.5421  0.5023  2.1093
 8387SOL     OW36796   3.144   4.166   6.797  0.1157 -0.1211  0.1364
 8387SOL    HW136797   3.127   4.147   6.889 -0.8657 -0.8025 -0.1889
 8387SOL    HW236798   3.238   4.148   6.793 -0.2200 -0.8434 -4.3667
 8388SOL     OW36799   3.573   0.014   7.612  0.6657  0.7573  0.7264
 8388SOL    HW136800   3.546   4.668   7.658  0.9223  0.2623  0.0255
 8388SOL    HW236801   3.492   0.062   7.595  1.5802  1.6091 -1.1819
 8389SOL     OW36802   0.366   3.661   3.671 -0.2224  0.3509  0.3372
 8389SOL    HW136803   0.365   3.742   3.722 -0.6566  1.3937 -1.3305
 8389SOL    HW236804   0.354   3.596   3.741 -2.1380  0.0042 -0.2945
 8390SOL     OW36805   2.854   1.787  11.700  0.3367 -0.0521  0.3841
 8390SOL    HW136806   2.868   1.692  11.708  0.2439 -0.1398 -0.4892
 8390SOL    HW236807   2.932   1.810  11.651 -0.5736 -0.1379 -1.0923
 8391SOL     OW36808   1.665   1.672   8.827 -0.1487  0.3344  0.0477
 8391SOL    HW136809   1.581   1.637   8.855  0.2969 -1.2324 -0.5640
 8391SOL    HW236810   1.698   1.602   8.770  0.8704  2.1935 -1.6446
 8392SOL     OW36811   0.698   0.532   1.061 -0.2267  0.0947  0.3985
 8392SOL    HW136812   0.611   0.571   1.066 -0.8441 -1.1815 -0.6185
 8392SOL    HW236813   0.750   0.549   0.983  1.1172 -2.0995  0.8416
 8393SOL     OW36814   1.570   2.425   4.463  0.1429  0.6601 -0.5458
 8393SOL    HW136815   1.659   2.435   4.429  0.1045 -0.1514 -0.8684
 8393SOL    HW236816   1.532   2.511   4.481 -0.4509  0.2020  0.3767
 8394SOL     OW36817   4.625   1.080  10.486  0.2185  0.3504  0.3775
 8394SOL    HW136818   4.690   1.082  10.416 -0.3666  0.5765 -0.1596
 8394SOL    HW236819   4.567   1.154  10.472 -0.2244 -0.2472 -0.9331
 8395SOL     OW36820   1.354   4.486   3.619  0.2713 -0.0570  0.2289
 8395SOL    HW136821   1.358   4.404   3.570  3.5969 -0.0221  0.4402
 8395SOL    HW236822   1.324   4.542   3.547 -1.8089  0.6314  1.6317
 8396SOL     OW36823   0.545   0.063   9.309  0.1440  0.0150 -0.4320
 8396SOL    HW136824   0.525   0.080   9.401  0.0687 -0.3909 -0.3748
 8396SOL    HW236825   0.528   4.703   9.302 -1.2199  0.3322 -1.2891
 8397SOL     OW36826   1.240   2.320   8.246  0.0475 -0.2331 -0.2648
 8397SOL    HW136827   1.148   2.296   8.241 -0.5666  1.8197  1.1620
 8397SOL    HW236828   1.235   2.413   8.268 -2.8836 -0.5638  0.4746
 8398SOL     OW36829   0.133   1.347  10.175  0.3820 -0.2996  0.4778
 8398SOL    HW136830   0.186   1.327  10.098 -0.7693 -2.0214  0.1182
 8398SOL    HW236831   0.109   1.438  10.163  3.0701  0.3491  0.0399
 8399SOL     OW36832   4.654   1.145   6.894  0.5761 -0.6637  0.2900
 8399SOL    HW136833   4.680   1.237   6.896  2.0437 -1.0623 -1.0109
 8399SOL    HW236834   4.563   1.171   6.909  0.9829  0.4688  0.8502
 8400SOL     OW36835   2.299   3.839   3.935 -0.6360  0.3091 -0.1150
 8400SOL    HW136836   2.287   3.793   3.852  0.4825  0.2392 -0.2483
 8400SOL    HW236837   2.348   3.914   3.899 -1.0674 -0.1294 -1.6350
 8401SOL     OW36838   2.850   3.143  14.063 -0.0862  0.1714 -0.6623
 8401SOL    HW136839   2.773   3.139  14.005 -1.3327 -2.0898  1.1391
 8401SOL    HW236840   2.815   3.191  14.138 -0.7578 -0.3885 -0.6148
 8402SOL     OW36841   4.067   0.724   7.018  0.5357 -0.5343  0.4742
 8402SOL    HW136842   3.972   0.739   7.011  0.8778  0.6116 -1.7441
 8402SOL    HW236843   4.081   0.632   7.040  0.3455 -0.7923 -0.4815
 8403SOL     OW36844   1.534   3.201   5.925  0.0976 -0.2615  0.3300
 8403SOL    HW136845   1.459   3.260   5.922  0.8340  0.7102  0.7922
 8403SOL    HW236846   1.599   3.267   5.951  0.4575 -1.5238  2.6269
 8404SOL     OW36847   0.179   1.424   1.891  0.3533 -0.3080  0.3562
 8404SOL    HW136848   0.105   1.473   1.856  0.8396 -0.1729 -0.4804
 8404SOL    HW236849   0.156   1.410   1.983  2.0417  3.8798  1.4159
 8405SOL     OW36850   2.029   2.333   2.629 -0.6098  0.3180  0.1587
 8405SOL    HW136851   1.998   2.269   2.692  1.4295  0.4104  1.2640
 8405SOL    HW236852   2.008   2.413   2.677  1.6817  0.2353  1.2957
 8406SOL     OW36853   1.633   1.021   1.849  0.6790 -0.4817  0.0002
 8406SOL    HW136854   1.694   0.980   1.787  0.1554 -0.3016 -0.6343
 8406SOL    HW236855   1.616   0.947   1.907 -2.2182  0.9670  0.9975
 8407SOL     OW36856   2.410   4.510   3.509 -0.1508  0.6693 -0.6735
 8407SOL    HW136857   2.487   4.518   3.452 -0.7535  0.1748 -1.5539
 8407SOL    HW236858   2.338   4.506   3.446 -2.0036 -1.2578  1.5814
 8408SOL     OW36859   0.843   3.209   6.625  0.3098 -0.8912 -0.1810
 8408SOL    HW136860   0.894   3.148   6.678  1.2864 -0.3815 -0.5538
 8408SOL    HW236861   0.830   3.265   6.701 -1.3261 -0.4807 -0.7488
 8409SOL     OW36862   3.042   3.423  12.237 -0.2983 -0.1149  0.5456
 8409SOL    HW136863   3.088   3.414  12.320  1.7923  0.7293 -0.5098
 8409SOL    HW236864   3.071   3.512  12.212 -2.1303 -0.1250 -1.6216
 8410SOL     OW36865   0.485   3.753   8.268  0.3978 -0.3688  0.5289
 8410SOL    HW136866   0.525   3.746   8.355  2.3122 -0.7021 -0.3695
 8410SOL    HW236867   0.546   3.820   8.237  0.1897  0.1573  1.2606
 8411SOL     OW36868   3.084   1.538   4.754  0.2613 -0.3409  0.0337
 8411SOL    HW136869   3.006   1.571   4.798 -0.1708 -2.0928  0.5961
 8411SOL    HW236870   3.105   1.460   4.805 -1.0019  0.1870  1.3510
 8412SOL     OW36871   4.508   2.882   5.026  0.0891  0.0357  0.0008
 8412SOL    HW136872   4.559   2.822   4.972 -2.1708 -1.1121 -0.8699
 8412SOL    HW236873   4.475   2.946   4.964  0.1082 -0.4233 -0.4858
 8413SOL     OW36874   2.437   4.568   5.201 -0.1790 -0.1160  0.6770
 8413SOL    HW136875   2.400   4.563   5.289 -0.5966  0.7336  0.5598
 8413SOL    HW236876   2.357   4.572   5.147 -0.2703 -0.2166  0.8073
 8414SOL     OW36877   0.703   4.118   8.410  0.0360  0.1894 -0.0074
 8414SOL    HW136878   0.711   4.213   8.400  0.8552  0.2557  1.2195
 8414SOL    HW236879   0.677   4.110   8.502  1.2045 -1.0546  0.2164
 8415SOL     OW36880   3.478   2.770   5.386 -0.0757 -0.4474 -0.2180
 8415SOL    HW136881   3.411   2.812   5.441 -0.2003 -0.3227 -0.4639
 8415SOL    HW236882   3.512   2.845   5.336 -2.2964  1.8220  1.6806
 8416SOL     OW36883   2.491   3.417   2.930 -0.4295  0.0667 -0.5445
 8416SOL    HW136884   2.436   3.470   2.987 -0.4414 -1.8024  1.1929
 8416SOL    HW236885   2.562   3.481   2.933  0.0540 -0.5223  0.6011
 8417SOL     OW36886   2.254   1.162   3.982  0.2231  0.4991  0.1748
 8417SOL    HW136887   2.233   1.231   4.044 -0.1195 -1.3638  2.1112
 8417SOL    HW236888   2.224   1.084   4.028  0.9249  0.5919  0.7898
 8418SOL     OW36889   0.924   0.142   4.171 -0.3585 -0.5341  0.2830
 8418SOL    HW136890   0.985   0.121   4.242  0.1985 -1.9827 -0.6325
 8418SOL    HW236891   0.984   0.123   4.099 -0.0635 -1.1775  0.7009
 8419SOL     OW36892   0.634   1.801   6.939  0.4251 -0.1349  0.6913
 8419SOL    HW136893   0.657   1.892   6.958  0.2754  0.0536 -0.0652
 8419SOL    HW236894   0.667   1.807   6.850  0.2972 -1.0671  0.5885
 8420SOL     OW36895   1.429   4.301   4.082  0.5024  0.5154  0.2613
 8420SOL    HW136896   1.497   4.369   4.080 -1.7574  2.7789  0.2384
 8420SOL    HW236897   1.391   4.300   3.994  1.1350 -0.1483  0.0014
 8421SOL     OW36898   0.429   0.344   6.656  0.1841  0.3439  0.1829
 8421SOL    HW136899   0.435   0.397   6.735  0.3586  0.4467  0.1002
 8421SOL    HW236900   0.343   0.374   6.629 -0.7819  0.6337  3.5994
 8422SOL     OW36901   2.867   3.533  11.098 -0.0824 -0.1704  0.1875
 8422SOL    HW136902   2.805   3.495  11.036  0.6721  1.9934 -1.9029
 8422SOL    HW236903   2.928   3.458  11.099 -0.7598 -0.7080  1.0121
 8423SOL     OW36904   1.965   2.421   9.122  0.0527  0.0090  0.1034
 8423SOL    HW136905   1.890   2.362   9.115 -0.1111  0.0736  1.4099
 8423SOL    HW236906   1.983   2.407   9.215  1.1197  1.5771  0.1344
 8424SOL     OW36907   4.150   2.959   2.745  0.3109 -0.2498  0.0548
 8424SOL    HW136908   4.191   3.036   2.706  2.0101  0.4215  3.1684
 8424SOL    HW236909   4.216   2.889   2.746  2.7996  2.1010  0.2084
 8425SOL     OW36910   2.484   4.281   1.389  0.1511 -0.2937  0.3044
 8425SOL    HW136911   2.503   4.187   1.394 -1.1471 -0.5688  0.0299
 8425SOL    HW236912   2.543   4.308   1.319  1.5700 -1.8207  0.8935
 8426SOL     OW36913   0.340   2.767   9.375 -0.6892  0.3811  0.4121
 8426SOL    HW136914   0.419   2.733   9.334 -0.2932 -1.2441  2.5184
 8426SOL    HW236915   0.351   2.761   9.470  0.2276 -0.3974  0.2595
 8427SOL     OW36916   1.948   3.446   0.891 -0.6880  0.1511  0.4128
 8427SOL    HW136917   1.915   3.453   0.801 -2.1374 -2.0175  0.7716
 8427SOL    HW236918   1.873   3.452   0.951 -2.0152  0.8201 -1.3041
 8428SOL     OW36919   2.669   0.000   7.374 -0.4272 -0.1958 -0.8405
 8428SOL    HW136920   2.574   4.729   7.373 -0.2937 -2.2972 -1.4237
 8428SOL    HW236921   2.696   4.673   7.443  0.6789  1.1925 -0.0330
 8429SOL     OW36922   3.990   1.842   8.227 -0.2538 -0.4087  0.4631
 8429SOL    HW136923   4.014   1.787   8.153 -0.9841  0.6769 -0.5809
 8429SOL    HW236924   3.896   1.854   8.215 -0.4036 -2.6302 -0.6360
 8430SOL     OW36925   4.366   1.538  12.382 -0.2208  0.8378 -0.2749
 8430SOL    HW136926   4.458   1.521  12.361 -0.5027 -0.1121 -0.7234
 8430SOL    HW236927   4.333   1.463  12.431 -1.6251  1.4833 -0.2458
 8431SOL     OW36928   0.558   0.774   6.486  0.0952  0.4048  0.0684
 8431SOL    HW136929   0.481   0.717   6.486 -0.5329  1.2494  1.6547
 8431SOL    HW236930   0.625   0.706   6.481 -0.0091  0.2793  0.4085
 8432SOL     OW36931   3.618   2.646  13.308 -0.4253 -0.0213 -0.3713
 8432SOL    HW136932   3.557   2.689  13.247 -1.0537  0.6864  0.7596
 8432SOL    HW236933   3.622   2.715  13.374  1.9826  0.2748 -0.8222
 8433SOL     OW36934   2.109   3.821   4.291 -0.6030 -0.1013  0.1649
 8433SOL    HW136935   2.110   3.818   4.386  1.8979  0.9184  0.1868
 8433SOL    HW236936   2.200   3.845   4.272 -0.3111 -0.6479  0.8756
 8434SOL     OW36937   1.412   0.863  15.537 -0.0147 -0.0993 -0.4390
 8434SOL    HW136938   1.397   0.916  15.459 -1.9673  0.1679  0.1173
 8434SOL    HW236939   1.324   0.830  15.557  0.4657 -2.1484 -1.7418
 8435SOL     OW36940   3.160   0.341   4.788  0.0100 -0.6996  0.2781
 8435SOL    HW136941   3.190   0.421   4.745 -0.8226 -0.0567  0.9038
 8435SOL    HW236942   3.070   0.350   4.756  0.4601  1.3776 -0.4378
 8436SOL     OW36943   0.607   1.174   8.660 -0.1845 -0.3448 -0.0268
 8436SOL    HW136944   0.626   1.204   8.748 -0.1276 -0.5256  0.0223
 8436SOL    HW236945   0.580   1.259   8.624 -0.9320 -0.4854  0.2026
 8437SOL     OW36946   3.928   3.767  12.998 -0.0356  0.1677 -0.2175
 8437SOL    HW136947   3.854   3.782  13.057  0.7716  0.2288  0.7866
 8437SOL    HW236948   4.007   3.801  13.041 -0.3237  0.4174  0.1115
 8438SOL     OW36949   3.378   0.298   0.676  0.2774 -0.3218  0.2713
 8438SOL    HW136950   3.440   0.235   0.638  0.6792 -0.3590  0.9724
 8438SOL    HW236951   3.312   0.239   0.711  1.3393 -1.2910  0.6522
 8439SOL     OW36952   4.312   0.121   6.783  0.4248  0.0965 -0.1051
 8439SOL    HW136953   4.370   0.130   6.708  0.0550  0.3879 -0.3601
 8439SOL    HW236954   4.324   0.038   6.828 -0.0283 -0.2034 -0.5380
 8440SOL     OW36955   0.834   0.426   1.769  0.0236 -0.4279  0.3730
 8440SOL    HW136956   0.908   0.397   1.715  1.2120  0.0215  1.7751
 8440SOL    HW236957   0.765   0.378   1.722 -2.6372  2.4902  1.3400
 8441SOL     OW36958   3.899   4.326   4.095  0.2477  0.2653 -0.1879
 8441SOL    HW136959   3.966   4.311   4.028  1.0509 -1.1366  0.9394
 8441SOL    HW236960   3.827   4.332   4.032  1.3383 -0.3543 -1.4895
 8442SOL     OW36961   1.869   4.381   5.711 -0.3136 -0.1639 -0.0594
 8442SOL    HW136962   1.897   4.289   5.710  0.6378  0.1070  1.0152
 8442SOL    HW236963   1.856   4.392   5.617  2.1411  2.3056 -0.0898
 8443SOL     OW36964   0.145   3.845   7.431  0.6233 -0.2578 -0.0595
 8443SOL    HW136965   0.079   3.823   7.365  0.0313  1.5759 -0.0684
 8443SOL    HW236966   0.201   3.768   7.443  1.3636 -0.0950 -2.6322
 8444SOL     OW36967   0.095   0.366   4.195 -1.1104  0.4646 -0.4404
 8444SOL    HW136968   0.103   0.413   4.278 -0.1752 -0.1954 -0.1569
 8444SOL    HW236969   0.063   0.278   4.215  1.4322 -0.2791  0.4291
 8445SOL     OW36970   2.194   4.146  16.818  0.2210 -0.5618  0.1678
 8445SOL    HW136971   2.240   4.217  16.863 -1.2982  0.7587 -0.3392
 8445SOL    HW236972   2.256   4.073  16.823  1.3764  0.2491 -2.3047
 8446SOL     OW36973   1.593   1.231   0.106  0.1935 -0.4395 -0.7802
 8446SOL    HW136974   1.666   1.280   0.145 -2.0686  0.9570  1.6619
 8446SOL    HW236975   1.642   1.153   0.079  1.4239  0.0112  0.1316
 8447SOL     OW36976   1.599   1.224   0.387 -0.0871  0.2756  0.4272
 8447SOL    HW136977   1.577   1.216   0.295  1.2601  0.3766  0.0999
 8447SOL    HW236978   1.520   1.272   0.413 -0.3648 -0.9119  1.8247
 8448SOL     OW36979   3.729   3.399   5.093  0.5206  0.4461 -0.0298
 8448SOL    HW136980   3.824   3.406   5.090  0.6707 -1.2851  0.6443
 8448SOL    HW236981   3.707   3.460   5.022  0.7215  1.4364  0.7501
 8449SOL     OW36982   1.481   3.448   1.230  0.2870 -0.0328 -0.0735
 8449SOL    HW136983   1.491   3.428   1.137  0.6748  1.1306 -0.2880
 8449SOL    HW236984   1.502   3.542   1.229  1.6770 -0.3124  1.8711
 8450SOL     OW36985   4.072   0.172   4.146 -0.1811  0.5354 -0.5403
 8450SOL    HW136986   4.038   0.102   4.202 -0.6169  0.4809 -0.8728
 8450SOL    HW236987   4.130   0.217   4.207  0.8120 -2.8252  1.0098
 8451SOL     OW36988   0.102   3.569  15.188 -0.4281 -0.5708 -0.2879
 8451SOL    HW136989   0.127   3.597  15.276 -0.9152 -1.2382  0.0589
 8451SOL    HW236990   0.018   3.613  15.176  1.3193  2.2280 -2.1963
 8452SOL     OW36991   3.202   2.847   2.488  0.5841  0.3615  1.0625
 8452SOL    HW136992   3.136   2.845   2.419 -0.1542  1.0766  1.7435
 8452SOL    HW236993   3.283   2.847   2.437 -1.1671  0.4944 -1.7518
 8453SOL     OW36994   4.403   3.914   6.325  0.2216  0.6507 -0.4006
 8453SOL    HW136995   4.491   3.888   6.296 -0.2997 -2.6910  1.0478
 8453SOL    HW236996   4.343   3.892   6.254  0.9540  1.4229 -1.2712
 8454SOL     OW36997   2.123   2.064   4.287 -0.7135 -0.9252  0.5958
 8454SOL    HW136998   2.110   2.076   4.381  0.8313  0.6270  0.6103
 8454SOL    HW236999   2.033   2.052   4.257 -1.1533  0.7244  1.2667
 8455SOL     OW37000   1.506   0.615  15.687 -0.6993 -0.3628 -0.1490
 8455SOL    HW137001   1.476   0.695  15.644 -1.3028 -1.0810 -1.0617
 8455SOL    HW237002   1.580   0.588  15.632  0.6062 -0.5960  1.7187
 8456SOL     OW37003   1.812   0.973   4.793  0.4446  0.5961 -0.0193
 8456SOL    HW137004   1.805   0.884   4.827  0.5289  0.2815 -0.8101
 8456SOL    HW237005   1.837   1.018   4.874  0.3050 -0.8661  0.8340
 8457SOL     OW37006   0.310   2.232   0.335 -0.1027  0.1915 -0.1846
 8457SOL    HW137007   0.245   2.264   0.397 -1.5947  0.3486 -1.8441
 8457SOL    HW237008   0.283   2.278   0.256 -2.7591 -2.5069 -0.8647
 8458SOL     OW37009   1.913   2.546  13.758 -0.1463 -0.0562  0.4581
 8458SOL    HW137010   1.913   2.601  13.679 -0.1685  1.0414  1.2172
 8458SOL    HW237011   2.003   2.560  13.788 -0.4147  0.3377  1.0726
 8459SOL     OW37012   0.922   0.141   9.012 -0.0085 -0.6645 -0.1228
 8459SOL    HW137013   0.962   0.056   9.027  0.9013 -0.3521 -0.7734
 8459SOL    HW237014   0.879   0.178   9.088 -0.3409 -0.2528 -0.5109
 8460SOL     OW37015   1.287   2.699   8.706  0.8913  0.1929  0.0594
 8460SOL    HW137016   1.322   2.693   8.795 -1.2666  1.1508  0.9890
 8460SOL    HW237017   1.245   2.617   8.679 -0.6616  1.0296 -0.0493
 8461SOL     OW37018   4.146   0.957   1.771  0.4750 -0.0426 -0.8998
 8461SOL    HW137019   4.222   0.900   1.781 -0.7697 -1.3098  1.3527
 8461SOL    HW237020   4.115   0.930   1.685 -1.1317 -1.4623  0.1102
 8462SOL     OW37021   4.272   0.397   1.376  0.7273 -0.4046  0.2138
 8462SOL    HW137022   4.194   0.449   1.398  0.1350 -0.2328 -2.3567
 8462SOL    HW237023   4.251   0.309   1.408  1.2762  0.0136  1.7377
 8463SOL     OW37024   3.534   1.479   3.949 -0.0298 -0.3225  0.3681
 8463SOL    HW137025   3.463   1.431   3.992 -1.0515 -0.5916 -1.6264
 8463SOL    HW237026   3.609   1.459   4.006 -0.2528 -1.1136  0.3876
 8464SOL     OW37027   1.867   1.885   4.758 -0.2029 -0.0908  0.1909
 8464SOL    HW137028   1.878   1.814   4.821 -1.3514  0.5357  1.0999
 8464SOL    HW237029   1.772   1.893   4.744 -0.3016  2.1794  2.1920
 8465SOL     OW37030   0.090   0.180   8.956 -0.4024 -0.0539 -0.0497
 8465SOL    HW137031   0.070   0.100   8.907  0.8207  0.7179 -1.7533
 8465SOL    HW237032   0.003   0.198   8.994 -1.1156  1.8251 -2.6256
 8466SOL     OW37033   4.527   0.833   3.644 -0.8273 -0.8121  0.4508
 8466SOL    HW137034   4.593   0.901   3.660 -1.5723 -0.0005  0.0451
 8466SOL    HW237035   4.452   0.885   3.670 -0.1330 -0.3919  1.6201
 8467SOL     OW37036   0.454   2.849   3.721 -0.0359 -0.5412 -0.2742
 8467SOL    HW137037   0.463   2.766   3.673  0.2635  0.4382 -1.8886
 8467SOL    HW237038   0.367   2.876   3.692 -1.1156 -0.0506  3.4768
 8468SOL     OW37039   4.660   1.833  14.183  0.4550 -0.1298  0.0162
 8468SOL    HW137040   4.697   1.913  14.218 -1.1087  0.9285 -0.7450
 8468SOL    HW237041   4.578   1.845  14.233  1.5368 -1.0138  2.0233
 8469SOL     OW37042   1.255   2.651  13.696 -0.3139  0.3970 -0.3877
 8469SOL    HW137043   1.242   2.604  13.614  0.4632 -0.0911 -0.2306
 8469SOL    HW237044   1.175   2.704  13.699 -0.3566  0.3000  0.2636
 8470SOL     OW37045   1.763   0.941  15.118  0.2274 -0.2514  0.2447
 8470SOL    HW137046   1.775   0.999  15.042  0.7332 -0.5678  0.0831
 8470SOL    HW237047   1.785   1.007  15.184 -0.2862  2.6483 -2.4603
 8471SOL     OW37048   4.667   1.751   7.112  0.3814  0.0491  0.0106
 8471SOL    HW137049   4.633   1.717   7.030  2.3609  0.5575 -1.0322
 8471SOL    HW237050   4.604   1.818   7.137  1.9850  1.7249 -0.4084
 8472SOL     OW37051   4.270   2.506   6.732 -0.0517 -0.4496  0.2757
 8472SOL    HW137052   4.318   2.561   6.670  0.8528 -2.6512 -0.9838
 8472SOL    HW237053   4.307   2.419   6.720 -1.0654 -0.8313 -0.1256
 8473SOL     OW37054   2.279   3.378   5.684  0.0874 -0.0413 -0.1473
 8473SOL    HW137055   2.203   3.333   5.647  0.7675  0.3088 -1.9278
 8473SOL    HW237056   2.245   3.467   5.692 -0.6751 -0.4533  1.2169
 8474SOL     OW37057   1.594   1.662  16.348  0.1859  0.2047  0.0276
 8474SOL    HW137058   1.547   1.728  16.297  1.2914  1.2446  0.3589
 8474SOL    HW237059   1.636   1.713  16.417  3.6068 -0.2789 -1.6805
 8475SOL     OW37060   0.879   0.822   9.196  0.4116  0.8130 -0.3612
 8475SOL    HW137061   0.960   0.803   9.244 -0.9812 -2.2629  0.7497
 8475SOL    HW237062   0.923   0.857   9.119 -2.8739  0.0850 -2.5591
 8476SOL     OW37063   1.767   2.010  13.438 -0.6482  0.6197  0.0921
 8476SOL    HW137064   1.725   2.079  13.489 -0.4518  2.8255 -2.7175
 8476SOL    HW237065   1.851   2.005  13.484  0.2092 -0.3630 -1.5849
 8477SOL     OW37066   3.494   2.553  10.713 -0.0287  0.0228  0.0601
 8477SOL    HW137067   3.443   2.627  10.678 -1.5161 -1.2130 -0.3913
 8477SOL    HW237068   3.436   2.480  10.690 -1.4891  0.8562  1.0730
 8478SOL     OW37069   2.353   2.945   8.335 -0.4009 -0.0637 -0.2942
 8478SOL    HW137070   2.408   2.893   8.394 -0.6665  0.7579  0.6735
 8478SOL    HW237071   2.367   3.033   8.371 -0.6383 -0.0267 -0.2932
 8479SOL     OW37072   2.120   1.739  14.083 -0.1078 -0.5443  0.0989
 8479SOL    HW137073   2.116   1.653  14.041 -1.3097 -0.9120  0.9900
 8479SOL    HW237074   2.047   1.732  14.145 -0.3203  0.7709 -0.0036
 8480SOL     OW37075   0.706   4.254   4.027 -0.1152 -0.0076 -0.3263
 8480SOL    HW137076   0.787   4.218   3.992 -0.2445 -0.4678 -0.1549
 8480SOL    HW237077   0.714   4.350   4.022  0.7889 -0.1893 -2.2554
 8481SOL     OW37078   3.702   2.004   7.070 -0.1631  0.0551 -0.4104
 8481SOL    HW137079   3.679   1.967   6.984 -1.5092  0.8578 -0.3975
 8481SOL    HW237080   3.668   1.938   7.130 -0.3248  0.0679 -0.4883
 8482SOL     OW37081   1.817   0.631  10.228 -0.0461 -0.3441  0.1096
 8482SOL    HW137082   1.733   0.608  10.187 -0.2057  0.4691 -0.0108
 8482SOL    HW237083   1.875   0.643  10.153  0.2201 -0.7722  0.2426
 8483SOL     OW37084   0.735   2.751   5.526 -0.0293 -0.4278 -0.2378
 8483SOL    HW137085   0.753   2.837   5.487  0.7485 -1.0533 -1.2397
 8483SOL    HW237086   0.681   2.784   5.598  0.3736  2.9194 -1.4795
 8484SOL     OW37087   4.500   0.078  11.379 -0.0137  0.0753  0.2775
 8484SOL    HW137088   4.508   0.153  11.321  1.5541  0.1414  0.5625
 8484SOL    HW237089   4.406   0.067  11.369 -0.1214  0.0910  1.2341
 8485SOL     OW37090   0.622   3.859   7.019 -0.2371  0.1562  0.6695
 8485SOL    HW137091   0.671   3.860   7.102 -0.7409  1.1894  0.9522
 8485SOL    HW237092   0.531   3.860   7.048  0.1330  0.3280  1.8605
 8486SOL     OW37093   2.010   3.953   3.264  0.6200 -0.3555 -0.2822
 8486SOL    HW137094   1.994   3.927   3.174 -0.6577 -0.1171 -0.1240
 8486SOL    HW237095   2.101   3.925   3.271  1.1432  0.9910 -1.7114
 8487SOL     OW37096   0.289   2.073  16.617 -0.2875 -0.3533  0.3355
 8487SOL    HW137097   0.301   1.995  16.671  2.3979 -0.3373 -0.2188
 8487SOL    HW237098   0.345   2.131  16.669  2.0094 -2.9813  0.7628
 8488SOL     OW37099   0.049   1.509  16.611 -0.4276  0.5048  0.3860
 8488SOL    HW137100   0.090   1.447  16.671  1.1323  0.4828 -0.6897
 8488SOL    HW237101   4.714   1.450  16.580 -0.9897  1.5932 -0.4363
 8489SOL     OW37102   4.062   2.243   7.044  0.1607  0.3539  0.2335
 8489SOL    HW137103   4.003   2.237   6.968 -0.5541  0.4457  0.7785
 8489SOL    HW237104   4.112   2.318   7.013  1.1025 -1.5691 -2.8482
 8490SOL     OW37105   0.152   4.430   3.387 -0.5527  0.5739  0.2757
 8490SOL    HW137106   0.168   4.347   3.342  0.4888 -0.1796  2.0128
 8490SOL    HW237107   0.206   4.415   3.465  0.1793 -1.7102 -0.6845
 8491SOL     OW37108   2.285   4.609  12.158 -0.4136  0.3455  0.3868
 8491SOL    HW137109   2.323   4.695  12.174  2.4239 -0.4590 -1.9903
 8491SOL    HW237110   2.256   4.585  12.246  0.4116 -2.3816 -0.0876
 8492SOL     OW37111   3.012   2.944  11.954  0.4303  0.7886 -0.3001
 8492SOL    HW137112   2.948   3.011  11.929 -0.4780 -1.0683 -2.9736
 8492SOL    HW237113   2.986   2.933  12.045 -0.7337  2.4277 -0.4415
 8493SOL     OW37114   1.286   3.496   5.665  0.1679 -0.1200  0.3045
 8493SOL    HW137115   1.291   3.405   5.693 -1.3093 -0.3047 -0.0434
 8493SOL    HW237116   1.316   3.494   5.574  1.8637 -1.8799  0.9206
 8494SOL     OW37117   0.091   1.251   0.524  0.2148 -0.6499  0.2209
 8494SOL    HW137118   0.024   1.305   0.482 -1.6634 -3.1901  0.0052
 8494SOL    HW237119   0.036   1.179   0.554 -0.4154  0.8200  2.5715
 8495SOL     OW37120   1.181   1.119   6.043  0.0410  0.3505 -0.2540
 8495SOL    HW137121   1.133   1.047   6.084  0.5790  2.3150  3.8501
 8495SOL    HW237122   1.274   1.096   6.052 -0.1928 -0.4787  0.1109
 8496SOL     OW37123   1.414   4.215   2.658  0.0301 -0.0921  0.3449
 8496SOL    HW137124   1.366   4.292   2.687 -0.9872  0.2651 -2.2550
 8496SOL    HW237125   1.495   4.226   2.708 -0.9706  1.7370  1.5670
 8497SOL     OW37126   3.647   3.208   4.766 -0.7199  0.1945  0.0961
 8497SOL    HW137127   3.654   3.247   4.679 -0.0194  1.7737  0.8535
 8497SOL    HW237128   3.646   3.115   4.745 -0.5724  1.0123 -3.5860
 8498SOL     OW37129   4.113   4.501  14.374  0.1145  0.1418  0.1163
 8498SOL    HW137130   4.122   4.469  14.284 -0.0660 -2.5133  1.0467
 8498SOL    HW237131   4.205   4.517  14.396  0.6686  0.3307 -2.2903
 8499SOL     OW37132   1.875   0.458   1.312  0.2619 -0.8266 -0.0777
 8499SOL    HW137133   1.799   0.462   1.370  0.0440 -0.8809 -0.3582
 8499SOL    HW237134   1.888   0.363   1.312 -2.1610 -1.1708  1.5574
 8500SOL     OW37135   3.258   3.416   2.562  0.5650  0.1772  0.5870
 8500SOL    HW137136   3.256   3.430   2.467 -1.3876 -1.6451  0.3650
 8500SOL    HW237137   3.330   3.352   2.562 -1.7823 -2.4731 -2.2713
 8501SOL     OW37138   0.849   2.237  17.102  0.4992 -0.5659  0.0804
 8501SOL    HW137139   0.762   2.227  17.141 -0.1703 -1.1697 -1.5776
 8501SOL    HW237140   0.830   2.295  17.029  1.5007 -0.6731 -0.2556
 8502SOL     OW37141   3.453   2.835   2.688  0.2578  0.7292 -0.4169
 8502SOL    HW137142   3.456   2.819   2.594  0.5660 -0.5060 -0.1873
 8502SOL    HW237143   3.448   2.746   2.721  1.2942  0.8006 -0.0637
 8503SOL     OW37144   3.001   2.231   6.362  0.1078 -0.4977  0.1152
 8503SOL    HW137145   3.088   2.193   6.373 -0.0503 -1.7878 -3.2009
 8503SOL    HW237146   3.001   2.316   6.407  2.6230 -0.3509 -0.1502
 8504SOL     OW37147   0.438   3.074  14.921  0.0588  0.3339  0.0510
 8504SOL    HW137148   0.405   3.139  14.859 -2.2127  0.6812  1.5864
 8504SOL    HW237149   0.405   2.993  14.883 -1.6568  1.3559 -0.6446
 8505SOL     OW37150   2.578   0.140   5.565 -0.1447 -0.4161 -0.0067
 8505SOL    HW137151   2.484   0.152   5.553 -0.5944 -2.0907  1.9509
 8505SOL    HW237152   2.583   0.049   5.536 -1.5831 -0.3264 -0.5094
 8506SOL     OW37153   2.605   1.988   2.432  0.6294  0.1131  0.0050
 8506SOL    HW137154   2.673   2.016   2.371  2.3077 -0.2359  1.7343
 8506SOL    HW237155   2.631   2.046   2.503 -0.4222  1.3498 -0.6126
 8507SOL     OW37156   3.179   1.230   4.848 -0.6007  0.1875 -0.5991
 8507SOL    HW137157   3.184   1.279   4.930 -1.5707 -0.9224  0.1253
 8507SOL    HW237158   3.267   1.190   4.846 -0.2206  1.0723 -1.2830
 8508SOL     OW37159   4.126   3.135   7.720  0.4214 -0.9824 -0.7509
 8508SOL    HW137160   4.055   3.163   7.662  0.4822 -1.0987 -0.8813
 8508SOL    HW237161   4.076   3.067   7.764  0.3571  0.2715  1.1142
 8509SOL     OW37162   0.747   4.382   8.347 -0.2169 -0.2435  0.2828
 8509SOL    HW137163   0.659   4.407   8.372  0.1916  0.9275  0.5568
 8509SOL    HW237164   0.798   4.448   8.393  0.3498 -1.1402  0.9342
 8510SOL     OW37165   3.048   3.988   0.460 -0.1399  0.4421  0.0258
 8510SOL    HW137166   3.017   3.903   0.491  0.2270  0.4143  0.3238
 8510SOL    HW237167   3.136   3.971   0.492  0.0789 -1.8878 -1.8488
 8511SOL     OW37168   3.385   0.727  11.899 -1.0215  0.9473  0.0600
 8511SOL    HW137169   3.338   0.677  11.965 -0.0434 -1.1927 -0.8759
 8511SOL    HW237170   3.431   0.789  11.955 -0.6961  0.0251  0.8151
 8512SOL     OW37171   2.012   2.930   4.136  0.2409  0.6321  0.4391
 8512SOL    HW137172   1.917   2.925   4.147 -0.0185  2.8441 -0.6595
 8512SOL    HW237173   2.030   2.840   4.162  0.3106  0.3782 -0.5212
 8513SOL     OW37174   4.295   2.267   9.798 -0.2440 -0.4489  0.2916
 8513SOL    HW137175   4.284   2.256   9.893 -0.1420  0.0147  0.3608
 8513SOL    HW237176   4.391   2.268   9.799 -0.2491  0.3466  0.3414
 8514SOL     OW37177   0.797   3.699   5.982 -0.2535  0.0170  0.1183
 8514SOL    HW137178   0.751   3.719   5.900  0.3433  2.2908  0.3346
 8514SOL    HW237179   0.742   3.749   6.042 -0.3908 -0.9584  0.7981
 8515SOL     OW37180   1.796   0.716  14.168 -0.3309 -0.1770 -0.2558
 8515SOL    HW137181   1.751   0.678  14.243  0.7170 -0.2294  0.3485
 8515SOL    HW237182   1.849   0.784  14.208  2.1949 -1.7702 -0.9037
 8516SOL     OW37183   1.360   2.165   6.068 -0.0103  0.3494 -0.0725
 8516SOL    HW137184   1.362   2.260   6.054  0.1456  0.5488  1.3524
 8516SOL    HW237185   1.273   2.174   6.107 -0.5922 -0.6634 -1.1023
 8517SOL     OW37186   1.128   4.660   8.167  0.1432 -1.1029 -0.0798
 8517SOL    HW137187   1.049   4.634   8.120  1.3679 -2.3671 -1.4343
 8517SOL    HW237188   1.189   4.655   8.094  0.7292 -0.8694  0.3914
 8518SOL     OW37189   0.058   1.772  16.062  0.3382 -0.0970  0.2251
 8518SOL    HW137190   0.035   1.802  16.149  0.9379  1.2686 -0.0906
 8518SOL    HW237191   0.135   1.825  16.040  1.3260 -1.7958 -0.4825
 8519SOL     OW37192   4.598   1.812   6.375 -0.1146 -0.1462  0.3875
 8519SOL    HW137193   4.693   1.818   6.382  0.2037 -0.6841 -3.3716
 8519SOL    HW237194   4.580   1.729   6.420 -1.4642 -0.1334 -0.1118
 8520SOL     OW37195   4.332   2.737   2.489  0.0395 -0.1258  0.1431
 8520SOL    HW137196   4.363   2.737   2.580  1.4936  1.8704 -0.3576
 8520SOL    HW237197   4.248   2.692   2.500 -1.2711  1.9140 -1.5913
 8521SOL     OW37198   1.699   0.117   1.440 -0.5966 -0.4831 -0.1671
 8521SOL    HW137199   1.664   0.059   1.372 -0.1130  0.1284 -0.9476
 8521SOL    HW237200   1.622   0.126   1.495 -0.7723 -3.3670  0.0756
 8522SOL     OW37201   0.349   0.543   4.837  0.2394 -0.4084 -0.1179
 8522SOL    HW137202   0.414   0.473   4.830  0.8299  0.2485 -1.2176
 8522SOL    HW237203   0.267   0.500   4.812 -0.1661  0.2931  0.0365
 8523SOL     OW37204   4.470   2.500   3.192 -0.3695  0.5326  0.2661
 8523SOL    HW137205   4.531   2.570   3.214 -0.5853  1.2451 -1.3695
 8523SOL    HW237206   4.431   2.531   3.110 -0.9613  0.3457  0.4810
 8524SOL     OW37207   1.172   3.730   7.487 -0.1843 -0.3183  0.1076
 8524SOL    HW137208   1.157   3.823   7.501 -1.0066 -0.6790  1.6760
 8524SOL    HW237209   1.098   3.698   7.540  0.0698 -2.2755 -0.7298
 8525SOL     OW37210   2.663   3.542   2.567 -0.0408  0.6064  0.3646
 8525SOL    HW137211   2.752   3.540   2.533 -0.8977 -1.4450 -1.8030
 8525SOL    HW237212   2.659   3.635   2.589  2.5603  0.5973  0.8811
 8526SOL     OW37213   3.778   1.156   6.290 -0.4023 -0.1347 -0.4371
 8526SOL    HW137214   3.813   1.072   6.260  0.8218 -0.0592  0.7375
 8526SOL    HW237215   3.770   1.208   6.210 -0.4909 -0.1422 -0.4324
 8527SOL     OW37216   0.725   2.775   3.276 -0.2268  0.4385  0.5537
 8527SOL    HW137217   0.640   2.736   3.295 -0.0540 -1.2380 -2.1026
 8527SOL    HW237218   0.698   2.843   3.215 -1.4723  1.2643  2.0286
 8528SOL     OW37219   3.134   1.303   7.098  0.1781 -0.4571 -0.2500
 8528SOL    HW137220   3.056   1.339   7.055 -1.0469 -0.4425  1.9976
 8528SOL    HW237221   3.139   1.224   7.043  1.7593 -0.3594 -0.2302
 8529SOL     OW37222   3.682   0.662  15.826  0.3604 -0.6116  0.1962
 8529SOL    HW137223   3.610   0.615  15.784  0.3894 -0.2245 -0.2907
 8529SOL    HW237224   3.665   0.753  15.801 -1.2318 -0.7782  0.6561
 8530SOL     OW37225   2.899   1.505   2.726  0.4043  0.4238 -0.5398
 8530SOL    HW137226   2.960   1.540   2.791 -0.6820  3.9271 -1.3667
 8530SOL    HW237227   2.890   1.411   2.743  0.1694  0.5989  0.3629
 8531SOL     OW37228   3.868   2.652   7.648 -0.1831  0.2376  0.1271
 8531SOL    HW137229   3.934   2.609   7.702  2.4147  0.1804 -3.1046
 8531SOL    HW237230   3.919   2.720   7.605  0.1868 -0.3012 -0.2853
 8532SOL     OW37231   1.072   0.922   6.213 -0.1727  0.3714  0.1992
 8532SOL    HW137232   1.079   0.963   6.299 -1.7047 -0.3431  0.6672
 8532SOL    HW237233   1.086   0.828   6.223  1.0779  1.0210  4.2493
 8533SOL     OW37234   0.284   1.926  16.043 -0.2378 -0.2145 -0.3181
 8533SOL    HW137235   0.275   2.011  16.000  1.7810  0.0052 -0.2778
 8533SOL    HW237236   0.378   1.915  16.033 -0.0267  0.7601  0.5705
 8534SOL     OW37237   1.327   0.921  12.533 -0.1013  0.3850 -0.2955
 8534SOL    HW137238   1.405   0.923  12.476  0.0530  1.8116 -0.0225
 8534SOL    HW237239   1.360   0.892  12.618 -1.7500  1.4967  0.6990
 8535SOL     OW37240   1.107   4.196  17.451 -0.1828  0.3333 -0.0001
 8535SOL    HW137241   1.155   4.125  17.408 -0.0137  0.7632 -0.5193
 8535SOL    HW237242   1.015   4.170  17.461 -0.8202  1.8199 -2.0758
 8536SOL     OW37243   0.549   2.932   5.980  0.3683  0.3102 -0.4471
 8536SOL    HW137244   0.470   2.984   5.999 -0.3523  0.0968 -2.9233
 8536SOL    HW237245   0.611   2.964   6.046  0.2244  1.9163 -1.0712
 8537SOL     OW37246   2.201   0.340   8.821 -0.0146  0.0803  0.3074
 8537SOL    HW137247   2.250   0.300   8.893  1.2324  0.7896 -0.1476
 8537SOL    HW237248   2.147   0.265   8.796 -1.4831  0.8615  1.0837
 8538SOL     OW37249   2.272   2.300   8.818  0.5017  0.1273  0.5328
 8538SOL    HW137250   2.220   2.379   8.830 -0.4095 -1.0368  4.4750
 8538SOL    HW237251   2.279   2.272   8.910 -2.1782 -1.8031  0.1521
 8539SOL     OW37252   0.192   1.460  17.179 -0.3648 -0.1194 -0.6449
 8539SOL    HW137253   0.152   1.451  17.093  0.1910  2.1887 -1.1564
 8539SOL    HW237254   0.207   1.366  17.192 -1.3311 -0.4194 -1.6914
 8540SOL     OW37255   2.476   4.281  17.734 -0.1691 -0.0702 -0.4995
 8540SOL    HW137256   2.553   4.231  17.706  1.1374  1.2971  0.6455
 8540SOL    HW237257   2.409   4.243  17.676 -1.2038 -0.7366  1.1407
 8541SOL     OW37258   3.104   1.998   6.999 -0.6301  0.4607  0.2752
 8541SOL    HW137259   3.168   1.949   7.050 -0.6054 -0.3811 -0.5541
 8541SOL    HW237260   3.099   1.940   6.923 -0.8121 -0.3591  0.9198
 8542SOL     OW37261   3.713   4.597   2.361 -0.4795  0.6364  0.2601
 8542SOL    HW137262   3.752   4.681   2.385  1.5478  0.7462 -3.4112
 8542SOL    HW237263   3.667   4.623   2.281 -1.8442  1.9613  1.4813
 8543SOL     OW37264   1.618   3.055   2.622  0.4463  0.2048 -0.3232
 8543SOL    HW137265   1.661   3.072   2.539 -0.0665 -0.9243 -0.8245
 8543SOL    HW237266   1.563   3.133   2.630  0.8105  0.3547  0.8230
 8544SOL     OW37267   2.253   0.411   5.173  0.9322 -0.0527  0.2863
 8544SOL    HW137268   2.186   0.412   5.241 -1.2904  0.8360 -1.9224
 8544SOL    HW237269   2.259   0.503   5.151 -0.4523 -0.1356 -0.4428
 8545SOL     OW37270   3.060   3.077   5.963  0.0641 -1.0338 -0.2822
 8545SOL    HW137271   2.981   3.053   5.915 -0.9396 -0.4672  1.0532
 8545SOL    HW237272   3.023   3.129   6.035 -0.4958 -0.8003 -0.7359
 8546SOL     OW37273   0.803   3.568   4.402 -0.4562  0.3602 -0.0078
 8546SOL    HW137274   0.811   3.588   4.495  1.0533 -0.5779  0.0788
 8546SOL    HW237275   0.720   3.610   4.383 -0.9693 -0.9600 -0.6771
 8547SOL     OW37276   2.799   2.312   2.941  0.1320  0.2191  0.0628
 8547SOL    HW137277   2.720   2.318   2.886  1.0972 -0.9008 -1.4496
 8547SOL    HW237278   2.867   2.331   2.876  1.2303  0.4586  1.3038
 8548SOL     OW37279   2.506   3.609   6.690 -0.0567 -0.8432  0.1641
 8548SOL    HW137280   2.511   3.703   6.708  0.9789 -0.8546 -0.0794
 8548SOL    HW237281   2.414   3.598   6.716 -1.0522  0.2928 -2.8652
 8549SOL     OW37282   3.693   3.673  16.890 -0.2150  0.6312 -0.5567
 8549SOL    HW137283   3.639   3.594  16.892  0.8733 -0.1069 -0.7666
 8549SOL    HW237284   3.633   3.748  16.898 -1.5350 -0.5924  1.0671
 8550SOL     OW37285   4.211   2.182   9.242 -0.2974 -0.3114  0.7697
 8550SOL    HW137286   4.198   2.234   9.163 -3.1806  0.2227  1.5880
 8550SOL    HW237287   4.272   2.240   9.287  0.2209 -0.3446  0.1071
 8551SOL     OW37288   1.663   1.760   5.273 -0.3424  0.2224  0.2707
 8551SOL    HW137289   1.607   1.712   5.335 -0.5751  1.0198  0.6713
 8551SOL    HW237290   1.658   1.713   5.190 -2.0572 -0.5651  0.8151
 8552SOL     OW37291   0.237   1.597   5.796  0.0530 -0.1580  0.3916
 8552SOL    HW137292   0.261   1.596   5.889  0.7450 -0.1297  0.2140
 8552SOL    HW237293   0.193   1.681   5.789 -1.5282 -0.7246  3.6185
 8553SOL     OW37294   4.639   0.047  13.797  0.0281  0.1366 -0.1849
 8553SOL    HW137295   4.667   0.031  13.707 -0.2658  0.5273 -0.3452
 8553SOL    HW237296   4.562   0.102  13.782 -0.6393 -0.4503  1.0746
 8554SOL     OW37297   2.051   0.561   7.605 -0.2602 -0.1103  0.2763
 8554SOL    HW137298   2.072   0.613   7.528  1.5937 -2.4891 -0.8040
 8554SOL    HW237299   2.040   0.475   7.565  0.9734 -0.7728  1.3363
 8555SOL     OW37300   3.077   1.656   2.325 -0.1788 -0.0733 -0.0186
 8555SOL    HW137301   3.003   1.652   2.386 -0.6845  2.3129 -0.4987
 8555SOL    HW237302   3.049   1.602   2.251 -0.0432  1.0468 -0.8747
 8556SOL     OW37303   1.247   4.119   7.769  0.4471 -0.9209  0.6669
 8556SOL    HW137304   1.338   4.102   7.744  1.2511  0.5530  2.5747
 8556SOL    HW237305   1.225   4.184   7.702 -2.5368 -3.9031 -1.2329
 8557SOL     OW37306   0.432   1.436   1.652  0.1194 -0.0562  0.0114
 8557SOL    HW137307   0.420   1.419   1.746 -0.5032  1.5092  0.2146
 8557SOL    HW237308   0.525   1.415   1.642  0.6332  3.0244 -1.5538
 8558SOL     OW37309   4.409   0.499   5.237 -0.3707  0.6760 -0.6665
 8558SOL    HW137310   4.366   0.499   5.152 -1.1376 -3.0430 -0.3055
 8558SOL    HW237311   4.360   0.564   5.286 -2.6689  0.5778 -2.8511
 8559SOL     OW37312   0.559   0.053   3.288  0.2485  0.5683 -0.6024
 8559SOL    HW137313   0.515   0.022   3.209  0.4624 -0.0619 -0.4746
 8559SOL    HW237314   0.571   4.712   3.348 -2.3133  2.5007  2.2808
 8560SOL     OW37315   2.465   1.375   6.938  0.3477 -0.6219 -0.0689
 8560SOL    HW137316   2.469   1.427   7.019  0.4898 -1.5982  0.5565
 8560SOL    HW237317   2.375   1.346   6.930 -0.0964 -0.0796  2.9801
 8561SOL     OW37318   0.283   1.564   9.378 -0.6747  0.5323  0.2746
 8561SOL    HW137319   0.292   1.484   9.429  2.0469 -0.8001 -2.2549
 8561SOL    HW237320   0.368   1.572   9.334  0.3573 -2.3357  1.7369
 8562SOL     OW37321   1.458   2.938   8.017  0.2963  0.5311 -0.4274
 8562SOL    HW137322   1.385   2.999   8.005 -0.2730 -0.4658 -1.9751
 8562SOL    HW237323   1.407   2.890   8.082  0.9004 -0.6269 -0.8261
 8563SOL     OW37324   3.309   2.695  14.680  0.0884 -0.4090 -0.4309
 8563SOL    HW137325   3.404   2.705  14.692 -0.2674 -1.4883  3.0164
 8563SOL    HW237326   3.295   2.777  14.633 -2.1367  0.1041  1.1568
 8564SOL     OW37327   2.260   3.487  14.533 -0.2026  0.3536  0.2784
 8564SOL    HW137328   2.354   3.503  14.521  0.0184 -0.7676  0.5571
 8564SOL    HW237329   2.254   3.419  14.465 -1.6615  2.4726 -1.7174
 8565SOL     OW37330   2.635   1.915   6.889 -0.4618  0.2561  0.7727
 8565SOL    HW137331   2.633   1.954   6.976 -0.9333  0.7964  0.5235
 8565SOL    HW237332   2.662   1.994   6.842  0.0826 -0.6159 -0.3805
 8566SOL     OW37333   3.546   1.095   5.331  0.7915 -0.3704 -0.0036
 8566SOL    HW137334   3.459   1.094   5.369 -0.3325  0.3078 -2.5716
 8566SOL    HW237335   3.519   1.112   5.241  1.4941 -2.7749 -0.6794
 8567SOL     OW37336   2.408   1.259   8.790  0.6561  0.1708  0.0755
 8567SOL    HW137337   2.381   1.194   8.724 -3.7890 -0.8803  2.9468
 8567SOL    HW237338   2.354   1.333   8.762  0.6482 -0.0091 -0.3865
 8568SOL     OW37339   1.051   0.544  11.733 -0.7137 -0.1102 -0.1826
 8568SOL    HW137340   1.072   0.567  11.643 -1.4226  0.2402 -0.2593
 8568SOL    HW237341   1.090   0.621  11.776  1.8793 -1.4595 -0.1286
 8569SOL     OW37342   1.779   3.232   7.278  0.0863  0.1050 -0.5237
 8569SOL    HW137343   1.854   3.175   7.297 -0.7582 -1.0496 -0.6881
 8569SOL    HW237344   1.810   3.279   7.200  2.8976 -2.4604 -0.9582
 8570SOL     OW37345   2.447   0.932   1.527  0.6940  0.0235 -0.2200
 8570SOL    HW137346   2.370   0.900   1.572  1.1459  0.2709  0.7215
 8570SOL    HW237347   2.498   0.934   1.608  1.3495  0.7413 -0.6475
 8571SOL     OW37348   2.961   0.120  11.679 -0.6767  0.1496  0.0331
 8571SOL    HW137349   2.942   0.046  11.621 -1.7266  2.0464 -2.0795
 8571SOL    HW237350   3.054   0.114  11.699 -0.4185 -1.3935 -1.5510
 8572SOL     OW37351   0.358   4.066  17.120 -0.4228  0.0644  0.1093
 8572SOL    HW137352   0.331   4.155  17.143 -2.2246  0.2171 -2.5837
 8572SOL    HW237353   0.406   4.087  17.040  0.3740  2.6787  1.2629
 8573SOL     OW37354   1.031   3.022   7.328 -0.1566 -0.0698  0.0159
 8573SOL    HW137355   1.095   2.986   7.267  0.9038  0.6188  0.7295
 8573SOL    HW237356   1.090   3.070   7.386 -1.0668  0.0932  0.8109
 8574SOL     OW37357   0.912   4.683   3.303 -0.1719 -0.0080  0.3695
 8574SOL    HW137358   1.001   4.718   3.294  0.5645 -1.8224  0.3504
 8574SOL    HW237359   0.888   4.700   3.213  1.5873 -0.7556 -0.2567
 8575SOL     OW37360   4.040   1.995  13.396 -0.0472 -0.2219 -0.6730
 8575SOL    HW137361   4.016   2.082  13.426 -1.2378 -0.3478 -1.2539
 8575SOL    HW237362   3.961   1.947  13.419  0.0563  0.2479  0.6452
 8576SOL     OW37363   4.524   0.294   8.746  0.1874 -0.0073 -0.2794
 8576SOL    HW137364   4.507   0.351   8.821  0.3954 -1.4859  0.8865
 8576SOL    HW237365   4.444   0.243   8.730  0.3351  0.8659 -3.8515
 8577SOL     OW37366   4.631   2.440  12.488 -0.9167  0.2916 -0.6351
 8577SOL    HW137367   4.705   2.386  12.459 -1.5937 -0.0820 -1.6449
 8577SOL    HW237368   4.548   2.409  12.453 -2.1033  0.8299  1.6684
 8578SOL     OW37369   2.743   2.459   9.259 -0.1012  0.0398 -0.4156
 8578SOL    HW137370   2.683   2.398   9.301 -1.9679  2.8606  1.0547
 8578SOL    HW237371   2.784   2.415   9.184 -0.4358 -1.6616  0.4016
 8579SOL     OW37372   4.537   4.678   5.460 -0.3812  0.2754 -0.9475
 8579SOL    HW137373   4.543   4.616   5.533  1.1302  1.7106  0.1425
 8579SOL    HW237374   4.454   4.723   5.476 -0.7207 -0.8377  0.4400
 8580SOL     OW37375   4.684   0.796   2.382  0.0259 -0.5306 -0.1537
 8580SOL    HW137376   4.627   0.737   2.332  0.3504  0.1451 -1.3193
 8580SOL    HW237377   4.621   0.840   2.440  1.3997  0.8669  0.2866
 8581SOL     OW37378   3.079   0.132   2.566 -0.3352  0.6135  0.4059
 8581SOL    HW137379   2.984   0.145   2.569 -0.5444 -0.4658 -1.5952
 8581SOL    HW237380   3.097   0.158   2.476  1.8751 -1.4777  0.2716
 8582SOL     OW37381   3.124   4.246   3.885  0.3017  0.0354  1.1697
 8582SOL    HW137382   3.190   4.273   3.948  1.6104 -1.9580  0.6556
 8582SOL    HW237383   3.061   4.197   3.939 -1.6655  1.6922  0.3917
 8583SOL     OW37384   2.262   1.861  16.347  0.1348 -0.1588  0.2548
 8583SOL    HW137385   2.286   1.777  16.307  0.9292 -0.8712  2.2146
 8583SOL    HW237386   2.348   1.898  16.367  1.5507 -3.4786  0.4777
 8584SOL     OW37387   1.026   2.174   5.440 -0.3214 -0.2159 -0.8752
 8584SOL    HW137388   0.955   2.188   5.377 -2.2348  2.7276  1.9111
 8584SOL    HW237389   1.053   2.083   5.433 -2.2951 -0.7471 -1.5843
 8585SOL     OW37390   4.329   4.041   9.232 -0.3431  1.1242 -0.0252
 8585SOL    HW137391   4.363   4.079   9.151  2.4670 -2.3273 -0.4538
 8585SOL    HW237392   4.405   4.029   9.289  0.1338 -0.1438 -0.9315
 8586SOL     OW37393   1.222   3.619  16.560  0.9521 -0.1268  0.0593
 8586SOL    HW137394   1.258   3.538  16.597  0.7143 -0.4147 -0.3340
 8586SOL    HW237395   1.269   3.696  16.590 -0.2352  0.2428  0.9856
 8587SOL     OW37396   3.895   1.779   0.372  0.0535  0.0033 -0.2359
 8587SOL    HW137397   3.884   1.696   0.325  2.8201 -0.7449  0.4449
 8587SOL    HW237398   3.813   1.823   0.352 -0.3988 -0.5939  0.2689
 8588SOL     OW37399   2.625   2.137   5.632 -0.8119  0.1196  0.9053
 8588SOL    HW137400   2.534   2.166   5.629 -0.7134  0.2669 -0.5023
 8588SOL    HW237401   2.660   2.152   5.544  0.8779 -0.8077  1.4177
 8589SOL     OW37402   1.692   0.903   1.291  0.0694 -0.2274  0.1961
 8589SOL    HW137403   1.784   0.929   1.294  0.1403 -0.6017  1.3350
 8589SOL    HW237404   1.654   0.960   1.357  1.9725  1.6701 -0.3669
 8590SOL     OW37405   1.174   4.350   0.522 -0.9087 -0.0948  0.7799
 8590SOL    HW137406   1.213   4.347   0.609 -1.0612  1.2367  0.8946
 8590SOL    HW237407   1.150   4.443   0.518 -2.3112 -0.4421  1.3515
 8591SOL     OW37408   3.873   3.101  12.754 -0.3723  0.4660  0.5442
 8591SOL    HW137409   3.791   3.056  12.777  0.9283 -1.5776  1.1569
 8591SOL    HW237410   3.854   3.194  12.766 -4.8336 -0.3606  0.2474
 8592SOL     OW37411   2.964   2.685   9.548 -0.0039 -0.0302  0.2484
 8592SOL    HW137412   3.018   2.702   9.472 -0.3706  0.9447  0.1995
 8592SOL    HW237413   3.019   2.612   9.574  1.0774  0.6761 -0.0423
 8593SOL     OW37414   0.909   3.196   7.027 -0.3054 -0.0071  0.2293
 8593SOL    HW137415   0.993   3.216   7.068  0.5036 -1.4496 -0.7550
 8593SOL    HW237416   0.912   3.247   6.945 -1.8121 -1.5382 -0.7765
 8594SOL     OW37417   2.053   0.492  15.569 -0.1086 -0.2246  0.1810
 8594SOL    HW137418   2.079   0.582  15.551  0.3542 -0.3049  0.4295
 8594SOL    HW237419   2.099   0.449  15.497 -1.1245 -0.2924 -0.4238
 8595SOL     OW37420   4.584   1.303  12.695 -0.2336 -0.3658  0.3576
 8595SOL    HW137421   4.514   1.297  12.630 -0.3530 -0.4647  0.4945
 8595SOL    HW237422   4.576   1.218  12.737 -0.1421 -0.9811 -0.8566
 8596SOL     OW37423   0.725   4.150  12.328 -0.4339  0.3321 -0.4453
 8596SOL    HW137424   0.819   4.168  12.334  0.1546 -2.9194  0.1935
 8596SOL    HW237425   0.717   4.137  12.234  3.7624  0.4973 -0.8631
 8597SOL     OW37426   0.008   1.510  12.042 -0.1418 -0.1592 -0.1133
 8597SOL    HW137427   4.665   1.454  12.043 -1.0199  1.0280 -1.2443
 8597SOL    HW237428   0.019   1.521  11.947 -1.2806 -0.3513 -0.2627
 8598SOL     OW37429   1.898   2.675   5.322  0.6265 -0.1537 -0.1608
 8598SOL    HW137430   1.816   2.725   5.324  0.5326 -0.3295  0.6016
 8598SOL    HW237431   1.969   2.736   5.302 -0.1754  0.9011  0.1565
 8599SOL     OW37432   3.708   0.061   5.011 -0.3432  0.7959  0.2554
 8599SOL    HW137433   3.767   4.729   5.048 -0.8052  0.4624  0.3944
 8599SOL    HW237434   3.694   0.117   5.087  1.2542  0.3141  0.8928
 8600SOL     OW37435   4.535   4.548   9.915 -0.3594  0.3375  0.1701
 8600SOL    HW137436   4.450   4.536   9.873  0.0248  1.5932 -0.9558
 8600SOL    HW237437   4.555   4.634   9.878  0.1582 -0.4817 -1.4564
 8601SOL     OW37438   0.337   2.648   6.873 -0.0456 -0.4496  0.0580
 8601SOL    HW137439   0.340   2.586   6.800  0.1728 -2.2390  1.5920
 8601SOL    HW237440   0.290   2.716   6.826  0.1907  0.6373  1.4058
 8602SOL     OW37441   1.089   3.548   0.692 -0.0823  0.8737 -0.3525
 8602SOL    HW137442   1.081   3.589   0.606 -0.9820 -2.3658 -1.8150
 8602SOL    HW237443   1.096   3.614   0.761 -0.1025 -0.4513  0.9189
 8603SOL     OW37444   2.927   3.783   4.523  0.3486  0.7934  0.0839
 8603SOL    HW137445   2.961   3.847   4.587 -1.0595  1.9414 -0.3203
 8603SOL    HW237446   3.011   3.740   4.505  1.0182  1.7496  0.8507
 8604SOL     OW37447   1.469   2.612   6.867  0.2952 -0.0184  0.3493
 8604SOL    HW137448   1.520   2.654   6.798  0.3298  0.4151  0.6427
 8604SOL    HW237449   1.468   2.523   6.830  0.9281  0.0305  0.2177
 8605SOL     OW37450   0.543   2.801   8.260 -0.0273 -0.2590 -0.4954
 8605SOL    HW137451   0.605   2.858   8.214 -1.1245  0.0294 -1.6162
 8605SOL    HW237452   0.463   2.833   8.218 -0.2761  1.0311  0.9886
 8606SOL     OW37453   1.929   3.430   7.108  0.4552  0.1024 -0.1422
 8606SOL    HW137454   1.980   3.428   7.189 -0.3568 -1.9327  0.3411
 8606SOL    HW237455   1.974   3.492   7.051 -1.6586  1.0412 -0.7575
 8607SOL     OW37456   4.546   1.967   1.254 -0.3997  0.0710  0.4790
 8607SOL    HW137457   4.566   1.987   1.346 -0.6582  3.7458 -0.2722
 8607SOL    HW237458   4.487   1.895   1.274  0.0279 -0.9154 -1.8329
 8608SOL     OW37459   3.391   4.182   0.579  0.2461 -0.6269 -0.1401
 8608SOL    HW137460   3.383   4.227   0.495  1.2587 -1.7090 -0.8153
 8608SOL    HW237461   3.350   4.247   0.636  1.3625 -3.2512  3.6608
 8609SOL     OW37462   2.544   0.385   1.923  0.4607 -0.1008 -0.3694
 8609SOL    HW137463   2.627   0.408   1.966  0.3674  0.0958 -0.2935
 8609SOL    HW237464   2.491   0.410   1.999  1.5911 -0.5599  0.5703
 8610SOL     OW37465   0.995   3.176  10.163 -0.2038  0.0470  0.1667
 8610SOL    HW137466   1.013   3.229  10.241 -2.6305 -0.0398  0.7779
 8610SOL    HW237467   0.906   3.150  10.187 -0.5500  0.0983 -1.0570
 8611SOL     OW37468   0.752   0.818   2.094 -0.0773  0.3584  0.2768
 8611SOL    HW137469   0.812   0.783   2.029 -0.0936  0.8444  0.0027
 8611SOL    HW237470   0.667   0.801   2.054 -0.1039 -0.3540  0.6264
 8612SOL     OW37471   0.137   3.238   2.399  0.1415 -0.3649 -0.5030
 8612SOL    HW137472   0.057   3.290   2.395  0.3271  0.0052  0.4277
 8612SOL    HW237473   0.190   3.275   2.470 -2.5774  0.4011  1.1118
 8613SOL     OW37474   0.516   0.310  10.308  0.3590 -0.4630  0.1497
 8613SOL    HW137475   0.521   0.216  10.326  0.6072 -0.1803  1.5877
 8613SOL    HW237476   0.439   0.330  10.362 -0.9815 -1.7318 -1.2523
 8614SOL     OW37477   3.143   0.190   6.767  0.3634 -0.4547  0.3228
 8614SOL    HW137478   3.138   0.276   6.726 -0.5923 -0.3073  0.7521
 8614SOL    HW237479   3.104   0.132   6.701  1.1653  0.5486 -1.0354
 8615SOL     OW37480   4.265   2.135   0.985  0.4170 -0.3945  0.1684
 8615SOL    HW137481   4.287   2.151   0.893  1.0567 -1.5776  0.1137
 8615SOL    HW237482   4.253   2.221   1.025  1.6105 -0.3438  0.4006
 8616SOL     OW37483   1.480   2.528  11.431  0.3356  0.6702  0.0433
 8616SOL    HW137484   1.574   2.530  11.411  0.0861  1.7174 -1.0595
 8616SOL    HW237485   1.488   2.516  11.525  0.9971 -1.5624 -0.3016
 8617SOL     OW37486   3.638   2.871   4.467 -0.1502  0.3903  0.4617
 8617SOL    HW137487   3.643   2.907   4.555  1.4037 -0.3824  0.6953
 8617SOL    HW237488   3.556   2.913   4.440 -0.1490 -1.1260 -1.9981
 8618SOL     OW37489   2.801   2.979  16.512 -0.2566 -0.3559 -0.2166
 8618SOL    HW137490   2.731   2.917  16.491 -0.0292 -0.7121  0.0716
 8618SOL    HW237491   2.814   3.043  16.442  0.4913 -0.5766 -0.2799
 8619SOL     OW37492   2.943   2.075  15.416  0.4002  0.8669  0.0459
 8619SOL    HW137493   2.848   2.087  15.427  0.0785 -1.4163 -0.1587
 8619SOL    HW237494   2.958   2.169  15.403 -0.2280  0.7465 -1.5893
 8620SOL     OW37495   4.196   1.462   9.399 -0.2016  0.1022  0.5612
 8620SOL    HW137496   4.253   1.430   9.469  1.9526  1.6435 -0.4710
 8620SOL    HW237497   4.177   1.550   9.432 -0.6251  0.0529  0.4423
 8621SOL     OW37498   2.542   3.474  15.851 -0.2534  0.1334  0.4321
 8621SOL    HW137499   2.611   3.539  15.851  0.2155 -0.3600  2.0647
 8621SOL    HW237500   2.471   3.525  15.891  0.1049  0.0885  1.1103
 8622SOL     OW37501   3.444   0.544   5.899 -0.8294  0.5917 -0.1014
 8622SOL    HW137502   3.507   0.603   5.940 -0.4957  0.0318  0.1971
 8622SOL    HW237503   3.362   0.594   5.897 -1.2109  0.0020  0.7062
 8623SOL     OW37504   4.507   3.194  17.489 -0.1897  0.2253 -0.5290
 8623SOL    HW137505   4.480   3.134  17.419 -0.9344 -0.4243  0.3178
 8623SOL    HW237506   4.531   3.274  17.442  0.2026 -0.4423 -1.4688
 8624SOL     OW37507   4.169   1.896   0.215  0.2197  0.4273  0.1242
 8624SOL    HW137508   4.088   1.875   0.260  0.5177 -0.9620  0.0088
 8624SOL    HW237509   4.176   1.985   0.250 -0.4782  0.1542  0.9547
 8625SOL     OW37510   0.186   3.718   0.545  0.0962  0.2614 -0.5322
 8625SOL    HW137511   0.226   3.667   0.475 -1.3317 -2.2724  0.5006
 8625SOL    HW237512   0.184   3.654   0.615 -0.3799  1.4264  0.5166
 8626SOL     OW37513   3.692   1.866  11.044  0.4920 -0.2438 -0.5039
 8626SOL    HW137514   3.731   1.822  11.119  0.0237  1.0795  0.5130
 8626SOL    HW237515   3.601   1.835  11.047 -0.0265  1.3297 -0.2526
 8627SOL     OW37516   4.682   2.723  14.113  0.0264  0.0115 -0.6010
 8627SOL    HW137517   4.634   2.714  14.030  0.4334  0.2311 -0.8630
 8627SOL    HW237518   4.676   2.819  14.111 -1.3857 -0.1021 -1.5495
 8628SOL     OW37519   4.131   3.912   2.276  0.0861 -0.3557  0.2675
 8628SOL    HW137520   4.188   3.958   2.214  1.8301 -0.3156  1.9461
 8628SOL    HW237521   4.191   3.861   2.329  0.0637 -1.1884 -0.4959
 8629SOL     OW37522   1.247   3.162   1.189 -0.4161 -0.2669 -0.7983
 8629SOL    HW137523   1.282   3.144   1.276 -1.0982  1.4822 -0.1439
 8629SOL    HW237524   1.195   3.241   1.204 -1.1227 -0.9532  0.3436
 8630SOL     OW37525   0.944   3.591   2.989  0.1717 -0.1725  0.5829
 8630SOL    HW137526   0.942   3.586   2.893  3.5701  2.1156  0.4327
 8630SOL    HW237527   0.891   3.512   3.006 -0.9620  0.6738  0.9685
 8631SOL     OW37528   0.670   0.957   4.061 -0.0336 -0.1737 -0.0402
 8631SOL    HW137529   0.657   0.951   4.156  1.8629  0.0517  0.2305
 8631SOL    HW237530   0.628   0.874   4.039 -2.7838  1.1674  0.2219
 8632SOL     OW37531   3.002   4.669  15.046 -0.2910 -0.0463  0.2578
 8632SOL    HW137532   2.946   4.732  14.999  1.9167  1.5918 -0.1907
 8632SOL    HW237533   2.935   4.613  15.084 -0.5454  0.2609  0.2652
 8633SOL     OW37534   0.758   2.025   5.061 -0.2021 -0.4356  0.2567
 8633SOL    HW137535   0.814   1.961   5.017  1.5776  0.8901  0.5931
 8633SOL    HW237536   0.674   2.008   5.018 -0.3283 -1.6176  0.9671
 8634SOL     OW37537   1.390   4.485   8.938 -0.1654 -0.3371 -0.3470
 8634SOL    HW137538   1.377   4.413   8.999 -1.4094  2.6505  2.8866
 8634SOL    HW237539   1.322   4.481   8.870  0.3054 -1.6367 -0.7542
 8635SOL     OW37540   2.236   3.486   4.168 -0.6801 -0.3101 -0.2274
 8635SOL    HW137541   2.176   3.438   4.225  0.9245 -2.5058 -0.3666
 8635SOL    HW237542   2.314   3.430   4.172 -0.4574 -0.1043 -1.5919
 8636SOL     OW37543   0.128   3.519   9.934 -0.0375 -0.0545 -0.2574
 8636SOL    HW137544   0.160   3.531  10.023 -0.3127  1.3022 -0.3338
 8636SOL    HW237545   0.196   3.563   9.883 -0.9588  1.2494 -0.3863
 8637SOL     OW37546   1.710   1.334  15.222 -0.1522 -0.1092 -0.2312
 8637SOL    HW137547   1.790   1.288  15.196  1.3769  2.3620  0.1353
 8637SOL    HW237548   1.662   1.267  15.270 -0.1510 -0.0334 -0.1262
 8638SOL     OW37549   0.973   3.466   3.529  0.1768 -0.6927  0.2884
 8638SOL    HW137550   1.008   3.411   3.459  1.9282  1.1140 -0.2386
 8638SOL    HW237551   0.935   3.542   3.486  0.2440 -0.2648  0.9784
 8639SOL     OW37552   2.039   0.659  12.737  0.1633  0.2043 -0.2550
 8639SOL    HW137553   2.051   0.698  12.823 -2.8474  1.5999 -0.4393
 8639SOL    HW237554   2.081   0.719  12.676  1.0572 -0.5363 -0.3708
 8640SOL     OW37555   0.891   4.132   5.529  0.3147  0.1864 -0.0450
 8640SOL    HW137556   0.798   4.150   5.519  1.0283  2.9431 -1.6531
 8640SOL    HW237557   0.875   4.038   5.541  1.0278  0.2431  1.3524
 8641SOL     OW37558   1.273   0.545   3.896 -0.5289  0.3957  0.0763
 8641SOL    HW137559   1.215   0.519   3.825  0.5116 -0.6214 -0.4055
 8641SOL    HW237560   1.204   0.571   3.957 -1.2694 -2.1248  0.3127
 8642SOL     OW37561   4.658   3.296   6.574  0.4015  0.0049  0.4492
 8642SOL    HW137562   4.733   3.296   6.515  0.2441 -1.1271  0.2330
 8642SOL    HW237563   4.710   3.319   6.651 -0.0567  0.2788  0.6760
 8643SOL     OW37564   0.243   4.400   5.309  0.7382 -0.2011 -0.3986
 8643SOL    HW137565   0.244   4.419   5.215  0.5063  1.0246 -0.1593
 8643SOL    HW237566   0.177   4.331   5.307 -0.2469  0.6670  1.9432
 8644SOL     OW37567   0.382   3.111   5.295  0.1492  0.7799  0.3931
 8644SOL    HW137568   0.291   3.138   5.291  0.7113  2.1210 -3.3742
 8644SOL    HW237569   0.374   3.039   5.357 -3.2466 -0.2100 -1.1964
 8645SOL     OW37570   3.258   3.162   0.056  0.0200 -0.3841 -0.1525
 8645SOL    HW137571   3.339   3.136   0.012 -0.2612 -1.3703 -0.0750
 8645SOL    HW237572   3.198   3.148  17.717 -0.9661  1.7773  0.2492
 8646SOL     OW37573   2.835   1.501   7.723 -0.6878 -0.2210  0.5851
 8646SOL    HW137574   2.797   1.424   7.681 -0.5034 -0.2602  0.4876
 8646SOL    HW237575   2.799   1.573   7.671  0.0529 -0.5041 -0.3348
 8647SOL     OW37576   1.224   2.678   2.372 -0.3820  0.3131 -0.5234
 8647SOL    HW137577   1.253   2.741   2.307  1.8151 -0.6690 -0.4907
 8647SOL    HW237578   1.279   2.608   2.336  1.6239  1.4564  0.3250
 8648SOL     OW37579   3.590   0.712   8.068  0.3726 -0.3973  0.8756
 8648SOL    HW137580   3.664   0.724   8.127  0.6263  1.2264  0.2369
 8648SOL    HW237581   3.600   0.794   8.019  1.8083 -1.1692 -0.0964
 8649SOL     OW37582   3.523   0.996  14.275  0.2894  0.2192 -0.5336
 8649SOL    HW137583   3.569   0.940  14.337  0.0634 -0.4259 -0.9468
 8649SOL    HW237584   3.535   0.942  14.197 -1.2988 -0.0652 -0.5922
 8650SOL     OW37585   1.009   2.903  11.564  0.4228  0.4912  0.5812
 8650SOL    HW137586   0.984   2.867  11.649  0.2067 -0.4370  0.1228
 8650SOL    HW237587   1.051   2.834  11.513 -0.4232 -0.0610  0.6429
 8651SOL     OW37588   2.541   1.787   1.108  0.5289  0.4416 -0.5225
 8651SOL    HW137589   2.511   1.856   1.049 -2.4107 -1.9242 -1.7940
 8651SOL    HW237590   2.626   1.825   1.130  0.8579 -0.3795 -0.3619
 8652SOL     OW37591   2.901   3.889   5.619  0.0415  0.1076  0.2033
 8652SOL    HW137592   2.993   3.911   5.603  0.4756 -0.9677  1.2082
 8652SOL    HW237593   2.858   3.973   5.604  0.7671  0.5002  0.3092
 8653SOL     OW37594   2.036   4.667   2.075  0.3440  0.1532 -0.3449
 8653SOL    HW137595   2.089   0.013   2.074  0.0653  0.3484  0.4539
 8653SOL    HW237596   1.950   4.703   2.096  0.5347  1.8273 -2.4955
 8654SOL     OW37597   2.061   4.148   1.127  0.3915  1.4676 -0.2599
 8654SOL    HW137598   2.140   4.094   1.138  0.6731  1.7485 -0.9522
 8654SOL    HW237599   1.987   4.101   1.165 -0.0530  2.3985  0.0255
 8655SOL     OW37600   2.556   1.462   4.586  0.2628  0.0645  0.1545
 8655SOL    HW137601   2.614   1.446   4.660 -0.7601 -1.5347  0.6296
 8655SOL    HW237602   2.605   1.412   4.520 -0.2474 -3.6741  2.5760
 8656SOL     OW37603   4.547   4.361   2.261 -0.3540 -0.3275  0.6113
 8656SOL    HW137604   4.561   4.456   2.265  2.2866 -0.7424  1.4022
 8656SOL    HW237605   4.461   4.357   2.220 -0.4846  2.0880  0.6438
 8657SOL     OW37606   4.147   4.629   7.489  0.0550 -0.7805  0.2713
 8657SOL    HW137607   4.219   4.569   7.469 -0.0056 -1.2127  1.3147
 8657SOL    HW237608   4.166   4.714   7.450 -0.3947 -1.0959 -0.6355
 8658SOL     OW37609   4.224   2.689   8.420 -0.2668  0.7099 -0.2707
 8658SOL    HW137610   4.206   2.650   8.335 -1.1442 -2.0835  1.2008
 8658SOL    HW237611   4.184   2.627   8.481  1.2602  1.0145  1.0500
 8659SOL     OW37612   0.625   2.568   6.231  0.1263 -0.5357  0.5531
 8659SOL    HW137613   0.702   2.624   6.221 -1.0028  1.5819  3.7919
 8659SOL    HW237614   0.570   2.580   6.153  0.7092  3.2186  0.7356
 8660SOL     OW37615   3.418   3.194   2.577  0.5662  0.3343  0.3768
 8660SOL    HW137616   3.438   3.147   2.496 -2.9115 -0.7711  0.1304
 8660SOL    HW237617   3.398   3.122   2.637 -0.0962 -2.0351 -2.6695
 8661SOL     OW37618   3.123   0.991   4.478  0.0981  0.3046  0.6130
 8661SOL    HW137619   3.061   1.017   4.546 -1.0593 -0.6711 -0.0890
 8661SOL    HW237620   3.169   1.073   4.459  0.3516  0.2452  0.9642
 8662SOL     OW37621   0.172   0.858   7.623  0.1936 -0.3688 -0.0646
 8662SOL    HW137622   0.222   0.893   7.549  1.1691 -1.4698  0.0711
 8662SOL    HW237623   0.121   0.793   7.573 -1.1669  0.6595 -0.0213
 8663SOL     OW37624   1.631   2.339   6.994 -0.0951  0.1204  0.2599
 8663SOL    HW137625   1.620   2.251   6.959 -0.2719  0.4782 -0.5792
 8663SOL    HW237626   1.665   2.380   6.915  1.1254  0.0824  0.7659
 8664SOL     OW37627   1.182   4.063   0.584 -0.3565 -0.5810 -0.0666
 8664SOL    HW137628   1.197   4.106   0.668 -1.3679  1.7230 -1.0721
 8664SOL    HW237629   1.228   4.130   0.535 -1.0298 -0.6826 -0.8319
 8665SOL     OW37630   1.280   0.193   4.925 -0.0747 -0.6678  0.0791
 8665SOL    HW137631   1.358   0.155   4.965  0.9712  0.1363 -1.1855
 8665SOL    HW237632   1.315   0.220   4.839 -0.2505  0.5548  0.3824
 8666SOL     OW37633   0.602   4.149   2.436  0.7433 -0.2593 -0.1882
 8666SOL    HW137634   0.585   4.067   2.482  0.0947 -0.8021 -1.3997
 8666SOL    HW237635   0.541   4.145   2.362 -1.2509 -0.9088  1.4838
 8667SOL     OW37636   2.844   4.529  15.198  0.3482 -0.1359  0.1274
 8667SOL    HW137637   2.885   4.531  15.285  1.0776  0.9825 -0.2377
 8667SOL    HW237638   2.759   4.562  15.226  0.3313 -1.4436  1.5881
 8668SOL     OW37639   2.412   2.015   4.418 -0.0087 -0.6616 -0.1483
 8668SOL    HW137640   2.369   2.049   4.340  0.6507 -2.5995 -1.3432
 8668SOL    HW237641   2.505   2.024   4.397  0.3938 -1.0946  1.4336
 8669SOL     OW37642   3.410   0.154   1.888 -0.2845  0.0917 -0.4020
 8669SOL    HW137643   3.376   0.092   1.823 -1.6301  0.6365 -0.2225
 8669SOL    HW237644   3.503   0.136   1.895 -0.2311  0.6461  0.3430
 8670SOL     OW37645   4.333   1.494   9.825 -0.1017 -0.6969  0.4232
 8670SOL    HW137646   4.243   1.483   9.855 -0.8975 -0.7045 -1.9701
 8670SOL    HW237647   4.338   1.440   9.747  1.3131 -1.3535  0.9684
 8671SOL     OW37648   2.211   0.938   4.140 -0.0658  0.3040  0.5133
 8671SOL    HW137649   2.239   0.940   4.231  1.7818  0.6429 -0.0567
 8671SOL    HW237650   2.264   0.869   4.100  0.4713  0.8521  0.2740
 8672SOL     OW37651   4.266   1.908   8.261 -0.2708 -0.2736  0.1979
 8672SOL    HW137652   4.173   1.920   8.243  0.2446  1.3271 -1.4229
 8672SOL    HW237653   4.263   1.893   8.355  0.0671  1.6884  0.5356
 8673SOL     OW37654   0.461   0.602  10.227 -0.0223 -0.1460  0.3987
 8673SOL    HW137655   0.400   0.540  10.186 -1.3367  0.4317  1.5100
 8673SOL    HW237656   0.540   0.592  10.173  0.6424  0.7448  1.2028
 8674SOL     OW37657   4.304   1.664   7.843  0.0028 -0.1440  0.1962
 8674SOL    HW137658   4.371   1.610   7.885  0.8663 -0.5409 -1.7253
 8674SOL    HW237659   4.244   1.603   7.801 -0.2733 -0.6708  1.3647
 8675SOL     OW37660   1.568   1.413   7.806 -0.0161  0.3127  0.2355
 8675SOL    HW137661   1.533   1.377   7.888  0.6537 -0.2281  0.2798
 8675SOL    HW237662   1.495   1.475   7.797 -1.7106 -1.7991 -0.6553
 8676SOL     OW37663   0.062   4.046   8.794  0.7708  0.3395  0.3566
 8676SOL    HW137664   0.056   4.047   8.698 -1.6034  2.0026  0.5150
 8676SOL    HW237665   0.035   4.134   8.820  1.0261  0.9581 -1.4597
 8677SOL     OW37666   2.597   4.691  14.990  0.0692 -0.5909  0.0700
 8677SOL    HW137667   2.669   0.021  14.991 -0.9265  0.5668 -1.3144
 8677SOL    HW237668   2.592   4.674  15.084 -0.0300  1.3937  0.4329
 8678SOL     OW37669   1.550   3.983   0.368  0.1896  0.0585 -0.4618
 8678SOL    HW137670   1.519   4.052   0.427  0.1153 -0.0304 -0.3971
 8678SOL    HW237671   1.526   4.020   0.284  2.2942  2.3801 -0.0638
 8679SOL     OW37672   0.925   3.618   2.738  0.0510 -0.1225 -0.2211
 8679SOL    HW137673   0.944   3.686   2.674 -0.3340  0.3565  0.1747
 8679SOL    HW237674   0.878   3.554   2.685  0.4170 -2.2576  2.0249
 8680SOL     OW37675   3.250   3.866   0.106  0.0766  0.4696  0.0892
 8680SOL    HW137676   3.280   3.786   0.149 -0.6237  1.7505  2.9887
 8680SOL    HW237677   3.297   3.862   0.024 -0.4453 -0.9753 -0.1372
 8681SOL     OW37678   3.509   3.138  13.270  0.6386  0.3755  0.0580
 8681SOL    HW137679   3.431   3.124  13.216  1.4241 -3.3216 -0.1346
 8681SOL    HW237680   3.467   3.185  13.341  0.5977  0.5190 -0.0617
 8682SOL     OW37681   2.744   0.921  10.943  0.0754 -0.1059  0.4855
 8682SOL    HW137682   2.832   0.942  10.913 -0.4476  1.3687 -0.0148
 8682SOL    HW237683   2.692   1.001  10.934 -0.4521 -0.5274 -0.2278
 8683SOL     OW37684   1.106   0.096   1.158 -0.9638  0.1793 -0.0063
 8683SOL    HW137685   1.162   0.171   1.177  1.6404 -2.0129  0.9604
 8683SOL    HW237686   1.085   0.065   1.246  0.6663  0.9307  0.6446
 8684SOL     OW37687   2.853   4.073   7.854  0.5238  0.3578 -0.0425
 8684SOL    HW137688   2.911   4.006   7.891  1.0693  0.6654 -0.3423
 8684SOL    HW237689   2.853   4.035   7.766  1.6194  0.0636  0.0817
 8685SOL     OW37690   2.737   4.282   0.806 -0.7118 -0.0062  0.1850
 8685SOL    HW137691   2.796   4.288   0.731 -1.1082  0.3582 -0.0996
 8685SOL    HW237692   2.651   4.296   0.766 -1.3651 -0.2924  1.5051
 8686SOL     OW37693   3.887   1.682   1.979 -0.3342 -0.1842 -0.0340
 8686SOL    HW137694   3.863   1.726   1.897  1.4873 -0.4948 -0.7476
 8686SOL    HW237695   3.949   1.619   1.943 -0.8170  0.0369 -1.2697
 8687SOL     OW37696   3.883   2.073   8.402  0.0395  0.1744 -0.4732
 8687SOL    HW137697   3.880   1.989   8.356 -2.0852  0.9003 -1.6828
 8687SOL    HW237698   3.792   2.103   8.401  0.6983  2.2386  0.3128
 8688SOL     OW37699   1.628   3.926   4.897  0.1926 -0.4136  0.1384
 8688SOL    HW137700   1.667   3.986   4.833 -0.4726 -1.6652 -1.4343
 8688SOL    HW237701   1.603   3.991   4.962  1.1220 -0.5183  0.6077
 8689SOL     OW37702   4.679   1.249   5.763 -0.0580  1.2194 -0.2393
 8689SOL    HW137703   4.609   1.310   5.738 -0.1659  1.6925  1.1807
 8689SOL    HW237704   4.701   1.285   5.849 -0.6930  0.1505  0.3722
 8690SOL     OW37705   3.801   3.164  11.106  0.7834  0.6349  0.0694
 8690SOL    HW137706   3.827   3.093  11.047  0.7221  1.1863 -0.6236
 8690SOL    HW237707   3.824   3.116  11.185  0.3895  0.9870  0.4013
 8691SOL     OW37708   0.096   1.973   5.445  0.2143  0.1253  0.4451
 8691SOL    HW137709   0.037   2.046   5.431  2.6914  1.8158 -1.0555
 8691SOL    HW237710   0.175   2.010   5.405 -0.8553  0.2851 -1.4795
 8692SOL     OW37711   3.745   3.077   5.540 -0.5645  0.2514 -0.0082
 8692SOL    HW137712   3.690   3.153   5.556 -2.2173 -1.4634  2.4007
 8692SOL    HW237713   3.736   3.018   5.615  1.0704 -0.0542 -0.0413
 8693SOL     OW37714   3.187   2.527   3.919 -0.0677 -0.0031  0.0674
 8693SOL    HW137715   3.213   2.559   4.005  0.8326  3.4935 -1.5043
 8693SOL    HW237716   3.132   2.450   3.937  2.2656 -1.4416  1.1149
 8694SOL     OW37717   2.680   1.316   4.377  0.1453  0.0794 -0.2827
 8694SOL    HW137718   2.631   1.238   4.352  0.5988 -1.1875  2.7899
 8694SOL    HW237719   2.736   1.337   4.302 -1.1152  1.6608 -0.7760
 8695SOL     OW37720   1.432   3.244   6.758 -0.4207  0.2146 -0.3670
 8695SOL    HW137721   1.370   3.310   6.790  0.9284  0.8721  0.9037
 8695SOL    HW237722   1.501   3.301   6.723  2.0031 -1.2649  1.9992
 8696SOL     OW37723   0.772   1.696   1.663 -0.2530 -0.1258 -0.4301
 8696SOL    HW137724   0.810   1.611   1.644  0.6856 -0.6737  3.7469
 8696SOL    HW237725   0.794   1.710   1.755 -1.1436  0.1200 -0.2505
 8697SOL     OW37726   0.344   4.446  11.352  0.5424  0.0017 -0.0281
 8697SOL    HW137727   0.414   4.436  11.287 -0.9774 -0.6982 -1.5438
 8697SOL    HW237728   0.275   4.456  11.286  1.0925 -0.4130 -0.6619
 8698SOL     OW37729   0.325   1.659  14.219 -0.4432  0.0114  0.2851
 8698SOL    HW137730   0.288   1.654  14.130 -0.3842  1.5124  0.1715
 8698SOL    HW237731   0.350   1.750  14.231  1.6046 -0.4922 -0.1777
 8699SOL     OW37732   1.402   0.051  11.084  0.4024 -0.3779 -0.1585
 8699SOL    HW137733   1.361   4.699  11.075  0.3007 -0.1065 -2.2306
 8699SOL    HW237734   1.468   0.031  11.151 -0.5455 -1.2236  0.5192
 8700SOL     OW37735   0.163   3.693   5.194 -0.2673  0.3491 -0.1376
 8700SOL    HW137736   0.198   3.759   5.133  1.4733 -0.6509 -0.2192
 8700SOL    HW237737   0.078   3.676   5.153 -0.1800 -0.7255  0.1310
 8701SOL     OW37738   3.503   2.724   5.063  0.2123 -0.3523  0.1556
 8701SOL    HW137739   3.483   2.801   5.010  0.0077  0.5809  1.6090
 8701SOL    HW237740   3.564   2.772   5.119 -2.6959  2.5968  0.8169
 8702SOL     OW37741   2.897   4.570   4.093 -0.5818 -0.3989  0.1839
 8702SOL    HW137742   2.832   4.537   4.155 -0.3055 -1.5796 -0.1524
 8702SOL    HW237743   2.960   4.498   4.088  0.7007  0.7296  0.2888
 8703SOL     OW37744   1.777   4.397   2.765 -0.3322  0.0184  0.0228
 8703SOL    HW137745   1.855   4.349   2.737  0.9778  2.5382 -0.6303
 8703SOL    HW237746   1.784   4.487   2.732 -0.5056 -0.0517 -0.2012
 8704SOL     OW37747   0.072   1.027   2.245 -0.0973  0.0671  0.1326
 8704SOL    HW137748   0.015   0.952   2.260  0.1442  0.0054  0.7493
 8704SOL    HW237749   0.047   1.067   2.329  2.9515  0.7081  0.7260
 8705SOL     OW37750   4.621   2.202   9.333  0.1747  0.0822 -0.2806
 8705SOL    HW137751   4.696   2.261   9.346  0.5937 -1.0011  2.3056
 8705SOL    HW237752   4.570   2.230   9.409 -0.2798  0.0305 -0.5692
 8706SOL     OW37753   1.781   1.671   1.748 -0.1389 -0.3124 -0.1873
 8706SOL    HW137754   1.713   1.723   1.790  0.6575  0.4662  0.1369
 8706SOL    HW237755   1.757   1.662   1.655 -1.4557 -0.6494  0.1859
 8707SOL     OW37756   3.864   0.665   2.251 -0.3660 -0.0350  0.6218
 8707SOL    HW137757   3.885   0.709   2.333 -1.0225  1.8993 -0.2475
 8707SOL    HW237758   3.792   0.723   2.225  1.0738  0.6523 -1.8487
 8708SOL     OW37759   3.714   4.093  14.385 -0.9438 -0.1621  0.1492
 8708SOL    HW137760   3.750   4.024  14.329 -0.3678  1.3015 -1.2630
 8708SOL    HW237761   3.798   4.131  14.410 -0.6668 -0.7504  0.1175
 8709SOL     OW37762   1.630   0.049  10.528  0.0620  0.4581 -0.7637
 8709SOL    HW137763   1.712   0.000  10.522  0.4298  0.6793  2.2517
 8709SOL    HW237764   1.659   0.140  10.521  0.5032  0.1766 -2.5711
 8710SOL     OW37765   3.142   0.697  17.464  0.1425  0.6123 -0.4717
 8710SOL    HW137766   3.176   0.651  17.387 -1.8463 -0.1067 -0.9278
 8710SOL    HW237767   3.050   0.673  17.457 -0.1342  1.5067  0.2502
 8711SOL     OW37768   1.867   1.526   2.428  0.1404 -0.1061  0.7012
 8711SOL    HW137769   1.802   1.512   2.497  0.7711  0.6633  1.4576
 8711SOL    HW237770   1.866   1.434   2.404  0.4509  0.4243 -1.3464
 8712SOL     OW37771   1.811   4.534   1.616  0.2788 -0.2682 -0.2251
 8712SOL    HW137772   1.885   4.575   1.573 -0.2815  2.2575  1.2447
 8712SOL    HW237773   1.772   4.606   1.664  5.3056  2.8712 -0.9205
 8713SOL     OW37774   2.608   2.005   6.154  0.5576 -0.1516 -0.0999
 8713SOL    HW137775   2.680   1.973   6.208  0.6683  0.1809 -0.0519
 8713SOL    HW237776   2.623   2.095   6.126 -1.5940  0.1797 -0.1947
 8714SOL     OW37777   4.378   1.230   4.347  0.4463  0.1174  0.3524
 8714SOL    HW137778   4.305   1.211   4.405  0.7388  2.2680  1.4306
 8714SOL    HW237779   4.446   1.253   4.409 -0.5571  1.6023  0.9103
 8715SOL     OW37780   1.348   3.158   3.463 -0.5188  0.4868  0.0167
 8715SOL    HW137781   1.354   3.158   3.559  0.3888  1.0485 -0.0369
 8715SOL    HW237782   1.264   3.115   3.450  0.7618 -1.8458 -0.4947
 8716SOL     OW37783   1.233   1.137   9.524 -0.2806  0.0751 -0.4606
 8716SOL    HW137784   1.279   1.098   9.599 -1.1682  1.3077  0.7204
 8716SOL    HW237785   1.279   1.098   9.449  1.3192 -0.9620  1.0490
 8717SOL     OW37786   1.584   0.890   3.485 -0.3882  0.6788  0.0363
 8717SOL    HW137787   1.644   0.962   3.503  0.5173 -0.6674  2.3327
 8717SOL    HW237788   1.513   0.940   3.443 -0.2478  0.6304 -0.2621
 8718SOL     OW37789   1.573   3.424   3.514  0.1482 -0.0285  0.2376
 8718SOL    HW137790   1.624   3.388   3.587 -0.0828 -0.2991  0.2655
 8718SOL    HW237791   1.630   3.390   3.445 -0.2555  2.1533 -1.1580
 8719SOL     OW37792   4.467   4.365   9.125  0.3887  0.0748  0.0423
 8719SOL    HW137793   4.487   4.458   9.114  1.0773  0.0349  0.9557
 8719SOL    HW237794   4.437   4.357   9.215  1.9656  0.3952  0.5942
 8720SOL     OW37795   0.592   2.090   2.920  0.7198 -0.1235  0.0629
 8720SOL    HW137796   0.526   2.113   2.986 -0.8505 -2.9561 -0.5339
 8720SOL    HW237797   0.535   2.039   2.864  1.7941 -2.2108  0.8638
 8721SOL     OW37798   3.931   1.874   3.888 -0.5142  0.2352 -0.2959
 8721SOL    HW137799   3.904   1.782   3.893  1.0468 -0.3162 -1.6676
 8721SOL    HW237800   3.965   1.894   3.975  0.1361 -2.0512 -0.0274
 8722SOL     OW37801   2.136   3.207   2.775  0.6196  0.7486  0.3016
 8722SOL    HW137802   2.231   3.194   2.768  0.2070 -1.1999 -1.7684
 8722SOL    HW237803   2.124   3.296   2.742 -2.0404  0.3126  0.0955
 8723SOL     OW37804   4.271   0.890   8.992  0.0901 -0.3570  0.4463
 8723SOL    HW137805   4.334   0.942   8.941 -0.0018 -0.9077 -0.2335
 8723SOL    HW237806   4.293   0.922   9.079  0.0994 -0.7750  0.6000
 8724SOL     OW37807   2.244   3.856   8.530  0.9113  0.1382 -0.2985
 8724SOL    HW137808   2.232   3.766   8.498  3.0591 -0.1031 -0.4420
 8724SOL    HW237809   2.189   3.911   8.474  3.3087  0.2847 -2.5097
 8725SOL     OW37810   0.944   4.393   3.908  0.1253  0.5057 -0.0718
 8725SOL    HW137811   1.024   4.433   3.942  0.6228  1.2276 -2.0880
 8725SOL    HW237812   0.968   4.352   3.825 -1.4806 -1.2926  0.3344
 8726SOL     OW37813   3.313   1.818   9.542  0.5411  0.1042  0.1266
 8726SOL    HW137814   3.287   1.868   9.465 -1.3247  0.4075  0.9406
 8726SOL    HW237815   3.241   1.846   9.599 -0.1295 -1.5896  0.1379
 8727SOL     OW37816   0.799   2.885   8.079  0.3994 -0.2012 -0.3044
 8727SOL    HW137817   0.862   2.849   8.140 -0.7478 -2.1822 -0.3043
 8727SOL    HW237818   0.775   2.965   8.126  1.4469 -1.1747  1.8691
 8728SOL     OW37819   3.446   2.388   7.430  0.3153 -0.0976 -0.3147
 8728SOL    HW137820   3.451   2.477   7.395  0.7036 -0.0456 -0.1185
 8728SOL    HW237821   3.370   2.363   7.378 -0.1014 -2.0378  1.2418
 8729SOL     OW37822   1.032   3.620  10.037  0.6405  0.3652  0.1064
 8729SOL    HW137823   0.973   3.608  10.112  0.4974  0.1101 -0.0475
 8729SOL    HW237824   0.982   3.582   9.965  0.4179  0.3020  0.2952
 8730SOL     OW37825   0.760   4.451   2.016  0.3974 -0.0905  0.1626
 8730SOL    HW137826   0.712   4.514   1.964 -0.3540 -1.4601 -0.7987
 8730SOL    HW237827   0.796   4.388   1.954  4.1983  1.9733  0.2349
 8731SOL     OW37828   2.611   4.209   2.973  0.2422  0.5528  0.1228
 8731SOL    HW137829   2.530   4.189   3.021 -0.9579  1.6708 -1.4159
 8731SOL    HW237830   2.607   4.305   2.971 -0.7869  0.5168  0.0835
 8732SOL     OW37831   1.633   1.611   6.494  0.2921  0.2433 -0.8164
 8732SOL    HW137832   1.547   1.583   6.461 -1.0272  2.0157  1.0556
 8732SOL    HW237833   1.684   1.554   6.437 -3.0429 -2.2637 -1.3315
 8733SOL     OW37834   2.211   1.195   5.105  0.2430  0.1652 -0.0175
 8733SOL    HW137835   2.203   1.101   5.094 -0.0246  0.3528 -1.4163
 8733SOL    HW237836   2.226   1.200   5.200 -0.4080 -1.0862  0.1372
 8734SOL     OW37837   4.275   1.292   1.747  0.2063  0.1584 -0.1690
 8734SOL    HW137838   4.356   1.254   1.781  0.8187 -0.6687 -2.5776
 8734SOL    HW237839   4.219   1.216   1.729 -1.8601  1.4702  0.6579
 8735SOL     OW37840   3.147   1.390   5.080 -0.3607  0.7421  0.2962
 8735SOL    HW137841   3.142   1.379   5.175 -3.3337  0.6987  0.1170
 8735SOL    HW237842   3.167   1.483   5.072  1.8709  0.0962 -1.9640
 8736SOL     OW37843   4.491   2.385  13.550 -0.0885 -0.0741 -0.0375
 8736SOL    HW137844   4.566   2.429  13.510 -1.1603 -0.4795 -2.5040
 8736SOL    HW237845   4.453   2.459  13.597  2.2958  1.4462 -0.5183
 8737SOL     OW37846   4.671   0.875   7.387 -0.2255 -0.5756  0.4002
 8737SOL    HW137847   4.682   0.966   7.359  0.2202 -0.7913 -0.1432
 8737SOL    HW237848   0.001   0.824   7.337 -0.5865 -0.3053 -0.3428
 8738SOL     OW37849   1.133   4.250  11.246  0.3060 -0.0222 -0.0741
 8738SOL    HW137850   1.095   4.311  11.181 -0.9146  0.7255  1.3339
 8738SOL    HW237851   1.183   4.191  11.190  0.3573  0.3716 -0.4501
 8739SOL     OW37852   1.748   1.668  13.024  0.0147  0.1607  0.2428
 8739SOL    HW137853   1.718   1.709  13.106  0.1714 -0.3523  0.5599
 8739SOL    HW237854   1.670   1.621  12.995 -0.0281 -1.3259  2.8115
 8740SOL     OW37855   4.341   1.332   9.609 -0.4666 -0.0971  0.0752
 8740SOL    HW137856   4.336   1.238   9.630 -1.9953  0.0770  0.4426
 8740SOL    HW237857   4.436   1.340   9.600 -0.5453  0.5047 -0.2108
 8741SOL     OW37858   3.504   3.404  17.378 -0.1266 -0.2230 -0.1445
 8741SOL    HW137859   3.590   3.411  17.337  1.1980  0.4300  2.7018
 8741SOL    HW237860   3.545   3.458  17.447 -2.3562  0.0036  1.0009
 8742SOL     OW37861   1.274   1.115   4.050 -0.4286 -0.4518  0.3172
 8742SOL    HW137862   1.355   1.094   4.003 -0.5340 -0.0376 -0.0526
 8742SOL    HW237863   1.212   1.043   4.039 -1.1930  0.6229 -2.5377
 8743SOL     OW37864   1.696   1.798   2.779  0.0572  0.3238  0.5782
 8743SOL    HW137865   1.745   1.879   2.796  1.0872 -0.2024  0.1192
 8743SOL    HW237866   1.704   1.808   2.684 -1.2756  0.0143  0.4362
 8744SOL     OW37867   0.448   3.553  12.432 -0.0741  0.6256 -0.3462
 8744SOL    HW137868   0.496   3.501  12.368 -0.9814  0.5247 -0.9460
 8744SOL    HW237869   0.484   3.526  12.517  0.6258 -0.2047 -0.9126
 8745SOL     OW37870   1.099   0.279   8.120 -0.1794  0.2120 -0.7439
 8745SOL    HW137871   1.025   0.265   8.179  0.5526 -0.2977  0.0538
 8745SOL    HW237872   1.115   0.372   8.137 -0.5006  0.1665 -0.1559
 8746SOL     OW37873   3.636   0.156  15.872 -0.1889  0.4166  0.4654
 8746SOL    HW137874   3.731   0.146  15.871 -0.2440 -0.1302  0.6998
 8746SOL    HW237875   3.612   0.160  15.779 -0.4029  3.5983  0.6581
 8747SOL     OW37876   4.137   1.019   7.151 -0.0593 -0.9001 -0.3983
 8747SOL    HW137877   4.116   0.982   7.065 -0.2641 -0.4822 -0.5266
 8747SOL    HW237878   4.225   1.055   7.143 -1.1862  2.0153  0.4952
 8748SOL     OW37879   2.946   2.890   9.053  0.2964 -0.7667  0.4124
 8748SOL    HW137880   2.916   2.826   9.118  1.3154 -0.5453  1.0974
 8748SOL    HW237881   2.891   2.856   8.981 -0.8112 -0.3891  1.0883
 8749SOL     OW37882   1.530   4.584   5.314  0.2948  0.8488 -0.3278
 8749SOL    HW137883   1.607   4.609   5.364  1.8442 -0.3961 -2.1221
 8749SOL    HW237884   1.481   4.554   5.391 -2.1388 -0.2864 -2.2943
 8750SOL     OW37885   4.574   3.199   2.602  0.3162 -0.2354  0.1159
 8750SOL    HW137886   4.552   3.172   2.513  3.0477  1.2156 -1.0126
 8750SOL    HW237887   4.505   3.168   2.660 -0.2572  2.0850  0.6724
 8751SOL     OW37888   1.763   3.643  15.986  0.1950 -0.9018 -0.2122
 8751SOL    HW137889   1.703   3.708  16.022  0.5425 -0.4342 -0.4750
 8751SOL    HW237890   1.773   3.679  15.898  2.7753 -0.6987  0.1452
 8752SOL     OW37891   1.966   1.127   2.751  0.5176  0.3949 -0.0747
 8752SOL    HW137892   1.903   1.180   2.703  0.6141 -0.1721 -0.8230
 8752SOL    HW237893   1.929   1.039   2.742 -1.8406  1.5096 -1.4606
 8753SOL     OW37894   0.045   3.773   7.814 -0.5341  0.4125  0.4768
 8753SOL    HW137895   4.720   3.703   7.842  1.1247  0.2686  3.6362
 8753SOL    HW237896   0.121   3.749   7.867  0.3608 -0.7102 -1.3222
 8754SOL     OW37897   0.909   4.634   8.386  0.4750 -0.0006 -0.3595
 8754SOL    HW137898   1.002   4.617   8.368  0.8144  0.9565  0.5241
 8754SOL    HW237899   0.887   4.714   8.339  2.0765  1.1771  0.9432
 8755SOL     OW37900   4.591   0.655   5.649  0.0804 -0.2116  0.3293
 8755SOL    HW137901   4.675   0.612   5.637  1.2529  2.5656 -1.3333
 8755SOL    HW237902   4.586   0.661   5.744 -3.4832 -0.7142  0.1688
 8756SOL     OW37903   3.505   2.896   7.970 -0.0860 -0.1443 -0.0126
 8756SOL    HW137904   3.415   2.864   7.976 -0.0325  0.0327  1.7053
 8756SOL    HW237905   3.519   2.947   8.050  0.9853  0.9984 -0.9225
 8757SOL     OW37906   2.737   3.237  15.779  0.2849  0.1293  0.3650
 8757SOL    HW137907   2.683   3.312  15.806  0.4944 -0.0324  1.2293
 8757SOL    HW237908   2.767   3.259  15.691  0.8441  0.0021  0.5243
 8758SOL     OW37909   2.160   4.544   7.541  0.9649  0.2229 -0.2641
 8758SOL    HW137910   2.114   4.476   7.492 -0.4238 -0.7450  2.3647
 8758SOL    HW237911   2.103   4.621   7.542 -0.4073 -0.7919  0.1209
 8759SOL     OW37912   3.997   0.302   4.533  0.6713 -0.4480 -0.0577
 8759SOL    HW137913   4.048   0.255   4.599  0.0395  1.2357  1.6131
 8759SOL    HW237914   3.912   0.258   4.539  1.8259 -2.6720  0.0675
 8760SOL     OW37915   1.242   2.566   8.356  0.1975  0.2051  0.3880
 8760SOL    HW137916   1.184   2.609   8.418  0.4246  0.5857  0.3350
 8760SOL    HW237917   1.322   2.581   8.406  0.3681  1.2528 -0.2084
 8761SOL     OW37918   0.779   3.722   0.771 -0.1429  0.7433  0.4692
 8761SOL    HW137919   0.741   3.691   0.688 -0.8537 -0.6244  1.3198
 8761SOL    HW237920   0.736   3.663   0.833 -1.0417 -0.3119 -1.1456
 8762SOL     OW37921   1.757   4.709   4.744 -0.4741  0.3199  0.6989
 8762SOL    HW137922   1.792   4.681   4.659 -2.9402 -1.4641  0.2501
 8762SOL    HW237923   1.811   4.657   4.804 -0.7502 -0.4633  0.2813
 8763SOL     OW37924   2.059   3.155   7.482  0.1672  0.2228  0.1670
 8763SOL    HW137925   2.137   3.100   7.481 -0.7053 -0.9603 -2.4160
 8763SOL    HW237926   2.015   3.124   7.402 -2.1899  2.2410  0.6578
 8764SOL     OW37927   0.918   2.310   7.004  0.6501  0.0926 -0.2934
 8764SOL    HW137928   0.894   2.217   7.013  0.2359  0.4534  2.3020
 8764SOL    HW237929   0.864   2.338   6.930  0.4672 -0.4778 -0.3743
 8765SOL     OW37930   0.249   2.142   4.957 -0.3095 -0.0200  0.1474
 8765SOL    HW137931   0.196   2.119   5.033 -0.8309  0.6465 -0.0159
 8765SOL    HW237932   0.302   2.215   4.989  3.9324 -3.9712  2.1611
 8766SOL     OW37933   1.154   0.884  17.119  0.5613 -0.3591 -0.1700
 8766SOL    HW137934   1.199   0.962  17.154  1.5520 -0.4512 -1.2299
 8766SOL    HW237935   1.197   0.821  17.176  0.8856  1.0129  1.1170
 8767SOL     OW37936   0.344   0.379   4.430  0.2196  0.2605  0.3685
 8767SOL    HW137937   0.341   0.284   4.439  0.6697  0.2972  0.9067
 8767SOL    HW237938   0.434   0.400   4.403 -0.3059  0.5621 -1.1248
 8768SOL     OW37939   4.302   2.298  17.133  0.5090 -0.0452 -0.7227
 8768SOL    HW137940   4.232   2.243  17.098 -0.4176 -1.5588  3.6422
 8768SOL    HW237941   4.249   2.350  17.193 -0.1990  0.1704 -1.5216
 8769SOL     OW37942   4.596   4.669   7.868 -0.1476  0.1489  0.0976
 8769SOL    HW137943   4.556   4.659   7.781  0.3350 -0.8148 -0.0136
 8769SOL    HW237944   4.548   0.012   7.897  0.4057 -0.1869  1.9258
 8770SOL     OW37945   0.469   1.351   6.019  0.5906  0.1674  0.0508
 8770SOL    HW137946   0.522   1.413   5.969 -0.8379  1.0136 -0.3972
 8770SOL    HW237947   0.390   1.400   6.041 -1.2102 -2.2005 -1.1805
 8771SOL     OW37948   0.165   3.243   5.900  0.3599  0.3842 -0.0384
 8771SOL    HW137949   0.152   3.148   5.909  0.4015  0.4383  0.6366
 8771SOL    HW237950   0.204   3.249   5.813 -1.3496  0.9363 -0.7706
 8772SOL     OW37951   0.322   1.932   3.145  0.4850  0.1457  0.1277
 8772SOL    HW137952   0.273   1.850   3.140 -1.2720  1.1559  0.5939
 8772SOL    HW237953   0.363   1.921   3.059 -0.4011  1.7650 -0.5175
 8773SOL     OW37954   1.872   0.734   7.984 -0.0343 -0.6878 -0.6659
 8773SOL    HW137955   1.879   0.639   7.986 -1.0993 -0.7117  1.2328
 8773SOL    HW237956   1.928   0.757   7.909  0.3036  0.3773 -0.0915
 8774SOL     OW37957   2.626   0.565  16.889  0.2840 -0.4675 -0.1194
 8774SOL    HW137958   2.708   0.594  16.850 -0.9894  1.7981 -1.0995
 8774SOL    HW237959   2.558   0.598  16.831  0.2896 -0.6211 -0.2147
 8775SOL     OW37960   0.947   3.169   3.172  0.1297 -0.2617  0.0242
 8775SOL    HW137961   0.908   3.097   3.122 -1.1864 -0.0299  0.7218
 8775SOL    HW237962   0.985   3.118   3.243 -1.0426  1.1397  1.6418
 8776SOL     OW37963   2.786   1.602  15.264 -0.7803  0.4510  0.4138
 8776SOL    HW137964   2.712   1.621  15.206  0.4206 -0.6405 -1.4582
 8776SOL    HW237965   2.763   1.519  15.307 -0.1193  0.0465 -0.0151
 8777SOL     OW37966   2.969   0.244   7.628 -0.1960 -0.1929 -0.4615
 8777SOL    HW137967   2.984   0.185   7.554  0.7294 -0.4552 -0.0683
 8777SOL    HW237968   2.997   0.194   7.705  2.3091 -0.0964 -1.2891
 8778SOL     OW37969   2.215   1.503   3.863 -0.1249 -0.2664 -0.1612
 8778SOL    HW137970   2.285   1.444   3.893  2.0812  1.9811 -0.9560
 8778SOL    HW237971   2.172   1.447   3.798 -0.8940  0.2855 -0.1186
 8779SOL     OW37972   2.419   2.944   9.695  0.1609  0.0993 -0.2140
 8779SOL    HW137973   2.501   2.954   9.744 -0.4257 -0.2592  0.8560
 8779SOL    HW237974   2.390   3.032   9.671  1.9390  0.3605 -1.3924
 8780SOL     OW37975   2.120   3.238  10.305 -0.4783  1.0009  0.4665
 8780SOL    HW137976   2.117   3.276  10.393 -2.8819 -0.5006  1.0413
 8780SOL    HW237977   2.197   3.291  10.284  1.2577 -1.8427 -0.4411
 8781SOL     OW37978   2.963   2.114   8.490 -0.3273  0.2654 -0.3201
 8781SOL    HW137979   2.914   2.071   8.420  0.9788  1.1394 -1.7739
 8781SOL    HW237980   2.907   2.115   8.568 -1.3159  2.3798 -1.0609
 8782SOL     OW37981   3.183   3.713   5.288  0.0546  0.6139  0.0085
 8782SOL    HW137982   3.089   3.711   5.270  0.3195  0.7742 -1.3274
 8782SOL    HW237983   3.194   3.620   5.269 -1.0111  0.4119  0.3828
 8783SOL     OW37984   1.008   0.231   6.387 -0.1111 -0.1847  0.2653
 8783SOL    HW137985   0.952   0.300   6.423  1.5647  0.3941  1.7857
 8783SOL    HW237986   1.083   0.241   6.446  0.4397 -0.6309 -0.3586
 8784SOL     OW37987   2.735   2.485  11.487  0.3876  0.0659 -0.6137
 8784SOL    HW137988   2.674   2.439  11.545  0.7139  1.2348  0.6604
 8784SOL    HW237989   2.694   2.455  11.406  0.4980 -1.0357 -0.2632
 8785SOL     OW37990   2.483   3.402   8.938  0.3481 -0.3657  0.4601
 8785SOL    HW137991   2.486   3.325   8.994  1.0614 -2.0558 -1.9163
 8785SOL    HW237992   2.569   3.406   8.896  0.0343 -2.3626 -0.3534
 8786SOL     OW37993   4.256   3.242   0.103 -0.4300 -0.7210 -0.1342
 8786SOL    HW137994   4.186   3.280   0.050 -0.6871 -0.9442  0.0478
 8786SOL    HW237995   4.235   3.281   0.187 -1.1987  0.9880 -1.1139
 8787SOL     OW37996   3.721   0.452  14.085  0.1830  0.3359  1.0408
 8787SOL    HW137997   3.638   0.499  14.086 -0.0185  0.0021  0.0520
 8787SOL    HW237998   3.699   0.359  14.085  1.7059 -0.0322 -0.1971
 8788SOL     OW37999   3.447   4.127  17.437  0.2594 -0.1367  0.0501
 8788SOL    HW138000   3.362   4.084  17.440  0.9207 -1.4517 -0.0500
 8788SOL    HW238001   3.413   4.216  17.437  0.7773  0.0636  0.3066
 8789SOL     OW38002   1.795   1.945   3.316 -0.8079  0.5848  0.6461
 8789SOL    HW138003   1.882   1.981   3.296  0.1757 -2.0227  0.2840
 8789SOL    HW238004   1.751   1.924   3.234 -2.6036 -2.1662  2.3112
 8790SOL     OW38005   1.399   0.639   3.559  0.2311  0.6375 -0.4246
 8790SOL    HW138006   1.486   0.660   3.594 -0.6883  0.9993  1.6304
 8790SOL    HW238007   1.425   0.579   3.489  0.2674  1.6720 -1.3027
 8791SOL     OW38008   4.732   2.306   3.866 -0.0411  0.6101 -0.0199
 8791SOL    HW138009   0.003   2.381   3.926 -3.2106 -0.9464  2.1756
 8791SOL    HW238010   0.089   2.276   3.875 -0.7639 -2.0684 -1.7478
 8792SOL     OW38011   1.883   2.026  11.126 -0.1481 -0.3203 -0.1701
 8792SOL    HW138012   1.790   2.039  11.110 -0.0785  0.2706 -0.0968
 8792SOL    HW238013   1.890   1.985  11.212  0.0123 -1.4591 -0.7221
 8793SOL     OW38014   1.235   1.475  17.416  0.6140  0.2515 -0.3120
 8793SOL    HW138015   1.290   1.544  17.379 -0.1534  1.2288  0.3704
 8793SOL    HW238016   1.164   1.487  17.354  0.7480 -0.1895 -0.5505
 8794SOL     OW38017   1.215   1.631  14.810 -0.0054 -0.1208 -0.7576
 8794SOL    HW138018   1.233   1.552  14.860  0.0562  1.0190  0.9967
 8794SOL    HW238019   1.124   1.638  14.838  0.0630 -2.8569  0.1333
 8795SOL     OW38020   3.229   2.509   5.415 -0.1269 -0.2125 -0.6887
 8795SOL    HW138021   3.159   2.570   5.441  0.0889 -0.4162  0.3763
 8795SOL    HW238022   3.289   2.513   5.490  0.1142 -0.2723 -0.8802
 8796SOL     OW38023   3.682   2.815   9.705  0.0228 -0.2537  0.2935
 8796SOL    HW138024   3.705   2.883   9.768  0.2517 -0.5371  0.5138
 8796SOL    HW238025   3.707   2.737   9.755  1.1331 -0.6664 -0.9196
 8797SOL     OW38026   4.332   1.053  16.974  0.3607 -0.0008  0.1143
 8797SOL    HW138027   4.334   1.086  16.883  1.3198  2.8464  1.1527
 8797SOL    HW238028   4.420   1.026  16.998  0.3023 -0.2733  0.0172
 8798SOL     OW38029   1.293   1.686   7.263  0.3771 -0.3857 -0.3217
 8798SOL    HW138030   1.249   1.635   7.331  1.0758 -0.2936  0.1937
 8798SOL    HW238031   1.373   1.637   7.250 -0.0507 -1.5615  1.4451
 8799SOL     OW38032   0.520   0.016   1.720  0.5173 -0.2361 -0.1863
 8799SOL    HW138033   0.571   0.024   1.640  1.2966  2.0730  0.5621
 8799SOL    HW238034   0.468   0.095   1.707  0.3304 -0.4486 -0.7560
 8800SOL     OW38035   3.621   3.496   6.840  0.1013 -0.2305  0.1816
 8800SOL    HW138036   3.636   3.474   6.932  0.3772  1.4863  0.5510
 8800SOL    HW238037   3.530   3.475   6.819  0.2435  0.3399 -1.0088
 8801SOL     OW38038   1.250   1.765   9.497  0.4371 -0.3855  0.1996
 8801SOL    HW138039   1.340   1.764   9.464  0.7049  2.9570  0.8233
 8801SOL    HW238040   1.218   1.679   9.469 -0.1198  0.2602 -1.1317
 8802SOL     OW38041   0.482   3.806   7.979 -0.3599 -0.3316 -0.7592
 8802SOL    HW138042   0.554   3.804   7.916 -0.7030 -0.3442 -1.1479
 8802SOL    HW238043   0.488   3.902   7.986 -1.6572 -0.1395 -2.3760
 8803SOL     OW38044   2.823   2.301   4.972 -0.2962 -0.1084 -0.3071
 8803SOL    HW138045   2.912   2.268   4.959 -1.1710 -1.8568 -1.7825
 8803SOL    HW238046   2.828   2.385   4.927  1.3439  1.3176  2.5619
 8804SOL     OW38047   4.058   2.804  14.796 -0.0075  0.2390  0.2377
 8804SOL    HW138048   4.095   2.731  14.746 -0.2248 -1.9042  3.1949
 8804SOL    HW238049   3.971   2.769  14.813 -0.0888 -0.8894 -2.5478
 8805SOL     OW38050   0.600   2.676  16.901  0.1591 -0.1227  0.1167
 8805SOL    HW138051   0.547   2.749  16.868 -1.8103 -2.9077 -2.8790
 8805SOL    HW238052   0.621   2.704  16.990  1.4465  2.3379 -0.9738
 8806SOL     OW38053   3.598   1.907   2.073  0.2288  0.3436  0.1103
 8806SOL    HW138054   3.570   1.883   2.161  0.5644  1.3359  0.4887
 8806SOL    HW238055   3.692   1.913   2.091  0.1914 -0.1324  0.4582
 8807SOL     OW38056   3.782   1.014   6.680  0.5765 -0.2046 -0.3796
 8807SOL    HW138057   3.744   1.100   6.663 -0.6922 -1.2069 -2.7114
 8807SOL    HW238058   3.706   0.956   6.679  0.5339 -0.1594  1.4333
 8808SOL     OW38059   2.318   2.037   3.438  0.0755  0.1606  0.6017
 8808SOL    HW138060   2.315   2.088   3.519 -0.0701  0.3828  0.4565
 8808SOL    HW238061   2.404   1.997   3.447 -0.3928 -0.8366  0.6571
 8809SOL     OW38062   3.417   1.057   3.760 -0.1716 -0.2279  0.1304
 8809SOL    HW138063   3.500   1.011   3.745 -1.0291 -2.2677  1.8562
 8809SOL    HW238064   3.369   0.980   3.789  3.4130 -2.1060  1.0305
 8810SOL     OW38065   2.082   2.408   7.052 -0.0307 -0.3512 -0.7483
 8810SOL    HW138066   2.032   2.386   6.973  1.0691  2.0102 -2.1024
 8810SOL    HW238067   2.007   2.440   7.102 -1.9050 -1.8390 -2.5995
 8811SOL     OW38068   0.487   4.576   4.862  0.3782  0.0707 -0.1870
 8811SOL    HW138069   0.576   4.577   4.827 -0.2801 -0.2061 -1.8559
 8811SOL    HW238070   0.432   4.556   4.786  1.4020 -0.9368 -0.6574
 8812SOL     OW38071   2.196   2.929   2.328  0.3585  0.2924 -0.2874
 8812SOL    HW138072   2.196   3.025   2.332  0.6465  0.3577 -1.8063
 8812SOL    HW238073   2.234   2.910   2.242  1.7773 -0.8222  0.6013
 8813SOL     OW38074   4.421   4.712  12.701  0.3272 -0.3202  0.8186
 8813SOL    HW138075   4.385   4.664  12.775 -0.0211  0.6463  1.2731
 8813SOL    HW238076   4.451   4.645  12.640  1.5107 -1.0528  2.2136
 8814SOL     OW38077   0.179   3.359   5.627  0.5305  0.0730  0.1795
 8814SOL    HW138078   0.188   3.367   5.532  3.6038 -0.0282  0.4660
 8814SOL    HW238079   0.099   3.306   5.633  0.0110  1.1335  2.5518
 8815SOL     OW38080   4.204   0.097   8.317  0.0261 -0.8136 -0.2605
 8815SOL    HW138081   4.215   0.032   8.248  0.2348 -2.8393  1.7173
 8815SOL    HW238082   4.118   0.137   8.306 -0.6888 -1.9209  1.3117
 8816SOL     OW38083   3.995   2.024  16.823 -0.3186  0.2006  0.3548
 8816SOL    HW138084   4.043   1.944  16.801 -0.0148  0.4407  0.1320
 8816SOL    HW238085   4.035   2.085  16.761  2.4175  0.0212  1.9536
 8817SOL     OW38086   0.813   0.290   9.195 -0.3055 -0.1050  0.4027
 8817SOL    HW138087   0.754   0.352   9.151  1.3234  0.2461 -1.2798
 8817SOL    HW238088   0.749   0.236   9.241 -1.5091  0.9908  0.0436
 8818SOL     OW38089   2.462   1.479   6.441  0.1641 -0.3885 -0.2813
 8818SOL    HW138090   2.501   1.500   6.526  0.3740  0.2956 -0.5515
 8818SOL    HW238091   2.494   1.544   6.378  2.9620 -0.5299  1.0065
 8819SOL     OW38092   1.267   4.136   6.760 -0.1996  0.2164  0.2706
 8819SOL    HW138093   1.227   4.189   6.691 -0.5402 -0.5237 -0.0972
 8819SOL    HW238094   1.193   4.130   6.819 -0.2455 -0.9515  0.1002
 8820SOL     OW38095   3.604   0.566   2.919  0.4035 -0.5152 -0.3756
 8820SOL    HW138096   3.584   0.473   2.931 -1.3868 -0.2720 -1.4579
 8820SOL    HW238097   3.660   0.561   2.842 -1.7102 -0.9630 -1.8918
 8821SOL     OW38098   0.517   2.699  14.148  0.3626  0.2428  0.3531
 8821SOL    HW138099   0.439   2.719  14.200 -0.8248  0.0744 -1.3588
 8821SOL    HW238100   0.499   2.744  14.065 -1.2141  0.5521  0.8556
 8822SOL     OW38101   0.739   4.222   3.482 -0.8731  0.0069  0.6558
 8822SOL    HW138102   0.786   4.157   3.430 -0.5026  0.9752 -0.2197
 8822SOL    HW238103   0.801   4.294   3.475 -1.3835  0.4126  0.3140
 8823SOL     OW38104   0.753   2.562   4.700  0.3848  0.0957 -0.4348
 8823SOL    HW138105   0.752   2.542   4.607  0.5713 -0.7881 -0.2499
 8823SOL    HW238106   0.696   2.638   4.703 -0.6492 -0.6396 -1.8163
 8824SOL     OW38107   2.413   0.333   5.371  0.1713  0.6856  0.5989
 8824SOL    HW138108   2.360   0.347   5.292  0.5529 -1.3292 -0.0156
 8824SOL    HW238109   2.412   0.422   5.406  1.3019 -1.0071  4.9549
 8825SOL     OW38110   0.413   3.891   0.959 -0.3471 -0.5275 -0.1782
 8825SOL    HW138111   0.501   3.856   0.977 -0.1147  1.2047  2.0334
 8825SOL    HW238112   0.435   3.974   0.918  0.2755 -1.6485 -2.1309
 8826SOL     OW38113   2.515   4.448   3.021  0.0349 -0.2445 -0.0341
 8826SOL    HW138114   2.429   4.489   3.033  1.0369  1.4862  1.0820
 8826SOL    HW238115   2.546   4.424   3.108  0.6880 -0.9927 -0.4714
 8827SOL     OW38116   0.938   2.954   4.009 -0.3092 -0.2743 -0.6249
 8827SOL    HW138117   0.968   2.918   3.925  1.3649 -1.3418  0.4155
 8827SOL    HW238118   0.947   3.048   3.996  2.7836 -0.3669  0.6439
 8828SOL     OW38119   2.270   0.330  14.065 -0.0490  0.2075 -0.0008
 8828SOL    HW138120   2.287   0.373  13.981  1.1192  1.2397  0.7565
 8828SOL    HW238121   2.180   0.357  14.086  0.9894  2.5135  1.5185
 8829SOL     OW38122   2.938   1.022   7.657 -0.5197  0.1523 -0.5585
 8829SOL    HW138123   2.936   0.928   7.677 -2.1772  0.1050 -0.9638
 8829SOL    HW238124   2.888   1.060   7.729  0.5698 -0.6628  0.6370
 8830SOL     OW38125   0.172   1.950  11.252  0.0923  0.0832 -0.0791
 8830SOL    HW138126   0.100   1.922  11.308 -0.9176  1.5864 -0.6223
 8830SOL    HW238127   0.249   1.912  11.294  0.3141 -0.1171 -0.6580
 8831SOL     OW38128   3.046   0.003   6.592  0.1310 -0.3811  0.2496
 8831SOL    HW138129   2.955   4.717   6.611 -0.4618 -1.2215 -3.5118
 8831SOL    HW238130   3.080   4.655   6.556  1.7808  0.7569 -0.8157
 8832SOL     OW38131   0.556   2.272   3.688  0.4018  0.4044 -0.0081
 8832SOL    HW138132   0.643   2.233   3.694  0.9743  1.5762 -0.8254
 8832SOL    HW238133   0.518   2.209   3.750  0.1709  0.5317 -0.0192
 8833SOL     OW38134   0.501   0.848   9.726  0.2939  0.3853  0.6823
 8833SOL    HW138135   0.412   0.867   9.755  0.3775  0.7248  0.7159
 8833SOL    HW238136   0.548   0.874   9.806  0.8239  2.1795 -0.1903
 8834SOL     OW38137   2.693   3.603  16.694 -0.2972  0.2053  0.0074
 8834SOL    HW138138   2.762   3.573  16.753  2.0499  0.8918 -2.3418
 8834SOL    HW238139   2.732   3.690  16.684  0.3269 -0.1127 -0.3733
 8835SOL     OW38140   2.005   0.106  16.207  0.1943  0.0086  0.2983
 8835SOL    HW138141   2.074   0.128  16.270  0.6691  0.8795 -0.5417
 8835SOL    HW238142   2.027   0.170  16.140  4.3764 -2.1982 -0.4378
 8836SOL     OW38143   0.589   0.351  10.031  0.2491  0.1659  0.0849
 8836SOL    HW138144   0.561   0.373  10.120 -0.5709  0.6193 -0.2878
 8836SOL    HW238145   0.515   0.384   9.981  0.5930 -0.9348 -1.1468
 8837SOL     OW38146   1.747   2.530   2.520  0.2290 -0.0576  0.5394
 8837SOL    HW138147   1.782   2.546   2.608  1.8293  0.6989 -0.2417
 8837SOL    HW238148   1.658   2.563   2.529 -0.3313 -1.4197  0.0399
 8838SOL     OW38149   2.536   0.073  16.707  0.2577 -0.0173 -0.2493
 8838SOL    HW138150   2.601   0.136  16.737  0.3000 -0.9474  1.6196
 8838SOL    HW238151   2.580   0.038  16.630  0.7312  0.6243 -0.2679
 8839SOL     OW38152   3.438   4.386   3.640 -0.1945 -0.2768  0.0031
 8839SOL    HW138153   3.427   4.311   3.580 -0.5391  0.1530 -0.4703
 8839SOL    HW238154   3.487   4.446   3.584  0.8517 -0.5280  0.6552
 8840SOL     OW38155   2.772   2.891   0.790 -0.4272 -0.2657  0.1351
 8840SOL    HW138156   2.864   2.863   0.783 -0.7838 -1.4208  0.1116
 8840SOL    HW238157   2.767   2.940   0.708 -0.4821  1.9485  1.4637
 8841SOL     OW38158   3.105   0.267  15.049  0.6605 -0.0495 -0.3160
 8841SOL    HW138159   3.147   0.249  14.965 -0.0020 -0.6269 -0.5184
 8841SOL    HW238160   3.174   0.255  15.115  0.9565 -1.6318 -0.9194
 8842SOL     OW38161   2.863   2.281   8.245 -0.1979 -0.0407  0.9340
 8842SOL    HW138162   2.812   2.284   8.164  2.2416  0.1120 -0.5945
 8842SOL    HW238163   2.829   2.356   8.293  1.9819  2.7683 -1.9247
 8843SOL     OW38164   1.196   1.539  13.019  0.3454 -0.1938  0.1184
 8843SOL    HW138165   1.186   1.585  12.935  2.7457  0.9351  0.4480
 8843SOL    HW238166   1.109   1.504  13.036  0.1714 -0.2131 -0.7941
 8844SOL     OW38167   0.628   1.098   4.565  0.1732  0.0399 -0.2737
 8844SOL    HW138168   0.674   1.063   4.641 -1.2570 -1.6948 -0.2222
 8844SOL    HW238169   0.588   1.172   4.610  0.3389 -0.7222  1.0937
 8845SOL     OW38170   2.161   0.726  12.030  0.0647  0.0624 -0.1998
 8845SOL    HW138171   2.066   0.727  12.026  0.0428  0.7697  0.3084
 8845SOL    HW238172   2.172   0.641  11.988  0.2317  0.0368 -0.1067
 8846SOL     OW38173   3.959   1.755   7.453 -0.3898  0.4458 -0.1048
 8846SOL    HW138174   3.872   1.793   7.468 -0.1908  0.5967  0.6770
 8846SOL    HW238175   3.992   1.744   7.542  2.0269 -1.4849 -1.2532
 8847SOL     OW38176   4.081   1.901   1.038  0.2879 -0.0582  0.3847
 8847SOL    HW138177   4.121   1.976   0.993  0.6105 -1.2152 -1.2880
 8847SOL    HW238178   4.004   1.949   1.068  2.5801  3.5568  0.5566
 8848SOL     OW38179   3.885   4.393   5.609  0.2103 -0.2282 -0.1347
 8848SOL    HW138180   3.855   4.324   5.551  2.7094 -3.0085  1.8744
 8848SOL    HW238181   3.921   4.452   5.543 -1.5343  2.4041  1.2761
 8849SOL     OW38182   4.477   0.478   1.557  0.2180  0.1438  0.3142
 8849SOL    HW138183   4.423   0.471   1.478  0.6048 -1.9341  0.2340
 8849SOL    HW238184   4.434   0.405   1.600  0.3680 -0.2260 -0.1598
 8850SOL     OW38185   4.236   0.976   5.100 -0.5337 -0.0572  0.3488
 8850SOL    HW138186   4.281   1.053   5.134 -0.0841 -0.6453  1.1087
 8850SOL    HW238187   4.212   0.925   5.178 -2.1248  1.6309  0.9420
 8851SOL     OW38188   4.511   1.559   6.061 -0.0156 -0.4359 -0.0619
 8851SOL    HW138189   4.469   1.605   5.988 -1.3132 -0.7150  0.5085
 8851SOL    HW238190   4.435   1.509   6.091  0.6968 -0.8425  1.0499
 8852SOL     OW38191   1.105   2.561  16.630 -0.0016  0.3874 -0.1322
 8852SOL    HW138192   1.091   2.576  16.723  0.8439 -1.4407  0.2886
 8852SOL    HW238193   1.166   2.487  16.629 -0.1405  0.2795 -1.1507
 8853SOL     OW38194   3.382   2.276   1.384  0.3385 -0.1921 -0.4730
 8853SOL    HW138195   3.292   2.278   1.351 -0.5923 -1.2319  2.0033
 8853SOL    HW238196   3.441   2.292   1.310 -0.2716 -0.9135 -1.1227
 8854SOL     OW38197   1.280   3.214   5.732 -0.2033  0.1634  0.2407
 8854SOL    HW138198   1.250   3.141   5.678 -1.4067  1.2793 -0.6185
 8854SOL    HW238199   1.247   3.191   5.819 -3.4360 -2.2868 -1.6292
 8855SOL     OW38200   2.110   2.327   9.365 -0.1950 -0.1646 -0.1671
 8855SOL    HW138201   2.196   2.332   9.406 -0.4576 -1.4176  0.5471
 8855SOL    HW238202   2.061   2.278   9.431  2.9248 -4.4800 -1.0193
 8856SOL     OW38203   1.957   1.202   1.759  0.4413  0.0727 -0.2865
 8856SOL    HW138204   1.971   1.288   1.799  3.1920 -0.1471 -0.7541
 8856SOL    HW238205   1.865   1.183   1.778  0.8751 -0.3929  1.2736
 8857SOL     OW38206   2.450   3.232  11.372  0.0559 -0.4560  0.5243
 8857SOL    HW138207   2.414   3.281  11.446 -0.5294  0.1585 -0.1667
 8857SOL    HW238208   2.528   3.288  11.365  0.4872 -1.1438 -0.1492
 8858SOL     OW38209   4.467   0.954   8.140  0.2935  0.3927  0.3228
 8858SOL    HW138210   4.457   0.873   8.189  1.7870  0.0851  0.1358
 8858SOL    HW238211   4.533   0.926   8.077 -0.1300  0.2304 -0.0413
 8859SOL     OW38212   4.380   3.836   2.321 -0.2657 -0.8842  0.3858
 8859SOL    HW138213   4.444   3.897   2.283 -1.5887  0.9382  1.0919
 8859SOL    HW238214   4.438   3.763   2.343  0.2848 -1.0587 -1.6537
 8860SOL     OW38215   4.512   1.662  14.809 -0.3258 -0.0686  0.9423
 8860SOL    HW138216   4.436   1.605  14.824  1.4391 -2.4109  1.0461
 8860SOL    HW238217   4.495   1.704  14.725  0.9589  0.4089  0.9203
 8861SOL     OW38218   1.164   1.212   8.777 -0.7957  0.2607 -0.3993
 8861SOL    HW138219   1.127   1.288   8.730 -0.7875  0.6254  0.1824
 8861SOL    HW238220   1.105   1.208   8.852 -0.8242  2.0656 -0.3254
 8862SOL     OW38221   3.052   2.675   2.995 -0.2378  0.1915  0.5315
 8862SOL    HW138222   2.963   2.653   2.965 -0.6567  1.6921  0.6906
 8862SOL    HW238223   3.062   2.760   2.952 -1.1181 -0.2850 -0.6094
 8863SOL     OW38224   2.339   2.486   6.125 -0.2002 -0.0863  0.0112
 8863SOL    HW138225   2.384   2.420   6.178 -0.3619 -0.1099  0.1202
 8863SOL    HW238226   2.285   2.439   6.061  0.6789  1.3270 -1.7485
 8864SOL     OW38227   2.514   4.250  16.469  0.0353 -0.3182  0.6258
 8864SOL    HW138228   2.565   4.251  16.388  1.6271 -1.4789  1.6312
 8864SOL    HW238229   2.432   4.217  16.433  0.6986 -1.0986 -0.1694
 8865SOL     OW38230   3.365   4.265   5.189  0.3652 -0.2077 -0.1080
 8865SOL    HW138231   3.314   4.346   5.195 -3.1904 -2.4961  0.3792
 8865SOL    HW238232   3.418   4.284   5.111 -0.2408  1.4303 -0.1334
 8866SOL     OW38233   0.322   0.635   1.768  0.6747  0.2990 -0.1772
 8866SOL    HW138234   0.394   0.699   1.766  0.5616  0.5569  3.4763
 8866SOL    HW238235   0.357   0.566   1.711  2.2235  0.4549  0.5759
 8867SOL     OW38236   2.992   0.660  11.585  0.4375 -0.0616 -0.6977
 8867SOL    HW138237   2.930   0.707  11.528  0.5031  2.2519  1.1318
 8867SOL    HW238238   3.070   0.710  11.560  2.3763 -3.3978 -1.1980
 8868SOL     OW38239   4.472   2.340   3.787 -0.2718  0.0342 -0.3081
 8868SOL    HW138240   4.420   2.266   3.816  0.3685 -0.5891 -0.7370
 8868SOL    HW238241   4.564   2.329   3.811 -0.2502  1.0532  0.0790
 8869SOL     OW38242   1.609   2.063   1.817  0.6353 -0.1404 -0.2132
 8869SOL    HW138243   1.703   2.059   1.837  0.5178  0.1952  0.4164
 8869SOL    HW238244   1.582   2.049   1.907  0.2742 -2.4389 -0.6932
 8870SOL     OW38245   2.000   1.975  12.348  0.2368  0.4374  0.2547
 8870SOL    HW138246   2.076   1.943  12.299  0.1394 -1.7960  1.5501
 8870SOL    HW238247   1.987   2.062  12.310  0.6672 -0.3746 -1.7542
 8871SOL     OW38248   3.619   1.343   2.847 -0.1726  0.0159 -0.0934
 8871SOL    HW138249   3.615   1.436   2.869  0.3733 -0.8873  3.8154
 8871SOL    HW238250   3.526   1.341   2.826 -0.5258  0.6035  1.4691
 8872SOL     OW38251   2.480   1.981  16.452  0.4567 -0.8444 -0.5149
 8872SOL    HW138252   2.513   2.039  16.521 -1.3704  0.0984 -0.4434
 8872SOL    HW238253   2.562   1.951  16.413  2.0417  2.8056 -0.0417
 8873SOL     OW38254   4.256   4.643   8.527 -0.6341  0.7130 -0.1090
 8873SOL    HW138255   4.239   4.700   8.452 -2.1062 -0.2536 -0.5078
 8873SOL    HW238256   4.291   4.710   8.585 -0.8685  1.4148 -0.7810
 8874SOL     OW38257   0.771   4.090   5.154  0.2547 -0.2185 -0.1778
 8874SOL    HW138258   0.690   4.112   5.108 -0.8130 -1.3955  1.1276
 8874SOL    HW238259   0.790   4.173   5.197  3.1596 -0.6947 -0.5671
 8875SOL     OW38260   3.954   0.238  13.960  0.6322 -0.3409  0.2853
 8875SOL    HW138261   3.925   0.152  13.930  0.5436 -0.5772  1.0469
 8875SOL    HW238262   3.936   0.299  13.889 -0.8630 -2.4990 -1.1755
 8876SOL     OW38263   0.896   0.229   1.041 -0.5369  0.3369  0.1019
 8876SOL    HW138264   0.896   0.198   0.950  1.6805  1.6618 -0.3350
 8876SOL    HW238265   0.971   0.178   1.070 -0.5388  0.2154 -0.1020
 8877SOL     OW38266   1.500   4.117  14.100 -0.6527  0.3398  0.3974
 8877SOL    HW138267   1.577   4.075  14.062  1.2012  2.2854  2.0088
 8877SOL    HW238268   1.434   4.048  14.101  0.2097 -0.4740  1.0519
 8878SOL     OW38269   2.243   1.312   2.715  0.1035 -0.0723  0.4556
 8878SOL    HW138270   2.181   1.247   2.681  0.3255 -1.0672  1.9961
 8878SOL    HW238271   2.212   1.390   2.668  0.9278  0.0644  0.1463
 8879SOL     OW38272   1.537   4.092   5.169 -0.1844 -0.2129  0.0065
 8879SOL    HW138273   1.503   4.155   5.232 -0.2852  1.4351 -1.7110
 8879SOL    HW238274   1.629   4.098   5.195  0.1687 -0.1302 -1.2622
 8880SOL     OW38275   1.672   3.112  14.992 -0.1389  0.5764  0.2834
 8880SOL    HW138276   1.654   3.084  14.902  1.4052  0.5400 -0.0176
 8880SOL    HW238277   1.750   3.058  15.005 -0.2991  0.8601  2.3747
 8881SOL     OW38278   4.112   3.152   3.163 -0.4974 -0.5144  0.2375
 8881SOL    HW138279   4.189   3.105   3.132 -0.4123  0.5383 -1.1360
 8881SOL    HW238280   4.037   3.104   3.127  0.7602 -1.9822 -0.4051
 8882SOL     OW38281   3.889   0.575  13.409  0.1443 -0.4156 -0.3183
 8882SOL    HW138282   3.911   0.665  13.433 -0.5588 -0.9464  2.2300
 8882SOL    HW238283   3.796   0.568  13.431  0.6226 -0.0587  1.7972
 8883SOL     OW38284   3.858   3.596   6.750 -0.2404 -0.5172 -0.3223
 8883SOL    HW138285   3.775   3.560   6.782  0.7872 -0.9447  1.8797
 8883SOL    HW238286   3.922   3.542   6.796 -0.0409 -0.7406 -0.8647
 8884SOL     OW38287   2.731   4.524   8.897  0.4268  0.1798  0.0203
 8884SOL    HW138288   2.711   4.508   8.990  0.2485 -0.2423 -0.0899
 8884SOL    HW238289   2.791   4.598   8.896  2.6601 -1.6811 -0.9617
 8885SOL     OW38290   3.081   1.704   1.987  0.6194 -0.2922  0.1243
 8885SOL    HW138291   3.166   1.714   1.945  0.4375  2.2492  0.3740
 8885SOL    HW238292   3.098   1.744   2.072  1.0017 -1.1007  0.4291
 8886SOL     OW38293   0.934   1.243   8.989 -0.1325  0.1418  0.1869
 8886SOL    HW138294   0.847   1.255   8.952 -0.1800 -1.1145 -0.1232
 8886SOL    HW238295   0.918   1.171   9.050  1.3275  0.5189  1.0454
 8887SOL     OW38296   0.061   2.983   5.957  0.2787  0.1715 -1.0736
 8887SOL    HW138297   0.060   2.939   5.872  0.5180 -0.3300 -0.8177
 8887SOL    HW238298   4.705   3.015   5.960  1.1518  2.5648 -0.3255
 8888SOL     OW38299   3.245   3.250  16.170  0.1199 -0.0631  0.6411
 8888SOL    HW138300   3.261   3.326  16.225 -0.6110  0.1082  0.6186
 8888SOL    HW238301   3.164   3.217  16.207 -1.0628  0.4510 -1.4522
 8889SOL     OW38302   0.695   2.119   6.300  0.6943 -0.8111  0.3997
 8889SOL    HW138303   0.731   2.089   6.216 -0.0523  0.2649 -0.3000
 8889SOL    HW238304   0.749   2.196   6.314 -1.0362  0.5539 -0.3588
 8890SOL     OW38305   2.556   1.092  14.486  0.0009 -0.5134 -0.5907
 8890SOL    HW138306   2.622   1.024  14.503 -1.1619 -1.7128 -0.8987
 8890SOL    HW238307   2.593   1.172  14.524 -2.6122  0.3617  0.1112
 8891SOL     OW38308   3.181   0.594   5.710 -0.2102 -0.2732  0.4324
 8891SOL    HW138309   3.179   0.690   5.708  1.9332 -0.2260  0.1837
 8891SOL    HW238310   3.097   0.573   5.670  0.4079  1.2813 -1.6890
 8892SOL     OW38311   0.997   1.156   4.559 -0.1208 -0.0894  0.1366
 8892SOL    HW138312   1.001   1.085   4.494  2.0348  0.9581 -0.8885
 8892SOL    HW238313   1.067   1.129   4.619 -0.5209 -1.3519  0.0297
 8893SOL     OW38314   2.000   1.525   9.282  0.3266  0.0892 -0.3746
 8893SOL    HW138315   2.072   1.463   9.266  0.6870  0.1680  0.9262
 8893SOL    HW238316   2.046   1.608   9.266  0.4287 -0.2128 -1.6438
 8894SOL     OW38317   2.283   1.770   4.483  0.3068  0.6135 -0.1292
 8894SOL    HW138318   2.295   1.860   4.452  0.0469  0.9279  0.6975
 8894SOL    HW238319   2.290   1.774   4.578  1.2878 -0.6734 -0.1575
 8895SOL     OW38320   0.219   1.413   3.278  0.1219  0.0043  0.0988
 8895SOL    HW138321   0.302   1.384   3.316 -1.0519 -3.3004  0.1496
 8895SOL    HW238322   0.167   1.334   3.287  2.0036 -1.1952  0.3674
 8896SOL     OW38323   3.609   3.041   0.110  0.0385 -0.4871 -0.5055
 8896SOL    HW138324   3.663   3.003   0.041  2.5282 -1.7624  2.1705
 8896SOL    HW238325   3.573   3.121   0.070 -0.5398 -0.5206 -0.0501
 8897SOL     OW38326   3.150   1.089   3.433  0.2425  0.1665 -0.7791
 8897SOL    HW138327   3.221   1.152   3.442  0.1509 -0.2344  2.9309
 8897SOL    HW238328   3.190   1.008   3.465 -3.1542 -0.4541  1.8517
 8898SOL     OW38329   1.704   0.484   7.823 -0.6808 -0.4172  0.4412
 8898SOL    HW138330   1.748   0.424   7.762  1.8832  1.7289  0.1896
 8898SOL    HW238331   1.774   0.486   7.887 -0.7324  1.2804  0.4374
 8899SOL     OW38332   3.646   3.246  10.102  0.0501 -0.3414 -0.0563
 8899SOL    HW138333   3.651   3.223  10.009 -0.8553 -3.9652  0.7942
 8899SOL    HW238334   3.633   3.341  10.093 -0.9510 -0.4998 -0.2658
 8900SOL     OW38335   2.098   4.127   4.290 -0.1064  0.1465 -0.3080
 8900SOL    HW138336   2.101   4.104   4.197 -0.1638 -1.1160  0.0021
 8900SOL    HW238337   2.023   4.186   4.290  0.5044  0.9289 -0.5450
 8901SOL     OW38338   3.736   2.394   5.531 -0.2441  0.7071  0.0782
 8901SOL    HW138339   3.827   2.422   5.529  0.1366 -0.4883  0.4695
 8901SOL    HW238340   3.693   2.462   5.479 -2.3559 -0.3417  0.4277
 8902SOL     OW38341   0.038   4.671   0.957 -0.2037 -0.1562  0.1222
 8902SOL    HW138342   4.689   4.699   0.916  0.0488  0.6644  0.1749
 8902SOL    HW238343   0.092   4.705   0.886  2.3912 -1.3128  1.5737
 8903SOL     OW38344   0.552   1.051   6.732  0.3223 -0.0526 -0.4560
 8903SOL    HW138345   0.547   0.958   6.756 -1.7198  0.0787 -0.3580
 8903SOL    HW238346   0.571   1.059   6.639  2.0429  0.7394 -0.0389
 8904SOL     OW38347   0.448   0.548  13.164 -0.2811 -0.1569 -0.2573
 8904SOL    HW138348   0.362   0.546  13.206 -0.4178  0.9638 -0.4635
 8904SOL    HW238349   0.446   0.455  13.142 -2.2581 -0.2978  0.5224
 8905SOL     OW38350   1.939   0.412   4.139  0.2702  0.7152  0.2607
 8905SOL    HW138351   1.905   0.416   4.229 -0.2934  1.5278  0.0126
 8905SOL    HW238352   1.909   0.498   4.108  0.2747  1.3375  1.9555
 8906SOL     OW38353   4.152   3.820  15.084 -0.0243  0.0027  0.0640
 8906SOL    HW138354   4.069   3.838  15.128  0.3510 -1.1997  1.2295
 8906SOL    HW238355   4.205   3.899  15.094  2.2236 -1.0782 -3.1143
 8907SOL     OW38356   0.666   2.809   9.060  0.1427 -0.4075 -0.1430
 8907SOL    HW138357   0.604   2.743   9.030 -0.6023  0.2661 -0.0983
 8907SOL    HW238358   0.719   2.755   9.118 -0.7752  1.8957  2.8857
 8908SOL     OW38359   1.423   1.944   9.305 -0.7485 -0.4834  0.1304
 8908SOL    HW138360   1.468   1.864   9.276  0.2130 -0.6073  1.9925
 8908SOL    HW238361   1.442   1.960   9.397 -0.3024 -0.8298  0.0987
 8909SOL     OW38362   3.556   3.188  15.762  0.3099  0.5240  0.2977
 8909SOL    HW138363   3.575   3.173  15.854 -0.9063  1.2708  0.6693
 8909SOL    HW238364   3.630   3.145  15.720 -0.6778 -1.6674  0.8218
 8910SOL     OW38365   2.436   4.439   4.469 -0.0647 -0.3452  0.5460
 8910SOL    HW138366   2.515   4.419   4.419  0.8100  1.9604  0.9967
 8910SOL    HW238367   2.469   4.468   4.554  1.0694  0.6237 -0.2314
 8911SOL     OW38368   3.283   1.582   6.513 -0.5386  0.2483 -0.1257
 8911SOL    HW138369   3.238   1.552   6.591 -1.0437 -1.3531 -1.0334
 8911SOL    HW238370   3.223   1.650   6.482 -1.0825 -0.4770 -0.6719
 8912SOL     OW38371   3.819   3.628   2.860  0.2790  0.5481  0.1279
 8912SOL    HW138372   3.869   3.550   2.885 -0.3195  0.2013  0.2612
 8912SOL    HW238373   3.740   3.587   2.824  1.8678 -2.7403  0.4044
 8913SOL     OW38374   3.253   2.192   3.169 -0.1285 -0.2603  0.4890
 8913SOL    HW138375   3.341   2.229   3.168 -0.1249 -0.3901 -3.0966
 8913SOL    HW238376   3.208   2.265   3.212  2.7971  1.9439 -0.2454
 8914SOL     OW38377   4.685   0.904  11.621 -0.5766  0.2588  0.9400
 8914SOL    HW138378   4.677   0.881  11.529 -0.3998  0.7787  0.7912
 8914SOL    HW238379   4.613   0.855  11.659  0.8628 -1.9770  0.7655
 8915SOL     OW38380   2.059   1.160  10.066 -0.3809 -0.9784  0.0132
 8915SOL    HW138381   2.152   1.135  10.067 -0.5822 -1.7290 -0.0346
 8915SOL    HW238382   2.024   1.094  10.007 -1.3304 -0.2127 -0.2840
 8916SOL     OW38383   1.248   1.726   3.209  0.3830  0.4556 -0.4089
 8916SOL    HW138384   1.182   1.656   3.207  0.7387  0.0163  2.6568
 8916SOL    HW238385   1.317   1.668   3.175  1.6318  0.8755  1.4284
 8917SOL     OW38386   2.498   2.567   6.681  0.6827 -0.5602 -0.4343
 8917SOL    HW138387   2.508   2.593   6.773 -0.9758  0.7469 -0.6391
 8917SOL    HW238388   2.583   2.599   6.651 -0.0307  0.4008 -1.4203
 8918SOL     OW38389   2.081   0.540   7.071  0.3221  0.2325  0.1208
 8918SOL    HW138390   2.128   0.559   6.990 -0.2623 -0.8490 -0.4698
 8918SOL    HW238391   1.991   0.558   7.046 -0.3363 -2.7313  0.3263
 8919SOL     OW38392   0.810   3.352   3.012 -0.5153 -0.7207 -0.6967
 8919SOL    HW138393   0.860   3.302   3.077  0.4576  0.4801 -0.5275
 8919SOL    HW238394   0.808   3.296   2.935  1.0522  0.1487 -1.3760
 8920SOL     OW38395   2.954   1.733   8.229 -1.1353  0.0308  0.0564
 8920SOL    HW138396   3.047   1.751   8.247 -0.5028 -2.9654 -0.1699
 8920SOL    HW238397   2.952   1.710   8.136 -0.1722 -1.4563  0.3906
 8921SOL     OW38398   0.125   3.085   6.576 -0.0349 -0.3485 -0.3623
 8921SOL    HW138399   0.156   2.998   6.552  1.0937 -0.3503  1.0831
 8921SOL    HW238400   0.099   3.119   6.491 -1.3668  0.0320  0.2050
 8922SOL     OW38401   0.138   2.688   5.234 -0.1611  0.0105  0.1456
 8922SOL    HW138402   0.233   2.684   5.238 -0.3003 -0.8772  2.5760
 8922SOL    HW238403   0.147   2.766   5.178  1.0754  0.1461  0.5344
 8923SOL     OW38404   0.377   1.643   8.700  0.3549 -0.4419 -0.4291
 8923SOL    HW138405   0.282   1.640   8.698  0.3780 -1.4575 -0.0024
 8923SOL    HW238406   0.400   1.667   8.610 -2.1025  2.8794 -0.1545
 8924SOL     OW38407   2.614   3.634   6.323 -0.1534 -0.3509 -0.0881
 8924SOL    HW138408   2.584   3.545   6.304 -2.5142  0.3638  0.3708
 8924SOL    HW238409   2.542   3.681   6.282  0.7352  0.8099 -0.3079
 8925SOL     OW38410   0.287   1.591   4.105 -0.0763 -0.1701 -0.0491
 8925SOL    HW138411   0.330   1.673   4.082 -0.6551 -0.7227 -3.2020
 8925SOL    HW238412   0.346   1.531   4.058  2.0331  0.6115  1.5963
 8926SOL     OW38413   3.886   1.905   2.130  0.0104  1.3354  0.4926
 8926SOL    HW138414   3.895   1.818   2.090  0.6404  1.5722  0.1292
 8926SOL    HW238415   3.938   1.958   2.070  0.9378 -0.2197 -0.0694
 8927SOL     OW38416   3.657   3.830  14.550 -0.4914  0.1100 -0.0154
 8927SOL    HW138417   3.572   3.800  14.521 -0.5129  0.1656 -0.0102
 8927SOL    HW238418   3.681   3.888  14.477 -1.4001  3.5175  2.3823
 8928SOL     OW38419   2.178   4.435   3.342 -0.1370 -0.1340 -0.3812
 8928SOL    HW138420   2.163   4.380   3.419 -0.9929 -0.2784 -0.6532
 8928SOL    HW238421   2.147   4.391   3.262 -1.3807  0.3185 -0.1490
 8929SOL     OW38422   2.242   3.223   6.237  0.0114 -0.7190 -0.0829
 8929SOL    HW138423   2.247   3.173   6.155  0.0545  0.3126 -0.7084
 8929SOL    HW238424   2.240   3.151   6.300 -1.1601  0.0945  0.8003
 8930SOL     OW38425   0.596   0.131  16.901  0.4025 -0.2886 -0.0295
 8930SOL    HW138426   0.508   0.139  16.937  0.8650 -0.4059  1.1223
 8930SOL    HW238427   0.629   0.220  16.890 -1.0639  0.1453 -0.8567
 8931SOL     OW38428   0.392   2.391   8.624  0.4026 -0.1211  0.5251
 8931SOL    HW138429   0.452   2.340   8.569  0.0604  1.0805 -0.9477
 8931SOL    HW238430   0.390   2.478   8.585  0.6021  0.0954  1.0028
 8932SOL     OW38431   3.893   2.244   6.431  0.7501 -0.3328  0.4581
 8932SOL    HW138432   3.945   2.219   6.355  0.2193 -1.8498  0.5893
 8932SOL    HW238433   3.861   2.330   6.404  1.9784  0.1111  0.4119
 8933SOL     OW38434   0.269   0.489   5.831  0.0931 -0.0185  0.1970
 8933SOL    HW138435   0.194   0.503   5.888  0.7767  3.6976  0.1855
 8933SOL    HW238436   0.335   0.538   5.881  0.6765 -0.3354 -0.2575
 8934SOL     OW38437   1.205   3.390   7.615 -0.3691  0.4094  0.2983
 8934SOL    HW138438   1.169   3.469   7.575 -2.9670  0.1565  2.0996
 8934SOL    HW238439   1.130   3.352   7.661  1.2021 -1.9174  0.9625
 8935SOL     OW38440   2.957   3.386   5.755  0.7677 -0.1471 -0.6440
 8935SOL    HW138441   2.869   3.408   5.723  0.9355  0.5581 -0.6162
 8935SOL    HW238442   2.984   3.476   5.772  0.3934  0.2129 -1.9085
 8936SOL     OW38443   1.581   1.461   4.112  0.3421  0.2599 -0.5369
 8936SOL    HW138444   1.570   1.501   4.198 -1.1204  1.3211 -1.2177
 8936SOL    HW238445   1.586   1.371   4.145 -0.4815  0.5911  0.4733
 8937SOL     OW38446   3.336   1.443  13.074  0.5501 -0.1072  0.3473
 8937SOL    HW138447   3.398   1.426  13.145  3.5568 -0.3205 -2.3237
 8937SOL    HW238448   3.264   1.491  13.116 -0.4377 -3.0977  2.0695
 8938SOL     OW38449   1.406   1.256   1.968 -0.3276 -0.2439 -0.2157
 8938SOL    HW138450   1.342   1.305   1.918  0.3547 -0.7539 -1.5922
 8938SOL    HW238451   1.419   1.181   1.910 -4.8614 -2.0153  1.0498
 8939SOL     OW38452   1.835   0.337   1.832  0.1915 -0.3942 -0.0224
 8939SOL    HW138453   1.775   0.402   1.795 -0.1904 -1.1687 -0.7556
 8939SOL    HW238454   1.815   0.337   1.926  2.5706 -1.2961  0.4829
 8940SOL     OW38455   3.366   0.455   4.378 -0.0031  0.0165  0.3067
 8940SOL    HW138456   3.294   0.485   4.322  1.3698  0.4021 -1.2567
 8940SOL    HW238457   3.318   0.462   4.460 -2.7337 -0.3715 -1.2645
 8941SOL     OW38458   1.190   2.467   2.976 -0.0504 -0.4625  0.1604
 8941SOL    HW138459   1.234   2.401   3.031 -0.2077 -0.4806  0.2628
 8941SOL    HW238460   1.263   2.522   2.948 -1.2510  0.9852 -0.1378
 8942SOL     OW38461   0.925   2.650   4.186  0.3466  0.1616  0.1180
 8942SOL    HW138462   0.848   2.604   4.151 -0.9475 -0.4023  3.7152
 8942SOL    HW238463   0.877   2.732   4.200 -2.0232 -1.1890 -0.0947
 8943SOL     OW38464   3.401   3.234  13.500  0.0414 -0.5034 -0.0818
 8943SOL    HW138465   3.418   3.305  13.561 -0.4944  0.5082 -1.1165
 8943SOL    HW238466   3.312   3.215  13.530  0.7763  2.0728  3.7007
 8944SOL     OW38467   1.123   2.074   3.585  0.2129 -0.6449  0.1502
 8944SOL    HW138468   1.188   2.008   3.611  0.2237 -1.0202 -0.8342
 8944SOL    HW238469   1.120   2.062   3.490  1.1482  1.9745 -0.2271
 8945SOL     OW38470   1.516   4.675   3.938  0.1697  0.0600 -0.2155
 8945SOL    HW138471   1.537   4.612   3.870  0.9360 -1.3910  1.3692
 8945SOL    HW238472   1.476   0.007   3.881 -0.0410 -1.0006 -1.2865
 8946SOL     OW38473   3.766   4.133  11.285  0.4664 -0.4682  0.8346
 8946SOL    HW138474   3.730   4.152  11.371  1.1424  0.0335  1.0053
 8946SOL    HW238475   3.801   4.219  11.261  1.5388 -0.7049  1.5530
 8947SOL     OW38476   4.354   2.513   4.295 -0.2622 -0.0723 -0.1493
 8947SOL    HW138477   4.406   2.480   4.369 -1.3260  0.1307  0.6794
 8947SOL    HW238478   4.271   2.468   4.309  0.8493 -1.9319  0.5989
 8948SOL     OW38479   3.545   1.029   4.053  0.3902 -0.2539  0.2623
 8948SOL    HW138480   3.557   0.955   3.994  2.4963 -0.0665  0.4732
 8948SOL    HW238481   3.570   0.986   4.135 -1.1266 -2.0561 -0.2122
 8949SOL     OW38482   1.372   0.589   5.345 -0.7277  0.2872  0.8266
 8949SOL    HW138483   1.357   0.664   5.288  1.4893  2.1130  2.6549
 8949SOL    HW238484   1.464   0.568   5.328 -1.8171 -2.5334 -1.5524
 8950SOL     OW38485   1.561   0.376   1.238 -0.2834  1.0898  0.2444
 8950SOL    HW138486   1.476   0.401   1.201 -0.3316  1.8483  0.8726
 8950SOL    HW238487   1.583   0.297   1.189  2.5282  0.7895  1.9512
 8951SOL     OW38488   2.063   1.923   4.603  0.3573  0.7399 -0.1885
 8951SOL    HW138489   1.991   1.907   4.664 -1.3258  1.2029 -2.0728
 8951SOL    HW238490   2.030   1.873   4.529  0.8949  2.0889 -1.3397
 8952SOL     OW38491   2.197   3.380   7.312 -0.2077  0.2566 -0.2070
 8952SOL    HW138492   2.207   3.314   7.380 -1.3796 -1.1494 -1.4013
 8952SOL    HW238493   2.275   3.434   7.324  0.2108 -0.2997 -0.3978
 8953SOL     OW38494   1.794   0.958   9.668  0.8304 -0.9754 -0.4430
 8953SOL    HW138495   1.766   1.049   9.655  2.1345 -0.7272 -1.5664
 8953SOL    HW238496   1.770   0.917   9.585 -0.3731 -0.3624 -0.3911
 8954SOL     OW38497   0.230   2.473   4.928 -0.2684  0.1008 -0.3648
 8954SOL    HW138498   0.305   2.433   4.972 -0.3537 -0.8981 -1.1093
 8954SOL    HW238499   0.266   2.544   4.875  1.0513  0.4405  0.9755
 8955SOL     OW38500   3.750   3.090   0.352  1.0606 -0.0687  0.3020
 8955SOL    HW138501   3.826   3.032   0.356  1.9125  0.8508 -2.0309
 8955SOL    HW238502   3.693   3.056   0.283  0.9768  1.4623 -0.3895
 8956SOL     OW38503   1.659   2.323   5.200  0.2128 -0.4689  0.0578
 8956SOL    HW138504   1.617   2.349   5.119 -0.5741  0.0218  0.6290
 8956SOL    HW238505   1.591   2.267   5.238  1.6157 -1.9081  0.4801
 8957SOL     OW38506   2.959   3.851   3.031 -0.5030  0.0311  0.1308
 8957SOL    HW138507   2.999   3.815   2.952  1.2441 -1.3907  1.6744
 8957SOL    HW238508   2.972   3.944   3.011  2.3434 -0.8286 -1.9199
 8958SOL     OW38509   3.344   1.267   3.555  0.0079  0.4452 -0.5147
 8958SOL    HW138510   3.316   1.314   3.634  0.9261  1.2057 -0.6415
 8958SOL    HW238511   3.423   1.218   3.580  0.0762  1.8259  2.0562
 8959SOL     OW38512   0.865   1.079   7.183  0.0664 -0.0678  0.1373
 8959SOL    HW138513   0.903   1.162   7.211 -0.7407  0.1186  0.6725
 8959SOL    HW238514   0.780   1.065   7.224  0.2873  0.3358  0.7396
 8960SOL     OW38515   0.059   1.630   7.316  0.5201 -0.8820 -0.7027
 8960SOL    HW138516   0.144   1.661   7.347 -1.3198  1.2207  2.2309
 8960SOL    HW238517   0.026   1.696   7.255 -0.4237 -1.9621 -1.3544
 8961SOL     OW38518   3.289   4.285   6.486 -0.3259  0.4559 -0.1114
 8961SOL    HW138519   3.353   4.219   6.511  1.2744  1.6075 -1.1605
 8961SOL    HW238520   3.239   4.232   6.425  0.0752 -0.5994  0.4838
 8962SOL     OW38521   3.794   3.993  14.156 -0.2222 -0.2655 -0.3911
 8962SOL    HW138522   3.786   3.907  14.115 -1.5892 -0.6768  0.7205
 8962SOL    HW238523   3.787   4.059  14.087  0.2680  2.7143  2.4137
 8963SOL     OW38524   3.342   4.202  10.769 -0.0533  0.1556  0.3081
 8963SOL    HW138525   3.406   4.134  10.795 -2.3204 -1.5342  1.4584
 8963SOL    HW238526   3.301   4.168  10.690  0.7078  0.5283 -0.2496
 8964SOL     OW38527   4.508   4.522   1.935 -0.1265  0.4801  0.2301
 8964SOL    HW138528   4.524   4.551   2.025  1.0699 -0.3225  0.2806
 8964SOL    HW238529   4.546   4.589   1.878 -1.3314  3.3739  2.8473
 8965SOL     OW38530   3.982   2.194   3.384 -0.7679  0.6372  0.1453
 8965SOL    HW138531   4.016   2.268   3.434 -2.0876  1.1412  0.2966
 8965SOL    HW238532   3.962   2.136   3.457 -0.4074 -2.3475 -2.1148
 8966SOL     OW38533   4.405   2.466   5.375 -0.1245 -0.4278 -0.3916
 8966SOL    HW138534   4.476   2.437   5.318  0.6385 -1.3623  1.0308
 8966SOL    HW238535   4.370   2.533   5.317  0.6880  1.3858  1.2039
 8967SOL     OW38536   2.153   4.317   9.427  0.0183 -0.0256  0.3608
 8967SOL    HW138537   2.235   4.270   9.415  0.1535  0.7530 -1.8093
 8967SOL    HW238538   2.188   4.400   9.460  0.4163 -1.0245  2.4303
 8968SOL     OW38539   3.321   0.702  15.853  0.1643 -0.4602 -0.0388
 8968SOL    HW138540   3.312   0.774  15.791 -2.4124 -0.5449  0.2347
 8968SOL    HW238541   3.316   0.759  15.930  1.5967 -0.2160 -0.1397
 8969SOL     OW38542   1.198   1.897   8.908  0.4118 -0.2302  0.3644
 8969SOL    HW138543   1.207   1.975   8.963  0.7043  1.3359 -1.8965
 8969SOL    HW238544   1.116   1.862   8.943 -0.5865  0.4239 -1.3146
 8970SOL     OW38545   3.730   2.059  16.783  0.0093 -0.1993  0.1845
 8970SOL    HW138546   3.817   2.055  16.823 -0.3434 -2.7551  0.6884
 8970SOL    HW238547   3.755   2.098  16.699  1.5973 -0.0886  0.7055
 8971SOL     OW38548   0.317   1.867   6.097 -0.0483 -0.4196 -0.1834
 8971SOL    HW138549   0.389   1.900   6.043  1.4646 -1.5576  1.1476
 8971SOL    HW238550   0.249   1.922   6.058  0.1134  0.8824  1.3512
 8972SOL     OW38551   0.803   0.683   4.904 -0.5132  0.5333 -1.0106
 8972SOL    HW138552   0.792   0.588   4.910 -1.0676  0.7039  0.5263
 8972SOL    HW238553   0.720   0.727   4.918 -0.1680  0.0660  2.4851
 8973SOL     OW38554   2.128   1.764   9.745 -0.5040  0.6571  0.1852
 8973SOL    HW138555   2.077   1.842   9.769 -2.4005 -0.1202 -1.3429
 8973SOL    HW238556   2.074   1.720   9.680  0.2056 -0.1016  0.1112
 8974SOL     OW38557   1.561   2.952   9.569  0.0527  0.7660  0.6133
 8974SOL    HW138558   1.475   2.922   9.539  1.0325 -2.4604  0.9572
 8974SOL    HW238559   1.615   2.933   9.492 -2.5603  2.2034 -1.5374
 8975SOL     OW38560   1.318   0.815   9.066 -0.0574  0.2910  0.4134
 8975SOL    HW138561   1.404   0.782   9.091  0.3758  1.9988  1.2252
 8975SOL    HW238562   1.336   0.902   9.030 -1.1076 -0.4703 -1.9871
 8976SOL     OW38563   2.082   0.976   0.905 -0.4394 -0.8880 -0.3696
 8976SOL    HW138564   2.086   0.885   0.934  1.5414 -0.2074  1.4632
 8976SOL    HW238565   2.056   0.960   0.814 -0.4506  0.9429 -0.7033
 8977SOL     OW38566   4.538   1.861  13.659  0.7603 -0.0737  0.4146
 8977SOL    HW138567   4.502   1.805  13.590  0.3590  1.7812 -0.9095
 8977SOL    HW238568   4.632   1.861  13.641  0.5109 -0.8232 -0.9484
 8978SOL     OW38569   0.023   3.283   9.372 -0.2796  0.9166  0.0232
 8978SOL    HW138570   4.718   3.262   9.457  0.5023  0.9648  0.3938
 8978SOL    HW238571   0.107   3.314   9.407  0.3832 -0.0106 -0.7590
 8979SOL     OW38572   0.222   2.775   7.750 -0.1198 -0.3081 -0.5529
 8979SOL    HW138573   0.164   2.846   7.722 -0.7979 -1.0577 -1.0411
 8979SOL    HW238574   0.161   2.724   7.804  0.9050 -0.1225  0.7744
 8980SOL     OW38575   0.509   1.067  17.621 -0.2927 -0.5535  0.4116
 8980SOL    HW138576   0.515   0.993  17.682 -1.2628  0.1319  1.3471
 8980SOL    HW238577   0.578   1.128  17.647  0.1339 -0.3402 -1.2446
 8981SOL     OW38578   3.411   4.592   2.309 -0.3793 -0.1056 -0.0440
 8981SOL    HW138579   3.333   4.554   2.269 -0.0397 -1.3381  0.4855
 8981SOL    HW238580   3.468   4.586   2.232 -2.3590  1.5917 -1.6526
 8982SOL     OW38581   4.485   1.435   0.111 -0.0067 -0.0426 -0.1977
 8982SOL    HW138582   4.556   1.439   0.047  1.2946 -0.9316  1.2064
 8982SOL    HW238583   4.480   1.340   0.108  0.5187 -0.1132  1.2346
 8983SOL     OW38584   0.584   2.469   6.493 -0.3053 -0.0038  0.0957
 8983SOL    HW138585   0.558   2.380   6.467 -2.4798  0.0409  2.1094
 8983SOL    HW238586   0.591   2.509   6.406  1.1699 -3.8666 -1.5552
 8984SOL     OW38587   2.874   2.306   6.654 -0.1486 -0.0451  0.3203
 8984SOL    HW138588   2.969   2.295   6.658 -0.0494  0.7439  0.2820
 8984SOL    HW238589   2.865   2.397   6.684 -0.5147  0.3211 -0.9023
 8985SOL     OW38590   4.237   1.480   2.915  0.1164 -0.8788 -0.0856
 8985SOL    HW138591   4.247   1.422   2.990  1.0490  0.8354  1.1149
 8985SOL    HW238592   4.296   1.552   2.935  0.1498 -0.3718 -2.0215
 8986SOL     OW38593   2.468   1.569   8.890  0.7599 -0.9149 -0.0426
 8986SOL    HW138594   2.488   1.591   8.800  0.5862 -0.8707 -0.0707
 8986SOL    HW238595   2.444   1.658   8.916 -0.3067 -0.9503 -0.8975
 8987SOL     OW38596   2.168   4.657   3.817 -0.2990  0.0151  0.1040
 8987SOL    HW138597   2.149   0.016   3.800 -3.0005 -0.9047 -1.9400
 8987SOL    HW238598   2.245   4.653   3.874  0.7592  1.7239 -1.2110
 8988SOL     OW38599   3.474   1.509   5.409 -0.2174 -0.5813  0.0791
 8988SOL    HW138600   3.380   1.529   5.417 -0.2876 -0.8229 -0.1363
 8988SOL    HW238601   3.499   1.570   5.478 -1.8831  0.5275 -0.3027
 8989SOL     OW38602   0.264   2.297   5.970  0.0357  0.0930 -0.3130
 8989SOL    HW138603   0.234   2.378   6.010  0.2745  0.2930 -0.5359
 8989SOL    HW238604   0.268   2.236   6.044 -1.4913  0.2010 -0.1418
 8990SOL     OW38605   3.226   0.585  14.908  0.3003 -0.1735  0.1128
 8990SOL    HW138606   3.280   0.552  14.980 -2.4101 -2.2050  1.2139
 8990SOL    HW238607   3.295   0.599  14.844  1.3979 -1.5823  0.9806
 8991SOL     OW38608   1.489   0.375   5.603 -0.2404 -0.4353 -0.0374
 8991SOL    HW138609   1.552   0.363   5.675  2.4724  0.2496 -2.3273
 8991SOL    HW238610   1.424   0.319   5.647  0.1857 -0.0109  1.1398
 8992SOL     OW38611   3.506   2.678   7.695  0.0256  0.5538  0.3359
 8992SOL    HW138612   3.530   2.629   7.616 -1.1262  1.5725 -0.6402
 8992SOL    HW238613   3.536   2.764   7.669  1.3446 -0.1774 -0.5597
 8993SOL     OW38614   0.243   1.839   9.507  0.8414 -0.0834 -0.4288
 8993SOL    HW138615   0.308   1.769   9.503  0.0857 -0.9075  1.3449
 8993SOL    HW238616   0.164   1.791   9.481 -0.4573  0.7283  1.9553
 8994SOL     OW38617   1.427   1.200   1.310 -0.0684 -0.0598 -0.4460
 8994SOL    HW138618   1.478   1.269   1.268 -1.3922  1.4455  0.4368
 8994SOL    HW238619   1.452   1.199   1.402 -2.3283  0.7187  0.1637
 8995SOL     OW38620   2.583   3.460   6.934  0.0845 -0.3244 -0.1041
 8995SOL    HW138621   2.573   3.523   6.863 -1.3008 -1.6809 -1.1264
 8995SOL    HW238622   2.632   3.389   6.892  0.2369 -0.3421  0.1035
 8996SOL     OW38623   2.869   4.198   0.514 -0.2088 -0.6711 -0.6455
 8996SOL    HW138624   2.801   4.172   0.452 -0.2524 -0.2227 -0.7871
 8996SOL    HW238625   2.924   4.119   0.517 -1.4571 -1.4617  1.5884
 8997SOL     OW38626   2.430   0.309  11.953  1.0072 -0.5049  0.5933
 8997SOL    HW138627   2.502   0.252  11.979  1.7068  0.4163  0.6868
 8997SOL    HW238628   2.375   0.293  12.030 -1.7110 -2.1077 -1.6858
 8998SOL     OW38629   1.606   4.382   1.255  0.0429 -0.5045 -0.1051
 8998SOL    HW138630   1.535   4.361   1.195 -0.3742 -2.0311  0.9153
 8998SOL    HW238631   1.681   4.361   1.200 -0.8285 -2.7941 -0.3908
 8999SOL     OW38632   4.640   2.005   2.329  0.3226 -0.6591 -0.2077
 8999SOL    HW138633   4.675   2.080   2.377 -0.5964 -1.2749  1.4138
 8999SOL    HW238634   4.608   1.952   2.402  1.3558  1.2817  1.6260
 9000SOL     OW38635   3.383   0.961  10.604  0.0729  0.5611  0.5203
 9000SOL    HW138636   3.418   0.895  10.663 -0.8123  2.4475  3.1495
 9000SOL    HW238637   3.288   0.947  10.602  0.2127 -0.5284  2.2802
 9001SOL     OW38638   2.998   0.882  11.818  0.0196  0.5132 -0.3979
 9001SOL    HW138639   3.010   0.856  11.909 -1.7646 -0.1916 -0.3643
 9001SOL    HW238640   2.903   0.898  11.814 -0.1239 -0.5905 -1.1980
 9002SOL     OW38641   2.853   3.881  15.123  0.5562  0.5632  0.3108
 9002SOL    HW138642   2.860   3.794  15.164 -0.1694  0.4524  0.1895
 9002SOL    HW238643   2.907   3.934  15.182  0.7411  0.7192  0.0058
 9003SOL     OW38644   1.169   0.946   5.084  0.1986 -0.3809 -0.1374
 9003SOL    HW138645   1.080   0.932   5.051  0.4050 -0.3862 -0.6966
 9003SOL    HW238646   1.146   1.004   5.157  2.8731 -1.5253  1.5814
 9004SOL     OW38647   0.908   4.407   2.755  0.0791 -0.2774 -0.1901
 9004SOL    HW138648   0.914   4.396   2.660 -0.0618 -0.5511 -0.1676
 9004SOL    HW238649   0.812   4.413   2.753  0.1289  0.3290 -0.6144
 9005SOL     OW38650   1.176   0.428  10.780 -0.4569 -0.9156 -0.9903
 9005SOL    HW138651   1.241   0.390  10.839  1.1481  3.0324 -0.2063
 9005SOL    HW238652   1.187   0.523  10.784  2.9147 -1.3224 -0.7247
 9006SOL     OW38653   1.561   1.554   5.113  0.4050 -0.0047  0.1213
 9006SOL    HW138654   1.554   1.460   5.134  0.2048 -0.1860 -0.7577
 9006SOL    HW238655   1.472   1.585   5.132 -0.4072 -1.5857 -1.1201
 9007SOL     OW38656   2.297   1.902  15.712 -0.2921 -0.4080  0.4641
 9007SOL    HW138657   2.361   1.890  15.782 -1.1011 -1.0424  1.0879
 9007SOL    HW238658   2.323   1.840  15.644  2.4986  1.1271  0.1231
 9008SOL     OW38659   2.257   1.129   0.069 -0.3446  0.1137 -0.3079
 9008SOL    HW138660   2.281   1.065   0.136  0.0149  2.5008  1.8307
 9008SOL    HW238661   2.270   1.069  17.730 -3.1091  0.2522 -0.9143
 9009SOL     OW38662   3.313   1.628   7.791 -0.3677 -0.1588 -0.2986
 9009SOL    HW138663   3.344   1.716   7.812  0.1924 -0.6120  0.7615
 9009SOL    HW238664   3.273   1.641   7.705  0.3607 -1.2332 -0.8124
 9010SOL     OW38665   4.268   0.448   0.252 -0.2536  0.9649 -0.2455
 9010SOL    HW138666   4.357   0.461   0.282  0.0652  0.8855 -1.1530
 9010SOL    HW238667   4.263   0.353   0.245 -3.5942  1.0896  0.1904
 9011SOL     OW38668   1.027   3.024   6.758 -0.5981  0.2204  0.4571
 9011SOL    HW138669   1.119   3.010   6.779 -0.9343 -0.5826  1.4119
 9011SOL    HW238670   0.985   2.944   6.789  0.5691 -1.3620 -2.0789
 9012SOL     OW38671   2.459   1.921   5.693 -0.3517  0.1620 -0.1547
 9012SOL    HW138672   2.464   1.893   5.784 -0.9623  2.3921  0.5628
 9012SOL    HW238673   2.530   1.984   5.679  0.6997 -0.6921  1.3728
 9013SOL     OW38674   0.092   0.784   3.923 -0.2964 -0.0123  0.0793
 9013SOL    HW138675   0.121   0.700   3.959 -0.9900 -1.2479 -2.2575
 9013SOL    HW238676   0.089   0.744   3.836  0.3627  0.9839 -0.4011
 9014SOL     OW38677   0.831   0.413  14.305  0.3963 -0.2949 -0.5930
 9014SOL    HW138678   0.873   0.469  14.370 -4.0074 -0.2379  2.2035
 9014SOL    HW238679   0.783   0.485  14.265  0.2391 -0.6338 -1.0158
 9015SOL     OW38680   3.708   3.681   7.458 -0.2882 -0.1707  0.4453
 9015SOL    HW138681   3.803   3.669   7.455 -0.3114 -1.0568  2.7898
 9015SOL    HW238682   3.690   3.729   7.539 -0.5224 -1.9894  1.4776
 9016SOL     OW38683   3.212   3.977  17.431 -0.0995 -0.1559  0.0877
 9016SOL    HW138684   3.117   3.965  17.434 -0.3886  2.4649  1.6531
 9016SOL    HW238685   3.236   3.921  17.504  0.7458  0.4178  0.2478
 9017SOL     OW38686   4.036   0.442   7.415  0.4629 -0.0611  0.3479
 9017SOL    HW138687   3.972   0.462   7.483 -1.0365 -0.4433 -0.9575
 9017SOL    HW238688   4.110   0.440   7.477 -0.1838 -1.1932  1.0911
 9018SOL     OW38689   1.468   0.844  11.517  0.1387  0.1542 -0.7098
 9018SOL    HW138690   1.543   0.859  11.574  0.6012 -0.0093 -1.2859
 9018SOL    HW238691   1.490   0.901  11.444 -1.8631  1.7271 -0.0938
 9019SOL     OW38692   0.029   4.212  17.140 -0.4670 -0.3948 -0.0147
 9019SOL    HW138693   0.109   4.264  17.131 -0.2563 -0.2825  2.4180
 9019SOL    HW238694   0.021   4.235  17.233 -2.3399 -1.0740 -0.0029
 9020SOL     OW38695   2.697   3.225   2.239  0.8483 -0.4251  0.1944
 9020SOL    HW138696   2.781   3.222   2.285  1.0895 -1.5563 -0.3284
 9020SOL    HW238697   2.713   3.304   2.189  1.6430 -0.2834  0.6676
 9021SOL     OW38698   3.174   4.598   3.829  0.0948  0.3398  0.5098
 9021SOL    HW138699   3.267   4.608   3.846 -0.2001  1.0302  1.6800
 9021SOL    HW238700   3.151   4.635   3.914  0.7208  1.9771 -0.0248
 9022SOL     OW38701   3.622   0.915   7.903 -0.1225 -0.0796  0.1548
 9022SOL    HW138702   3.712   0.946   7.906  0.3208 -1.2842 -0.7043
 9022SOL    HW238703   3.608   0.898   7.809  3.0209 -0.3152 -0.2450
 9023SOL     OW38704   4.376   2.742   5.932 -0.1334  0.2393 -0.2145
 9023SOL    HW138705   4.285   2.765   5.948  0.0637 -0.4291  1.7812
 9023SOL    HW238706   4.366   2.650   5.958  1.6972 -0.4283 -1.8515
 9024SOL     OW38707   4.316   4.700   3.438  0.0324  0.3081 -0.4044
 9024SOL    HW138708   4.381   4.677   3.504 -0.5600 -1.8878 -0.5720
 9024SOL    HW238709   4.357   4.729   3.357 -0.2489  1.2569 -0.2092
 9025SOL     OW38710   2.486   0.797  11.529 -0.4870  0.1907  0.3599
 9025SOL    HW138711   2.457   0.722  11.477  0.2162 -0.6019  1.1207
 9025SOL    HW238712   2.476   0.864  11.461 -1.4235  2.8372  3.0915
 9026SOL     OW38713   4.733   0.263   9.741 -0.1627 -0.1697 -0.0794
 9026SOL    HW138714   4.691   0.344   9.712  3.6485  0.1871 -4.7874
 9026SOL    HW238715   0.086   0.260   9.699  0.5875 -0.6424  1.5285
 9027SOL     OW38716   3.228   4.375   4.921  0.3181 -0.2843 -0.1150
 9027SOL    HW138717   3.153   4.399   4.867  1.0208 -2.0081 -1.8414
 9027SOL    HW238718   3.240   4.285   4.892  1.9544  0.1414 -0.7525
 9028SOL     OW38719   3.169   4.407   2.996 -0.2188  0.1868  0.1184
 9028SOL    HW138720   3.225   4.358   3.057  0.9921  0.1764 -1.0024
 9028SOL    HW238721   3.084   4.364   3.008  0.2483 -0.7102  0.1987
 9029SOL     OW38722   2.490   0.286   7.946  0.8173 -0.2742 -0.4176
 9029SOL    HW138723   2.582   0.307   7.961  0.7739 -2.4270  2.8127
 9029SOL    HW238724   2.463   0.275   8.037  1.2590  1.2037 -0.0937
 9030SOL     OW38725   0.724   3.574   7.334  0.0656  0.5384 -0.4069
 9030SOL    HW138726   0.726   3.488   7.292 -0.6873  0.0386  0.5670
 9030SOL    HW238727   0.706   3.531   7.418 -0.1836 -0.8776 -1.1855
 9031SOL     OW38728   3.521   1.840   8.704  0.3849  0.2997  0.1755
 9031SOL    HW138729   3.490   1.930   8.719  1.5850  1.1709 -2.4868
 9031SOL    HW238730   3.462   1.801   8.639  0.2797 -0.1384  0.5419
 9032SOL     OW38731   3.203   1.086   9.547 -0.0428  0.5288 -0.2758
 9032SOL    HW138732   3.218   0.992   9.543  1.9372  0.7639  1.6218
 9032SOL    HW238733   3.245   1.111   9.465  0.3783 -1.6784 -0.7270
 9033SOL     OW38734   0.059   1.638   3.940 -0.1910  0.0080  0.0206
 9033SOL    HW138735   0.130   1.615   4.001 -1.3364 -1.9618  0.6124
 9033SOL    HW238736   4.732   1.566   3.955  0.6750 -0.4512  1.3856
 9034SOL     OW38737   3.876   3.177   8.289  0.7216  0.4937 -0.5049
 9034SOL    HW138738   3.945   3.242   8.276  0.4478  0.9810  0.4650
 9034SOL    HW238739   3.802   3.232   8.311  0.2298 -1.8097  3.5039
 9035SOL     OW38740   2.769   0.833   3.096 -1.2365  0.3747  0.2710
 9035SOL    HW138741   2.765   0.787   3.180 -0.1420 -0.6654 -0.2467
 9035SOL    HW238742   2.693   0.890   3.102  0.0199  2.2477 -1.5590
 9036SOL     OW38743   2.816   3.651   3.364  0.1179  0.7541 -0.9220
 9036SOL    HW138744   2.785   3.663   3.274 -2.6764 -0.5239 -0.1106
 9036SOL    HW238745   2.896   3.599   3.353 -0.2139  0.2851 -1.1016
 9037SOL     OW38746   0.188   3.951   7.001 -0.2933  0.0490  0.3751
 9037SOL    HW138747   0.257   3.910   7.054 -0.3296  0.4058  0.7005
 9037SOL    HW238748   0.116   3.888   7.000  0.7504 -1.1721  1.9717
 9038SOL     OW38749   3.934   2.243  13.455 -0.2020  0.4128  0.7975
 9038SOL    HW138750   3.907   2.298  13.382 -1.8158 -1.3924  0.0145
 9038SOL    HW238751   3.991   2.309  13.493  0.8031  0.0118 -0.0077
 9039SOL     OW38752   2.025   2.659   4.243 -0.7116  0.1891 -0.2433
 9039SOL    HW138753   2.067   2.667   4.329 -0.1832 -1.9282 -0.3067
 9039SOL    HW238754   1.955   2.605   4.279 -1.5805  2.7278  1.9277
 9040SOL     OW38755   3.335   1.269   2.776  0.0495 -0.3616 -0.1179
 9040SOL    HW138756   3.287   1.257   2.858 -0.6251 -0.8317 -0.5767
 9040SOL    HW238757   3.353   1.177   2.754 -1.7983 -1.0115  1.0875
 9041SOL     OW38758   4.659   1.139   7.345 -0.1590  0.1135 -0.4073
 9041SOL    HW138759   4.666   1.221   7.295  0.5171  0.5002  0.3128
 9041SOL    HW238760   0.010   1.152   7.388  0.3391  1.3033 -1.7279
 9042SOL     OW38761   0.481   0.467   1.948  0.6684  0.4961 -0.1896
 9042SOL    HW138762   0.520   0.531   2.008 -0.7114  1.6586 -0.5432
 9042SOL    HW238763   0.542   0.394   1.958 -0.0802  0.1512  1.7836
 9043SOL     OW38764   1.545   4.203   4.332  0.0718  0.1832 -0.1194
 9043SOL    HW138765   1.502   4.238   4.254 -1.9188 -1.9477 -0.0149
 9043SOL    HW238766   1.599   4.136   4.290 -0.0065 -0.3831  0.6968
 9044SOL     OW38767   4.451   4.005   1.993  0.4744  0.9144 -0.1603
 9044SOL    HW138768   4.540   3.985   2.022  1.0398  3.0410 -0.4414
 9044SOL    HW238769   4.453   4.096   1.965  0.6431  0.4491 -1.6281
 9045SOL     OW38770   1.106   3.506   8.696 -0.0124 -0.1052 -0.2976
 9045SOL    HW138771   1.016   3.474   8.698 -0.8260  2.2774  0.1989
 9045SOL    HW238772   1.085   3.598   8.708 -1.5502 -0.5298  0.1612
 9046SOL     OW38773   4.724   1.282   5.031 -0.4819 -0.4055 -0.2423
 9046SOL    HW138774   0.005   1.312   4.941 -1.0939  0.8356  0.0731
 9046SOL    HW238775   0.068   1.227   5.038  0.7253  1.2103 -0.9499
 9047SOL     OW38776   1.267   4.691   5.285 -0.5218 -0.3440 -0.3257
 9047SOL    HW138777   1.274   4.628   5.214  1.1224  1.5358 -1.8291
 9047SOL    HW238778   1.330   0.023   5.254  1.5593 -1.5496  1.3146
 9048SOL     OW38779   1.785   4.647   8.373  0.3895 -0.0555  0.4039
 9048SOL    HW138780   1.691   4.659   8.390  0.6304  0.8247  1.0652
 9048SOL    HW238781   1.765   4.586   8.301 -0.4201  1.7532 -0.8999
 9049SOL     OW38782   3.744   1.627   3.866 -0.4894 -0.3796 -0.3396
 9049SOL    HW138783   3.815   1.588   3.815 -0.9422 -1.2056 -0.3367
 9049SOL    HW238784   3.672   1.564   3.860 -0.1918 -0.8749  1.2499
 9050SOL     OW38785   2.120   0.308   3.139  0.0028  0.4553  0.1126
 9050SOL    HW138786   2.151   0.382   3.087  0.6296 -0.1770 -0.4093
 9050SOL    HW238787   2.150   0.348   3.221  0.8472  0.9117 -0.4131
 9051SOL     OW38788   4.288   2.729  14.953 -1.0717 -0.2224  0.4179
 9051SOL    HW138789   4.320   2.817  14.972 -1.5910  0.5507 -2.2922
 9051SOL    HW238790   4.199   2.759  14.934 -0.5593  0.4025 -1.0150
 9052SOL     OW38791   1.209   3.416   4.048 -0.5260  0.2547 -0.6169
 9052SOL    HW138792   1.239   3.472   3.977  1.9338  0.4845  0.6042
 9052SOL    HW238793   1.207   3.484   4.117  1.7890 -0.9180  0.6026
 9053SOL     OW38794   3.092   0.610   3.866  0.2635 -0.1354 -0.1627
 9053SOL    HW138795   3.160   0.674   3.884 -0.0657  0.2120 -0.1591
 9053SOL    HW238796   3.135   0.527   3.890 -1.2854 -1.3154 -1.4569
 9054SOL     OW38797   0.124   1.873   8.777  0.1005  0.0522  0.0691
 9054SOL    HW138798   0.105   1.796   8.723 -0.8299  0.0149  0.4581
 9054SOL    HW238799   0.106   1.943   8.714 -0.3409  0.5973  0.7991
 9055SOL     OW38800   0.230   3.677   8.249  0.2838 -0.6274  0.6528
 9055SOL    HW138801   0.205   3.709   8.162 -0.4127  0.1073  1.1251
 9055SOL    HW238802   0.319   3.710   8.254  0.2417 -0.8959  3.2080
 9056SOL     OW38803   3.922   2.682   7.981 -0.2356  0.0642  0.0128
 9056SOL    HW138804   3.827   2.668   7.978 -0.1656  0.0732 -2.2373
 9056SOL    HW238805   3.950   2.613   7.920 -0.7424  0.0855 -0.2433
 9057SOL     OW38806   1.893   3.648   1.390  0.4745  1.0714 -0.1349
 9057SOL    HW138807   1.945   3.568   1.402  0.3730  1.1509  0.8331
 9057SOL    HW238808   1.817   3.607   1.349  2.0897  0.3451 -2.4274
 9058SOL     OW38809   0.083   2.790   3.862 -0.6736 -0.2054 -0.4778
 9058SOL    HW138810   0.083   2.699   3.833 -3.3998 -0.8056  1.4028
 9058SOL    HW238811   0.169   2.809   3.899 -0.4978 -1.1344 -0.3995
 9059SOL     OW38812   4.594   3.773   7.577 -0.2329  0.1776 -0.0409
 9059SOL    HW138813   4.623   3.805   7.662 -0.2665 -0.3627  0.1739
 9059SOL    HW238814   4.640   3.836   7.521 -0.4459  0.8008  0.4858
 9060SOL     OW38815   3.936   3.784  16.925 -0.1348  0.2567 -0.1869
 9060SOL    HW138816   3.846   3.763  16.900 -0.4510  0.1657  1.0700
 9060SOL    HW238817   3.911   3.790  17.017 -0.9629 -2.3642 -0.2388
 9061SOL     OW38818   0.038   1.238   3.593  0.2467 -0.2889  0.0399
 9061SOL    HW138819   0.043   1.151   3.631 -0.3483 -1.1889 -1.9470
 9061SOL    HW238820   4.727   1.283   3.665 -1.0286  0.4892 -1.2440
 9062SOL     OW38821   3.590   0.105   5.476  0.2680 -0.1718 -0.0322
 9062SOL    HW138822   3.558   0.188   5.442 -0.1922 -0.2767  0.1529
 9062SOL    HW238823   3.532   0.042   5.434  1.0229 -1.9127  1.5172
 9063SOL     OW38824   2.261   0.508   3.846 -0.0052  0.9624 -0.1064
 9063SOL    HW138825   2.234   0.424   3.811  0.2243  1.8126 -2.3137
 9063SOL    HW238826   2.187   0.564   3.822 -0.3693 -0.0628 -1.3544
 9064SOL     OW38827   3.901   3.992   8.988  0.3751 -0.5317 -0.1051
 9064SOL    HW138828   3.835   4.038   9.042  1.2994  0.6745  0.0030
 9064SOL    HW238829   3.929   3.915   9.036 -0.9268  0.5836  2.4907
 9065SOL     OW38830   3.458   1.092  11.135 -0.0128  0.7351  0.2919
 9065SOL    HW138831   3.382   1.128  11.180 -0.3256 -0.3875  0.6526
 9065SOL    HW238832   3.529   1.126  11.190  1.3418 -1.4010 -0.1385
 9066SOL     OW38833   2.936   3.389   3.928 -0.4330  0.6822 -0.1318
 9066SOL    HW138834   2.891   3.396   3.843 -1.3346  0.6909  0.3432
 9066SOL    HW238835   2.854   3.400   3.977 -0.1947 -0.2056  0.4488
 9067SOL     OW38836   0.584   2.331   9.167 -0.3052 -0.0803  0.4026
 9067SOL    HW138837   0.511   2.271   9.151 -0.4663  0.1465  0.2941
 9067SOL    HW238838   0.611   2.309   9.257 -1.6768 -2.2856  0.2813
 9068SOL     OW38839   3.249   0.481   6.870  0.5577  0.2484  0.2489
 9068SOL    HW138840   3.226   0.572   6.889  3.2949  1.3580 -1.6686
 9068SOL    HW238841   3.217   0.465   6.781  0.2087  0.5693  0.3197
 9069SOL     OW38842   4.091   3.247  16.773  0.4652  0.3728 -0.1580
 9069SOL    HW138843   4.142   3.328  16.777  0.0051  0.7414 -1.8230
 9069SOL    HW238844   4.140   3.204  16.703 -0.0377  0.5344 -0.6022
 9070SOL     OW38845   0.976   2.814  12.778  0.9936  0.4665 -0.1960
 9070SOL    HW138846   1.061   2.781  12.748  1.0427  0.6041 -0.2043
 9070SOL    HW238847   0.984   2.812  12.873  0.4524 -0.7668 -0.1612
 9071SOL     OW38848   4.687   1.130   2.480  0.3968  0.3374 -0.2311
 9071SOL    HW138849   4.615   1.072   2.506  0.0878  0.3553 -1.0740
 9071SOL    HW238850   4.729   1.149   2.565 -1.3535  0.4708  0.5983
 9072SOL     OW38851   0.604   2.969   8.847 -0.2918  0.3327  0.3080
 9072SOL    HW138852   0.509   2.965   8.831 -0.8453  0.9276  3.5007
 9072SOL    HW238853   0.619   2.934   8.935  1.1547  0.6268  0.1725
 9073SOL     OW38854   2.861   2.540   6.786 -0.1706  0.4255 -0.3204
 9073SOL    HW138855   2.808   2.591   6.724  0.9308  2.8621  0.7424
 9073SOL    HW238856   2.920   2.611   6.813 -2.8956  2.5096  0.1173
 9074SOL     OW38857   2.285   0.516   7.286  0.4472  0.4051 -0.0070
 9074SOL    HW138858   2.211   0.542   7.231 -1.3154 -0.9817  1.6704
 9074SOL    HW238859   2.239   0.434   7.306  0.9065 -0.2086 -1.4563
 9075SOL     OW38860   2.726   3.121   4.116  0.5486  0.6591  0.4838
 9075SOL    HW138861   2.712   3.215   4.116  1.0147  0.7345 -1.0213
 9075SOL    HW238862   2.639   3.094   4.145  0.8423 -1.3259 -0.4294
 9076SOL     OW38863   3.952   1.282   6.439  0.3615  0.1043 -0.0087
 9076SOL    HW138864   3.954   1.190   6.467  0.0915  0.0274 -0.2378
 9076SOL    HW238865   3.895   1.267   6.364  1.6879 -1.6861 -0.6888
 9077SOL     OW38866   0.507   0.520  12.269 -0.1969 -0.0741  0.9730
 9077SOL    HW138867   0.435   0.555  12.218  0.2628 -2.8988 -1.6294
 9077SOL    HW238868   0.556   0.484  12.194 -0.2310 -0.9392  1.3709
 9078SOL     OW38869   0.057   4.452   8.689  0.8028 -0.2613  0.4194
 9078SOL    HW138870   0.034   4.381   8.749 -0.8251 -1.5496 -1.7341
 9078SOL    HW238871   0.146   4.426   8.663  1.0758 -0.5805  1.6533
 9079SOL     OW38872   3.386   2.788   7.439 -0.6483 -0.2787  0.5986
 9079SOL    HW138873   3.303   2.829   7.414  0.2333  3.2675  3.3401
 9079SOL    HW238874   3.446   2.862   7.432 -1.4234  0.2611 -0.2559
 9080SOL     OW38875   0.433   1.013   5.608  0.1468  0.3510 -0.1013
 9080SOL    HW138876   0.445   1.104   5.635 -1.4716  1.1100 -1.9386
 9080SOL    HW238877   0.459   0.961   5.684  0.2102  3.4687  1.9707
 9081SOL     OW38878   4.472   0.177   2.198 -0.0372  0.0838 -0.4866
 9081SOL    HW138879   4.423   0.180   2.280  1.0281 -3.3105  0.2652
 9081SOL    HW238880   4.551   0.225   2.221  0.0359  0.1761 -0.9141
 9082SOL     OW38881   4.658   0.306   6.592 -0.6807  0.0028  0.5739
 9082SOL    HW138882   4.627   0.339   6.676  0.2339 -0.3836  1.0643
 9082SOL    HW238883   0.001   0.258   6.621 -0.2992 -0.1246 -0.6385
 9083SOL     OW38884   0.787   0.995   1.385  0.2934 -0.1004 -0.2104
 9083SOL    HW138885   0.813   0.981   1.476  0.1293  1.1443  0.0375
 9083SOL    HW238886   0.830   1.077   1.360 -0.4924  0.9613  1.9211
 9084SOL     OW38887   2.116   3.443   4.546  0.1350  0.0231  0.4563
 9084SOL    HW138888   2.097   3.398   4.464  0.0925 -0.6675  0.8336
 9084SOL    HW238889   2.209   3.422   4.549 -0.2398 -1.7379  0.0108
 9085SOL     OW38890   3.953   4.698   8.000  0.3067 -0.0125 -0.2782
 9085SOL    HW138891   3.927   4.630   7.937  1.2599  0.6013 -1.3313
 9085SOL    HW238892   3.871   4.707   8.049  0.5940 -0.4138  0.2770
 9086SOL     OW38893   4.710   1.005   9.630 -0.2936 -0.2305 -0.0971
 9086SOL    HW138894   0.027   0.965   9.701 -3.0501 -1.4653  1.2072
 9086SOL    HW238895   4.620   0.987   9.659 -0.4952  1.6143  0.3867
 9087SOL     OW38896   2.202   2.221   9.090  0.1495  0.4741  0.0746
 9087SOL    HW138897   2.137   2.181   9.032  0.2366  1.4271 -0.6899
 9087SOL    HW238898   2.163   2.203   9.176  0.1932  0.5708  0.1152
 9088SOL     OW38899   2.613   3.625   0.762  0.2440  0.1044  0.2616
 9088SOL    HW138900   2.695   3.620   0.811  0.4044  0.2557  0.0078
 9088SOL    HW238901   2.649   3.672   0.687  0.7329 -2.1990 -0.9304
 9089SOL     OW38902   0.210   4.030   6.481 -0.0946 -0.0297  0.4992
 9089SOL    HW138903   0.285   4.075   6.442  0.6513 -0.5045  1.4198
 9089SOL    HW238904   0.248   3.964   6.539  1.9684  0.2772 -0.4940
 9090SOL     OW38905   3.697   3.427   9.564 -0.0054  0.6803  0.2656
 9090SOL    HW138906   3.671   3.409   9.474 -1.1297  0.4809  0.6264
 9090SOL    HW238907   3.695   3.522   9.574 -1.0704  0.6651  0.2203
 9091SOL     OW38908   1.901   0.808   7.696 -0.2869 -0.4432  0.3467
 9091SOL    HW138909   1.808   0.824   7.680 -0.6519 -1.8068  1.0930
 9091SOL    HW238910   1.922   0.722   7.658  0.8024  1.1563 -2.6340
 9092SOL     OW38911   1.959   4.221   9.606  1.2856 -0.5239 -0.1851
 9092SOL    HW138912   1.980   4.279   9.533  0.3049 -0.2883 -0.2769
 9092SOL    HW238913   2.032   4.159   9.601 -0.6587 -2.7848 -0.6798
 9093SOL     OW38914   0.108   1.730   3.504 -0.1729  0.1117 -0.2903
 9093SOL    HW138915   0.059   1.713   3.424  1.4582 -0.1097 -1.2391
 9093SOL    HW238916   0.044   1.696   3.567  0.4662  0.9653  0.8117
 9094SOL     OW38917   2.797   0.984  10.069 -0.2352  0.0573 -0.0604
 9094SOL    HW138918   2.817   0.979   9.975  0.0625 -2.6035  0.1364
 9094SOL    HW238919   2.795   0.891  10.090 -0.5706 -0.1120 -0.8272
 9095SOL     OW38920   0.162   4.465  10.463 -0.2213 -0.1134 -0.2790
 9095SOL    HW138921   0.082   4.518  10.459 -1.0573 -1.3296  0.4032
 9095SOL    HW238922   0.229   4.534  10.461 -0.1405 -0.1816  0.1411
 9096SOL     OW38923   3.761   3.439   5.796 -0.7252  0.6286  0.3019
 9096SOL    HW138924   3.785   3.347   5.808  0.3693  0.5988 -2.1542
 9096SOL    HW238925   3.743   3.465   5.886 -0.2054 -0.8421  0.8359
 9097SOL     OW38926   0.100   1.095  14.711 -0.9663 -0.0209 -0.3414
 9097SOL    HW138927   0.131   1.127  14.627 -0.1740 -1.3539 -0.5574
 9097SOL    HW238928   0.093   1.001  14.698 -1.4401 -0.0168 -0.1244
 9098SOL     OW38929   0.313   1.551   2.851  0.1339 -0.0737  0.2196
 9098SOL    HW138930   0.338   1.602   2.774  0.4661  1.5584  1.4258
 9098SOL    HW238931   0.308   1.463   2.812 -1.6091 -0.6591  1.7408
 9099SOL     OW38932   4.183   2.949   3.699  0.3252 -0.4565  0.3186
 9099SOL    HW138933   4.112   3.013   3.700  1.1072  0.3896  1.8110
 9099SOL    HW238934   4.149   2.879   3.755 -1.8366  0.5236  0.2476
 9100SOL     OW38935   2.313   2.643   1.489 -0.3861  0.4755  0.1257
 9100SOL    HW138936   2.271   2.583   1.428  1.0384  0.9945 -1.3703
 9100SOL    HW238937   2.244   2.706   1.509 -0.4329  0.7900 -1.0332
 9101SOL     OW38938   1.915   1.096   4.164  0.3517 -0.7244  0.2989
 9101SOL    HW138939   1.983   1.150   4.205 -0.0558 -0.6687  0.8992
 9101SOL    HW238940   1.955   1.009   4.154  0.3832 -0.7495  0.6186
 9102SOL     OW38941   2.534   1.318  13.721 -0.4476  0.1070 -0.1000
 9102SOL    HW138942   2.582   1.372  13.657 -0.4923  2.6962  2.0637
 9102SOL    HW238943   2.542   1.232  13.679  1.7982 -0.4912  1.5586
 9103SOL     OW38944   2.833   1.746  12.549  0.1215  0.7021 -0.1707
 9103SOL    HW138945   2.925   1.731  12.572 -0.8250 -1.7859  1.9902
 9103SOL    HW238946   2.787   1.704  12.622 -1.8646  1.7022 -0.8428
 9104SOL     OW38947   3.681   3.774   2.037  0.1349 -0.1834  0.1329
 9104SOL    HW138948   3.720   3.700   1.990 -0.4544 -0.2436 -0.2608
 9104SOL    HW238949   3.631   3.736   2.109 -0.3656 -0.6194 -0.4547
 9105SOL     OW38950   1.125   3.333  15.108 -0.7081  0.0715 -0.4320
 9105SOL    HW138951   1.194   3.343  15.042 -0.3821 -1.2067 -0.2935
 9105SOL    HW238952   1.131   3.239  15.124  2.2281  0.2706 -0.2210
 9106SOL     OW38953   2.885   0.751  15.184  0.2287 -0.3450 -0.4135
 9106SOL    HW138954   2.959   0.811  15.176  0.7058 -0.6698  1.3914
 9106SOL    HW238955   2.928   0.673  15.148  2.1928 -0.1871  1.5339
 9107SOL     OW38956   3.675   2.803   9.214  0.7725  0.7588  0.4565
 9107SOL    HW138957   3.608   2.755   9.166  2.6614 -0.8068 -0.6210
 9107SOL    HW238958   3.638   2.803   9.302  1.5572 -1.1128  0.7935
 9108SOL     OW38959   0.599   1.470   9.503  0.1778 -0.0674  0.3541
 9108SOL    HW138960   0.547   1.487   9.425  0.9664  0.4883 -0.0396
 9108SOL    HW238961   0.549   1.519   9.569 -0.2486 -1.3046  0.9693
 9109SOL     OW38962   2.239   0.237   2.883 -0.1967 -0.4632  0.3939
 9109SOL    HW138963   2.189   0.246   2.964 -0.1718  0.6596  0.2735
 9109SOL    HW238964   2.289   0.319   2.888  1.5081 -1.3686 -1.7839
 9110SOL     OW38965   0.934   3.401   6.371  0.4590 -0.9494  0.0692
 9110SOL    HW138966   0.955   3.404   6.464  0.5499 -2.6486  0.0982
 9110SOL    HW238967   0.850   3.356   6.369  0.6676 -1.2954 -1.4334
 9111SOL     OW38968   3.936   3.092  11.326  0.2722 -0.0735  0.2671
 9111SOL    HW138969   3.958   3.168  11.380  0.0403  0.0374  0.2061
 9111SOL    HW238970   4.012   3.042  11.296  0.6281  0.8640 -0.3846
 9112SOL     OW38971   1.156   3.003  15.946 -0.5451  0.0405 -0.2233
 9112SOL    HW138972   1.245   2.995  15.979 -0.7453 -4.0889 -0.6218
 9112SOL    HW238973   1.184   3.025  15.857  2.9557 -0.5490  0.7146
 9113SOL     OW38974   0.434   0.821   3.385  0.0785 -0.4464 -0.0117
 9113SOL    HW138975   0.432   0.728   3.408  1.1465 -0.2973  0.7167
 9113SOL    HW238976   0.425   0.814   3.290 -0.8977 -2.4222  0.2271
 9114SOL     OW38977   2.863   1.829  13.153 -0.2955  0.0269  0.1567
 9114SOL    HW138978   2.908   1.820  13.069  0.5402 -0.4410  0.6544
 9114SOL    HW238979   2.846   1.923  13.156  0.0103  0.0493  1.2268
 9115SOL     OW38980   3.846   1.088   9.541 -0.1888 -0.0052  0.0897
 9115SOL    HW138981   3.871   1.079   9.449  1.4538  0.0284  0.5233
 9115SOL    HW238982   3.812   1.178   9.546  0.5441  0.3355 -1.0180
 9116SOL     OW38983   1.305   3.520   0.993  0.3485  0.2048 -0.4212
 9116SOL    HW138984   1.277   3.611   0.988 -2.0177 -0.4943 -0.1821
 9116SOL    HW238985   1.263   3.495   1.075 -0.9242  1.5885 -0.6480
 9117SOL     OW38986   1.774   4.326   6.499 -0.0180  0.4443  0.1451
 9117SOL    HW138987   1.720   4.274   6.440  0.8246  0.3001 -0.5064
 9117SOL    HW238988   1.714   4.333   6.574  0.1657  1.7109  0.1909
 9118SOL     OW38989   3.543   2.421   8.732 -0.3582 -0.1590 -0.3931
 9118SOL    HW138990   3.621   2.368   8.718 -0.3546  0.2491 -2.0009
 9118SOL    HW238991   3.475   2.374   8.684 -2.2402  1.1191  1.0092
 9119SOL     OW38992   4.085   1.784  16.767  0.1064  0.1417  0.1003
 9119SOL    HW138993   4.140   1.751  16.694 -2.7036  1.8036 -2.7474
 9119SOL    HW238994   4.129   1.740  16.840  0.3321 -1.3818 -0.9493
 9120SOL     OW38995   1.326   1.893  11.999  0.0189 -0.6541  0.0310
 9120SOL    HW138996   1.366   1.976  11.971 -1.8248 -0.3128 -1.6236
 9120SOL    HW238997   1.232   1.909  11.998 -0.2346 -2.0890  1.3300
 9121SOL     OW38998   0.653   1.593   7.386  0.0128  0.5110 -1.0049
 9121SOL    HW138999   0.692   1.680   7.385 -0.1017  0.6092  1.6300
 9121SOL    HW239000   0.667   1.561   7.297  0.9686 -4.1946  0.8516
 9122SOL     OW39001   0.964   1.600   8.848  0.0705  0.0641 -0.0595
 9122SOL    HW139002   0.917   1.674   8.811  2.9126  1.5388 -0.7538
 9122SOL    HW239003   0.977   1.544   8.771 -2.3267 -1.6912  0.8130
 9123SOL     OW39004   4.262   0.759   2.469 -0.2908 -0.4289 -0.6838
 9123SOL    HW139005   4.276   0.838   2.417 -0.9133 -0.5253 -0.9871
 9123SOL    HW239006   4.345   0.712   2.454 -0.4275 -0.1890 -2.1820
 9124SOL     OW39007   0.867   3.900   7.549 -0.0146 -0.5932  0.5432
 9124SOL    HW139008   0.783   3.940   7.573  0.4711  0.9544 -0.3302
 9124SOL    HW239009   0.872   3.840   7.624 -0.0727  0.8160  1.6775
 9125SOL     OW39010   1.137   3.767  17.561  0.0647  0.0042 -0.1911
 9125SOL    HW139011   1.043   3.756  17.575 -0.1718 -0.3109 -1.9483
 9125SOL    HW239012   1.173   3.684  17.593 -0.3927 -0.1148  0.0166
 9126SOL     OW39013   2.805   2.619  14.146 -0.0070  0.2650  0.2919
 9126SOL    HW139014   2.783   2.626  14.238 -0.0719 -1.9292  0.4392
 9126SOL    HW239015   2.820   2.712  14.129 -1.2403  0.5592  0.8282
 9127SOL     OW39016   1.290   2.479   1.657  0.0021  0.2817  0.0405
 9127SOL    HW139017   1.332   2.450   1.576  0.1686 -0.6559  0.4637
 9127SOL    HW239018   1.292   2.574   1.645 -2.1133  0.1421 -1.4111
 9128SOL     OW39019   1.584   4.409   2.538  0.3304  0.2094 -0.0016
 9128SOL    HW139020   1.640   4.397   2.615 -0.9267 -1.5240  0.6329
 9128SOL    HW239021   1.505   4.441   2.582  0.0176 -1.8575  0.9359
 9129SOL     OW39022   4.181   1.068   6.087 -0.3708 -0.8558  0.2169
 9129SOL    HW139023   4.104   1.016   6.110 -1.2573  0.6175  0.5652
 9129SOL    HW239024   4.212   1.090   6.174  0.1601 -0.0519 -0.1723
 9130SOL     OW39025   3.824   3.066   9.811  0.4825  0.1252 -0.3641
 9130SOL    HW139026   3.768   3.098   9.740 -1.9692 -0.7770  1.1655
 9130SOL    HW239027   3.883   3.139   9.833  0.2466 -0.6749  3.0148
 9131SOL     OW39028   0.622   1.298   7.125 -0.2779 -0.7943 -0.0815
 9131SOL    HW139029   0.641   1.392   7.131 -1.2050 -0.7721  2.5071
 9131SOL    HW239030   0.664   1.261   7.203  0.2216  0.8285  0.4235
 9132SOL     OW39031   1.132   0.653  10.420 -0.2897  0.3164  0.0839
 9132SOL    HW139032   1.072   0.656  10.494  0.1948 -0.7132  0.5159
 9132SOL    HW239033   1.153   0.746  10.408  1.3464  0.2469  2.3036
 9133SOL     OW39034   3.676   3.807   5.992  0.2969  0.0970  0.0840
 9133SOL    HW139035   3.743   3.755   5.948  1.8011  1.8587  0.3112
 9133SOL    HW239036   3.719   3.889   6.018  0.0474  0.4987 -0.7750
 9134SOL     OW39037   0.027   1.426   0.272  0.3742 -0.2897  0.6770
 9134SOL    HW139038   0.006   1.504   0.322  2.3422  0.5695  0.1714
 9134SOL    HW239039   4.676   1.393   0.241  0.4297  0.7957 -0.6309
 9135SOL     OW39040   4.314   1.173   8.109 -0.3306  0.0484 -0.2396
 9135SOL    HW139041   4.259   1.133   8.176 -0.4847  0.6673 -0.0024
 9135SOL    HW239042   4.381   1.105   8.106  1.2011  1.5462 -0.0501
 9136SOL     OW39043   1.010   1.214   2.548 -0.3257 -0.6662 -0.4547
 9136SOL    HW139044   1.089   1.230   2.599  0.3143 -4.0123 -0.3957
 9136SOL    HW239045   1.018   1.275   2.475  0.5953  0.4129  0.5357
 9137SOL     OW39046   3.997   0.083   7.747 -0.1131 -0.2403  0.2059
 9137SOL    HW139047   4.010   4.729   7.711 -0.1237 -0.6752  1.2534
 9137SOL    HW239048   4.019   0.053   7.835  1.0856  1.0436  0.3450
 9138SOL     OW39049   1.909   4.225   5.151 -0.2163 -0.1138 -0.6594
 9138SOL    HW139050   1.925   4.136   5.121 -1.3199  0.1369 -1.9982
 9138SOL    HW239051   1.990   4.249   5.195 -0.3640 -1.1423  0.1910
 9139SOL     OW39052   1.840   1.466  13.779 -0.0907 -0.3892  0.7138
 9139SOL    HW139053   1.898   1.395  13.752  0.2352 -0.4542  1.6213
 9139SOL    HW239054   1.828   1.517  13.698 -0.1245 -1.4380  0.0616
 9140SOL     OW39055   2.583   2.006   8.120  0.4544  0.0111 -0.2649
 9140SOL    HW139056   2.539   1.931   8.080  1.8568 -0.5000 -0.8372
 9140SOL    HW239057   2.528   2.013   8.199  0.3720 -1.3898 -0.1924
 9141SOL     OW39058   1.668   0.615   4.773  0.2516 -0.2782  0.3813
 9141SOL    HW139059   1.638   0.610   4.682  1.7214 -0.5538 -0.0942
 9141SOL    HW239060   1.745   0.560   4.762  0.7903  0.8886 -1.8129
 9142SOL     OW39061   0.229   4.698   4.346 -0.5737  0.0876 -0.4180
 9142SOL    HW139062   0.298   0.009   4.396 -1.9503 -0.2148  1.7180
 9142SOL    HW239063   0.238   4.733   4.257  1.1591  2.3925  0.6686
 9143SOL     OW39064   2.148   1.131   3.529  0.2068  0.5991 -0.2259
 9143SOL    HW139065   2.096   1.075   3.471  2.5585 -2.4659  0.6368
 9143SOL    HW239066   2.222   1.072   3.542 -1.4247 -0.8673  2.4471
 9144SOL     OW39067   0.473   4.714  16.721  0.4110 -0.3855  0.2986
 9144SOL    HW139068   0.472   4.630  16.766 -0.1484  0.6616  2.2117
 9144SOL    HW239069   0.494   0.037  16.795 -1.4858 -0.8457  1.1889
 9145SOL     OW39070   1.711   3.617   7.281  0.6121  0.2471 -0.3811
 9145SOL    HW139071   1.745   3.589   7.366  3.2105  2.2021 -0.7657
 9145SOL    HW239072   1.622   3.642   7.305  1.7829  1.2221  2.9290
 9146SOL     OW39073   4.012   2.184   8.607 -0.0791 -0.4627  0.6348
 9146SOL    HW139074   3.979   2.147   8.525  1.0923 -2.4017  1.0385
 9146SOL    HW239075   4.006   2.102   8.656 -1.1796 -0.5538  0.3498
 9147SOL     OW39076   0.458   4.319   6.729  0.0168 -0.0444  1.1743
 9147SOL    HW139077   0.460   4.332   6.634  0.8164 -2.9547  0.8040
 9147SOL    HW239078   0.421   4.404   6.752 -2.7230 -0.8649 -0.2349
 9148SOL     OW39079   4.635   3.198   9.591  0.4729 -0.1444 -0.3264
 9148SOL    HW139080   4.546   3.164   9.602  0.4883 -0.7605 -2.1547
 9148SOL    HW239081   4.648   3.229   9.681  0.6405 -0.4666 -0.2403
 9149SOL     OW39082   0.664   3.057   8.246 -0.5307  0.1920  0.0205
 9149SOL    HW139083   0.751   3.077   8.280  0.1532 -1.8067 -0.5668
 9149SOL    HW239084   0.616   3.139   8.254 -1.7207 -0.5024  0.0107
 9150SOL     OW39085   0.445   0.627   8.634  0.0884  0.0478  0.1198
 9150SOL    HW139086   0.479   0.714   8.613 -2.6956  1.7499  2.6893
 9150SOL    HW239087   0.484   0.602   8.718  0.9574  2.6377  0.5104
 9151SOL     OW39088   0.017   4.604  11.405  0.3178 -0.1557 -0.3798
 9151SOL    HW139089   4.676   4.654  11.435  0.4612  0.3115 -0.8128
 9151SOL    HW239090   0.089   4.645  11.453 -1.0896 -0.2573  1.8480
 9152SOL     OW39091   2.781   0.144   6.467 -0.4543 -0.3965  0.0655
 9152SOL    HW139092   2.846   0.128   6.399 -1.3230  1.9886 -1.3113
 9152SOL    HW239093   2.697   0.164   6.425  0.3047  2.4987 -0.0640
 9153SOL     OW39094   2.791   3.048   0.574  0.6175  0.0245 -0.1118
 9153SOL    HW139095   2.880   3.084   0.582  0.9655 -0.9726  0.5044
 9153SOL    HW239096   2.737   3.126   0.585  3.5381  1.9543  0.5313
 9154SOL     OW39097   2.032   0.472   2.023  0.1122 -0.2855 -0.5113
 9154SOL    HW139098   1.956   0.499   2.075  1.2894 -0.5515  1.3795
 9154SOL    HW239099   2.030   0.537   1.954  2.2395  0.5757  0.2491
 9155SOL     OW39100   2.548   1.047   5.068  0.2721  0.8294 -0.2795
 9155SOL    HW139101   2.491   1.037   5.145  2.0083  1.2120  1.0471
 9155SOL    HW239102   2.506   1.127   5.037  0.3737  0.5340 -1.1715
 9156SOL     OW39103   2.655   2.029   4.693 -0.4558  0.2169 -0.0325
 9156SOL    HW139104   2.638   2.087   4.619  1.6866  0.1895 -0.5331
 9156SOL    HW239105   2.591   2.068   4.752  0.6444  1.8737  0.0745
 9157SOL     OW39106   0.455   1.025  11.525  0.4756 -0.1557  0.2393
 9157SOL    HW139107   0.370   1.046  11.565  0.3274  0.7487 -0.5502
 9157SOL    HW239108   0.516   1.085  11.568 -2.2082  1.4519  1.7723
 9158SOL     OW39109   4.034   4.249   2.001 -0.7435 -0.2085  0.4904
 9158SOL    HW139110   4.121   4.215   2.024 -0.2794  1.2702  0.9723
 9158SOL    HW239111   3.973   4.181   1.972 -0.6367 -1.8489  4.1765
 9159SOL     OW39112   3.708   0.643   1.159 -0.1970 -0.5861 -0.4121
 9159SOL    HW139113   3.702   0.661   1.253  0.7742 -0.3246 -0.4058
 9159SOL    HW239114   3.766   0.567   1.165  2.2323  1.2670 -0.7468
 9160SOL     OW39115   2.079   4.556   8.337  0.0759 -0.1539  0.4229
 9160SOL    HW139116   2.087   4.473   8.384 -0.4172  0.1515  1.0436
 9160SOL    HW239117   2.005   4.594   8.384  0.7006  0.9163  0.5524
 9161SOL     OW39118   3.386   1.952   4.012 -0.3306  0.3766  0.7009
 9161SOL    HW139119   3.470   1.934   3.970 -0.2416 -2.8831  2.2390
 9161SOL    HW239120   3.334   1.882   3.973  0.5553 -0.3623  0.8390
 9162SOL     OW39121   3.703   3.685  11.837 -0.1012 -0.0089 -0.4643
 9162SOL    HW139122   3.776   3.717  11.785  3.2576 -1.5197  3.3417
 9162SOL    HW239123   3.723   3.591  11.839 -1.3189 -0.2665 -0.4455
 9163SOL     OW39124   2.337   0.444  16.282 -0.2678 -0.3851  0.5516
 9163SOL    HW139125   2.322   0.521  16.338  3.5836 -0.4945  1.7231
 9163SOL    HW239126   2.306   0.476  16.197 -0.1066  1.1291  1.0517
 9164SOL     OW39127   0.683   3.936   8.201  0.2589  0.7368 -0.1239
 9164SOL    HW139128   0.710   3.984   8.279  0.7164  0.5490 -0.1644
 9164SOL    HW239129   0.627   3.996   8.152 -1.5320 -0.2026  0.7375
 9165SOL     OW39130   4.000   1.005   6.534 -0.0312 -0.6339  0.0549
 9165SOL    HW139131   3.983   0.922   6.489  0.4789  0.3483 -1.9328
 9165SOL    HW239132   3.917   1.011   6.581 -0.4886  1.3228 -1.0536
 9166SOL     OW39133   2.506   2.872  15.940 -0.2738  1.0130 -0.0756
 9166SOL    HW139134   2.548   2.955  15.962 -1.2106  1.4580  0.0220
 9166SOL    HW239135   2.535   2.858  15.850 -0.9302  1.7489 -0.3940
 9167SOL     OW39136   0.297   3.549   9.162  0.4343  0.1744  0.2245
 9167SOL    HW139137   0.374   3.606   9.157  0.6324 -0.1424 -0.3164
 9167SOL    HW239138   0.313   3.488   9.090 -0.0161  0.6988 -0.3347
 9168SOL     OW39139   2.813   2.960   6.874 -0.0025  0.3713 -0.2085
 9168SOL    HW139140   2.796   3.050   6.899 -0.8835  0.9130 -2.8490
 9168SOL    HW239141   2.735   2.923   6.916 -0.5534  1.3146 -0.4129
 9169SOL     OW39142   2.394   0.586   8.788  0.2687  0.0426  0.3443
 9169SOL    HW139143   2.312   0.616   8.827 -0.6441 -2.4131  0.3310
 9169SOL    HW239144   2.422   0.657   8.730 -0.4335 -1.1821 -1.4929
 9170SOL     OW39145   4.023   1.907   5.185 -0.4775  0.2183 -0.0980
 9170SOL    HW139146   3.958   1.958   5.137 -0.5617 -1.4388 -1.7195
 9170SOL    HW239147   4.014   1.828   5.133  0.9746  0.4468 -0.7089
 9171SOL     OW39148   1.481   1.336   4.593 -0.2514  0.2688 -0.3197
 9171SOL    HW139149   1.392   1.369   4.578 -0.0425 -0.3117 -2.8089
 9171SOL    HW239150   1.472   1.251   4.551 -2.3997  0.7344 -0.7879
 9172SOL     OW39151   3.066   0.587  15.928 -0.3469 -0.2240  0.6343
 9172SOL    HW139152   3.151   0.626  15.908 -1.3637  1.7333  0.1321
 9172SOL    HW239153   3.012   0.662  15.902  2.2820  0.6650 -2.1195
 9173SOL     OW39154   2.771   3.159   6.483  0.3439  0.3941  0.1608
 9173SOL    HW139155   2.718   3.174   6.562  0.8861 -1.7922  0.9362
 9173SOL    HW239156   2.715   3.204   6.421 -0.6670 -1.6604 -0.4060
 9174SOL     OW39157   4.174   1.102   6.868 -0.2402 -0.2891 -0.3086
 9174SOL    HW139158   4.187   1.027   6.810 -3.1639 -0.9949 -0.0861
 9174SOL    HW239159   4.155   1.168   6.801 -0.8814 -0.9502 -0.7780
 9175SOL     OW39160   3.356   3.062  11.579 -0.1977  0.1165  0.1264
 9175SOL    HW139161   3.329   3.040  11.668  0.5846  2.0527  0.8402
 9175SOL    HW239162   3.451   3.053  11.587 -0.0723  1.5856  0.3415
 9176SOL     OW39163   1.764   2.872   4.229  0.1827  0.1435 -0.1019
 9176SOL    HW139164   1.730   2.784   4.245 -0.2841  0.6542  1.7613
 9176SOL    HW239165   1.690   2.932   4.213  0.5086  0.2925 -1.0538
 9177SOL     OW39166   3.205   0.989   7.642 -0.0678 -0.3896  0.6376
 9177SOL    HW139167   3.204   0.977   7.547  0.2702  2.1118  0.3204
 9177SOL    HW239168   3.111   1.006   7.654  0.2588  2.8418 -1.7273
 9178SOL     OW39169   4.542   3.470  15.190 -0.0945  1.0903 -0.0149
 9178SOL    HW139170   4.458   3.507  15.217 -1.8365 -1.8517 -1.3779
 9178SOL    HW239171   4.601   3.464  15.265  1.3838 -1.9776 -1.4482
 9179SOL     OW39172   3.772   3.065   3.569  0.1523 -0.6641  0.1057
 9179SOL    HW139173   3.841   3.088   3.631  2.4644 -1.2745 -2.2552
 9179SOL    HW239174   3.759   2.973   3.591  1.3247 -0.7400  0.4679
 9180SOL     OW39175   4.529   0.319  10.491 -0.2068  0.1700  0.0853
 9180SOL    HW139176   4.513   0.317  10.586  0.2925 -1.0344  0.1347
 9180SOL    HW239177   4.525   0.227  10.467  0.4304  0.1790 -0.0474
 9181SOL     OW39178   1.397   0.559   7.139  0.2037  0.1044  0.5066
 9181SOL    HW139179   1.356   0.483   7.181 -0.3645 -0.4099 -0.9795
 9181SOL    HW239180   1.379   0.630   7.201  1.6313  1.5902 -0.7834
 9182SOL     OW39181   4.012   1.634   2.323  0.2698  0.1443 -0.2191
 9182SOL    HW139182   4.023   1.695   2.396 -1.7955  0.5118 -0.2254
 9182SOL    HW239183   4.102   1.614   2.296 -0.7762 -1.5223 -2.5422
 9183SOL     OW39184   1.542   0.414   3.367 -0.2313 -0.1221  0.7777
 9183SOL    HW139185   1.625   0.447   3.401 -0.3797  1.7187 -0.6291
 9183SOL    HW239186   1.581   0.345   3.312  0.2254  1.3836 -0.7822
 9184SOL     OW39187   2.983   2.302  15.273  0.0712  0.1820 -0.0970
 9184SOL    HW139188   2.942   2.303  15.187 -0.1015 -1.8224 -0.0492
 9184SOL    HW239189   3.077   2.303  15.256 -0.1001  0.9054 -1.0026
 9185SOL     OW39190   2.552   1.281   8.142  1.0313 -1.1096 -0.4912
 9185SOL    HW139191   2.518   1.203   8.099  2.0734 -1.8903  0.0946
 9185SOL    HW239192   2.590   1.332   8.071 -2.1661 -0.2105 -1.5440
 9186SOL     OW39193   2.805   2.989  15.820  0.2537  0.1820 -0.5396
 9186SOL    HW139194   2.786   3.083  15.828 -1.0887 -0.1682  0.2974
 9186SOL    HW239195   2.734   2.969  15.759 -2.8356  0.6615  2.8841
 9187SOL     OW39196   3.180   0.733   8.945  0.0976  0.1626 -0.1809
 9187SOL    HW139197   3.131   0.672   9.000  2.1644  0.0837  1.5785
 9187SOL    HW239198   3.262   0.744   8.994  0.0606  0.7793 -0.2548
 9188SOL     OW39199   2.981   1.030  16.422  0.0660 -0.0867  0.3700
 9188SOL    HW139200   2.981   1.086  16.499  1.6424  1.2302 -0.5585
 9188SOL    HW239201   3.064   0.984  16.433  0.9045  1.2139 -0.4578
 9189SOL     OW39202   1.935   1.103   5.033 -0.1785 -0.0515  0.0797
 9189SOL    HW139203   1.979   1.034   5.084 -2.8422 -0.6473  1.5352
 9189SOL    HW239204   1.933   1.181   5.088  0.8303 -0.0096  0.0740
 9190SOL     OW39205   1.819   4.646  14.501  0.2767  0.4944  0.3236
 9190SOL    HW139206   1.725   4.656  14.512  0.0131  0.7815 -2.1653
 9190SOL    HW239207   1.849   4.716  14.559  1.6332 -0.3387  0.6277
 9191SOL     OW39208   0.740   3.628  16.466 -0.1104 -0.2143 -0.5105
 9191SOL    HW139209   0.809   3.684  16.502  1.2922 -1.9655 -0.4679
 9191SOL    HW239210   0.671   3.689  16.441  0.3116  1.1088  1.5899
 9192SOL     OW39211   0.965   2.892   2.229  0.2652  0.3974  0.4493
 9192SOL    HW139212   0.961   2.798   2.249  0.1550  0.3515  0.2184
 9192SOL    HW239213   0.898   2.905   2.162 -0.7605  3.2119  2.0075
 9193SOL     OW39214   2.807   1.950  11.911  0.5723  0.0905  0.4401
 9193SOL    HW139215   2.799   2.021  11.848 -0.8034 -0.8392 -0.4324
 9193SOL    HW239216   2.861   1.891  11.858  1.2143  1.2607 -0.2075
 9194SOL     OW39217   0.138   3.738   8.574 -0.0673  0.2929  0.1460
 9194SOL    HW139218   0.075   3.764   8.641 -1.1777  0.0458 -0.7958
 9194SOL    HW239219   0.099   3.760   8.489 -1.6284 -0.5076  0.6507
 9195SOL     OW39220   0.989   1.616   9.716 -0.5170 -0.4008 -0.2879
 9195SOL    HW139221   0.962   1.531   9.682 -2.4869  0.2746 -0.3742
 9195SOL    HW239222   1.021   1.598   9.805  1.7690  0.5562 -0.9048
 9196SOL     OW39223   2.446   3.297   5.942 -0.3123  0.0626  0.5998
 9196SOL    HW139224   2.399   3.315   5.860 -0.3736 -1.3526  0.3214
 9196SOL    HW239225   2.462   3.203   5.933 -0.0833  0.1804 -0.2599
 9197SOL     OW39226   1.963   3.209   2.300 -0.1512  0.3876  0.4373
 9197SOL    HW139227   2.008   3.126   2.313  1.7753  1.6250  1.7957
 9197SOL    HW239228   1.928   3.196   2.212  3.2159 -0.2356 -0.7866
 9198SOL     OW39229   4.591   1.779   4.994  0.2193  0.1783 -0.1990
 9198SOL    HW139230   4.502   1.781   5.029  0.3263 -0.6239  0.0989
 9198SOL    HW239231   4.601   1.702   4.939  0.2331  1.2483 -1.7102
 9199SOL     OW39232   4.443   3.374   7.380 -0.1449  0.6084  0.0894
 9199SOL    HW139233   4.385   3.387   7.305 -1.1168  1.1938  0.9416
 9199SOL    HW239234   4.427   3.455   7.429  0.4295  2.9888 -3.6597
 9200SOL     OW39235   0.811   3.875   5.563  0.3079 -0.0489  0.6639
 9200SOL    HW139236   0.879   3.808   5.549  2.0732  1.5816  1.4452
 9200SOL    HW239237   0.741   3.841   5.508  0.2230  2.4253 -0.7269
 9201SOL     OW39238   3.777   0.188   8.348  0.1734 -0.1291  0.0684
 9201SOL    HW139239   3.868   0.214   8.362  0.3537  0.1175 -1.5542
 9201SOL    HW239240   3.723   0.266   8.353  1.8523  0.9886  0.7019
 9202SOL     OW39241   4.455   2.500  16.711  0.1967 -0.3373 -0.0253
 9202SOL    HW139242   4.430   2.410  16.733 -0.7862  0.1598  0.9330
 9202SOL    HW239243   4.382   2.548  16.753 -0.2762 -1.3118  0.2612
 9203SOL     OW39244   4.086   3.716   2.078  0.4994  0.3654  0.0469
 9203SOL    HW139245   4.083   3.789   2.139  0.2895 -0.2008  0.7212
 9203SOL    HW239246   4.138   3.757   2.009 -1.3601  1.7349 -0.5516
 9204SOL     OW39247   0.247   1.769   4.714  0.2610  0.2067 -0.2588
 9204SOL    HW139248   0.199   1.845   4.746  1.1127  1.5739 -2.2253
 9204SOL    HW239249   0.325   1.809   4.675 -0.1711  0.7933 -0.5201
 9205SOL     OW39250   2.660   2.939   9.838 -0.0218  0.4214  0.4583
 9205SOL    HW139251   2.745   2.896   9.832  0.0078  0.1225  3.0381
 9205SOL    HW239252   2.670   2.969   9.928  0.3928 -0.0475  0.5679
 9206SOL     OW39253   3.138   3.489   4.219  0.7544 -0.4133  0.0951
 9206SOL    HW139254   3.194   3.413   4.231 -0.2348 -1.3275 -1.1914
 9206SOL    HW239255   3.167   3.551   4.286  0.8944  0.3047 -0.6203
 9207SOL     OW39256   1.866   3.323   6.674 -0.0326 -0.1966  0.2795
 9207SOL    HW139257   1.925   3.329   6.599 -0.4498  0.9214  0.0368
 9207SOL    HW239258   1.922   3.275   6.735  0.0435 -0.0411  0.3320
 9208SOL     OW39259   2.580   2.975  16.273  0.4050 -0.5235  0.0795
 9208SOL    HW139260   2.600   3.014  16.188  1.5246 -0.5187  0.3436
 9208SOL    HW239261   2.503   3.022  16.304  0.4643 -1.0390  1.0137
 9209SOL     OW39262   4.038   0.344   4.957 -0.1461 -0.2960  0.4507
 9209SOL    HW139263   4.050   0.256   4.993  1.0218 -0.2516  0.1805
 9209SOL    HW239264   3.956   0.326   4.911 -0.0196 -0.5963  0.3383
 9210SOL     OW39265   4.633   0.785   9.371 -0.1468  0.1786 -0.3731
 9210SOL    HW139266   4.719   0.743   9.373  0.3951  1.1941 -2.4490
 9210SOL    HW239267   4.661   0.875   9.353  1.6803 -0.2327  0.3612
 9211SOL     OW39268   3.885   3.287   6.176  0.5755  0.2265  0.1877
 9211SOL    HW139269   3.795   3.255   6.168  0.6844  0.1846 -0.7865
 9211SOL    HW239270   3.871   3.376   6.210 -0.6245  0.0505  0.1391
 9212SOL     OW39271   1.385   3.825   8.253 -0.5794  0.1066 -0.0180
 9212SOL    HW139272   1.331   3.849   8.328 -1.0390 -0.2758 -0.2299
 9212SOL    HW239273   1.470   3.859   8.282 -0.0581  0.5917 -2.1469
 9213SOL     OW39274   4.244   1.564   3.355 -0.3718  0.0290 -0.9303
 9213SOL    HW139275   4.166   1.567   3.299 -1.5688 -0.6795  0.6833
 9213SOL    HW239276   4.214   1.621   3.425 -0.6216 -0.8709 -0.2959
 9214SOL     OW39277   4.086   3.180   6.548 -0.4571  0.1041 -0.1014
 9214SOL    HW139278   4.076   3.147   6.459 -2.7678 -1.6440  0.7946
 9214SOL    HW239279   4.174   3.215   6.538  0.3905 -2.1098 -0.3598
 9215SOL     OW39280   1.892   2.385   5.355  0.1308 -0.2341 -0.4342
 9215SOL    HW139281   1.862   2.475   5.365 -2.1035 -0.8354 -1.5375
 9215SOL    HW239282   1.828   2.354   5.291 -0.1133 -0.4368 -0.0943
 9216SOL     OW39283   2.276   2.072   7.645  0.0836 -0.4482  0.3376
 9216SOL    HW139284   2.273   2.125   7.725 -0.1423  1.8660 -1.1929
 9216SOL    HW239285   2.250   1.986   7.678  1.1882 -0.4662  1.1804
 9217SOL     OW39286   4.104   1.480   4.194 -0.5102 -0.4267  0.0572
 9217SOL    HW139287   4.051   1.477   4.274  0.8053 -1.4361  0.8895
 9217SOL    HW239288   4.062   1.415   4.138  0.2188 -0.9350  0.1014
 9218SOL     OW39289   1.954   4.628   4.004 -0.1970 -0.4270  0.2850
 9218SOL    HW139290   1.905   4.708   4.023 -0.3324 -0.6356  0.8150
 9218SOL    HW239291   2.042   4.666   4.004  0.3639 -1.7351  2.6014
 9219SOL     OW39292   4.469   3.952  10.798  0.5952 -0.2292 -0.6244
 9219SOL    HW139293   4.409   3.944  10.723  1.2484 -0.9402 -1.0739
 9219SOL    HW239294   4.513   4.035  10.781  0.4241  0.2294  1.1981
 9220SOL     OW39295   4.176   4.033   5.891  0.0486  0.0601  0.0965
 9220SOL    HW139296   4.262   4.071   5.909 -1.2299  2.4266  1.1912
 9220SOL    HW239297   4.122   4.099   5.848  2.0114  2.0544  0.6984
 9221SOL     OW39298   1.244   4.550  11.037  0.0930 -0.2644 -0.2678
 9221SOL    HW139299   1.289   4.516  10.959  1.8316  2.7793 -0.6099
 9221SOL    HW239300   1.160   4.553  10.993 -0.7990  1.5215  1.5835
 9222SOL     OW39301   3.028   1.532  15.596 -0.3342  0.1339  0.5525
 9222SOL    HW139302   3.087   1.532  15.671 -0.8629  2.2597  0.9777
 9222SOL    HW239303   2.987   1.450  15.620 -0.2062 -0.7228 -2.1301
 9223SOL     OW39304   2.643   1.358  14.020  0.5271  0.1545  0.5702
 9223SOL    HW139305   2.691   1.354  13.938 -2.5315  2.0005 -1.3381
 9223SOL    HW239306   2.567   1.409  13.993  0.5133  0.4860  1.2196
 9224SOL     OW39307   3.080   3.120   8.772  0.6576  0.3164  0.3223
 9224SOL    HW139308   3.058   3.212   8.788 -0.4741  0.0173  0.4994
 9224SOL    HW239309   3.153   3.120   8.711  1.2493  2.9292  1.0296
 9225SOL     OW39310   0.011   1.573   9.373  0.3391 -0.7238  0.3287
 9225SOL    HW139311   0.008   1.583   9.468 -0.8917  1.7988  0.0274
 9225SOL    HW239312   0.099   1.608   9.361 -0.7331  1.5877 -0.7887
 9226SOL     OW39313   1.038   1.905   4.491 -0.4163 -0.6641  0.1322
 9226SOL    HW139314   0.967   1.841   4.482 -0.5165 -0.6029  0.4657
 9226SOL    HW239315   0.979   1.980   4.488 -0.7737 -0.9235  0.7127
 9227SOL     OW39316   0.588   2.052   5.638  0.2129  0.0225 -0.6504
 9227SOL    HW139317   0.559   2.135   5.674  0.7870 -0.6361  1.3223
 9227SOL    HW239318   0.497   2.025   5.622  0.0066  0.2146  0.1799
 9228SOL     OW39319   4.723   0.143   4.343 -0.3882  0.0044  0.4693
 9228SOL    HW139320   0.060   0.083   4.368 -0.3797  0.5700  1.7908
 9228SOL    HW239321   4.645   0.104   4.383 -1.5615 -0.4485 -2.1876
 9229SOL     OW39322   4.722   1.023   7.719  0.3558 -0.3965  0.3315
 9229SOL    HW139323   0.058   1.088   7.726 -0.7530  0.8020  0.1845
 9229SOL    HW239324   0.037   0.941   7.711 -0.9480 -1.2644  1.2716
 9230SOL     OW39325   2.833   2.042   2.817 -0.2208  0.1369  0.1036
 9230SOL    HW139326   2.889   2.075   2.888 -0.0459  2.3021 -1.0662
 9230SOL    HW239327   2.891   2.014   2.746  1.8425  2.5612  0.8547
 9231SOL     OW39328   1.487   2.307  12.836 -0.1630 -0.6349  0.7864
 9231SOL    HW139329   1.422   2.246  12.801  0.3148 -1.1131  0.7296
 9231SOL    HW239330   1.566   2.256  12.821 -0.2067 -0.2034 -0.9428
 9232SOL     OW39331   1.004   2.131   4.909 -0.2233  0.0507 -0.3307
 9232SOL    HW139332   0.977   2.210   4.957  1.2724 -0.0199  0.6054
 9232SOL    HW239333   1.023   2.162   4.821 -1.3402  0.3593 -0.4662
 9233SOL     OW39334   4.546   1.426   8.704 -0.2231 -0.1684 -0.1485
 9233SOL    HW139335   4.612   1.428   8.635  0.3927  1.5019  0.4863
 9233SOL    HW239336   4.592   1.365   8.762  0.9672  1.2321  0.3770
 9234SOL     OW39337   4.227   3.623   4.564  0.3043  0.2556 -0.2471
 9234SOL    HW139338   4.247   3.707   4.604 -0.0673  0.1102  0.2400
 9234SOL    HW239339   4.154   3.640   4.504  1.0114 -2.0123 -1.7367
 9235SOL     OW39340   2.628   2.679   2.049  0.0916 -0.6328 -0.1293
 9235SOL    HW139341   2.666   2.592   2.059 -0.9204 -0.7050  3.0770
 9235SOL    HW239342   2.680   2.725   2.115 -1.2949  1.5151 -0.5079
 9236SOL     OW39343   1.130   0.032   7.721 -0.2045  0.1388 -0.2074
 9236SOL    HW139344   1.089   0.060   7.639 -0.6637 -0.1080 -0.0583
 9236SOL    HW239345   1.053   0.043   7.776 -0.4508  3.3662 -1.1882
 9237SOL     OW39346   1.021   2.597   4.816 -0.0073  0.7986 -0.0259
 9237SOL    HW139347   1.072   2.608   4.735 -1.8286  0.2669 -1.2539
 9237SOL    HW239348   0.936   2.579   4.777 -0.5014  1.6497  0.6505
 9238SOL     OW39349   0.631   4.166   5.511 -0.1364 -0.0597 -0.6995
 9238SOL    HW139350   0.546   4.126   5.527  1.5674 -2.7957  1.5506
 9238SOL    HW239351   0.611   4.224   5.437  0.5809 -0.4755 -1.2203
 9239SOL     OW39352   4.451   1.658   4.544 -0.1443  0.4180 -0.1246
 9239SOL    HW139353   4.542   1.628   4.539  0.1128  0.6917  2.6319
 9239SOL    HW239354   4.403   1.575   4.544  1.2904 -0.4016 -1.0579
 9240SOL     OW39355   2.284   4.172   5.833  0.4991  0.5815  0.0848
 9240SOL    HW139356   2.247   4.088   5.860  0.7906 -0.2940 -2.2854
 9240SOL    HW239357   2.369   4.158   5.876  1.1079 -1.0004 -1.6145
 9241SOL     OW39358   3.339   3.081  14.307  0.0228  0.1091  0.4618
 9241SOL    HW139359   3.388   3.163  14.298 -1.0348  0.6925 -0.0335
 9241SOL    HW239360   3.283   3.088  14.230  0.4392  0.4259  0.1868
 9242SOL     OW39361   4.611   3.762   7.295  0.1582  0.4900 -0.1985
 9242SOL    HW139362   4.581   3.707   7.367 -0.3464 -0.0078 -0.7828
 9242SOL    HW239363   4.603   3.853   7.323  0.8053  0.5798 -0.2994
 9243SOL     OW39364   0.209   1.285   5.396  0.3814  0.1007  0.0146
 9243SOL    HW139365   0.193   1.290   5.490 -0.7891 -3.3881 -0.0183
 9243SOL    HW239366   0.142   1.220   5.377 -0.4346  1.5563 -2.0899
 9244SOL     OW39367   0.753   4.577   3.830  0.0620 -0.0407  0.5574
 9244SOL    HW139368   0.800   4.594   3.748 -0.2524 -0.5619  0.2706
 9244SOL    HW239369   0.813   4.518   3.875 -0.2015  0.2909  1.3505
 9245SOL     OW39370   0.423   1.581   9.688  0.1937  0.3519  0.0794
 9245SOL    HW139371   0.483   1.654   9.705  0.2202  0.2262  0.5299
 9245SOL    HW239372   0.344   1.600   9.739 -1.2340 -0.2882 -1.8823
 9246SOL     OW39373   2.893   0.599   8.241  0.2039 -0.0682  0.0445
 9246SOL    HW139374   2.834   0.557   8.303  0.4275 -1.7932 -0.9136
 9246SOL    HW239375   2.836   0.641   8.177 -0.2924 -0.7908  0.0175
 9247SOL     OW39376   1.953   4.074  10.844  0.4824  0.0787  0.2330
 9247SOL    HW139377   1.966   4.162  10.881 -0.2698  0.3017 -0.0211
 9247SOL    HW239378   1.940   4.018  10.920  1.4869 -0.2799  0.1288
 9248SOL     OW39379   1.926   3.509   5.346 -0.0961  0.0100 -0.0680
 9248SOL    HW139380   1.861   3.444   5.319  0.4094 -0.5770  0.1385
 9248SOL    HW239381   1.868   3.584   5.362  3.1810  2.1353  1.7506
 9249SOL     OW39382   0.958   0.375   6.054  0.0324  0.0020  0.3472
 9249SOL    HW139383   0.954   0.318   5.977  0.7107 -0.5787  0.7350
 9249SOL    HW239384   0.866   0.398   6.059  0.1847  0.3842  1.6178
 9250SOL     OW39385   3.575   4.291  10.641  0.0626  0.5240  0.0557
 9250SOL    HW139386   3.556   4.235  10.566 -1.3936  0.7123  0.2669
 9250SOL    HW239387   3.531   4.375  10.627 -2.6239 -0.5574  1.9505
 9251SOL     OW39388   1.586   2.314   3.775  0.2646 -0.1215 -0.8512
 9251SOL    HW139389   1.629   2.322   3.860 -0.1611  0.4416 -0.6893
 9251SOL    HW239390   1.655   2.277   3.720  1.2702 -2.4112  1.9131
 9252SOL     OW39391   0.456   2.445   4.439 -0.2431  0.2878  0.1336
 9252SOL    HW139392   0.506   2.518   4.402  1.3926 -0.5121  0.7716
 9252SOL    HW239393   0.415   2.483   4.516 -0.9778 -0.8984  0.3228
 9253SOL     OW39394   3.530   1.727   0.030  0.7067 -0.4491  0.1693
 9253SOL    HW139395   3.502   1.641   0.061 -1.0585 -0.1433 -0.5856
 9253SOL    HW239396   3.585   1.705  17.689  0.1834  0.2573 -0.4215
 9254SOL     OW39397   4.617   3.545   3.185  0.4105 -0.0978 -0.4553
 9254SOL    HW139398   4.622   3.607   3.112  1.1725 -0.6576 -0.8755
 9254SOL    HW239399   4.708   3.525   3.207 -0.0196 -0.7060  0.7796
 9255SOL     OW39400   4.080   2.676  15.526 -0.2821  0.2697  0.0939
 9255SOL    HW139401   4.061   2.733  15.600  0.3723  0.6408 -0.0239
 9255SOL    HW239402   4.034   2.597  15.556  2.8887 -1.3593  0.6970
 9256SOL     OW39403   3.791   2.643   6.677  0.0479  0.0882  0.4678
 9256SOL    HW139404   3.872   2.646   6.728 -0.4934 -0.4146  1.3504
 9256SOL    HW239405   3.723   2.647   6.745 -2.1566 -0.4231 -1.6988
 9257SOL     OW39406   2.748   2.668   1.388  0.2584 -0.2440 -1.2687
 9257SOL    HW139407   2.673   2.723   1.365 -0.7942 -1.3071 -0.3317
 9257SOL    HW239408   2.717   2.642   1.475  0.3527  1.6872 -0.6456
 9258SOL     OW39409   3.655   3.959  12.365 -0.2779 -1.1183  0.1156
 9258SOL    HW139410   3.644   4.040  12.315 -2.2283  0.7322  3.5430
 9258SOL    HW239411   3.572   3.918  12.340 -0.0728 -1.3315 -0.2214
 9259SOL     OW39412   0.952   3.163   4.340 -0.2115 -0.1179  0.1074
 9259SOL    HW139413   1.042   3.134   4.323 -0.5583 -0.0599 -1.8196
 9259SOL    HW239414   0.920   3.165   4.250  2.4128 -0.0011 -0.8399
 9260SOL     OW39415   2.169   4.251   3.526  0.2434 -0.6237 -0.2019
 9260SOL    HW139416   2.139   4.310   3.594 -1.7273 -0.9929 -0.7518
 9260SOL    HW239417   2.130   4.169   3.555 -0.7872  0.1113  0.4863
 9261SOL     OW39418   3.106   0.618  13.841 -0.1920 -0.1064 -0.2392
 9261SOL    HW139419   3.084   0.573  13.923  1.4973 -2.6764 -1.2030
 9261SOL    HW239420   3.083   0.546  13.783  0.1440  0.7717 -1.4687
 9262SOL     OW39421   4.144   0.415   3.450 -0.0087  0.1741 -0.0831
 9262SOL    HW139422   4.073   0.436   3.389 -1.3828 -4.3943 -0.0521
 9262SOL    HW239423   4.091   0.396   3.528 -0.4030  2.1607  0.1219
 9263SOL     OW39424   2.902   4.524   3.827 -0.1026 -0.0888 -0.8136
 9263SOL    HW139425   2.997   4.521   3.816  0.2378  3.5423  1.2030
 9263SOL    HW239426   2.899   4.572   3.909 -1.4221  1.8058 -1.9682
 9264SOL     OW39427   1.118   3.043   8.551  0.1668  0.3349  0.6125
 9264SOL    HW139428   1.141   3.135   8.542 -0.6951  0.6328  1.4943
 9264SOL    HW239429   1.042   3.037   8.609 -0.1739 -0.2400  0.1102
 9265SOL     OW39430   3.168   0.236  14.142  0.2369  0.1846 -0.2075
 9265SOL    HW139431   3.103   0.208  14.207  0.0411 -0.7560 -0.8134
 9265SOL    HW239432   3.212   0.299  14.200  1.6455 -1.5598  0.6134
 9266SOL     OW39433   3.432   1.016   1.624 -0.2901 -0.3414  0.4072
 9266SOL    HW139434   3.375   1.081   1.665 -0.5233 -0.7454  0.7228
 9266SOL    HW239435   3.364   0.993   1.561  0.9472  1.7596 -1.6872
 9267SOL     OW39436   1.382   1.142  13.290  0.2550  0.1304 -0.0496
 9267SOL    HW139437   1.337   1.100  13.217 -1.2193 -1.5814  1.8522
 9267SOL    HW239438   1.476   1.144  13.270  0.2279 -0.9676 -0.3117
 9268SOL     OW39439   1.798   3.228   4.413  0.0259 -0.3370 -0.4455
 9268SOL    HW139440   1.847   3.261   4.489 -1.1202 -1.5445  0.8118
 9268SOL    HW239441   1.738   3.300   4.392 -0.8140 -0.4385  1.5295
 9269SOL     OW39442   4.691   0.234   7.371 -0.2092  0.3379  0.0282
 9269SOL    HW139443   4.670   0.159   7.426 -1.4182  0.4315 -0.3137
 9269SOL    HW239444   4.636   0.303   7.407  1.7090  0.6320  2.4234
 9270SOL     OW39445   0.028   0.705   2.080  0.3534 -1.1676  0.2837
 9270SOL    HW139446   0.066   0.630   2.125 -0.2530 -1.4604  0.3096
 9270SOL    HW239447   0.059   0.769   2.144 -0.8273  0.3124 -0.6306
 9271SOL     OW39448   3.940   4.100  17.049 -0.3769 -0.2743 -0.4132
 9271SOL    HW139449   3.909   4.190  17.046 -1.0652 -0.5497 -1.4155
 9271SOL    HW239450   3.884   4.063  17.117  0.3439 -1.5324 -0.5039
 9272SOL     OW39451   3.178   4.488   5.176 -0.3250  0.1440  0.5760
 9272SOL    HW139452   3.154   4.434   5.100 -0.1760  1.2079 -0.2247
 9272SOL    HW239453   3.128   4.567   5.154 -1.9051 -0.8263  0.6490
 9273SOL     OW39454   3.048   3.352   4.532 -0.2796 -0.3000 -0.6661
 9273SOL    HW139455   3.143   3.345   4.544 -0.4462 -2.3929 -0.6360
 9273SOL    HW239456   3.022   3.280   4.475  0.0271 -1.9260  1.2457
 9274SOL     OW39457   2.619   4.504   6.193  0.0739  0.1072 -0.0988
 9274SOL    HW139458   2.525   4.517   6.175 -0.1427 -1.8542 -0.3975
 9274SOL    HW239459   2.619   4.431   6.254  0.2812 -0.2592 -0.5333
 9275SOL     OW39460   1.644   1.305   7.421  0.1979  0.7444 -0.3158
 9275SOL    HW139461   1.700   1.364   7.472 -0.5171  1.0182  0.1572
 9275SOL    HW239462   1.673   1.310   7.330  0.4085 -1.6754 -0.3984
 9276SOL     OW39463   0.002   0.629  10.319 -0.1048  0.3056 -0.0758
 9276SOL    HW139464   4.727   0.561  10.385  0.5735  0.8609  0.5784
 9276SOL    HW239465   0.079   0.678  10.349 -0.4949 -0.3078  1.8920
 9277SOL     OW39466   4.294   1.842   2.242 -0.3860  0.6691 -0.0345
 9277SOL    HW139467   4.236   1.908   2.280  0.2633 -0.1530  2.3936
 9277SOL    HW239468   4.360   1.845   2.312 -0.6780 -3.7837  0.4072
 9278SOL     OW39469   3.084   0.103  13.813 -0.3112 -0.4620 -0.2725
 9278SOL    HW139470   3.163   0.154  13.832 -1.2125 -0.1551  2.7148
 9278SOL    HW239471   3.026   0.135  13.882 -0.3985 -0.4508 -0.3518
 9279SOL     OW39472   3.355   2.287   2.090 -0.4597  0.0167 -0.3663
 9279SOL    HW139473   3.337   2.293   2.184  1.3556 -0.6251  0.0234
 9279SOL    HW239474   3.447   2.312   2.099 -0.0629 -1.3522 -0.5701
 9280SOL     OW39475   1.326   3.526   5.943  0.0747  0.3759  0.3107
 9280SOL    HW139476   1.309   3.524   5.849 -2.3048  1.5161  0.7169
 9280SOL    HW239477   1.240   3.512   5.982  0.1671  3.8094  1.6863
 9281SOL     OW39478   4.683   2.695   6.474 -0.6742 -0.0887  0.8042
 9281SOL    HW139479   4.618   2.766   6.475  0.5591  1.0581 -0.7182
 9281SOL    HW239480   0.027   2.741   6.443 -1.1819 -0.0968 -0.5058
 9282SOL     OW39481   3.325   2.993  13.122  0.1335  0.5157 -0.1549
 9282SOL    HW139482   3.245   3.000  13.175  0.0939 -0.3682 -0.0965
 9282SOL    HW239483   3.307   3.047  13.045  1.1888  0.1148 -0.6788
 9283SOL     OW39484   4.463   0.518   9.719  0.8639 -0.4253  0.9269
 9283SOL    HW139485   4.467   0.487   9.810  0.4218 -1.0437  0.7369
 9283SOL    HW239486   4.378   0.488   9.689  2.3171 -2.9973 -0.6300
 9284SOL     OW39487   2.923   3.455   9.503 -0.0680 -0.6098  0.1684
 9284SOL    HW139488   2.972   3.505   9.568 -1.3234  1.9330 -0.8495
 9284SOL    HW239489   2.905   3.373   9.550  0.7478 -0.8523  0.0493
 9285SOL     OW39490   0.217   2.542   7.486  0.1816  0.4240  0.1954
 9285SOL    HW139491   0.250   2.575   7.570 -0.2725 -0.0544  0.5607
 9285SOL    HW239492   0.296   2.511   7.442 -0.5174 -1.1259  0.0504
 9286SOL     OW39493   1.701   2.116  16.451 -0.1856 -0.0262  0.2515
 9286SOL    HW139494   1.670   2.150  16.366  0.2171  0.5942  0.3567
 9286SOL    HW239495   1.774   2.177  16.463 -1.3928  2.0601 -2.6647
 9287SOL     OW39496   1.560   1.287   9.185 -0.6924  0.4643 -0.3417
 9287SOL    HW139497   1.651   1.316   9.194  0.2299 -2.7385  0.7712
 9287SOL    HW239498   1.574   1.202   9.144 -0.5259  0.4098 -0.1724
 9288SOL     OW39499   1.393   2.401   5.761  0.3861  0.2349 -0.7195
 9288SOL    HW139500   1.395   2.388   5.855 -0.0598  1.5279 -0.5277
 9288SOL    HW239501   1.411   2.314   5.725  2.0008 -0.3968  1.6082
 9289SOL     OW39502   0.465   2.239   6.395  0.3959 -0.0681  0.1181
 9289SOL    HW139503   0.543   2.206   6.351 -0.7028  1.1473 -2.6932
 9289SOL    HW239504   0.409   2.162   6.405  1.5525 -1.0008 -0.5271
 9290SOL     OW39505   3.249   3.924   6.319 -0.3195  0.0225 -0.5137
 9290SOL    HW139506   3.310   3.859   6.352  0.9309  0.5988 -1.6760
 9290SOL    HW239507   3.181   3.898   6.380  0.7584  0.3858  0.8528
 9291SOL     OW39508   3.922   2.076   7.335 -0.0771 -0.1890  0.7809
 9291SOL    HW139509   3.958   2.028   7.260 -0.5076  0.3654  0.2209
 9291SOL    HW239510   3.846   2.125   7.304 -0.3100 -1.1453 -0.1719
 9292SOL     OW39511   0.097   0.959   3.285 -0.0434  0.2271  0.4679
 9292SOL    HW139512   0.189   0.959   3.311  0.2484 -2.9297 -0.6033
 9292SOL    HW239513   0.104   1.024   3.215  2.0776 -1.5945 -1.0036
 9293SOL     OW39514   3.691   2.420   7.686  0.7713 -0.2858 -0.1756
 9293SOL    HW139515   3.768   2.363   7.683  0.9431  0.0539 -2.0227
 9293SOL    HW239516   3.735   2.499   7.654  0.0765 -0.1154 -0.7081
 9294SOL     OW39517   4.335   1.218  16.715 -0.2101 -0.0456 -0.4388
 9294SOL    HW139518   4.327   1.157  16.641  0.6830 -0.2531 -0.3634
 9294SOL    HW239519   4.254   1.265  16.696  0.0720  0.4599 -0.3950
 9295SOL     OW39520   0.476   0.251  10.674  0.2845  0.0079  0.1759
 9295SOL    HW139521   0.554   0.307  10.678 -1.0200  1.8848 -0.3472
 9295SOL    HW239522   0.521   0.177  10.714  0.6693  0.5030  0.6709
 9296SOL     OW39523   0.287   3.816   5.407  0.1391 -0.3460 -0.2147
 9296SOL    HW139524   0.243   3.755   5.347  1.9480 -1.8687  0.0330
 9296SOL    HW239525   0.256   3.785   5.492 -0.8464 -1.8771 -1.1106
 9297SOL     OW39526   0.735   3.416   2.665  0.3035 -0.2008 -0.3946
 9297SOL    HW139527   0.793   3.366   2.608  0.2679 -1.2241  0.4657
 9297SOL    HW239528   0.747   3.357   2.740 -0.0148 -2.2193 -1.9519
 9298SOL     OW39529   2.246   2.970   7.735 -0.2240  0.5535 -0.3062
 9298SOL    HW139530   2.240   2.895   7.795  0.0389 -0.4777 -1.5586
 9298SOL    HW239531   2.176   2.947   7.674 -0.6755 -1.5308  0.9966
 9299SOL     OW39532   2.697   1.774   4.799  0.2540 -0.2183  0.0636
 9299SOL    HW139533   2.703   1.865   4.768  1.6395 -0.3522 -0.0709
 9299SOL    HW239534   2.736   1.733   4.721  1.6493  0.5381  0.3410
 9300SOL     OW39535   0.625   1.153  16.103 -0.0782  0.3512  0.2213
 9300SOL    HW139536   0.693   1.211  16.069  0.0556  0.9222  1.4847
 9300SOL    HW239537   0.603   1.215  16.172  1.6960 -0.7474  1.7912
 9301SOL     OW39538   4.054   2.407   5.878  0.6140 -0.1208  0.6690
 9301SOL    HW139539   4.099   2.459   5.811 -0.3977  0.4278  0.4240
 9301SOL    HW239540   4.012   2.473   5.932  1.6792  1.3412 -0.3078
 9302SOL     OW39541   4.149   3.646  13.959 -0.0487 -0.2202 -0.2738
 9302SOL    HW139542   4.207   3.721  13.975 -1.7740  0.2456  3.6920
 9302SOL    HW239543   4.079   3.665  14.021 -0.4316 -2.3524 -0.0546
 9303SOL     OW39544   1.445   0.773   1.669 -0.0774 -0.2542  0.7271
 9303SOL    HW139545   1.402   0.859   1.665  1.0939  0.2751 -0.3602
 9303SOL    HW239546   1.515   0.772   1.604 -1.2287  0.1367 -0.5397
 9304SOL     OW39547   1.628   0.520  15.906  0.0192  0.0472 -0.5268
 9304SOL    HW139548   1.544   0.492  15.941  0.3635  0.1652  0.3875
 9304SOL    HW239549   1.602   0.566  15.826  1.9231  0.0452 -1.1512
 9305SOL     OW39550   0.401   0.628   1.258  0.0436 -0.6083 -0.3975
 9305SOL    HW139551   0.408   0.555   1.319  1.4577 -1.5989 -1.7544
 9305SOL    HW239552   0.461   0.688   1.303 -0.9095 -0.2611  0.4029
 9306SOL     OW39553   1.604   3.025   6.840  0.0033  0.0670  0.2959
 9306SOL    HW139554   1.608   3.101   6.898 -0.6762 -0.2882  0.8020
 9306SOL    HW239555   1.557   2.976   6.907 -1.4148 -0.6600 -1.2302
 9307SOL     OW39556   0.467   3.368   9.306 -0.1667  0.1112 -0.3716
 9307SOL    HW139557   0.389   3.422   9.293  0.6947  1.8914  2.0537
 9307SOL    HW239558   0.529   3.433   9.274 -0.4286  0.4604 -0.1642
 9308SOL     OW39559   0.022   0.957   8.804  0.3130  0.1444 -0.0530
 9308SOL    HW139560   0.092   0.895   8.825 -0.6432  0.3672  3.8173
 9308SOL    HW239561   4.675   0.909   8.823  0.7148 -0.3611  0.3609
 9309SOL     OW39562   4.352   0.140  10.125 -0.3343 -0.2245 -0.0039
 9309SOL    HW139563   4.259   0.161  10.127 -0.5079 -1.0810  1.0591
 9309SOL    HW239564   4.370   0.146  10.031 -5.2548 -0.3341 -0.9354
 9310SOL     OW39565   0.074   2.473   4.703  0.1392  0.3293  0.1662
 9310SOL    HW139566   0.068   2.381   4.677  0.1897  0.7108 -1.2108
 9310SOL    HW239567   0.124   2.465   4.784  0.6885  0.9509 -0.1174
 9311SOL     OW39568   4.162   2.654   5.475  0.5885 -0.0560 -0.7702
 9311SOL    HW139569   4.220   2.636   5.401  2.2266  1.7104  0.0989
 9311SOL    HW239570   4.121   2.732   5.437 -0.3645  1.0289  2.4494
 9312SOL     OW39571   1.354   4.289   9.160  0.9707  0.5130  0.9666
 9312SOL    HW139572   1.317   4.314   9.245  0.4788  0.2223  0.8445
 9312SOL    HW239573   1.346   4.193   9.155 -1.3322  0.7746 -0.3620
 9313SOL     OW39574   2.431   2.538   3.546  0.4446 -0.5424  0.2931
 9313SOL    HW139575   2.425   2.627   3.511 -1.9345 -0.9696 -0.3818
 9313SOL    HW239576   2.351   2.529   3.599  0.4429  2.6792  0.8458
 9314SOL     OW39577   1.982   3.007  10.369  0.5695  0.2018 -0.1746
 9314SOL    HW139578   1.900   3.013  10.320  0.4895  1.1954  0.0818
 9314SOL    HW239579   2.035   3.081  10.338  1.7874  0.5692  2.8290
 9315SOL     OW39580   1.204   3.626   7.194  0.1825 -0.2915  0.0641
 9315SOL    HW139581   1.118   3.612   7.155 -0.5776 -0.9758  1.9580
 9315SOL    HW239582   1.183   3.688   7.264  0.2480 -0.3822  0.1650
 9316SOL     OW39583   0.555   1.822   1.910  0.0114  0.4334 -0.4768
 9316SOL    HW139584   0.476   1.811   1.964 -0.3032  1.0564 -0.8135
 9316SOL    HW239585   0.518   1.864   1.832 -1.1377  0.5909  0.1434
 9317SOL     OW39586   2.838   3.150   9.041  0.0183 -0.2806 -0.0100
 9317SOL    HW139587   2.879   3.205   9.107 -1.0371  0.9859 -0.4102
 9317SOL    HW239588   2.866   3.064   9.072 -0.8927 -0.2440  0.9179
 9318SOL     OW39589   3.644   3.174   7.640 -0.4772  0.2262 -0.0341
 9318SOL    HW139590   3.653   3.078   7.644  0.9516  0.3275 -0.8629
 9318SOL    HW239591   3.678   3.195   7.728 -1.5966 -2.4817  1.0466
 9319SOL     OW39592   2.106   4.653   1.698  0.4609 -0.4413 -0.2064
 9319SOL    HW139593   2.179   4.593   1.709  1.3014  0.2439 -2.0468
 9319SOL    HW239594   2.128   4.715   1.628  2.2499  1.0790  1.7073
 9320SOL     OW39595   2.890   0.708  13.323  0.5109 -0.4489 -0.1294
 9320SOL    HW139596   2.798   0.733  13.321  1.0932  1.7876  0.8997
 9320SOL    HW239597   2.923   0.759  13.248 -1.1276  1.7823  0.6668
 9321SOL     OW39598   1.256   2.782   6.922  0.1149  0.0881 -0.1313
 9321SOL    HW139599   1.280   2.854   6.864  0.3673 -0.0828 -0.2418
 9321SOL    HW239600   1.323   2.718   6.895 -0.5344 -0.6543  0.0063
 9322SOL     OW39601   1.451   3.178   4.423 -0.0553  0.1433  1.0999
 9322SOL    HW139602   1.478   3.118   4.354  0.7568  1.0571  0.6213
 9322SOL    HW239603   1.358   3.157   4.425 -0.0487 -0.0263 -1.0826
 9323SOL     OW39604   4.163   4.427   5.029  0.2103  0.3435  0.0701
 9323SOL    HW139605   4.217   4.365   5.079  0.2531 -1.1090 -1.7709
 9323SOL    HW239606   4.209   4.425   4.945  0.5342 -0.1363  0.2559
 9324SOL     OW39607   3.299   0.232  11.734 -0.3347  0.2055  0.1490
 9324SOL    HW139608   3.330   0.252  11.646 -0.8717 -0.7450 -0.2475
 9324SOL    HW239609   3.269   0.321  11.750  1.2227  1.2066 -2.4729
 9325SOL     OW39610   0.974   2.687   7.532  0.1873  0.0159  0.3488
 9325SOL    HW139611   1.038   2.660   7.466  0.7575 -1.1883  1.3980
 9325SOL    HW239612   0.919   2.754   7.491  2.0272  0.8209 -0.8306
 9326SOL     OW39613   2.729   3.749  12.130  0.0665  0.4443  0.0469
 9326SOL    HW139614   2.700   3.660  12.109 -0.3019 -0.4008  4.1037
 9326SOL    HW239615   2.795   3.758  12.062 -0.8583  2.0855 -0.6373
 9327SOL     OW39616   1.242   0.310   7.767  0.2260 -0.2272 -0.0216
 9327SOL    HW139617   1.178   0.241   7.786 -0.2531  0.4705  0.9157
 9327SOL    HW239618   1.300   0.318   7.843 -0.8637  2.1840  0.5386
 9328SOL     OW39619   0.970   4.581   2.081  0.0159  0.0383 -0.2557
 9328SOL    HW139620   0.942   4.671   2.062 -0.6852  0.1638  1.3913
 9328SOL    HW239621   0.889   4.536   2.057  0.3149  0.6821 -2.5228
 9329SOL     OW39622   1.768   4.601   6.468 -0.4932  1.1223 -0.0895
 9329SOL    HW139623   1.705   4.601   6.396 -0.3185 -2.0630 -0.2277
 9329SOL    HW239624   1.802   4.512   6.463 -0.5832  1.2569 -3.5264
 9330SOL     OW39625   2.692   2.080   7.612 -0.1170 -0.0068  0.4642
 9330SOL    HW139626   2.769   2.087   7.555 -1.7330  0.9970 -1.5998
 9330SOL    HW239627   2.646   2.004   7.577 -1.9215  2.4891 -2.5861
 9331SOL     OW39628   1.190   1.699   0.688  0.6665 -0.0077 -0.0348
 9331SOL    HW139629   1.242   1.701   0.608 -1.0097 -0.7110 -1.1403
 9331SOL    HW239630   1.119   1.761   0.677 -0.2518 -1.3024 -1.3987
 9332SOL     OW39631   4.184   3.823  10.032 -0.3658  0.6172  0.1539
 9332SOL    HW139632   4.253   3.772   9.990 -1.7966 -0.2571 -1.1295
 9332SOL    HW239633   4.116   3.822   9.965 -1.0025 -0.2461  0.8186
 9333SOL     OW39634   4.315   0.954  10.443 -0.1640  0.3952  0.3030
 9333SOL    HW139635   4.219   0.960  10.451 -0.2490 -1.0543  0.4879
 9333SOL    HW239636   4.332   0.886  10.378 -0.0656 -1.4866  2.3049
 9334SOL     OW39637   2.670   0.907   7.583  0.0654  0.2976  0.1773
 9334SOL    HW139638   2.605   0.837   7.578  0.8914 -0.3381 -1.6644
 9334SOL    HW239639   2.738   0.864   7.635 -0.6283 -1.7490 -0.6033
 9335SOL     OW39640   3.315   3.165   5.537  0.0610 -0.1303 -0.2859
 9335SOL    HW139641   3.277   3.187   5.622 -1.1700 -0.8726 -0.6470
 9335SOL    HW239642   3.405   3.186   5.562  0.0802 -0.3920 -0.1425
 9336SOL     OW39643   2.854   1.336   5.779 -0.2438  0.2216  0.3065
 9336SOL    HW139644   2.848   1.302   5.689 -0.2476 -1.9700  1.1400
 9336SOL    HW239645   2.766   1.370   5.795 -0.9267 -2.1189  1.5322
 9337SOL     OW39646   3.757   3.654   7.889  0.3742  0.2282 -1.0872
 9337SOL    HW139647   3.679   3.709   7.887 -0.8519 -1.4209  2.5464
 9337SOL    HW239648   3.784   3.670   7.979 -0.5723  0.2960 -0.8243
 9338SOL     OW39649   3.194   3.310   4.866 -0.4429 -0.0504 -0.4955
 9338SOL    HW139650   3.159   3.281   4.950  1.7784  1.6536  1.0268
 9338SOL    HW239651   3.113   3.325   4.817 -0.9748 -1.0540  0.0614
 9339SOL     OW39652   0.002   2.363  10.562 -0.9339  0.4660  0.4270
 9339SOL    HW139653   0.021   2.296  10.497 -1.4100 -0.4118  1.1881
 9339SOL    HW239654   4.667   2.328  10.620 -1.9449  0.4034 -0.8189
 9340SOL     OW39655   2.121   0.856  12.281 -0.5436 -1.1106  0.2462
 9340SOL    HW139656   2.126   0.947  12.251 -0.7981 -1.6117 -1.3623
 9340SOL    HW239657   2.177   0.818  12.213 -0.7882 -1.9158  0.5009
 9341SOL     OW39658   1.261   2.687   7.853  0.0761 -0.2782 -0.8040
 9341SOL    HW139659   1.225   2.712   7.939 -0.4276 -1.7761 -0.5742
 9341SOL    HW239660   1.308   2.605   7.868  0.1780  0.2135  1.5839
 9342SOL     OW39661   0.421   1.944   6.759  0.1118 -0.6068 -0.6383
 9342SOL    HW139662   0.351   1.977   6.703  1.4048  2.0552 -0.6776
 9342SOL    HW239663   0.422   1.851   6.734 -1.6384 -0.5656 -0.8701
 9343SOL     OW39664   3.561   2.438   4.611 -0.0518 -0.3433  0.0578
 9343SOL    HW139665   3.654   2.454   4.626 -0.0189 -0.4497 -0.0372
 9343SOL    HW239666   3.562   2.345   4.630 -2.4565 -0.6892 -1.4712
 9344SOL     OW39667   4.333   0.254   1.644 -0.1369  0.4263  0.7748
 9344SOL    HW139668   4.336   0.222   1.734 -2.7721  1.5023  1.2259
 9344SOL    HW239669   4.240   0.246   1.624 -0.0218 -0.7423  0.6806
 9345SOL     OW39670   0.164   0.410  10.139  0.4632  0.3017 -0.1051
 9345SOL    HW139671   0.080   0.408  10.092 -0.6201 -0.0379  1.8319
 9345SOL    HW239672   0.150   0.468  10.214 -1.0211 -1.4369  0.9859
 9346SOL     OW39673   1.056   4.130  13.191  0.1510  0.2506  0.0654
 9346SOL    HW139674   1.022   4.140  13.281 -2.1006 -0.6366 -0.6870
 9346SOL    HW239675   1.124   4.198  13.188  1.1622 -0.7955 -0.5554
 9347SOL     OW39676   4.267   2.241  13.474  0.4695 -0.0510  0.0840
 9347SOL    HW139677   4.349   2.276  13.510 -0.6349  0.6435  1.9208
 9347SOL    HW239678   4.206   2.291  13.528  0.4827  0.8331 -0.7200
 9348SOL     OW39679   3.513   2.588   8.165 -0.2472  0.4159  0.0690
 9348SOL    HW139680   3.574   2.615   8.095  2.5416 -3.0918  1.1407
 9348SOL    HW239681   3.434   2.638   8.146 -0.9828 -1.0006 -0.5975
 9349SOL     OW39682   1.394   1.482   9.091 -0.1968 -0.2666  0.0666
 9349SOL    HW139683   1.314   1.455   9.134 -0.1919  1.0493  0.9046
 9349SOL    HW239684   1.456   1.413   9.113 -1.0068 -1.1979 -0.5894
 9350SOL     OW39685   1.269   3.665   9.034 -0.5146  0.1694 -0.2740
 9350SOL    HW139686   1.244   3.588   9.085  0.4036 -0.7755 -1.2591
 9350SOL    HW239687   1.304   3.629   8.952 -0.0554  0.1070 -0.0530
 9351SOL     OW39688   2.836   1.225   2.752  0.6854  0.3643  0.3048
 9351SOL    HW139689   2.890   1.170   2.809  0.1324 -0.3753  0.1176
 9351SOL    HW239690   2.839   1.170   2.674  0.2372  0.1715  0.4249
 9352SOL     OW39691   3.670   4.240  10.879  0.4469 -0.4901 -0.4095
 9352SOL    HW139692   3.614   4.267  10.806 -1.2880  0.3904  1.2615
 9352SOL    HW239693   3.752   4.273  10.843  0.0575 -0.6398 -1.4507
 9353SOL     OW39694   3.168   4.304   3.632  0.1564 -0.1323  0.5784
 9353SOL    HW139695   3.144   4.282   3.722 -0.0616 -0.8309  0.3485
 9353SOL    HW239696   3.238   4.367   3.646 -2.1688  2.4694  0.4084
 9354SOL     OW39697   1.383   1.586  12.334 -0.3443 -0.3605 -0.1428
 9354SOL    HW139698   1.318   1.553  12.272 -0.0161  2.4971 -1.9897
 9354SOL    HW239699   1.458   1.592  12.274 -0.6116 -2.2927 -0.6739
 9355SOL     OW39700   2.207   1.970   6.386  0.3063  0.5107 -0.2391
 9355SOL    HW139701   2.173   1.958   6.475 -0.5647  2.9603 -0.2521
 9355SOL    HW239702   2.300   1.950   6.401  0.2137  0.2755  0.0269
 9356SOL     OW39703   2.591   0.894   4.673 -0.6055 -0.2098 -0.0673
 9356SOL    HW139704   2.663   0.889   4.736 -1.3228 -0.6768  0.7171
 9356SOL    HW239705   2.642   0.862   4.598  0.4195  0.1664  0.4679
 9357SOL     OW39706   3.968   1.012  12.685  0.0902  0.0081  0.3979
 9357SOL    HW139707   3.899   0.963  12.729 -0.3316  0.6375  0.4302
 9357SOL    HW239708   4.043   1.008  12.745 -0.4926  1.4232  1.2013
 9358SOL     OW39709   3.381   3.087   7.398  0.3725 -0.0086  0.1117
 9358SOL    HW139710   3.367   3.159   7.459 -0.6507 -0.9676  1.0102
 9358SOL    HW239711   3.428   3.132   7.328  1.5775 -0.4550  0.6231
 9359SOL     OW39712   1.008   4.038   8.330  0.0332 -1.0426  0.0094
 9359SOL    HW139713   1.088   4.084   8.306 -0.1627 -0.1659  1.0539
 9359SOL    HW239714   0.951   4.053   8.254  0.2696 -0.2276 -0.0034
 9360SOL     OW39715   0.631   0.448   2.907  0.2031  0.5373 -0.5650
 9360SOL    HW139716   0.606   0.364   2.945  0.3428  0.6532 -0.2118
 9360SOL    HW239717   0.667   0.428   2.820 -0.1791 -0.4206 -0.4996
 9361SOL     OW39718   2.364   0.795  11.117 -0.2803 -0.8513  0.0890
 9361SOL    HW139719   2.287   0.794  11.060  0.5456  0.0038 -1.0430
 9361SOL    HW239720   2.329   0.739  11.187  0.7942  0.7285  1.8848
 9362SOL     OW39721   0.735   1.878   3.032  0.1604  0.1071  0.0082
 9362SOL    HW139722   0.674   1.809   3.004  1.2505 -0.3913 -1.1723
 9362SOL    HW239723   0.679   1.955   3.035  0.1141  0.1503 -1.8312
 9363SOL     OW39724   4.027   4.616   6.464  0.1522 -0.0603  0.1383
 9363SOL    HW139725   3.940   4.634   6.429 -0.0637 -2.0700 -0.3307
 9363SOL    HW239726   4.029   4.663   6.548 -1.0984  0.6979 -0.2495
 9364SOL     OW39727   3.160   0.893  12.297  0.1417  0.4372 -0.4525
 9364SOL    HW139728   3.183   0.981  12.267 -0.7654  0.4649 -1.0739
 9364SOL    HW239729   3.247   0.860  12.318  1.0801  1.0396 -3.2756
 9365SOL     OW39730   1.701   4.101  13.361 -0.0008  0.7531  0.1075
 9365SOL    HW139731   1.664   4.138  13.441 -1.1934  1.5690 -0.8268
 9365SOL    HW239732   1.632   4.129  13.300  0.0848 -0.9755 -0.7838
 9366SOL     OW39733   2.784   1.049   8.198  0.7859  0.4182  0.0280
 9366SOL    HW139734   2.746   1.098   8.271  1.6059  2.0452 -0.6486
 9366SOL    HW239735   2.841   1.110   8.152  1.4088 -0.2568 -0.0981
 9367SOL     OW39736   2.395   2.298   5.054  0.1059  0.6278 -0.1855
 9367SOL    HW139737   2.389   2.390   5.077 -1.4909 -0.0363  2.0466
 9367SOL    HW239738   2.343   2.252   5.120  0.4547  0.0037 -0.3420
 9368SOL     OW39739   3.299   1.555   2.834  0.7072 -0.2247  0.2709
 9368SOL    HW139740   3.338   1.471   2.810  0.4295 -0.0920 -0.6583
 9368SOL    HW239741   3.380   1.605   2.827  0.6471 -0.5082 -2.4308
 9369SOL     OW39742   3.757   0.670   2.668  0.0528  0.3366  0.4192
 9369SOL    HW139743   3.714   0.736   2.614 -0.7727  0.9262  1.7974
 9369SOL    HW239744   3.848   0.665   2.641  0.1397 -2.3141  1.1594
 9370SOL     OW39745   0.523   4.054   4.025  0.4547 -0.2842 -0.5715
 9370SOL    HW139746   0.482   4.071   4.110 -0.6016 -1.2064 -0.9055
 9370SOL    HW239747   0.586   4.126   4.026  2.3871 -1.9931 -0.3516
 9371SOL     OW39748   0.255   0.306   3.891  0.3902  0.1093 -0.7887
 9371SOL    HW139749   0.347   0.279   3.898  0.6046  0.9541 -0.3469
 9371SOL    HW239750   0.231   0.270   3.805 -0.8588 -1.9583  0.4513
 9372SOL     OW39751   2.425   4.701   8.095 -0.0910 -0.1274 -0.3926
 9372SOL    HW139752   2.517   4.680   8.083 -0.9574 -3.9458 -0.3546
 9372SOL    HW239753   2.375   4.621   8.078 -0.4315 -0.3241  1.5496
 9373SOL     OW39754   4.624   1.084  11.272 -0.0187  0.0891 -0.0463
 9373SOL    HW139755   4.659   1.096  11.183  1.2646  0.5006  0.5096
 9373SOL    HW239756   4.686   1.020  11.307  0.3536  0.5510  0.1399
 9374SOL     OW39757   0.387   3.107   4.603 -0.5610  0.3849 -0.2333
 9374SOL    HW139758   0.366   3.039   4.667  0.0131  0.6193  0.1951
 9374SOL    HW239759   0.474   3.134   4.630  0.5899  0.2330 -3.7564
 9375SOL     OW39760   0.777   1.161   0.538  0.4590 -0.3837  0.1563
 9375SOL    HW139761   0.858   1.132   0.578 -0.4129 -3.3279 -0.1770
 9375SOL    HW239762   0.737   1.074   0.541  0.4357 -0.4032 -0.5259
 9376SOL     OW39763   0.607   3.523   8.156 -1.0338  0.1307  0.2857
 9376SOL    HW139764   0.570   3.611   8.167  0.8858  0.8180  1.3185
 9376SOL    HW239765   0.698   3.550   8.138 -0.6327 -1.4242  0.0356
 9377SOL     OW39766   4.667   4.721   2.607  0.0991 -0.8313 -0.0102
 9377SOL    HW139767   4.658   4.660   2.681  0.1318  0.6153  1.1950
 9377SOL    HW239768   0.012   4.689   2.564  0.0763  2.4936 -2.4595
 9378SOL     OW39769   2.029   3.969   6.511 -0.1465  0.4821 -0.0204
 9378SOL    HW139770   1.958   3.977   6.449  0.7356  1.3054 -0.9233
 9378SOL    HW239771   2.062   4.058   6.526 -0.8690  0.6607  0.4847
 9379SOL     OW39772   2.410   1.364   9.053  0.1160  0.3507 -0.7886
 9379SOL    HW139773   2.427   1.423   8.980  0.8413  2.1158  0.8159
 9379SOL    HW239774   2.431   1.281   9.010 -1.5748 -0.8872  0.8139
 9380SOL     OW39775   2.183   3.900   5.910 -0.4252  0.4274 -0.6817
 9380SOL    HW139776   2.135   3.905   5.993 -0.1107 -2.1454 -0.3337
 9380SOL    HW239777   2.175   3.811   5.876  2.2730 -0.3508  0.7200
 9381SOL     OW39778   0.361   3.106   3.992 -0.2099  0.4014 -0.6810
 9381SOL    HW139779   0.315   3.122   4.074 -0.3956 -1.5250 -0.4142
 9381SOL    HW239780   0.439   3.162   3.991  0.8365 -1.0608 -2.4026
 9382SOL     OW39781   1.159   3.828  14.705  0.4124  0.5009 -0.2697
 9382SOL    HW139782   1.157   3.914  14.662  2.2326 -0.3318 -2.0576
 9382SOL    HW239783   1.068   3.800  14.694  1.0723 -1.8721  0.3876
 9383SOL     OW39784   0.690   2.692  11.901 -0.7810  0.2229 -0.3103
 9383SOL    HW139785   0.627   2.739  11.846 -0.7233 -2.2751 -2.5091
 9383SOL    HW239786   0.709   2.757  11.969  0.5809 -1.6762  1.1209
 9384SOL     OW39787   1.971   2.227  10.491  0.3256 -0.2461  0.2755
 9384SOL    HW139788   1.993   2.254  10.581 -1.0420  0.1338  0.4932
 9384SOL    HW239789   1.901   2.167  10.516 -0.3945 -0.1103 -1.4289
 9385SOL     OW39790   2.528   3.252   3.490  0.8920 -0.1660  0.1094
 9385SOL    HW139791   2.617   3.217   3.493  1.0055  0.4017  3.5406
 9385SOL    HW239792   2.512   3.259   3.584  0.0080  0.5314 -0.0839
 9386SOL     OW39793   2.696   2.848   4.520  0.4411 -0.1312 -0.1530
 9386SOL    HW139794   2.698   2.774   4.459  0.0665 -0.1282 -0.1712
 9386SOL    HW239795   2.680   2.810   4.607 -0.9615 -0.0946 -0.3919
 9387SOL     OW39796   1.734   2.813   5.783  0.1539  0.6991 -0.7292
 9387SOL    HW139797   1.688   2.754   5.843  0.8735 -1.7132 -2.5026
 9387SOL    HW239798   1.675   2.814   5.707  2.2670 -0.0447 -2.3929
 9388SOL     OW39799   2.854   1.008   0.373  0.6931 -0.4262 -0.1713
 9388SOL    HW139800   2.906   1.066   0.318 -2.9324 -0.2798 -3.4260
 9388SOL    HW239801   2.917   0.936   0.384  0.6465 -0.8289 -2.5133
 9389SOL     OW39802   4.248   0.858   3.031 -0.5241 -0.3213 -0.1121
 9389SOL    HW139803   4.312   0.810   3.083  0.5617  1.8461  0.5741
 9389SOL    HW239804   4.229   0.925   3.097  0.2453 -0.4011  0.1888
 9390SOL     OW39805   1.308   1.882   8.646 -0.2002  0.2214 -0.0187
 9390SOL    HW139806   1.290   1.894   8.739  0.6807  1.6946 -0.0395
 9390SOL    HW239807   1.304   1.972   8.613 -2.7336  1.0660  2.6069
 9391SOL     OW39808   0.333   2.113   7.391 -0.3722 -0.2900 -0.2163
 9391SOL    HW139809   0.326   2.204   7.418  1.4632 -0.5164  1.0571
 9391SOL    HW239810   0.428   2.108   7.402 -0.5137  0.2413  1.3257
 9392SOL     OW39811   1.261   0.177   0.887  0.7897 -0.8539 -0.6265
 9392SOL    HW139812   1.356   0.184   0.883  0.5301  1.1809 -3.6499
 9392SOL    HW239813   1.247   0.272   0.889 -0.6233 -1.0704  0.4930
 9393SOL     OW39814   4.352   3.492  14.226  0.2830 -0.3645  0.7272
 9393SOL    HW139815   4.261   3.502  14.254 -0.1215  0.9061 -1.0742
 9393SOL    HW239816   4.376   3.578  14.259 -0.8412 -0.0869  0.8150
 9394SOL     OW39817   0.714   2.861   4.121  0.2571  0.5451  0.1213
 9394SOL    HW139818   0.696   2.796   4.054  2.0207 -1.9412  2.0887
 9394SOL    HW239819   0.785   2.915   4.085  0.7951 -0.9186 -1.0003
 9395SOL     OW39820   4.414   1.389   6.598 -0.5507 -0.1558 -0.9393
 9395SOL    HW139821   4.460   1.305   6.597 -0.3970 -0.0956  0.5896
 9395SOL    HW239822   4.327   1.352   6.614  0.5298 -1.0977  2.8301
 9396SOL     OW39823   1.425   2.466   7.371 -0.8141  0.3089 -0.2305
 9396SOL    HW139824   1.407   2.488   7.280 -1.2721  2.6553  0.4265
 9396SOL    HW239825   1.436   2.371   7.362  1.0575  0.5635 -0.6500
 9397SOL     OW39826   1.309   3.014   6.736 -0.4424  0.1390 -0.0953
 9397SOL    HW139827   1.334   3.004   6.643 -0.9368 -0.8859 -0.1170
 9397SOL    HW239828   1.370   3.083   6.760 -1.9861  1.5794 -0.3618
 9398SOL     OW39829   2.192   0.205   4.997  0.0097  0.0427  0.2214
 9398SOL    HW139830   2.198   0.284   5.052 -4.0400  0.4226  0.0760
 9398SOL    HW239831   2.273   0.160   5.020  0.7561  1.2591 -0.0122
 9399SOL     OW39832   4.018   4.684   4.288  0.0263  0.2927  0.3478
 9399SOL    HW139833   4.007   4.589   4.286 -0.3472  0.3986 -2.3833
 9399SOL    HW239834   4.071   4.685   4.367  0.3617  1.8505  0.0873
 9400SOL     OW39835   4.139   0.795   8.124 -0.2374 -0.1299  0.1135
 9400SOL    HW139836   4.232   0.816   8.127 -0.5189  1.4170 -1.8786
 9400SOL    HW239837   4.102   0.860   8.183 -1.5052 -2.1269  1.4946
 9401SOL     OW39838   2.147   3.521  17.545 -0.2616  0.4672 -0.5322
 9401SOL    HW139839   2.068   3.507  17.598  0.9241  0.3021  1.2026
 9401SOL    HW239840   2.134   3.462  17.470 -1.1122 -0.3203  0.2284
 9402SOL     OW39841   1.759   0.678  16.111  0.2099  0.6718  0.3915
 9402SOL    HW139842   1.705   0.676  16.190 -0.5044 -2.0953 -0.1970
 9402SOL    HW239843   1.728   0.597  16.072 -1.1943  0.7279  1.3957
 9403SOL     OW39844   1.310   1.180   0.720  0.1215 -0.1908  0.2377
 9403SOL    HW139845   1.340   1.105   0.772 -0.5926 -0.4052  0.3323
 9403SOL    HW239846   1.394   1.195   0.675 -0.5941  0.3617 -0.9040
 9404SOL     OW39847   2.875   0.542  12.339 -0.4216 -0.6666 -0.2739
 9404SOL    HW139848   2.804   0.579  12.286  0.0960  1.4265  0.5010
 9404SOL    HW239849   2.836   0.547  12.426  1.4107 -0.8183  0.5509
 9405SOL     OW39850   2.303   0.216   5.614 -0.2347 -0.1860  0.0985
 9405SOL    HW139851   2.231   0.154   5.600 -1.0818  0.8697 -0.2450
 9405SOL    HW239852   2.296   0.276   5.540 -0.4902 -1.1042 -0.6159
 9406SOL     OW39853   3.007   0.751  12.469  0.1353 -0.0504 -0.5390
 9406SOL    HW139854   3.067   0.788  12.404  1.3970 -1.2124 -0.0422
 9406SOL    HW239855   2.971   0.675  12.422 -0.0071 -0.1232 -0.3094
 9407SOL     OW39856   4.040   1.399   4.833 -0.7443  0.5021  0.2484
 9407SOL    HW139857   4.030   1.345   4.755 -2.6069 -1.8708  2.1486
 9407SOL    HW239858   4.134   1.383   4.847 -0.2363  1.0823 -2.4428
 9408SOL     OW39859   0.912   4.290   2.280 -0.1356 -0.3544  0.3646
 9408SOL    HW139860   0.913   4.266   2.187  0.9562  0.4746  0.1677
 9408SOL    HW239861   1.006   4.289   2.300 -0.6072 -1.3105  2.5800
 9409SOL     OW39862   4.469   4.036   6.886 -0.2627 -0.1003  0.6617
 9409SOL    HW139863   4.522   4.116   6.881  0.4437 -0.5653  0.6170
 9409SOL    HW239864   4.476   4.004   6.796  0.7030 -0.1819  0.7670
 9410SOL     OW39865   0.813   2.855   7.376 -0.1129  0.2922  0.4524
 9410SOL    HW139866   0.781   2.832   7.289  0.2920  1.8449 -0.1010
 9410SOL    HW239867   0.889   2.907   7.352  1.9615 -2.5068  0.8435
 9411SOL     OW39868   1.468   3.346   7.614  0.3218 -0.1784 -0.3737
 9411SOL    HW139869   1.378   3.370   7.634  1.2573  2.9137  0.1741
 9411SOL    HW239870   1.508   3.389   7.690 -1.4655 -0.4088  0.6883
 9412SOL     OW39871   3.782   0.105   9.569  0.0217 -0.1093 -0.4964
 9412SOL    HW139872   3.728   0.167   9.618 -0.3341  1.2541 -2.5987
 9412SOL    HW239873   3.724   0.028   9.573 -1.0433  0.8567  2.3538
 9413SOL     OW39874   3.421   0.604  17.687 -0.0858  0.0702 -0.3174
 9413SOL    HW139875   3.377   0.689  17.678 -0.9764 -0.3574  0.0623
 9413SOL    HW239876   3.511   0.630  17.705  0.2615 -0.2208 -1.6504
 9414SOL     OW39877   0.246   0.195   3.624  0.3157 -0.0857  0.7512
 9414SOL    HW139878   0.306   0.127   3.592 -0.1678  0.3753 -1.1575
 9414SOL    HW239879   0.203   0.225   3.543  3.4666  1.8121 -0.2256
 9415SOL     OW39880   1.924   1.639   7.909 -0.1857  0.2156 -0.0493
 9415SOL    HW139881   1.857   1.675   7.851 -0.9338  0.4142  0.9191
 9415SOL    HW239882   1.870   1.612   7.984 -0.2096  0.9854  0.2147
 9416SOL     OW39883   0.996   4.699   5.214  0.3571  0.1254 -0.7385
 9416SOL    HW139884   0.923   4.690   5.276 -0.2421  1.8435 -1.1927
 9416SOL    HW239885   1.063   4.732   5.274 -1.8574  0.3868  1.5943
 9417SOL     OW39886   1.562   4.639   7.830 -0.0102  0.3806  0.5520
 9417SOL    HW139887   1.593   4.595   7.751 -0.6756 -2.1736  1.7102
 9417SOL    HW239888   1.614   4.718   7.820 -0.7518  1.0384  1.8956
 9418SOL     OW39889   1.431   3.968   3.476  0.4305 -0.3269 -0.2628
 9418SOL    HW139890   1.424   3.909   3.401  1.9966 -0.4163 -0.3327
 9418SOL    HW239891   1.400   3.904   3.540  1.0412  0.2402  0.5912
 9419SOL     OW39892   0.105   2.165   0.885  0.2460 -0.2046  0.1834
 9419SOL    HW139893   0.157   2.085   0.884 -1.4037 -1.2885 -0.9103
 9419SOL    HW239894   0.030   2.136   0.938  1.5420 -2.1379  0.9592
 9420SOL     OW39895   1.620   3.879  16.051  0.1633 -0.5779  0.0820
 9420SOL    HW139896   1.665   3.922  16.123 -0.0641 -1.3394  0.6753
 9420SOL    HW239897   1.530   3.897  16.080  0.3314 -1.5274  1.1543
 9421SOL     OW39898   2.595   4.645  15.268 -0.5831  0.3304  0.5506
 9421SOL    HW139899   2.590   4.628  15.362  1.6420 -1.7964  0.2969
 9421SOL    HW239900   2.521   4.706  15.264  0.6622  1.7643 -0.9288
 9422SOL     OW39901   2.386   2.463   9.130 -0.1433 -0.3207 -0.3100
 9422SOL    HW139902   2.313   2.524   9.141  0.9218  1.4580 -3.2683
 9422SOL    HW239903   2.345   2.376   9.128 -1.2926  0.2274 -0.3381
 9423SOL     OW39904   3.348   3.893   2.212 -0.2855  0.2031  0.3811
 9423SOL    HW139905   3.403   3.968   2.186  1.1495 -1.4350 -1.3185
 9423SOL    HW239906   3.292   3.884   2.135  1.8527 -1.1730 -1.0206
 9424SOL     OW39907   4.223   1.929   9.090  0.0358  0.5661  0.6687
 9424SOL    HW139908   4.136   1.890   9.078  0.6874 -0.7819  0.4001
 9424SOL    HW239909   4.207   2.017   9.124  0.8770  0.6349  0.8812
 9425SOL     OW39910   4.487   2.145   7.533 -0.4098 -0.4759  0.4622
 9425SOL    HW139911   4.505   2.095   7.453  4.6056  0.7549  0.8285
 9425SOL    HW239912   4.434   2.073   7.567 -0.9784  0.0376  0.6510
 9426SOL     OW39913   4.289   2.757   7.214  0.1978  0.3517  0.0319
 9426SOL    HW139914   4.220   2.693   7.233  0.3624  0.0715 -0.3023
 9426SOL    HW239915   4.248   2.843   7.222  2.6395  1.6546 -1.2957
 9427SOL     OW39916   1.384   3.324   2.395 -0.1228 -0.1294  0.4809
 9427SOL    HW139917   1.348   3.407   2.428 -2.4483 -1.6112  1.5990
 9427SOL    HW239918   1.312   3.294   2.339  0.1081 -0.6760  0.4781
 9428SOL     OW39919   1.339   3.842  16.121  0.3037 -0.2171  1.2648
 9428SOL    HW139920   1.288   3.918  16.092  0.0316 -1.1695 -0.7231
 9428SOL    HW239921   1.283   3.782  16.171 -1.8371 -0.5661 -1.5854
 9429SOL     OW39922   3.861   0.687   3.418  0.4199 -0.0742 -0.3123
 9429SOL    HW139923   3.904   0.687   3.332  0.9204  0.7087 -0.0579
 9429SOL    HW239924   3.802   0.612   3.409  0.3532 -0.1739  0.8957
 9430SOL     OW39925   1.334   2.728   1.597 -0.0983  0.7222  0.2090
 9430SOL    HW139926   1.287   2.787   1.656  2.7561  0.5222  2.6528
 9430SOL    HW239927   1.399   2.791   1.565  1.1403  0.3725  2.0525
 9431SOL     OW39928   1.248   3.393   5.218 -0.0638  0.1418 -0.0468
 9431SOL    HW139929   1.186   3.361   5.152 -0.4551 -0.2802  0.5291
 9431SOL    HW239930   1.182   3.421   5.282  0.5401 -0.3613  0.7827
 9432SOL     OW39931   2.646   1.304   2.933 -0.2928  0.0979  0.7940
 9432SOL    HW139932   2.717   1.274   2.877 -1.0256  2.1624 -1.2470
 9432SOL    HW239933   2.578   1.239   2.917  2.1798 -1.4297 -3.4181
 9433SOL     OW39934   0.708   3.411   5.559 -0.3261 -0.7588  0.3265
 9433SOL    HW139935   0.739   3.491   5.515  0.2495 -0.0972  1.9226
 9433SOL    HW239936   0.728   3.341   5.497 -0.0619  0.1734 -0.6404
 9434SOL     OW39937   3.163   2.257  15.678  0.1579 -0.1213  0.0485
 9434SOL    HW139938   3.130   2.182  15.727 -0.9431  0.0174 -0.4786
 9434SOL    HW239939   3.197   2.220  15.597 -0.2807 -1.2295  0.3741
 9435SOL     OW39940   1.931   1.161  15.205  0.0067  0.1351 -0.1798
 9435SOL    HW139941   1.983   1.105  15.262 -0.6740  1.1957  1.4882
 9435SOL    HW239942   1.996   1.159  15.135  0.8616  2.4629  0.5339
 9436SOL     OW39943   1.993   2.096   8.675 -0.3983 -0.1166  0.1978
 9436SOL    HW139944   2.045   2.158   8.623  1.4869 -1.1387  0.8656
 9436SOL    HW239945   1.938   2.060   8.606  0.5635  1.3415 -1.3521
 9437SOL     OW39946   2.114   2.177   7.269  0.4077  0.1660 -0.4423
 9437SOL    HW139947   2.043   2.169   7.332  0.0103  1.3599 -0.7473
 9437SOL    HW239948   2.164   2.247   7.311 -0.7164  0.7455 -0.0722
 9438SOL     OW39949   1.902   1.921   4.135  0.6215  0.8344 -0.2736
 9438SOL    HW139950   1.877   1.962   4.051 -1.5565  1.5454  0.7168
 9438SOL    HW239951   1.923   1.835   4.098 -0.5643 -0.6856  2.6276
 9439SOL     OW39952   0.780   1.898   2.620 -0.4212  0.2173 -0.5343
 9439SOL    HW139953   0.850   1.901   2.555 -1.2752  2.3108 -1.3555
 9439SOL    HW239954   0.706   1.876   2.565 -0.5949 -0.4106 -0.0492
 9440SOL     OW39955   2.516   0.523   3.294 -0.3656  0.3504  0.1664
 9440SOL    HW139956   2.495   0.430   3.288 -1.1865  0.8318 -4.5685
 9440SOL    HW239957   2.565   0.527   3.212  0.8343  5.1030  1.0803
 9441SOL     OW39958   3.702   0.484  12.628  0.2246 -0.2076  0.3580
 9441SOL    HW139959   3.732   0.528  12.707 -2.0277  0.6383  0.7552
 9441SOL    HW239960   3.741   0.397  12.635  0.6551  0.1460  2.4917
 9442SOL     OW39961   4.332   1.582  13.897  0.7044  0.0811 -0.3277
 9442SOL    HW139962   4.308   1.634  13.820 -0.5639  0.7449  0.5087
 9442SOL    HW239963   4.333   1.652  13.962  0.8912 -0.3216  0.1016
 9443SOL     OW39964   1.204   0.452  11.306 -0.0560 -0.0022  0.0457
 9443SOL    HW139965   1.260   0.496  11.370  1.5370 -0.1483 -1.2412
 9443SOL    HW239966   1.170   0.384  11.364  0.0113 -0.1787 -0.1198
 9444SOL     OW39967   2.323   2.600   4.733  0.2350 -0.1373  0.6308
 9444SOL    HW139968   2.370   2.683   4.727  1.9882 -1.0646  1.8386
 9444SOL    HW239969   2.398   2.542   4.749  0.5575 -0.4112 -1.7770
 9445SOL     OW39970   0.850   1.161   4.038 -0.2442 -0.0822 -0.2595
 9445SOL    HW139971   0.894   1.140   3.956 -1.2525 -0.4382 -0.7178
 9445SOL    HW239972   0.787   1.089   4.042  2.1429 -2.2603 -1.5146
 9446SOL     OW39973   2.842   2.652   2.762 -0.3218  0.3347 -0.2160
 9446SOL    HW139974   2.882   2.567   2.781  2.5426  1.7577  0.1572
 9446SOL    HW239975   2.773   2.653   2.828 -1.1267 -2.1336 -1.0221
 9447SOL     OW39976   4.119   0.432  13.478  0.4518 -0.2018  0.1903
 9447SOL    HW139977   4.116   0.466  13.567 -3.2566  1.0104 -0.3985
 9447SOL    HW239978   4.040   0.474  13.445  1.4654  1.8784  0.3950
 9448SOL     OW39979   2.152   1.983   5.461  0.0543 -0.5446  0.2186
 9448SOL    HW139980   2.117   2.027   5.538 -0.8241 -0.0427 -0.4644
 9448SOL    HW239981   2.073   1.933   5.438 -0.0567 -0.4182  0.3236
 9449SOL     OW39982   4.719   4.010   2.092  0.5364  0.0760  0.4396
 9449SOL    HW139983   4.727   4.100   2.061 -0.3720  0.0673  0.1764
 9449SOL    HW239984   0.063   3.975   2.049 -0.4561 -1.7030  0.0888
 9450SOL     OW39985   2.714   3.519  13.819  0.0752 -0.1738  0.1321
 9450SOL    HW139986   2.628   3.508  13.861  0.7265  1.9580  2.0181
 9450SOL    HW239987   2.686   3.499  13.730  1.2452  1.3324 -0.5742
 9451SOL     OW39988   4.412   2.751   6.674 -0.1500 -0.0041 -0.0410
 9451SOL    HW139989   4.423   2.751   6.770 -0.3015  0.3636 -0.0219
 9451SOL    HW239990   4.469   2.826   6.656  0.2508  0.2485  2.2870
 9452SOL     OW39991   1.776   3.030  14.018  0.0574 -0.6591  0.3023
 9452SOL    HW139992   1.800   2.937  14.021  0.0071 -0.6635  0.6268
 9452SOL    HW239993   1.818   3.052  14.102  0.4511 -1.5493  0.3444
 9453SOL     OW39994   2.801   4.608   4.551  0.9015  0.7908  0.1382
 9453SOL    HW139995   2.769   4.542   4.489 -1.0371  0.1068  1.8372
 9453SOL    HW239996   2.886   4.621   4.509  1.0488  0.0257  0.1904
 9454SOL     OW39997   0.267   0.512  13.374 -0.1522  0.4229 -0.4666
 9454SOL    HW139998   0.213   0.574  13.324 -0.1992  1.7021  1.1766
 9454SOL    HW239999   0.290   0.564  13.450 -0.7206  2.5240 -1.7161
 9455SOL     OW40000   2.941   1.110   9.072 -0.6605 -0.4365  0.7829
 9455SOL    HW140001   2.976   1.054   9.002 -1.0000  0.7548 -0.3392
 9455SOL    HW240002   3.014   1.170   9.087  0.5200 -0.7822 -3.4611
 9456SOL     OW40003   1.627   3.062   2.319  0.1597 -0.4497  0.6264
 9456SOL    HW140004   1.547   3.073   2.268 -0.8654 -3.3338  1.5784
 9456SOL    HW240005   1.663   2.976   2.295 -0.1687 -0.3630 -0.1655
 9457SOL     OW40006   2.022   2.993   6.654  0.2459 -0.4291 -0.1702
 9457SOL    HW140007   2.048   3.046   6.729 -1.1454 -0.4745  0.3388
 9457SOL    HW240008   1.945   2.948   6.690  0.3016  0.5272  1.1355
 9458SOL     OW40009   1.872   1.881  11.336  0.2824  0.3423 -0.0369
 9458SOL    HW140010   1.928   1.827  11.392  0.9605 -0.1288 -1.1907
 9458SOL    HW240011   1.795   1.824  11.330  1.3975 -1.1983  0.2492
 9459SOL     OW40012   2.621   1.728   2.521 -0.1258 -0.2505  0.5575
 9459SOL    HW140013   2.632   1.764   2.609 -1.9171 -0.0590  0.7099
 9459SOL    HW240014   2.606   1.804   2.465 -0.4675 -0.6468  0.1081
 9460SOL     OW40015   2.318   2.559   2.949 -0.3737 -0.3059 -0.2722
 9460SOL    HW140016   2.378   2.561   2.874  1.1898  2.0750  1.0478
 9460SOL    HW240017   2.259   2.629   2.923 -0.4982 -0.1884  0.3215
 9461SOL     OW40018   3.307   3.910   9.326  0.5857 -0.1209 -0.3804
 9461SOL    HW140019   3.310   3.869   9.240 -0.1191  2.3567 -1.5702
 9461SOL    HW240020   3.341   3.836   9.377  2.7568  1.6165  0.7130
 9462SOL     OW40021   2.207   3.430  11.956 -0.2177  0.3464  0.4861
 9462SOL    HW140022   2.137   3.366  11.972  0.2480 -0.0093  1.0886
 9462SOL    HW240023   2.247   3.380  11.884  0.3544  2.7860 -0.9015
 9463SOL     OW40024   4.645   2.330   6.758  0.2264 -0.1281 -0.4330
 9463SOL    HW140025   4.626   2.402   6.817 -2.9153 -0.7439 -0.6700
 9463SOL    HW240026   4.562   2.283   6.763 -0.1741  0.4618 -1.4726
 9464SOL     OW40027   1.956   3.038   2.887  0.6500  0.5987 -0.1056
 9464SOL    HW140028   2.011   2.993   2.822 -1.4538 -0.2046 -1.3494
 9464SOL    HW240029   2.012   3.114   2.904  1.2833  0.3147 -0.9154
 9465SOL     OW40030   3.749   0.136  16.232 -0.0915 -0.5234  0.2755
 9465SOL    HW140031   3.783   0.050  16.208  0.7564  0.0210 -0.4655
 9465SOL    HW240032   3.802   0.150  16.310  0.2999 -2.6990  0.3829
 9466SOL     OW40033   0.925   0.462   6.525 -0.3360  0.1245  0.0837
 9466SOL    HW140034   0.921   0.513   6.445 -0.9784 -2.1098 -1.3136
 9466SOL    HW240035   0.862   0.510   6.579 -2.5899 -1.6458 -0.9438
 9467SOL     OW40036   2.716   3.091   9.605 -0.4843  0.5734 -0.2830
 9467SOL    HW140037   2.702   3.039   9.684 -3.0292 -1.2128 -1.8814
 9467SOL    HW240038   2.699   3.025   9.538  1.0081  1.2958 -1.3727
 9468SOL     OW40039   0.678   2.238   2.100 -0.6139 -0.2684  0.2168
 9468SOL    HW140040   0.619   2.312   2.086  0.9112  0.5408 -1.9048
 9468SOL    HW240041   0.680   2.206   2.010  0.9936  0.4407 -0.0054
 9469SOL     OW40042   0.494   2.626   3.387  0.4510 -0.0712  0.3007
 9469SOL    HW140043   0.552   2.552   3.404 -0.9536 -1.1097  0.5811
 9469SOL    HW240044   0.415   2.587   3.425  0.9292 -1.8213 -0.4782
 9470SOL     OW40045   0.496   0.305  17.114  0.1063  0.4074 -0.2151
 9470SOL    HW140046   0.538   0.361  17.048 -1.3612 -0.9448 -2.2702
 9470SOL    HW240047   0.416   0.281  17.068  0.1429  1.0248 -0.6118
 9471SOL     OW40048   0.443   1.217   9.038 -0.2279 -0.5099  0.0190
 9471SOL    HW140049   0.361   1.205   9.086 -0.9529  0.6594 -0.9280
 9471SOL    HW240050   0.476   1.129   9.021  0.4479 -0.4171  0.8484
 9472SOL     OW40051   3.327   2.238   2.376  0.0514  0.3026  0.1475
 9472SOL    HW140052   3.389   2.169   2.399 -0.9780  0.0356  2.1160
 9472SOL    HW240053   3.255   2.210   2.433  1.3358  0.7493  1.9657
 9473SOL     OW40054   4.608   0.021   6.342 -0.0460  0.3148 -0.1707
 9473SOL    HW140055   4.597   4.723   6.252 -0.4614 -1.0514  0.3692
 9473SOL    HW240056   4.699   0.050   6.344 -0.3589  1.0504  2.9462
 9474SOL     OW40057   2.261   2.153   8.228  0.0191 -0.1127  0.1964
 9474SOL    HW140058   2.265   2.247   8.211  0.8452  0.0026  0.9945
 9474SOL    HW240059   2.346   2.153   8.272  0.6886 -2.1855 -1.0513
 9475SOL     OW40060   0.665   4.511   9.433 -0.1250 -0.3327  1.0305
 9475SOL    HW140061   0.642   4.584   9.490  0.9202 -0.6155  1.8274
 9475SOL    HW240062   0.728   4.554   9.375 -1.3622 -0.3046 -0.2945
 9476SOL     OW40063   2.737   0.546   6.642 -0.4454 -0.4352 -0.0509
 9476SOL    HW140064   2.646   0.543   6.673 -0.4966 -0.4133 -0.1994
 9476SOL    HW240065   2.773   0.460   6.665 -1.3512 -0.9501 -0.5621
 9477SOL     OW40066   1.892   2.704   2.273  0.2448  0.1423  0.0601
 9477SOL    HW140067   1.950   2.768   2.314 -0.3476  1.9468 -1.9222
 9477SOL    HW240068   1.854   2.661   2.350 -0.7243  1.2245  0.1826
 9478SOL     OW40069   2.595   1.983   3.411 -0.0491  0.3753  0.5771
 9478SOL    HW140070   2.685   1.950   3.411  0.2660  1.2233 -0.0113
 9478SOL    HW240071   2.579   1.980   3.316 -1.1163  0.0248  0.7704
 9479SOL     OW40072   4.645   4.167  16.468 -0.3634  0.1991  0.0991
 9479SOL    HW140073   4.549   4.159  16.469 -0.3576  0.0264 -0.7032
 9479SOL    HW240074   4.670   4.160  16.375 -0.0090  2.7992 -0.0133
 9480SOL     OW40075   1.287   3.461   3.549  0.3747 -0.2408 -0.7159
 9480SOL    HW140076   1.250   3.403   3.482 -2.8576 -0.8334  1.5598
 9480SOL    HW240077   1.380   3.440   3.540  0.1397 -1.4682 -0.3962
 9481SOL     OW40078   2.698   0.953  11.840 -0.6276 -0.4634 -0.0133
 9481SOL    HW140079   2.615   0.908  11.821 -1.5406  1.6586 -1.1433
 9481SOL    HW240080   2.714   1.020  11.773 -1.5612 -0.2637 -0.0396
 9482SOL     OW40081   1.195   3.196   2.605 -0.1545 -0.1851  0.1492
 9482SOL    HW140082   1.172   3.114   2.561  1.5774 -1.1178  0.9878
 9482SOL    HW240083   1.288   3.199   2.584 -0.4702  2.9267 -0.7514
 9483SOL     OW40084   2.060   2.287  10.734  0.0553  0.0742 -0.5170
 9483SOL    HW140085   2.034   2.244  10.816 -0.9906  0.0884 -0.8465
 9483SOL    HW240086   2.146   2.246  10.726  0.3872  0.5079  0.7299
 9484SOL     OW40087   3.069   2.476   7.206  0.8178 -0.3585  0.3938
 9484SOL    HW140088   3.055   2.431   7.123  4.4638  0.7773 -0.8349
 9484SOL    HW240089   3.106   2.407   7.262  0.4695  0.5458  1.7531
 9485SOL     OW40090   0.155   0.012   5.265 -0.1461  0.2972  0.7125
 9485SOL    HW140091   0.194   4.675   5.317  0.2658  0.3356  0.4536
 9485SOL    HW240092   0.092   0.058   5.321  1.1841  1.8933  0.8866
 9486SOL     OW40093   1.908   0.710   5.054 -0.3919  0.0673 -0.0400
 9486SOL    HW140094   1.875   0.620   5.047  1.3409 -0.5026 -0.8545
 9486SOL    HW240095   1.994   0.702   5.013 -0.4003  0.2095 -0.0850
 9487SOL     OW40096   1.798   4.023   6.328  0.2416  0.2657 -0.1410
 9487SOL    HW140097   1.865   4.003   6.263  1.2754 -1.1995  1.3828
 9487SOL    HW240098   1.748   4.093   6.285  2.3330  0.6590 -1.9549
 9488SOL     OW40099   1.191   2.720   8.110  0.2271  0.4444  1.1413
 9488SOL    HW140100   1.128   2.779   8.151  1.6048  0.8404  2.6665
 9488SOL    HW240101   1.198   2.655   8.179  1.7746 -0.2162  0.3556
 9489SOL     OW40102   1.404   1.245  12.384 -0.7457  0.1012  0.1648
 9489SOL    HW140103   1.352   1.323  12.400  0.4629  0.5805  1.7640
 9489SOL    HW240104   1.371   1.213  12.300 -1.6983 -1.6232  1.1922
 9490SOL     OW40105   2.833   3.115   8.518 -0.4520  0.0486 -0.2599
 9490SOL    HW140106   2.816   3.154   8.603  2.6112  0.9058 -0.0346
 9490SOL    HW240107   2.868   3.031   8.549  1.1472  0.7346 -0.2154
 9491SOL     OW40108   1.704   2.100   7.305  0.2003 -0.4231  0.1593
 9491SOL    HW140109   1.708   2.194   7.288  0.0367 -0.4473 -0.0233
 9491SOL    HW240110   1.670   2.105   7.394 -2.1434 -2.4468 -0.6064
 9492SOL     OW40111   1.067   2.326   3.638  0.0210 -0.7538 -0.0772
 9492SOL    HW140112   1.081   2.234   3.617 -3.0274 -0.7793 -1.9441
 9492SOL    HW240113   1.151   2.370   3.649  0.1634 -1.4721  1.7702
 9493SOL     OW40114   4.435   1.904   0.983 -0.4273 -0.2949 -0.0542
 9493SOL    HW140115   4.464   1.913   1.074 -0.5778 -1.4005  0.1083
 9493SOL    HW240116   4.383   1.982   0.965 -1.5495 -1.0722 -0.2290
 9494SOL     OW40117   2.085   1.493   5.500 -0.4162 -0.1596  0.5858
 9494SOL    HW140118   2.011   1.437   5.476 -0.3390 -1.2390  2.7898
 9494SOL    HW240119   2.087   1.477   5.595 -1.0237 -0.1148  0.6084
 9495SOL     OW40120   0.971   0.135  14.075 -0.2429  0.0905 -0.1396
 9495SOL    HW140121   0.993   0.152  13.983 -0.8662  2.9766  0.2359
 9495SOL    HW240122   0.889   0.087  14.064  0.5186 -0.8786 -1.5707
 9496SOL     OW40123   1.846   2.385  16.752 -0.2070 -0.0316  0.3640
 9496SOL    HW140124   1.882   2.466  16.715 -0.1188 -0.6020 -0.7941
 9496SOL    HW240125   1.877   2.317  16.692  0.2156  1.2635 -0.8915
 9497SOL     OW40126   3.625   3.905   7.912 -0.1936  0.1152  0.3238
 9497SOL    HW140127   3.573   3.923   7.990  0.2609 -2.0001  1.1162
 9497SOL    HW240128   3.684   3.979   7.920 -2.8730  2.1403  1.4592
 9498SOL     OW40129   4.137   3.166   4.698  0.0521 -0.4210  0.7761
 9498SOL    HW140130   4.053   3.175   4.653 -0.7015  0.8617  2.4582
 9498SOL    HW240131   4.202   3.173   4.628 -0.5875 -1.0274  0.1216
 9499SOL     OW40132   2.852   3.009   2.974  0.2345  0.3558 -0.1344
 9499SOL    HW140133   2.943   3.040   2.981 -0.2454  1.5891  0.5268
 9499SOL    HW240134   2.831   3.021   3.067 -2.0943 -1.8501 -0.3619
 9500SOL     OW40135   1.082   0.442   1.055 -0.4509 -0.5441  0.5051
 9500SOL    HW140136   1.012   0.377   1.047 -0.3767 -0.3268 -1.8873
 9500SOL    HW240137   1.037   0.516   1.095 -0.7180 -1.6782  2.3048
 9501SOL     OW40138   4.075   1.394   2.548  0.2054  0.5406 -0.9026
 9501SOL    HW140139   4.160   1.376   2.589  0.5690  0.8150 -1.5314
 9501SOL    HW240140   4.038   1.455   2.611 -0.6220 -2.2250  1.2829
 9502SOL     OW40141   0.237   2.999   9.223  0.2414  0.1917  0.0310
 9502SOL    HW140142   0.323   3.039   9.208  0.3192  0.4509  1.1364
 9502SOL    HW240143   0.261   2.930   9.285 -0.4684 -1.5661 -1.6408
 9503SOL     OW40144   3.454   2.234   2.762 -0.4170 -0.0089  0.6851
 9503SOL    HW140145   3.483   2.143   2.763 -0.6877 -0.1058 -0.0825
 9503SOL    HW240146   3.473   2.253   2.670 -3.7037 -0.9191 -0.1842
 9504SOL     OW40147   3.271   4.390  16.881 -0.4632 -0.4596 -0.2551
 9504SOL    HW140148   3.351   4.440  16.861 -1.1354  0.4698 -0.6041
 9504SOL    HW240149   3.205   4.417  16.817  0.8031  2.9632 -0.1452
 9505SOL     OW40150   2.630   0.713  11.122 -0.5416 -0.0197  0.0284
 9505SOL    HW140151   2.672   0.774  11.060 -0.9342  0.4228  0.1977
 9505SOL    HW240152   2.537   0.736  11.115 -0.3035  0.7098 -0.8617
 9506SOL     OW40153   1.792   2.581   0.552 -0.7625 -0.0152 -0.2104
 9506SOL    HW140154   1.724   2.546   0.608  1.1962 -1.8021  1.0552
 9506SOL    HW240155   1.824   2.494   0.529  2.2335 -0.1790  4.6152
 9507SOL     OW40156   1.493   1.427   6.941  0.3474  0.3499 -0.7257
 9507SOL    HW140157   1.499   1.434   7.036 -0.3341 -1.1898 -0.5574
 9507SOL    HW240158   1.561   1.492   6.926 -0.2345  1.1681  0.2245
 9508SOL     OW40159   1.111   1.827  16.132  0.2000  0.2390 -0.3882
 9508SOL    HW140160   1.172   1.897  16.107 -0.7174  0.5146 -1.8741
 9508SOL    HW240161   1.038   1.847  16.073  1.2253  1.7715 -1.1543
 9509SOL     OW40162   2.394   1.499  14.815 -0.1492 -0.0131 -0.0777
 9509SOL    HW140163   2.318   1.522  14.868 -1.3673 -1.8315 -1.0873
 9509SOL    HW240164   2.375   1.412  14.781  0.0258  0.1313 -0.5535
 9510SOL     OW40165   4.056   2.760   2.901  0.3855 -0.3809 -0.3362
 9510SOL    HW140166   4.100   2.804   2.974 -0.7191 -0.8364  0.6087
 9510SOL    HW240167   4.067   2.824   2.832 -0.6798  0.2513  0.0873
 9511SOL     OW40168   1.908   1.813   9.003 -0.7563  0.0576  0.2661
 9511SOL    HW140169   1.873   1.725   8.989 -3.1264  0.8236  1.2521
 9511SOL    HW240170   1.972   1.797   9.072 -0.8160 -0.1451  0.2742
 9512SOL     OW40171   1.453   1.876   4.028  0.8407  0.1325  0.2323
 9512SOL    HW140172   1.534   1.825   4.019  1.3042  0.5712  1.9044
 9512SOL    HW240173   1.460   1.939   3.956 -1.8362  1.6685  1.3483
 9513SOL     OW40174   3.359   2.296   5.300  0.2017  0.2176 -0.0386
 9513SOL    HW140175   3.297   2.368   5.287 -0.0322 -0.0540 -0.4592
 9513SOL    HW240176   3.296   2.235   5.338 -0.8331  0.3157 -1.6038
 9514SOL     OW40177   2.776   4.206   1.085 -0.3476  0.2048  0.0522
 9514SOL    HW140178   2.870   4.190   1.084 -0.1931  1.2126 -1.0295
 9514SOL    HW240179   2.754   4.239   0.998  3.4811  3.7684  0.4364
 9515SOL     OW40180   2.371   4.274   5.042 -0.2168  0.1999  0.7724
 9515SOL    HW140181   2.380   4.184   5.010 -0.4829  0.8131 -1.0340
 9515SOL    HW240182   2.463   4.282   5.069 -0.7696 -0.6513  2.9243
 9516SOL     OW40183   3.224   0.937   7.389  0.4502  0.1759  0.0267
 9516SOL    HW140184   3.270   0.863   7.349 -0.5609 -0.4941  0.0682
 9516SOL    HW240185   3.297   0.998   7.397 -0.0444  0.9146 -1.0168
 9517SOL     OW40186   3.987   2.672  10.437 -0.1045 -0.1295 -0.0495
 9517SOL    HW140187   3.986   2.577  10.453  1.9106 -0.5725 -2.6899
 9517SOL    HW240188   4.045   2.678  10.362 -0.6219  1.7262 -0.3056
 9518SOL     OW40189   1.697   4.457   7.253 -0.3691  0.0626  0.1394
 9518SOL    HW140190   1.715   4.550   7.237 -3.9389  0.8288  0.5654
 9518SOL    HW240191   1.749   4.414   7.185 -0.4812  0.0667  0.0524
 9519SOL     OW40192   0.938   4.283  12.763 -0.4333 -0.3916  0.3427
 9519SOL    HW140193   0.949   4.344  12.690 -0.7450  0.1050  0.7113
 9519SOL    HW240194   0.843   4.275  12.758 -0.4499 -0.5567  0.9056
 9520SOL     OW40195   1.657   4.065   7.435  0.3276 -0.3425 -0.2465
 9520SOL    HW140196   1.563   4.055   7.420  0.0169  0.7048  1.0195
 9520SOL    HW240197   1.666   4.157   7.460  1.3033  0.0249 -2.0229
 9521SOL     OW40198   1.492   2.515  13.694  0.0399  0.9527  0.3964
 9521SOL    HW140199   1.411   2.560  13.718 -1.8267 -1.5782 -1.2820
 9521SOL    HW240200   1.483   2.504  13.600 -0.1445  0.9572  0.4130
 9522SOL     OW40201   0.051   0.658   8.126 -0.3178 -0.2015  1.1504
 9522SOL    HW140202   0.025   0.750   8.136  1.7216  0.6126 -1.0679
 9522SOL    HW240203   4.716   0.618   8.073  0.4294  0.5094 -0.3780
 9523SOL     OW40204   2.716   4.637   7.059  0.4507 -0.7510 -0.0512
 9523SOL    HW140205   2.700   4.646   7.153  0.8747 -4.5199  0.3825
 9523SOL    HW240206   2.806   4.604   7.070  0.1810 -1.0368  1.3114
 9524SOL     OW40207   2.123   4.719   0.857 -0.3484 -0.6741  0.0722
 9524SOL    HW140208   2.175   4.663   0.800 -0.3705  0.8616 -1.4777
 9524SOL    HW240209   2.157   0.075   0.854 -0.8075 -0.4430  2.5177
 9525SOL     OW40210   3.779   0.654  11.514 -0.2473 -0.4137  0.0175
 9525SOL    HW140211   3.715   0.708  11.560 -1.2966 -1.0331 -0.7075
 9525SOL    HW240212   3.759   0.567  11.549  0.8756 -1.0293 -0.8597
 9526SOL     OW40213   0.464   4.144   8.651 -0.6254 -0.0503  0.0216
 9526SOL    HW140214   0.514   4.156   8.731 -1.0149  2.2022 -0.0562
 9526SOL    HW240215   0.444   4.052   8.666  0.0867  0.0705  1.6846
 9527SOL     OW40216   0.617   3.312  11.458 -0.1361  0.1585 -0.4324
 9527SOL    HW140217   0.538   3.313  11.405  0.1484 -0.0349 -0.8631
 9527SOL    HW240218   0.669   3.244  11.416 -0.1632  1.1103 -2.0233
 9528SOL     OW40219   3.754   4.061   9.847  0.7112 -0.1514  0.7498
 9528SOL    HW140220   3.806   4.051   9.926  1.8586  0.2931  0.0549
 9528SOL    HW240221   3.749   3.968   9.824  2.3777  0.2960 -1.4500
 9529SOL     OW40222   2.808   0.431   6.130 -0.7658  0.4084 -0.2231
 9529SOL    HW140223   2.884   0.467   6.176 -0.6379 -0.4379  0.2168
 9529SOL    HW240224   2.762   0.394   6.204  2.4282 -0.7957  1.1568
 9530SOL     OW40225   1.964   4.711   2.811  0.4055  0.4985 -0.3388
 9530SOL    HW140226   2.021   0.052   2.828  2.5609 -0.6834 -2.3770
 9530SOL    HW240227   1.925   4.685   2.895  0.4926  0.2651 -0.3685
 9531SOL     OW40228   0.243   1.385   8.308  0.1932 -0.0217  0.5527
 9531SOL    HW140229   0.193   1.346   8.380  1.5548 -2.6600  0.0664
 9531SOL    HW240230   0.201   1.350   8.230  2.3926  1.8289 -1.4647
 9532SOL     OW40231   4.344   2.366   5.613  0.1027  0.5712  0.1546
 9532SOL    HW140232   4.359   2.416   5.532 -1.0657 -0.5718 -0.7800
 9532SOL    HW240233   4.434   2.335   5.626 -0.0049 -0.3317 -1.1637
 9533SOL     OW40234   1.524   3.648   3.386 -0.3482  0.1494  0.2803
 9533SOL    HW140235   1.595   3.711   3.400 -1.4309  1.4000  0.1154
 9533SOL    HW240236   1.559   3.575   3.437  1.5274  0.4597 -0.5580
 9534SOL     OW40237   2.193   2.534   7.806 -0.0139  0.5331 -0.5457
 9534SOL    HW140238   2.226   2.615   7.844 -0.6025  0.1842  0.7377
 9534SOL    HW240239   2.180   2.476   7.881 -0.6741  1.2115 -0.1341
 9535SOL     OW40240   3.532   0.345   8.456  0.1487  0.7134  0.1115
 9535SOL    HW140241   3.572   0.327   8.541  0.4171 -0.4940 -0.2708
 9535SOL    HW240242   3.590   0.409   8.415 -0.7354  2.1006  1.0507
 9536SOL     OW40243   2.049   0.738   4.420 -0.4794 -0.2504 -0.3604
 9536SOL    HW140244   1.964   0.728   4.377 -1.2328  1.7423  0.6798
 9536SOL    HW240245   2.110   0.754   4.348 -1.1047  1.3191 -0.5377
 9537SOL     OW40246   1.969   4.089  13.305  0.6521 -0.0791 -0.0757
 9537SOL    HW140247   1.979   4.099  13.400 -1.7825 -3.4440  0.5187
 9537SOL    HW240248   1.874   4.086  13.302  0.5970  1.1397  0.2961
 9538SOL     OW40249   1.374   4.151   8.018  0.0672 -0.3636 -0.1692
 9538SOL    HW140250   1.311   4.140   7.946 -0.9736  1.4581  0.4596
 9538SOL    HW240251   1.442   4.196   7.968 -0.5072  1.0397  0.3111
 9539SOL     OW40252   2.138   4.266  14.588 -0.4276  0.7392 -0.1958
 9539SOL    HW140253   2.064   4.314  14.626  0.1782  1.7362 -0.2997
 9539SOL    HW240254   2.191   4.342  14.564 -1.0061  1.0344 -0.5403
 9540SOL     OW40255   2.489   4.612  15.517 -0.1202  0.0957  0.1564
 9540SOL    HW140256   2.404   4.576  15.491  0.6866  0.1124 -2.5365
 9540SOL    HW240257   2.493   4.585  15.608  1.4471  1.3128  0.4451
 9541SOL     OW40258   2.610   4.474   9.148 -0.5426 -0.6960 -0.0504
 9541SOL    HW140259   2.571   4.387   9.137  1.0245 -1.2994 -0.8029
 9541SOL    HW240260   2.659   4.449   9.227  0.7735 -0.6142 -0.8416
 9542SOL     OW40261   0.385   0.200   8.379  0.0829  0.3832 -0.1438
 9542SOL    HW140262   0.398   0.190   8.474 -0.3137 -0.4196 -0.1754
 9542SOL    HW240263   0.387   0.296   8.374  0.1799  0.2497 -2.6189
 9543SOL     OW40264   0.885   2.521   8.871 -0.3587  0.6302 -0.1288
 9543SOL    HW140265   0.878   2.538   8.965 -0.1663  1.2635 -0.2305
 9543SOL    HW240266   0.916   2.431   8.862  0.7262  1.0293 -0.3423
 9544SOL     OW40267   4.555   3.286   7.944  0.0129 -0.0684  0.3421
 9544SOL    HW140268   4.636   3.268   7.895  0.3074  0.0804  0.7730
 9544SOL    HW240269   4.488   3.230   7.905 -1.0029  0.3841  1.4286
 9545SOL     OW40270   2.633   2.566   9.697  0.1593 -0.0279 -0.0589
 9545SOL    HW140271   2.556   2.618   9.720 -0.0121 -0.0103 -0.6661
 9545SOL    HW240272   2.678   2.621   9.632  1.5117 -0.1290  0.7896
 9546SOL     OW40273   3.274   0.178   7.308  0.1639  0.3704  0.6411
 9546SOL    HW140274   3.295   0.210   7.396 -0.7796  0.9045  0.6652
 9546SOL    HW240275   3.312   0.238   7.244  0.2115  0.5433  0.8332
 9547SOL     OW40276   0.541   1.472  13.914  0.1509  0.0791  0.5245
 9547SOL    HW140277   0.633   1.495  13.930  0.6820 -1.1171 -0.8194
 9547SOL    HW240278   0.493   1.475  13.997 -0.4081  2.8265  0.1160
 9548SOL     OW40279   0.825   2.231   8.497 -0.1036  0.4701 -0.4731
 9548SOL    HW140280   0.812   2.303   8.559  0.1185  0.3409 -0.2777
 9548SOL    HW240281   0.793   2.272   8.416 -1.0781  3.3542  1.3809
 9549SOL     OW40282   3.941   2.299  10.201  0.0114  0.2604  0.1499
 9549SOL    HW140283   3.897   2.219  10.231  1.7033 -0.2913  1.2177
 9549SOL    HW240284   3.941   2.352  10.281  2.7737  3.5430 -2.0575
 9550SOL     OW40285   2.796   3.836   4.941 -0.4557 -0.0619  0.1230
 9550SOL    HW140286   2.740   3.912   4.957 -0.0695  0.3456 -0.4844
 9550SOL    HW240287   2.886   3.869   4.944 -0.6500  0.6345 -2.1196
 9551SOL     OW40288   4.389   4.087  16.541  0.3647 -0.0474  0.7835
 9551SOL    HW140289   4.369   4.082  16.634  1.4041 -0.1918  0.9954
 9551SOL    HW240290   4.336   4.160  16.507  2.9433  1.0959 -0.8314
 9552SOL     OW40291   3.577   2.454   4.009  0.2417  0.1568  0.6030
 9552SOL    HW140292   3.517   2.387   4.040  0.1872 -0.2936 -0.4597
 9552SOL    HW240293   3.613   2.492   4.089  1.1935  0.5603  0.0009
 9553SOL     OW40294   4.252   0.509   5.022 -0.4312  0.1240  0.1963
 9553SOL    HW140295   4.186   0.445   4.996 -1.3477  2.4481 -3.0813
 9553SOL    HW240296   4.287   0.541   4.939 -0.0168  1.0220  0.7186
 9554SOL     OW40297   2.899   2.350   9.065 -0.0658  0.0698 -0.1159
 9554SOL    HW140298   2.932   2.262   9.085  0.3886  0.7761  2.2041
 9554SOL    HW240299   2.831   2.326   9.003  0.3934  0.9392 -0.9478
 9555SOL     OW40300   2.154   0.180   6.737 -0.0606 -0.2827  0.0729
 9555SOL    HW140301   2.114   0.133   6.811 -1.1791  1.6508  0.6995
 9555SOL    HW240302   2.208   0.110   6.699 -0.3399 -1.9276  2.6875
 9556SOL     OW40303   0.079   1.132   2.726  0.2187 -0.3976 -0.1975
 9556SOL    HW140304   0.037   1.132   2.812  1.6540 -1.1518  0.5096
 9556SOL    HW240305   0.110   1.041   2.728 -1.1194 -0.8136  1.3118
 9557SOL     OW40306   1.385   0.783   4.356  0.5396  0.0952 -0.3020
 9557SOL    HW140307   1.299   0.761   4.393  0.8636 -0.3590  0.1764
 9557SOL    HW240308   1.436   0.799   4.435  0.0371  0.3883 -0.0352
 9558SOL     OW40309   1.590   4.412   4.599  0.0849  0.1330  0.4180
 9558SOL    HW140310   1.683   4.423   4.617 -0.2455 -1.0197  2.9305
 9558SOL    HW240311   1.572   4.477   4.531 -0.5855  0.1778  0.6348
 9559SOL     OW40312   2.163   4.704  10.410  0.2499 -0.1283  0.0137
 9559SOL    HW140313   2.227   4.712  10.339  2.4887 -2.9503  1.7418
 9559SOL    HW240314   2.162   4.612  10.438 -1.1839 -0.1943 -0.2282
 9560SOL     OW40315   3.212   1.024   9.938  0.6222 -0.1394  0.1657
 9560SOL    HW140316   3.143   1.083   9.905  0.4766 -0.7146 -0.5683
 9560SOL    HW240317   3.261   1.088   9.990 -0.2456  0.9536 -0.3436
 9561SOL     OW40318   1.635   1.468  17.222 -0.1399  0.0075 -0.5829
 9561SOL    HW140319   1.602   1.545  17.177 -0.5266  0.6402  0.7875
 9561SOL    HW240320   1.638   1.498  17.313  2.3431 -0.8791 -0.3451
 9562SOL     OW40321   4.620   2.121   1.032 -0.1380 -0.2334 -0.0806
 9562SOL    HW140322   4.619   2.067   1.111  0.1462  2.4230  1.7326
 9562SOL    HW240323   4.605   2.210   1.062  0.4310  0.0589 -0.6687
 9563SOL     OW40324   0.763   4.549   8.696  0.3280  0.1091  0.2563
 9563SOL    HW140325   0.758   4.561   8.791 -2.2959  0.1402  0.1135
 9563SOL    HW240326   0.703   4.616   8.663  1.6049  1.6062  0.9599
 9564SOL     OW40327   1.981   3.844   3.015 -0.6205 -0.0790 -0.0030
 9564SOL    HW140328   1.890   3.820   3.034 -0.2444 -1.8962 -0.5318
 9564SOL    HW240329   1.984   3.812   2.925  0.8244  1.8335 -0.6409
 9565SOL     OW40330   3.500   3.519  10.149 -0.0216 -0.1154 -0.2569
 9565SOL    HW140331   3.461   3.553  10.229 -1.2514 -2.0266 -0.0489
 9565SOL    HW240332   3.424   3.470  10.118 -1.1733  1.6500 -0.2132
 9566SOL     OW40333   0.445   0.854  10.343  0.1521  0.4217 -0.0171
 9566SOL    HW140334   0.524   0.863  10.397  0.8241 -0.7617 -0.8027
 9566SOL    HW240335   0.470   0.777  10.292  2.4955  0.4572  1.0775
 9567SOL     OW40336   1.306   4.048   4.137  0.1521 -0.3193  0.2214
 9567SOL    HW140337   1.345   4.132   4.113 -1.3511  0.3021 -0.0473
 9567SOL    HW240338   1.332   4.040   4.229  1.1593 -0.1133 -0.0498
 9568SOL     OW40339   4.132   2.264   5.175  0.1379 -0.0332 -0.0519
 9568SOL    HW140340   4.121   2.356   5.150  2.0037 -0.2055 -1.5424
 9568SOL    HW240341   4.044   2.252   5.209  0.8744 -0.6391  1.6818
 9569SOL     OW40342   2.341   1.124   7.305  0.4890  0.0266  0.2571
 9569SOL    HW140343   2.359   1.056   7.370  1.7208  1.8164  1.8041
 9569SOL    HW240344   2.401   1.102   7.234  1.3480 -0.9176  1.2777
   4.73385   4.73385  17.73457
