Membrane in water
40344
    1TMC1    C1    1   2.255   0.048  11.330 -0.3502 -0.3366 -0.1867
    1TMC1    C2    2   2.210   0.168  11.391  0.6285  0.6984  0.1406
    1TMC1    C3    3   2.227   0.284  11.317 -0.1383 -0.4093 -1.0169
    1TMC1    C4    4   2.322   0.050  11.208 -0.6926 -0.2260  1.3803
    1TMC1    C5    5   2.340   0.167  11.143  0.1211  0.4183 -0.6065
    1TMC1    C6    6   2.297   0.285  11.203  0.5992 -0.2464  0.6067
    1TMC1     C    7   2.229   4.660  11.399  0.1850 -0.1099  0.8898
    1TMC1     O    8   2.142   4.659  11.484 -0.5415 -0.0421  0.1657
    1TMC1     H    9   2.153   0.173  11.483 -0.4997 -0.4152 -0.5016
    1TMC1    H1   10   2.368   4.699  11.161  0.5223  0.2141  1.7545
    1TMC1    H2   11   2.306   0.381  11.153 -2.1385  1.0524  2.6177
    1TMC1    C7   12   2.447   0.187  11.050  0.4993  0.4989  0.0987
    1TMC1    C8   13   2.144   0.398  11.355  0.4064 -0.0434 -0.4531
    1TMC1    O1   14   2.447   0.290  10.983  0.0605 -0.6763  0.3289
    1TMC1    O2   15   2.101   0.481  11.274 -0.3217 -0.4962  0.3364
    1TMC1    O3   16   2.561   0.127  11.094 -0.0662 -0.6893  0.7196
    1TMC1    H3   17   2.544   0.064  11.167  0.5197  0.5127  1.9031
    1TMC1    O5   18   2.205   0.435  11.471 -0.5740  0.2351 -0.2192
    1TMC1    H5   19   2.238   0.355  11.517  1.3408  1.1319 -0.0377
    2MPD2     C   20   2.324   4.156  11.496  0.1047  0.2283 -0.5406
    2MPD2    C1   21   2.219   4.241  11.533  0.1867 -0.3181 -0.6421
    2MPD2    C2   22   2.215   4.374  11.500  0.2747  0.0536  0.0220
    2MPD2    C3   23   2.315   4.426  11.412 -0.0204  0.1349 -0.2601
    2MPD2    C4   24   2.415   4.338  11.366 -0.4566 -0.1204 -0.4546
    2MPD2    C5   25   2.420   4.209  11.410 -0.5041  0.2227  0.1139
    2MPD2     H   26   2.135   4.434  11.543  1.2492  1.4088 -0.0284
    2MPD2    H1   27   2.488   4.374  11.295  0.6061 -1.2077  0.0777
    2MPD2    H2   28   2.322   4.049  11.514  0.4829  0.5357  1.3696
    2MPD2    H3   29   2.493   4.139  11.371 -0.2826  0.5811 -0.1083
    2MPD2     N   30   2.314   4.557  11.362 -0.4068 -0.1671 -0.3078
    2MPD2    H5   31   2.386   4.583  11.295 -1.7790 -0.7474 -1.9971
    2MPD2    N1   32   2.124   4.199  11.622  0.2353 -0.4163 -0.2143
    2MPD2    H7   33   2.072   4.275  11.666  1.3714 -1.0909  2.2991
    3TMC1    C1   34   1.626   0.628  10.686  0.1422  0.2602 -1.2208
    3TMC1    C2   35   1.591   0.723  10.588  0.0101  0.1236 -0.9336
    3TMC1    C3   36   1.642   0.716  10.468  0.1219 -0.0214 -0.0117
    3TMC1    C4   37   1.730   0.540  10.660  0.0514 -0.3368 -0.3688
    3TMC1    C5   38   1.776   0.529  10.530 -0.5060  0.7573  0.4606
    3TMC1    C6   39   1.745   0.621  10.438  0.5117  0.4191 -0.0081
    3TMC1     C   40   1.520   0.580  10.781 -0.4757  0.2940 -0.6757
    3TMC1     O   41   1.517   0.460  10.816  0.7100 -0.4916 -0.6160
    3TMC1     H   42   1.520   0.801  10.612 -1.7910 -0.4364 -4.3539
    3TMC1    H1   43   1.759   0.473  10.740 -0.6461  0.1813  0.3179
    3TMC1    H2   44   1.786   0.627  10.338 -0.4930  1.5020 -0.3440
    3TMC1    C7   45   1.910   0.482  10.525 -0.1268  0.0359 -0.5130
    3TMC1    C8   46   1.640   0.834  10.369 -0.2974  0.3966  0.7022
    3TMC1    O1   47   1.970   0.455  10.418  0.2241 -0.3901  0.0190
    3TMC1    O2   48   1.713   0.839  10.271  0.3578  0.5567  0.3720
    3TMC1    O3   49   1.972   0.520  10.639 -0.0535  0.3825  0.6627
    3TMC1    H3   50   1.909   0.561  10.702  0.2401  1.3297  0.3296
    3TMC1    O5   51   1.512   0.882  10.372  0.1316  0.4765  0.5319
    3TMC1    H5   52   1.466   0.879  10.459 -0.3586 -0.0713  0.2569
    4MPD2     C   53   1.066   0.655  10.979  0.6611  0.3882  0.6011
    4MPD2    C1   54   1.135   0.772  10.986  0.5250 -0.3692 -0.1232
    4MPD2    C2   55   1.254   0.781  10.927  0.1309  0.2757 -0.0562
    4MPD2    C3   56   1.308   0.672  10.867 -0.2708  0.0298  0.2090
    4MPD2    C4   57   1.243   0.547  10.868 -0.2370  0.6189 -0.3361
    4MPD2    C5   58   1.117   0.547  10.914  0.5396  0.6516  0.1136
    4MPD2     H   59   1.301   0.878  10.938  0.3427  0.0237  1.2569
    4MPD2    H1   60   1.271   0.460  10.809  2.6597  0.5957  1.0603
    4MPD2    H2   61   0.966   0.638  11.017  0.8342 -2.6155 -0.2927
    4MPD2    H3   62   1.056   0.458  10.909 -0.3923  1.4141 -1.9143
    4MPD2     N   63   1.437   0.685  10.813 -0.9326 -0.4300  0.0866
    4MPD2    H5   64   1.478   0.776  10.794 -1.2979  0.2569  2.6213
    4MPD2    N1   65   1.095   0.887  11.063  0.1705  0.1523  0.3776
    4MPD2    H7   66   1.163   0.962  11.065  1.9443 -1.4128 -0.8209
    5TCq1    O1   67   3.555   2.354  11.549 -0.5791 -0.4508 -0.1188
    5TCq1    C1   68   3.457   2.420  11.482  0.3307  0.0763 -0.3416
    5TCq1    O2   69   3.475   2.458  11.365  0.1646 -0.3807  0.3580
    5TCq1    C2   70   3.335   2.425  11.554 -0.3658 -0.4713 -0.5548
    5TCq1    C3   71   3.326   2.461  11.686  0.3481 -0.2441 -0.4018
    5TCq1    C4   72   3.214   2.437  11.762 -0.2540 -0.9569  0.1355
    5TCq1    C5   73   3.105   2.382  11.700  0.5821  0.0826  0.0371
    5TCq1    C6   74   3.113   2.353  11.563  0.7186 -0.1209 -0.4831
    5TCq1    C7   75   3.224   2.371  11.492 -0.0854  0.6738  0.1033
    5TCq1    C8   76   2.996   2.331  11.476  0.1252 -0.0825 -0.4201
    5TCq1    O4   77   3.015   2.287  11.365 -0.0737  0.2930  0.2501
    5TCq1    C9   78   3.201   2.464  11.911 -0.2636  0.5312  0.7058
    5TCq1    O5   79   3.097   2.427  11.968 -0.0703  0.1847  0.4428
    5TCq1    O6   80   3.293   2.529  11.966 -0.0537  0.0555  0.6527
    5TCq1    H1   81   3.532   2.333  11.642 -0.6138  0.3453  0.0537
    5TCq1    H2   82   3.407   2.517  11.731  1.0109 -1.8448  0.4322
    5TCq1    H3   83   3.014   2.363  11.754 -0.1086  0.4528 -0.9974
    5TCq1    H4   84   3.241   2.341  11.389 -1.3342  1.9720 -0.4747
    6MPD2     C   85   2.648   2.410  11.594 -0.1841 -0.0601 -0.2860
    6MPD2    C1   86   2.745   2.365  11.497  0.3248 -0.0580 -0.1485
    6MPD2    C2   87   2.692   2.309  11.379 -0.1160 -0.1239  0.7545
    6MPD2    C3   88   2.558   2.282  11.368  1.0332  0.4641  0.8047
    6MPD2    C4   89   2.472   2.323  11.465  1.3503 -0.6455  0.8615
    6MPD2    C5   90   2.515   2.383  11.578 -0.4078 -0.4455 -0.5048
    6MPD2     H   91   2.761   2.294  11.296  1.5032  0.6416  1.9493
    6MPD2    H1   92   2.364   2.316  11.463  1.3238  0.8297 -1.9740
    6MPD2    H2   93   2.668   2.484  11.670  1.7072  0.3138 -1.1543
    6MPD2    H3   94   2.451   2.416  11.659 -0.0876 -2.1612  0.4549
    6MPD2     N   95   2.499   2.225  11.251 -0.3617 -0.4576 -0.6107
    6MPD2    H5   96   2.562   2.192  11.179 -0.3000  0.7345 -1.1069
    6MPD2    N1   97   2.880   2.384  11.531  0.6363 -0.4569 -0.0976
    6MPD2    H7   98   2.903   2.434  11.616  0.1878  2.7430 -1.8530
    7TCq1    O1   99   4.688   2.154  13.609  0.0402 -0.0174  0.9657
    7TCq1    C1  100   4.653   2.038  13.537 -0.1734 -0.1957  0.4933
    7TCq1    O2  101   4.674   2.028  13.416  0.2907  0.3683  0.1794
    7TCq1    C2  102   4.638   1.922  13.621 -0.3899  0.4844  0.4136
    7TCq1    C3  103   4.612   1.939  13.761  0.5755  0.1381 -0.1174
    7TCq1    C4  104   4.642   1.833  13.840 -0.1091 -0.3820  0.4942
    7TCq1    C5  105   4.693   1.715  13.795  0.5884 -0.1768 -0.6206
    7TCq1    C6  106   4.716   1.702  13.662  0.4356 -0.1398  0.7353
    7TCq1    C7  107   4.698   1.806  13.574 -0.7720 -0.6836  0.0528
    7TCq1    C8  108   4.734   1.559  13.618  0.0428 -0.1948  0.4816
    7TCq1    O4  109   0.029   1.478  13.701 -0.5715 -0.7262 -0.3068
    7TCq1    C9  110   4.617   1.840  13.984  0.2386 -0.2873  0.0330
    7TCq1    O5  111   4.676   1.755  14.055  0.0893 -0.1412  0.8574
    7TCq1    O6  112   4.545   1.929  14.026  0.7080 -0.3459 -0.2733
    7TCq1    H1  113   4.701   2.126  13.703 -0.8079 -0.3653  0.9807
    7TCq1    H2  114   4.554   2.014  13.813 -0.9720  0.4595 -2.2866
    7TCq1    H3  115   4.697   1.625  13.856  0.7886  0.7789  0.7723
    7TCq1    H4  116   4.702   1.805  13.465 -1.9705  1.0975 -0.0022
    8MPD2     C  117   0.022   1.179  13.280 -0.4048 -0.0233 -0.7460
    8MPD2    C1  118   4.683   1.185  13.397 -0.1326  0.1323 -1.1682
    8MPD2    C2  119   4.687   1.305  13.465  0.0957  0.0819  0.5325
    8MPD2    C3  120   0.020   1.417  13.418  0.6368  0.3738 -0.0483
    8MPD2    C4  121   0.084   1.410  13.297 -0.4947  0.4983 -0.7871
    8MPD2    C5  122   0.082   1.289  13.230  0.0199 -0.5758 -0.0116
    8MPD2     H  123   4.633   1.317  13.558 -2.3653 -3.1123 -0.4700
    8MPD2    H1  124   0.113   1.499  13.242  1.9552  0.6204  0.7034
    8MPD2    H2  125   0.039   1.087  13.226 -0.6018 -0.2000 -0.5031
    8MPD2    H3  126   0.123   1.278  13.130 -0.8583  1.9835 -0.6655
    8MPD2     N  127   0.018   1.542  13.483  0.0372 -0.2467 -0.3287
    8MPD2    H5  128   0.037   1.624  13.426  0.9535 -2.0116 -2.5917
    8MPD2    N1  129   4.610   1.071  13.439  0.4014 -0.8056  0.1070
    8MPD2    H7  130   4.605   0.993  13.374  2.0096 -0.5385 -0.3350
    9TMC1    C1  131   1.877   0.937  11.286 -0.5851  0.0485 -0.3290
    9TMC1    C2  132   1.862   0.833  11.194  0.1495 -0.3675  0.7676
    9TMC1    C3  133   1.881   0.862  11.064  0.4456  0.7267  0.2593
    9TMC1    C4  134   1.916   1.065  11.249 -0.5221  0.2447  0.2626
    9TMC1    C5  135   1.960   1.082  11.117 -0.7042  0.4536 -0.3666
    9TMC1    C6  136   1.942   0.975  11.023  0.3952 -0.9124  0.7344
    9TMC1     C  137   1.877   0.905  11.431  0.0141  0.6717  0.0154
    9TMC1     O  138   1.878   1.002  11.504 -0.6178 -0.2559 -0.2831
    9TMC1     H  139   1.818   0.739  11.223  1.4685 -0.9300  0.9302
    9TMC1    H1  140   1.927   1.145  11.321  0.1527 -0.4939  0.9875
    9TMC1    H2  141   1.941   1.000  10.918 -0.6687  1.0912  1.2098
    9TMC1    C7  142   1.965   1.216  11.058  0.1481 -0.2175 -0.3704
    9TMC1    C8  143   1.817   0.779  10.966 -0.1420 -0.6629 -0.3349
    9TMC1    O1  144   1.866   1.282  11.037 -0.2422  0.2805 -0.4013
    9TMC1    O2  145   1.724   0.705  10.981 -0.3996  0.3810 -0.6702
    9TMC1    O3  146   2.071   1.203  10.972  0.2949 -0.5456 -0.3388
    9TMC1    H3  147   2.138   1.149  11.020 -0.8602 -0.1772  1.7124
    9TMC1    O5  148   1.898   0.749  10.865  0.2154  0.6647 -0.5846
    9TMC1    H5  149   1.991   0.782  10.870  0.6819 -0.5177 -1.4105
   10MPD2     C  150   1.888   0.798  11.703  0.2589 -0.4848  0.1512
   10MPD2    C1  151   1.831   0.732  11.601 -0.0036 -0.2027  0.3275
   10MPD2    C2  152   1.755   0.619  11.628  0.2827 -0.7224 -0.0985
   10MPD2    C3  153   1.739   0.576  11.763  0.1660 -0.7920 -1.2429
   10MPD2    C4  154   1.790   0.652  11.864  0.3568  0.8018  0.2865
   10MPD2    C5  155   1.862   0.762  11.834  0.4432 -0.3435 -0.3955
   10MPD2     H  156   1.721   0.561  11.543  1.2624 -0.3356 -0.7527
   10MPD2    H1  157   1.776   0.633  11.970  0.8304  2.7429  0.7100
   10MPD2    H2  158   1.934   0.896  11.697 -0.2867 -0.3620 -2.1215
   10MPD2    H3  159   1.902   0.814  11.920  0.5431  0.3993 -0.8875
   10MPD2     N  160   1.658   0.472  11.804  0.0019  0.3003  0.3002
   10MPD2    H5  161   1.637   0.477  11.903  0.9965 -0.7014  0.5753
   10MPD2    N1  162   1.850   0.776  11.465  0.1346 -0.1856  0.8296
   10MPD2    H7  163   1.824   0.714  11.389  0.3136  0.8812 -0.1060
   11TCq1    O1  164   2.105   0.242  14.717  0.0321  0.3804 -0.0435
   11TCq1    C1  165   2.064   0.136  14.786 -0.1228 -0.3133 -0.1837
   11TCq1    O2  166   1.951   0.135  14.836  0.5500  0.2787 -0.2391
   11TCq1    C2  167   2.114   0.026  14.700 -0.0441 -0.2561 -0.4144
   11TCq1    C3  168   2.230   0.038  14.635 -0.0203 -0.4234 -0.4802
   11TCq1    C4  169   2.266   4.710  14.521  0.2520 -0.1238 -0.9291
   11TCq1    C5  170   2.182   4.617  14.461 -1.4198 -0.4745  0.2421
   11TCq1    C6  171   2.061   4.608  14.525  0.2105  0.0458 -0.2829
   11TCq1    C7  172   2.029   4.678  14.639 -0.2044  0.5010  0.2008
   11TCq1    C8  173   1.946   4.563  14.447 -0.4109  0.1499 -0.2377
   11TCq1    O4  174   1.836   4.599  14.472  0.0830 -0.3481  0.0484
   11TCq1    C9  175   2.390   0.011  14.453 -0.3630 -0.6789  0.3257
   11TCq1    O5  176   2.421   4.675  14.354 -0.2282 -0.2584  0.3710
   11TCq1    O6  177   2.434   0.127  14.475 -0.1218 -0.0060 -0.0435
   11TCq1    H1  178   2.170   0.214  14.650  0.4290  0.1431  0.4378
   11TCq1    H2  179   2.308   0.099  14.678  0.7233 -1.0823 -0.9040
   11TCq1    H3  180   2.208   4.573  14.365  2.5681 -0.1497  1.1834
   11TCq1    H4  181   1.930   4.665  14.680 -0.4621  1.5849 -0.0956
   12MPD2     C  182   1.768   4.400  14.278  0.2135  0.0652 -0.0588
   12MPD2    C1  183   1.896   4.362  14.305 -0.7077  0.0126 -0.0566
   12MPD2    C2  184   1.954   4.249  14.248 -0.0320 -0.3206 -0.1380
   12MPD2    C3  185   1.872   4.162  14.176 -1.1261  0.2711  0.0550
   12MPD2    C4  186   1.739   4.204  14.150 -0.5106  0.0082  0.1231
   12MPD2    C5  187   1.691   4.322  14.204  0.5314  0.1318  0.8824
   12MPD2     H  188   2.054   4.219  14.276  0.1006 -1.0963 -1.4808
   12MPD2    H1  189   1.668   4.154  14.085  1.5265  0.5638 -2.5184
   12MPD2    H2  190   1.720   4.487  14.322  1.5431  0.8166 -0.1069
   12MPD2    H3  191   1.585   4.344  14.195  0.8281 -0.0658 -3.0372
   12MPD2     N  192   1.924   4.041  14.116 -0.1298  0.2205 -0.1163
   12MPD2    H5  193   1.855   3.980  14.074  1.2380  0.6000 -2.9072
   12MPD2    N1  194   1.979   4.447  14.387 -0.2229  0.1049 -0.3125
   12MPD2    H7  195   2.076   4.418  14.395 -0.6966 -1.5828 -0.6950
   13TCq1    O1  196   2.734   0.736  11.201 -0.5767  0.3675  0.4733
   13TCq1    C1  197   2.634   0.650  11.191 -0.5557 -0.2979 -0.2321
   13TCq1    O2  198   2.574   0.608  11.289 -0.1009  0.4495 -0.4559
   13TCq1    C2  199   2.546   0.726  11.102  0.4168  1.0924  0.5020
   13TCq1    C3  200   2.538   0.866  11.101  0.3098 -0.5368  0.7563
   13TCq1    C4  201   2.426   0.921  11.056  0.0475 -0.1346 -0.5296
   13TCq1    C5  202   2.324   0.856  11.003  0.1337  0.6914  0.3634
   13TCq1    C6  203   2.343   0.721  10.987 -1.0520  0.0724  0.8486
   13TCq1    C7  204   2.448   0.654  11.039 -0.1365  0.2506 -0.1281
   13TCq1    C8  205   2.222   0.645  10.966  0.0650  0.6359  0.0765
   13TCq1    O4  206   2.124   0.705  10.991  0.6541 -0.3057 -0.2463
   13TCq1    C9  207   2.403   1.059  11.083 -1.0070  0.1542  0.1703
   13TCq1    O5  208   2.284   1.097  11.067  0.3188  0.5406  0.1464
   13TCq1    O6  209   2.497   1.132  11.104  0.1685 -0.4993 -0.3592
   13TCq1    H1  210   2.757   0.765  11.110 -3.5127 -1.2495 -0.7825
   13TCq1    H2  211   2.596   0.928  11.167 -0.5300  0.7157  0.3331
   13TCq1    H3  212   2.232   0.904  10.976 -1.1008 -2.0201 -0.2772
   13TCq1    H4  213   2.448   0.545  11.038  1.6173  0.2365  1.1630
   14MPD2     C  214   2.151   0.312  10.835  0.3990  0.0452 -0.7721
   14MPD2    C1  215   2.127   0.428  10.899  0.5053 -0.3108 -0.3853
   14MPD2    C2  216   2.001   0.449  10.956 -0.4474 -0.7412 -0.0266
   14MPD2    C3  217   1.902   0.351  10.951  0.2812  0.1948  0.5651
   14MPD2    C4  218   1.929   0.236  10.880 -0.3449  0.5157 -0.2648
   14MPD2    C5  219   2.050   0.218  10.818 -0.0052 -0.4776  0.0635
   14MPD2     H  220   1.982   0.538  11.014  3.4916 -0.7060  1.1670
   14MPD2    H1  221   1.858   0.154  10.873 -0.2995  0.4777 -0.2801
   14MPD2    H2  222   2.245   0.312  10.781  0.0357  0.4611 -1.3956
   14MPD2    H3  223   2.067   0.130  10.757  0.4494 -0.6256  0.4033
   14MPD2     N  224   1.784   0.376  11.026 -0.3113 -0.4562 -0.1099
   14MPD2    H5  225   1.779   0.462  11.080 -1.3292 -0.9198  0.5204
   14MPD2    N1  226   2.233   0.521  10.908  0.1042  0.7765  0.6403
   14MPD2    H7  227   2.324   0.488  10.879  0.1455 -0.6495  2.3442
   15TCq1    O1  228   4.541   4.499   1.695  0.0623 -0.0679 -0.3796
   15TCq1    C1  229   4.492   4.398   1.614  0.0887  0.0802 -0.6619
   15TCq1    O2  230   4.492   4.393   1.492  0.2961 -0.5885 -0.0020
   15TCq1    C2  231   4.411   4.306   1.703 -0.1118 -0.7153 -0.4766
   15TCq1    C3  232   4.362   4.351   1.818  0.3270  0.9423  0.5039
   15TCq1    C4  233   4.265   4.278   1.883  0.3551  0.1620 -0.2030
   15TCq1    C5  234   4.237   4.148   1.852 -0.1639 -0.2904 -0.3933
   15TCq1    C6  235   4.275   4.117   1.724 -0.6192  1.1312  0.2626
   15TCq1    C7  236   4.359   4.194   1.644 -0.6323  0.0790  0.1161
   15TCq1    C8  237   4.249   3.979   1.681 -0.6156  0.4154  0.0349
   15TCq1    O4  238   4.340   3.919   1.619  0.3955 -0.3295 -0.4351
   15TCq1    C9  239   4.197   4.332   1.998  0.1681  0.6560  0.4529
   15TCq1    O5  240   4.242   4.441   2.045  0.0997  0.0972  0.6229
   15TCq1    O6  241   4.104   4.262   2.050  0.3244 -0.8545 -1.0272
   15TCq1    H1  242   4.566   4.478   1.788  0.5302 -1.5602 -0.8411
   15TCq1    H2  243   4.398   4.444   1.861  0.0536  1.6909 -0.9008
   15TCq1    H3  244   4.170   4.084   1.908  0.2357 -1.5146 -1.3166
   15TCq1    H4  245   4.413   4.157   1.557 -0.0592  0.6740  0.2161
   16MPD2     C  246   3.936   3.792   1.737  0.4018  0.0097  0.4532
   16MPD2    C1  247   4.073   3.804   1.708  0.4672  0.5040 -0.2618
   16MPD2    C2  248   4.150   3.695   1.675 -0.1803 -0.2309  1.4470
   16MPD2    C3  249   4.099   3.568   1.661 -0.6329  0.6691 -0.2477
   16MPD2    C4  250   3.966   3.556   1.696  0.3173 -0.6485  0.0285
   16MPD2    C5  251   3.885   3.665   1.737 -0.9123  0.4151  0.0786
   16MPD2     H  252   4.256   3.704   1.658  0.0034 -1.3275  1.9955
   16MPD2    H1  253   3.912   3.461   1.692  0.0857 -0.4523 -1.5093
   16MPD2    H2  254   3.872   3.878   1.751 -0.1212 -0.0630 -1.4109
   16MPD2    H3  255   3.781   3.654   1.766 -0.5024  0.6859  1.6287
   16MPD2     N  256   4.181   3.462   1.616  0.4856  0.0231 -0.4510
   16MPD2    H5  257   4.278   3.485   1.594  0.7453  1.9497  2.7631
   16MPD2    N1  258   4.120   3.937   1.713 -0.1620 -0.1797 -0.0991
   16MPD2    H7  259   4.062   4.007   1.760  0.3385  0.3239 -0.2317
   17TMC1    C1  260   1.724   3.708  11.518 -1.0180 -0.2577  0.1850
   17TMC1    C2  261   1.679   3.665  11.638  0.3454  0.3534 -0.1501
   17TMC1    C3  262   1.672   3.531  11.659  0.5694  0.3316 -0.2700
   17TMC1    C4  263   1.750   3.630  11.410 -0.4114  0.0931 -0.1436
   17TMC1    C5  264   1.735   3.492  11.435 -0.1342  0.4554 -0.7191
   17TMC1    C6  265   1.697   3.440  11.557 -0.0202  0.8285 -0.1446
   17TMC1     C  266   1.744   3.853  11.508  0.2227  0.0697 -0.3676
   17TMC1     O  267   1.667   3.930  11.570  0.3014  0.4418 -0.3702
   17TMC1     H  268   1.660   3.736  11.717  3.3861  0.7408  0.2189
   17TMC1    H1  269   1.783   3.675  11.317 -0.3449  2.4374  1.0171
   17TMC1    H2  270   1.678   3.334  11.572  2.6449  0.5507  1.3120
   17TMC1    C7  271   1.749   3.404  11.319 -0.4843  0.4878 -0.0014
   17TMC1    C8  272   1.563   3.494  11.749 -0.1984  0.1361  1.0466
   17TMC1    O1  273   1.702   3.295  11.298 -0.4991 -0.4209  0.0810
   17TMC1    O2  274   1.471   3.572  11.777 -0.5670  0.1367  0.8205
   17TMC1    O3  275   1.847   3.455  11.246 -0.1067  0.0180 -0.7743
   17TMC1    H3  276   1.903   3.515  11.302 -0.7617  0.3909 -0.5206
   17TMC1    O5  277   1.587   3.373  11.807 -0.4301 -0.4651 -0.2205
   17TMC1    H5  278   1.680   3.347  11.790 -0.0046 -0.3104  1.9166
   18MPD2     C  279   1.803   4.123  11.410  0.3353  0.2626 -0.4169
   18MPD2    C1  280   1.885   4.015  11.384  0.0516 -0.1208 -0.5264
   18MPD2    C2  281   1.993   4.023  11.295  0.0878  0.3916 -0.5565
   18MPD2    C3  282   2.038   4.143  11.247 -0.4717  0.4904 -0.4373
   18MPD2    C4  283   1.962   4.252  11.284 -0.1844 -0.2682  0.4404
   18MPD2    C5  284   1.849   4.241  11.364 -0.1842  0.4390 -0.2125
   18MPD2     H  285   2.039   3.932  11.259  1.2112  0.5100  0.5641
   18MPD2    H1  286   2.002   4.351  11.265 -0.6745 -0.1782 -0.1396
   18MPD2    H2  287   1.712   4.127  11.469  0.5978 -0.6455  0.0377
   18MPD2    H3  288   1.793   4.329  11.395 -2.5848 -0.6904 -1.3728
   18MPD2     N  289   2.150   4.173  11.164  0.8567 -0.0834  0.0786
   18MPD2    H5  290   2.160   4.269  11.132 -0.5345  0.9768  2.8305
   18MPD2    N1  291   1.857   3.881  11.433 -0.2869 -0.0362 -0.5760
   18MPD2    H7  292   1.915   3.802  11.407 -0.8048  0.2443 -2.5620
   19TMC2    C1  293   3.419   4.704  14.415 -0.0852  0.4343 -0.9910
   19TMC2    C2  294   3.335   0.076  14.435  0.1603 -0.2036  0.0778
   19TMC2    C3  295   3.203   0.049  14.439  0.1001 -0.3235  0.1898
   19TMC2    C4  296   3.372   4.579  14.379  0.3207  0.0015 -0.5477
   19TMC2    C5  297   3.234   4.567  14.348  0.2336  0.5224 -0.1406
   19TMC2    C6  298   3.153   4.661  14.396 -0.1184 -0.1395 -0.1367
   19TMC2     C  299   3.565   4.729  14.396 -0.1187 -0.1270  0.4396
   19TMC2     O  300   3.599   0.105  14.349 -0.1180 -0.4048 -0.5223
   19TMC2     H  301   3.371   0.176  14.459  2.8130 -1.2198  0.2700
   19TMC2    H1  302   3.437   4.501  14.343  0.6088 -0.7712  1.6235
   19TMC2    H2  303   3.045   4.662  14.385 -0.3203 -1.9370  1.7944
   19TMC2    C7  304   3.192   4.438  14.296 -0.5829  0.3595 -0.0404
   19TMC2    C8  305   3.110   0.161  14.436 -0.0199  0.0013  0.2938
   19TMC2    O1  306   3.279   4.361  14.259 -0.5809 -0.3682  0.3690
   19TMC2    O2  307   3.081   0.233  14.530  0.5895 -0.4165  0.8511
   19TMC2    O5  308   3.111   0.193  14.306  0.4823 -0.5394 -0.0976
   19TMC2    H5  309   3.146   0.126  14.244  1.7591  0.0156  0.0147
   20MPD2     C  310   3.864   4.711  14.376 -0.2904 -0.4380  0.5801
   20MPD2    C1  311   3.790   4.601  14.411  0.0044 -0.4994 -0.0939
   20MPD2    C2  312   3.848   4.469  14.425  0.0386  0.4468  0.9920
   20MPD2    C3  313   3.986   4.457  14.411 -0.6802  0.6759 -0.0503
   20MPD2    C4  314   4.061   4.571  14.387  0.2403  0.6457  0.1879
   20MPD2    C5  315   3.999   4.689  14.351  0.1798 -0.1104 -0.6252
   20MPD2     H  316   3.784   4.384  14.448 -0.2064  0.4522  0.3343
   20MPD2    H1  317   4.169   4.562  14.380  0.2168  0.9465 -0.5476
   20MPD2    H2  318   3.828   0.077  14.357  0.3411 -0.5955 -1.4829
   20MPD2    H3  319   4.055   0.038  14.310  1.9188 -1.1579 -0.3796
   20MPD2     N  320   4.059   4.343  14.440 -0.0444  0.1301 -0.5217
   20MPD2    H5  321   4.159   4.347  14.422 -0.0121 -0.1038 -0.3910
   20MPD2    N1  322   3.644   4.613  14.427 -1.1632 -0.8940  0.4334
   20MPD2    H7  323   3.590   4.531  14.455 -1.3761 -0.5349  1.0881
   21TMC2    C1  324   1.242   0.536  13.938 -0.0857  0.0428 -0.3643
   21TMC2    C2  325   1.190   0.620  13.849 -0.7286 -0.1595 -0.4616
   21TMC2    C3  326   1.075   0.685  13.880  0.0976  0.2581  0.3911
   21TMC2    C4  327   1.186   0.513  14.058 -0.5461  0.9485 -0.1307
   21TMC2    C5  328   1.086   0.595  14.093  0.3418  0.0758  0.4026
   21TMC2    C6  329   1.018   0.680  14.008  0.3477  0.7675 -0.3429
   21TMC2     C  330   1.386   0.511  13.943  0.2981 -0.0544  0.2030
   21TMC2     O  331   1.446   0.515  14.052 -0.3206 -0.6351  0.0128
   21TMC2     H  332   1.242   0.638  13.755 -1.0971  1.3786 -0.3720
   21TMC2    H1  333   1.232   0.446  14.130 -0.2028  1.0899 -0.2190
   21TMC2    H2  334   0.936   0.748  14.028  0.5825  1.2625 -1.0492
   21TMC2    C7  335   1.042   0.593  14.232 -0.6837  0.5502 -0.1525
   21TMC2    C8  336   1.046   0.798  13.803  0.2171  0.0065 -0.0236
   21TMC2    O1  337   1.120   0.543  14.309 -0.0097  0.4078 -0.7033
   21TMC2    O2  338   1.041   0.784  13.682 -0.1254 -0.4352  0.3536
   21TMC2    O5  339   1.140   0.884  13.856  0.0356 -0.2155  0.1531
   21TMC2    H5  340   1.131   0.882  13.954  0.4438  0.3787  0.2060
   22MPD2     C  341   1.806   0.294  13.738  0.2217  0.4168 -0.5689
   22MPD2    C1  342   1.776   0.368  13.849 -0.1291 -0.0641  0.3313
   22MPD2    C2  343   1.655   0.425  13.875 -1.3011 -0.2315  0.0742
   22MPD2    C3  344   1.551   0.411  13.794 -0.5006  0.7306  0.4345
   22MPD2    C4  345   1.578   0.343  13.672 -0.1437 -0.0064 -0.2163
   22MPD2    C5  346   1.707   0.290  13.644 -0.5304 -0.4337 -0.2295
   22MPD2     H  347   1.645   0.493  13.959 -2.1507  1.1548 -1.1371
   22MPD2    H1  348   1.504   0.328  13.594 -1.1963  0.3182  0.7022
   22MPD2    H2  349   1.903   0.247  13.723  0.5877  0.4013  2.0030
   22MPD2    H3  350   1.716   0.240  13.548 -1.3379 -1.0985  0.0347
   22MPD2     N  351   1.424   0.456  13.822 -0.3777  0.2497 -0.0097
   22MPD2    H5  352   1.348   0.455  13.754 -0.4958 -1.5739  0.1377
   22MPD2    N1  353   1.873   0.392  13.951 -0.0075  0.8908 -0.3760
   22MPD2    H7  354   1.837   0.433  14.037  0.1972  2.4607 -1.0425
   23TMC2    C1  355   1.826   1.427  14.594 -0.1456 -0.4615 -0.8778
   23TMC2    C2  356   1.851   1.390  14.467 -0.3750  0.1042  0.3551
   23TMC2    C3  357   1.746   1.377  14.386 -0.3975  0.0986  0.1592
   23TMC2    C4  358   1.698   1.457  14.637 -0.1000  1.2489  0.2919
   23TMC2    C5  359   1.597   1.450  14.544  0.1850 -0.4504 -0.1483
   23TMC2    C6  360   1.615   1.407  14.414 -0.5729  0.5271  0.6522
   23TMC2     C  361   1.938   1.479  14.670  0.3162 -0.0421 -0.1334
   23TMC2     O  362   2.037   1.402  14.677 -0.5056  0.5138  0.1119
   23TMC2     H  363   1.954   1.372  14.437  0.3267  1.6775  1.8178
   23TMC2    H1  364   1.672   1.476  14.740  1.3868  2.4727  0.4295
   23TMC2    H2  365   1.537   1.393  14.340  0.8517  1.4839 -1.0284
   23TMC2    C7  366   1.470   1.500  14.584  0.3604  0.3425  0.0205
   23TMC2    C8  367   1.758   1.331  14.250 -0.0712 -0.1101 -0.4483
   23TMC2    O1  368   1.456   1.555  14.694 -0.2326 -0.6131 -0.2724
   23TMC2    O2  369   1.662   1.333  14.171  0.5600  0.2013 -0.0508
   23TMC2    O5  370   1.868   1.254  14.222 -0.0960 -0.3210  0.5242
   23TMC2    H5  371   1.922   1.235  14.302 -0.6964 -1.4514  0.6686
   24MPD2     C  372   2.107   1.723  15.083 -0.1138 -0.4281  0.1522
   24MPD2    C1  373   2.140   1.596  15.035 -0.0012  0.3939 -0.5339
   24MPD2    C2  374   2.080   1.562  14.916  0.4071 -0.8414  0.1601
   24MPD2    C3  375   1.986   1.637  14.849  0.0514  0.2794  0.3785
   24MPD2    C4  376   1.942   1.761  14.902  0.2731  0.0667 -0.8543
   24MPD2    C5  377   2.016   1.799  15.015  0.2186 -0.4401  0.2279
   24MPD2     H  378   2.106   1.465  14.877  0.1303 -0.5020 -0.8771
   24MPD2    H1  379   1.858   1.812  14.857 -0.4362 -1.4731 -1.2793
   24MPD2    H2  380   2.154   1.770  15.169  0.5843  0.2198 -0.5860
   24MPD2    H3  381   1.998   1.902  15.046  2.0943 -0.0370 -0.0311
   24MPD2     N  382   1.909   1.590  14.739 -0.0220  0.7297  0.0688
   24MPD2    H5  383   1.827   1.643  14.712  0.7466  1.5850 -0.6042
   24MPD2    N1  384   2.213   1.494  15.109 -0.4100  0.1205 -0.2087
   24MPD2    H7  385   2.251   1.415  15.058  0.0712  0.1500  0.1099
   25TMC2    C1  386   1.753   2.962  11.252 -0.1340  0.2183  0.1168
   25TMC2    C2  387   1.877   3.010  11.282  1.6128  0.5880 -0.6547
   25TMC2    C3  388   1.904   3.049  11.412  0.7047 -0.5087  0.1796
   25TMC2    C4  389   1.653   2.943  11.344 -0.7828  0.7393  0.8774
   25TMC2    C5  390   1.683   2.983  11.476  0.3206 -0.3744 -0.0654
   25TMC2    C6  391   1.804   3.039  11.507  0.5781  0.1787  0.2290
   25TMC2     C  392   1.741   2.918  11.116 -0.4208  0.1180  0.1535
   25TMC2     O  393   1.831   2.909  11.033 -0.0960  0.0590  0.3957
   25TMC2     H  394   1.951   3.004  11.204 -1.3481  0.0903 -3.4073
   25TMC2    H1  395   1.550   2.911  11.331 -0.1617 -0.9205 -0.0532
   25TMC2    H2  396   1.808   3.075  11.609 -0.7000  2.8830 -0.6863
   25TMC2    C7  397   1.573   3.046  11.542  0.4023  0.0251 -0.2947
   25TMC2    C8  398   1.988   3.165  11.430 -0.2995 -0.6177 -0.2496
   25TMC2    O1  399   1.585   3.054  11.666  0.2636 -0.4576  0.2374
   25TMC2    O2  400   2.027   3.243  11.344 -0.6361  0.4698  0.1849
   25TMC2    O5  401   2.029   3.173  11.559 -0.4799 -0.0899 -0.3767
   25TMC2    H5  402   1.993   3.103  11.618  0.1052 -0.7115 -0.7501
   26MPD2     C  403   1.406   2.727  10.780 -0.4357 -0.3085  0.2795
   26MPD2    C1  404   1.335   2.785  10.883  0.0060  0.1826 -0.0067
   26MPD2    C2  405   1.406   2.853  10.980  0.0070  0.0294 -0.1246
   26MPD2    C3  406   1.544   2.836  10.984  0.8296 -0.4685 -0.3370
   26MPD2    C4  407   1.611   2.786  10.881  0.0996 -0.1074 -0.3230
   26MPD2    C5  408   1.542   2.736  10.774 -0.8347 -0.3752  0.1730
   26MPD2     H  409   1.360   2.903  11.064 -0.5283 -0.1720 -0.2935
   26MPD2    H1  410   1.719   2.792  10.873  0.1546 -2.0794 -1.0136
   26MPD2    H2  411   1.358   2.672  10.700  0.1229  0.7981 -0.8180
   26MPD2    H3  412   1.594   2.694  10.688  1.3363 -0.2872  1.4483
   26MPD2     N  413   1.605   2.895  11.095  1.1012  0.4771  0.1923
   26MPD2    H5  414   1.540   2.934  11.164  2.2903  0.1119  1.5213
   26MPD2    N1  415   1.200   2.769  10.880  0.3715  0.5426 -0.5403
   26MPD2    H7  416   1.163   2.715  10.803  3.0760 -0.9974 -0.7507
   27TMC2    C1  417   0.208   0.808  12.037 -0.1123 -0.5622 -0.3043
   27TMC2    C2  418   0.110   0.889  12.010  0.2689  0.3813 -0.7034
   27TMC2    C3  419   0.122   1.020  12.030  0.0266 -0.4528 -0.8313
   27TMC2    C4  420   0.326   0.847  12.093 -0.2481  0.2579  0.4436
   27TMC2    C5  421   0.336   0.981  12.123  0.0272  0.1261 -0.2667
   27TMC2    C6  422   0.244   1.073  12.078 -0.0962 -0.4238  0.0268
   27TMC2     C  423   0.172   0.672  12.073  0.0454  0.6817  0.0366
   27TMC2     O  424   0.250   0.581  12.056 -0.2215 -0.5044 -0.5376
   27TMC2     H  425   0.020   0.853  11.961  0.1193 -2.0652  1.3699
   27TMC2    H1  426   0.385   0.770  12.142 -1.3620 -1.3862 -0.7946
   27TMC2    H2  427   0.259   1.180  12.090  0.2948 -0.4489 -0.2336
   27TMC2    C7  428   0.356   0.996  12.263  0.5872  0.0476  0.2428
   27TMC2    C8  429   0.033   1.103  11.965  0.4801 -0.5161  0.2952
   27TMC2    O1  430   0.343   0.886  12.321 -0.3980  0.0527 -0.2680
   27TMC2    O2  431   4.656   1.067  11.930  0.2643 -0.1165  0.3940
   27TMC2    O5  432   0.117   1.167  11.879 -0.0585 -0.0438  0.4038
   27TMC2    H5  433   0.208   1.195  11.902  0.8269 -1.3969 -1.4614
   28MPD2     C  434   4.638   0.334  12.365  0.5254 -0.2772 -0.1894
   28MPD2    C1  435   4.620   0.461  12.414 -0.4386 -0.0676  0.5002
   28MPD2    C2  436   4.669   0.570  12.347 -0.3690 -0.2082  0.5322
   28MPD2    C3  437   0.011   0.554  12.232 -1.1880  0.5219 -0.4270
   28MPD2    C4  438   0.031   0.424  12.188 -0.4214 -0.2331  0.6050
   28MPD2    C5  439   4.710   0.321  12.248 -0.1863  0.4424 -0.6104
   28MPD2     H  440   4.646   0.671  12.380 -1.2580 -0.2749  0.1138
   28MPD2    H1  441   0.096   0.398  12.105  0.5363 -0.0682  1.2931
   28MPD2    H2  442   4.583   0.251  12.408 -0.1384  0.8505  1.1248
   28MPD2    H3  443   4.715   0.228  12.192  1.9159  0.7926 -1.0258
   28MPD2     N  444   0.065   0.672  12.167  0.5435  0.7584 -0.8778
   28MPD2    H5  445   0.034   0.767  12.184  0.8423  1.0273 -1.8688
   28MPD2    N1  446   4.543   0.473  12.537  0.2733 -0.1061  0.1835
   28MPD2    H7  447   4.513   0.390  12.586  1.4660 -1.5012 -1.4438
   29TMC2    C1  448   4.466   3.271  14.588 -0.7175  0.0636  0.3565
   29TMC2    C2  449   4.410   3.301  14.709  0.0419  0.1865  0.0501
   29TMC2    C3  450   4.379   3.425  14.739 -0.7334 -0.4166 -0.8296
   29TMC2    C4  451   4.502   3.370  14.501 -0.3483  0.2662  0.7452
   29TMC2    C5  452   4.473   3.497  14.544  0.0877 -0.0129 -0.4260
   29TMC2    C6  453   4.394   3.526  14.655  0.4168  0.7720  0.2416
   29TMC2     C  454   4.467   3.134  14.543  0.1774 -0.3822  0.1223
   29TMC2     O  455   4.439   3.052  14.626  0.4871  0.0745 -0.4617
   29TMC2     H  456   4.404   3.220  14.781 -1.3770 -0.0901 -0.3907
   29TMC2    H1  457   4.560   3.351  14.411  0.2221  0.1873  1.1316
   29TMC2    H2  458   4.368   3.628  14.680  0.0963  0.9010 -0.5904
   29TMC2    C7  459   4.505   3.608  14.452  0.6978 -0.7980 -0.3463
   29TMC2    C8  460   4.295   3.446  14.862  0.0144 -0.5878 -0.1342
   29TMC2    O1  461   4.485   3.602  14.334 -0.0329 -0.3452  0.1008
   29TMC2    O2  462   4.309   3.383  14.965  0.3595  0.1971 -0.1194
   29TMC2    O5  463   4.218   3.555  14.849  0.4787  0.0383  0.1640
   29TMC2    H5  464   4.224   3.609  14.767  0.2598 -0.5567 -0.2385
   30MPD2     C  465   4.589   2.756  14.213  0.4597  0.6432  0.3945
   30MPD2    C1  466   4.581   2.753  14.348 -0.5892 -0.0314  0.0544
   30MPD2    C2  467   4.537   2.873  14.412 -0.0881 -0.3397  0.3706
   30MPD2    C3  468   4.518   2.987  14.345 -0.7091  0.2357  0.3115
   30MPD2    C4  469   4.548   2.992  14.209 -0.6950  0.3582  0.3469
   30MPD2    C5  470   4.575   2.871  14.145  0.3683 -0.5485  0.2859
   30MPD2     H  471   4.529   2.875  14.520  1.1461 -2.2684  0.5068
   30MPD2    H1  472   4.536   3.077  14.143  0.1182 -0.0992 -0.3887
   30MPD2    H2  473   4.599   2.670  14.147 -0.0377 -1.0706  2.5343
   30MPD2    H3  474   4.582   2.883  14.037  3.5549 -2.8223  0.2383
   30MPD2     N  475   4.493   3.109  14.409  0.1617  0.3635  0.4672
   30MPD2    H5  476   4.483   3.191  14.349  0.6809  1.1661  1.4851
   30MPD2    N1  477   4.603   2.637  14.427 -0.3696 -0.1775 -0.8136
   30MPD2    H7  478   4.589   2.646  14.527  3.2005 -0.5580 -0.2712
   31TMC2    C1  479   2.000   2.109  15.466 -0.1365  0.0415  0.2878
   31TMC2    C2  480   1.881   2.170  15.461  0.3560  0.5017  0.7120
   31TMC2    C3  481   1.813   2.202  15.577 -0.3421 -0.8599 -0.3250
   31TMC2    C4  482   2.061   2.076  15.587  0.0072 -0.3220  0.6641
   31TMC2    C5  483   1.990   2.107  15.696 -0.4251 -0.8838 -0.0399
   31TMC2    C6  484   1.865   2.171  15.701  0.1684 -0.3352  0.0928
   31TMC2     C  485   2.072   2.087  15.336 -0.3829  0.5714 -0.1269
   31TMC2     O  486   2.026   2.148  15.242  0.1648 -0.9042  0.1725
   31TMC2     H  487   1.848   2.212  15.367  0.6648  0.1841  0.4597
   31TMC2    H1  488   2.168   2.059  15.583 -0.0593 -0.8490  1.2763
   31TMC2    H2  489   1.799   2.170  15.787  0.1369  1.3118  0.0913
   31TMC2    C7  490   2.056   2.078  15.823  0.3992  0.9549  0.2464
   31TMC2    C8  491   1.683   2.261  15.576 -0.3342  0.8242 -0.6474
   31TMC2    O1  492   2.152   2.000  15.825 -0.2787  0.0705 -0.0631
   31TMC2    O2  493   1.642   2.325  15.672  0.0963  0.7311 -0.2235
   31TMC2    O5  494   1.611   2.199  15.487 -0.1210 -0.2990  0.4460
   31TMC2    H5  495   1.655   2.136  15.426  0.6096  0.6796 -0.0623
   32MPD2     C  496   2.540   2.176  15.142  0.5715 -0.1941 -0.0323
   32MPD2    C1  497   2.418   2.226  15.091  0.0950 -0.1988 -0.9898
   32MPD2    C2  498   2.303   2.176  15.147  0.5812 -0.5394  0.2743
   32MPD2    C3  499   2.308   2.081  15.259 -0.7819 -0.5497 -0.1189
   32MPD2    C4  500   2.428   2.039  15.294  0.2844 -0.1347 -0.2241
   32MPD2    C5  501   2.549   2.085  15.239 -0.4346  0.0694 -0.1275
   32MPD2     H  502   2.211   2.218  15.109  1.1065  1.6170  1.4104
   32MPD2    H1  503   2.440   1.979  15.384 -0.1567  0.1252  0.0092
   32MPD2    H2  504   2.636   2.216  15.111  0.3102  0.3355 -0.1557
   32MPD2    H3  505   2.650   2.050  15.260 -0.8180  0.0784  1.6877
   32MPD2     N  506   2.203   2.047  15.348  0.0051 -0.1397 -0.2633
   32MPD2    H5  507   2.225   1.989  15.428  0.5579 -2.1069 -1.8483
   32MPD2    N1  508   2.414   2.314  14.982  0.4858 -0.5721 -0.0027
   32MPD2    H7  509   2.319   2.323  14.947  0.2906  0.1406  0.7145
   33TMC2    C1  510   2.335   0.203  10.451 -0.0347 -0.1659  0.0672
   33TMC2    C2  511   2.234   0.148  10.374  0.1191  0.3944 -0.1312
   33TMC2    C3  512   2.189   0.226  10.270 -0.4697  0.4314  0.6805
   33TMC2    C4  513   2.369   0.336  10.438  0.2785  0.0924  0.1469
   33TMC2    C5  514   2.299   0.411  10.349 -0.3012 -0.3692 -0.1043
   33TMC2    C6  515   2.208   0.360  10.262  0.2377  0.8692 -0.2350
   33TMC2     C  516   2.384   0.115  10.554  0.2787  0.1305 -0.1737
   33TMC2     O  517   2.320   0.012  10.569  0.0606 -1.1195 -0.2865
   33TMC2     H  518   2.212   0.042  10.378  1.3521  0.2509  2.9547
   33TMC2    H1  519   2.432   0.388  10.509 -1.4344  3.0899 -0.4867
   33TMC2    H2  520   2.147   0.414  10.190 -0.1614  1.5616  0.6195
   33TMC2    C7  521   2.326   0.549  10.341  0.2074 -0.2956  0.0168
   33TMC2    C8  522   2.155   0.166  10.147 -0.9902 -0.3415 -0.3947
   33TMC2    O1  523   2.438   0.601  10.362 -0.2319  0.3280 -0.3484
   33TMC2    O2  524   2.153   0.232  10.044 -0.4869  0.0155 -0.2381
   33TMC2    O5  525   2.053   0.082  10.181  0.2476  0.0229 -0.2946
   33TMC2    H5  526   2.064   0.029  10.263  0.6920  1.0728  0.3195
   34MPD2     C  527   2.736   4.679  10.886  0.0173 -1.0402 -0.0500
   34MPD2    C1  528   2.611   4.629  10.855  0.1629 -0.0906  0.1105
   34MPD2    C2  529   2.523   4.699  10.773  0.0199 -0.3628  0.0426
   34MPD2    C3  530   2.570   0.078  10.705 -0.3535  0.0281  0.6241
   34MPD2    C4  531   2.696   0.123  10.740 -0.8624  0.7282 -0.4147
   34MPD2    C5  532   2.783   0.049  10.817 -0.9612  0.6225  0.4933
   34MPD2     H  533   2.434   4.649  10.735  0.4505 -2.2173  1.5134
   34MPD2    H1  534   2.730   0.216  10.698  1.4490 -0.3301 -0.8621
   34MPD2    H2  535   2.800   4.621  10.951  0.7082  0.5274  0.6624
   34MPD2    H3  536   2.881   0.091  10.839 -0.1663 -1.0826  0.2188
   34MPD2     N  537   2.497   0.154  10.613 -0.7243  0.1309  0.9943
   34MPD2    H5  538   2.544   0.230  10.564  0.0644 -1.0233 -0.0283
   34MPD2    N1  539   2.579   4.503  10.908 -1.2153 -0.0278 -0.1235
   34MPD2    H7  540   2.649   4.445  10.953 -0.7622 -0.4855 -1.4076
   35TMC2    C1  541   3.453   1.048  11.475 -0.3904  0.1449  0.8466
   35TMC2    C2  542   3.438   1.057  11.335  0.3640  0.2544 -0.5036
   35TMC2    C3  543   3.361   0.954  11.285 -0.0107  0.0498 -0.6214
   35TMC2    C4  544   3.390   0.957  11.552 -0.2280 -0.2900  0.6744
   35TMC2    C5  545   3.307   0.870  11.493 -1.1505 -1.2366 -1.1466
   35TMC2    C6  546   3.299   0.857  11.359  0.7519  0.0207  0.4112
   35TMC2     C  547   3.508   1.161  11.545 -0.5482 -0.0801  1.0643
   35TMC2     O  548   3.502   1.265  11.479 -0.3084 -0.1398 -0.4711
   35TMC2     H  549   3.501   1.127  11.280 -0.5010  0.6840 -0.9507
   35TMC2    H1  550   3.381   0.978  11.658 -0.4058 -2.0096  0.9963
   35TMC2    H2  551   3.246   0.775  11.313  0.8471  0.4196 -0.4058
   35TMC2    C7  552   3.243   0.764  11.564 -0.3450 -0.0609  0.2040
   35TMC2    C8  553   3.339   0.940  11.146 -0.2858  0.3763  0.1964
   35TMC2    O1  554   3.161   0.699  11.507  0.3639  0.3852 -0.1665
   35TMC2    O2  555   3.416   0.988  11.067  0.1495  0.3692  0.0279
   35TMC2    O5  556   3.206   0.917  11.125  0.0156  0.2755  0.2175
   35TMC2    H5  557   3.160   0.887  11.207 -0.0397 -1.1219 -0.3229
   36MPD2     C  558   3.753   1.408  11.929 -0.2669 -0.2815 -0.9089
   36MPD2    C1  559   3.762   1.272  11.946  0.0422  0.7009 -0.3876
   36MPD2    C2  560   3.693   1.184  11.864  0.6188 -0.3978  1.0512
   36MPD2    C3  561   3.616   1.231  11.760 -0.6040 -0.8150  0.8301
   36MPD2    C4  562   3.607   1.368  11.741 -0.0895 -0.1415 -0.4258
   36MPD2    C5  563   3.676   1.452  11.823 -0.1546  0.2860  0.2191
   36MPD2     H  564   3.693   1.076  11.875  2.5724 -0.5466 -0.3621
   36MPD2    H1  565   3.554   1.405  11.654  1.9785  0.2877 -1.5028
   36MPD2    H2  566   3.809   1.483  11.984 -0.3935  1.2606 -2.8560
   36MPD2    H3  567   3.680   1.557  11.798  1.8059 -0.2161 -1.5930
   36MPD2     N  568   3.553   1.133  11.674 -0.0173 -0.1260  0.3887
   36MPD2    H5  569   3.571   1.037  11.703 -1.3691 -0.9515 -1.5443
   36MPD2    N1  570   3.837   1.234  12.064 -0.6046  0.0022  0.0239
   36MPD2    H7  571   3.881   1.310  12.115  0.0580 -0.9922  0.9568
   37TMC2    C1  572   1.232   1.400  11.801 -0.7668 -0.9591  0.5827
   37TMC2    C2  573   1.118   1.407  11.737  0.4669 -0.0554 -0.0589
   37TMC2    C3  574   1.113   1.473  11.618 -0.9081  0.5514 -0.1028
   37TMC2    C4  575   1.351   1.455  11.760 -0.6692  0.0349 -0.3593
   37TMC2    C5  576   1.348   1.511  11.633 -0.0545  0.1330 -0.6101
   37TMC2    C6  577   1.228   1.526  11.565  0.6492  0.1477 -0.3734
   37TMC2     C  578   1.220   1.330  11.926 -0.0867  0.2762  0.0012
   37TMC2     O  579   1.111   1.287  11.955 -0.2625  0.4816  0.4516
   37TMC2     H  580   1.024   1.368  11.775  0.9094 -0.5886  0.4818
   37TMC2    H1  581   1.439   1.468  11.822  0.5129 -1.5057 -1.7121
   37TMC2    H2  582   1.226   1.581  11.472  0.2864 -1.0644 -1.0867
   37TMC2    C7  583   1.477   1.550  11.574  0.1436  0.9719  0.2587
   37TMC2    C8  584   0.987   1.489  11.542  0.5275  0.1564 -0.4107
   37TMC2    O1  585   1.580   1.549  11.639  0.5291  0.1608  0.4101
   37TMC2    O2  586   0.970   1.580  11.466  0.1989 -0.0267  0.3323
   37TMC2    O5  587   0.923   1.363  11.548  0.1326 -0.1199 -0.3276
   37TMC2    H5  588   0.968   1.304  11.611  1.0474  0.5236 -0.3715
   38MPD2     C  589   1.406   1.200  12.389  0.1514  0.0619 -0.3544
   38MPD2    C1  590   1.507   1.228  12.298  0.2340  0.3463  0.1979
   38MPD2    C2  591   1.479   1.273  12.181 -0.4520  0.5428  0.0305
   38MPD2    C3  592   1.352   1.278  12.135  0.0216  0.1572 -0.5357
   38MPD2    C4  593   1.244   1.258  12.218  0.1037 -0.2606 -1.1745
   38MPD2    C5  594   1.274   1.214  12.351  0.4611  0.1805  0.6876
   38MPD2     H  595   1.558   1.292  12.110 -1.7432 -0.1995 -1.6035
   38MPD2    H1  596   1.142   1.279  12.191 -0.0185  0.3996 -0.2255
   38MPD2    H2  597   1.430   1.174  12.492 -0.7943  2.5766  0.4928
   38MPD2    H3  598   1.201   1.198  12.430  0.3027  0.5396  0.6117
   38MPD2     N  599   1.335   1.328  12.000  0.1414 -0.0186 -0.1553
   38MPD2    H5  600   1.419   1.351  11.948 -1.4956 -0.3255 -2.8925
   38MPD2    N1  601   1.639   1.204  12.337  0.0039  0.1648  0.3400
   38MPD2    H7  602   1.712   1.242  12.277 -0.2333 -0.5025 -0.3752
   39TMC2    C1  603   4.348   2.632   2.026  0.2362 -0.2118  0.3080
   39TMC2    C2  604   4.366   2.548   2.132  0.4036  0.4274 -0.6827
   39TMC2    C3  605   4.491   2.516   2.176 -0.0192 -0.6135 -0.0690
   39TMC2    C4  606   4.456   2.700   1.975  0.1333 -0.2973 -0.2189
   39TMC2    C5  607   4.580   2.689   2.041  0.3105 -0.0317 -0.9136
   39TMC2    C6  608   4.600   2.594   2.133 -0.3535  0.1123  0.5190
   39TMC2     C  609   4.216   2.651   1.971 -1.1095 -0.5070  0.6135
   39TMC2     O  610   4.193   2.752   1.902 -0.5640  0.5207  0.5624
   39TMC2     H  611   4.283   2.496   2.178  0.0301  1.9986  0.4149
   39TMC2    H1  612   4.445   2.778   1.900 -1.4602 -0.4598 -0.1630
   39TMC2    H2  613   4.698   2.590   2.179 -0.6414  3.0545  1.3858
   39TMC2    C7  614   4.682   2.784   2.009  0.2294  0.0633 -0.0924
   39TMC2    C8  615   4.502   2.443   2.300 -0.3251  0.4794 -0.3484
   39TMC2    O1  616   0.062   2.746   2.026 -0.0760  0.4018  0.8664
   39TMC2    O2  617   4.413   2.365   2.329  0.0017 -0.1165  0.1981
   39TMC2    O5  618   4.554   2.538   2.389 -0.0455  0.3119  0.3426
   39TMC2    H5  619   4.598   2.620   2.356 -0.5385 -0.3779 -2.0191
   40MPD2     C  620   3.956   2.403   1.931 -0.4710 -0.1334 -0.2260
   40MPD2    C1  621   4.024   2.514   1.904 -0.0808  0.0063  0.4544
   40MPD2    C2  622   3.965   2.593   1.802  0.1776  0.3030 -0.0103
   40MPD2    C3  623   3.854   2.540   1.724 -0.0761  0.2267 -0.4034
   40MPD2    C4  624   3.806   2.416   1.754  0.8983 -0.0950 -0.1204
   40MPD2    C5  625   3.851   2.351   1.863 -0.3244 -0.6543  0.3313
   40MPD2     H  626   4.003   2.695   1.799 -3.3896  1.6618  0.5964
   40MPD2    H1  627   3.716   2.373   1.711 -0.3866 -0.0779  2.4958
   40MPD2    H2  628   3.978   2.339   2.016  0.6175  4.8031  3.2095
   40MPD2    H3  629   3.813   2.251   1.881 -0.1529 -0.6110  0.9290
   40MPD2     N  630   3.790   2.612   1.624  0.0860  0.7408  0.4178
   40MPD2    H5  631   3.708   2.561   1.593  1.2778 -2.4115  2.4699
   40MPD2    N1  632   4.142   2.536   1.975 -0.1862 -0.3256  0.6479
   40MPD2    H7  633   4.178   2.463   2.035 -0.6672  0.9737  2.5479
   41TMC2    C1  634   3.939   1.989  13.279  0.3522 -0.2366 -1.0879
   41TMC2    C2  635   3.976   2.069  13.174 -0.3375  0.2540 -0.6813
   41TMC2    C3  636   3.877   2.107  13.084 -0.1221  0.7474 -0.1755
   41TMC2    C4  637   3.809   1.973  13.315  0.4695 -0.0025  0.4521
   41TMC2    C5  638   3.718   2.044  13.245  0.0344 -0.6190  0.1049
   41TMC2    C6  639   3.750   2.120  13.134 -0.4448  0.0112  0.3395
   41TMC2     C  640   4.022   1.868  13.287 -0.2292 -0.1985 -0.1340
   41TMC2     O  641   4.066   1.827  13.179  0.3739  0.0779  0.7686
   41TMC2     H  642   4.081   2.083  13.153 -0.4648 -0.2523 -1.6460
   41TMC2    H1  643   3.790   1.901  13.394 -0.2866 -1.2112 -0.8235
   41TMC2    H2  644   3.674   2.163  13.070  0.2499  0.7891  0.0283
   41TMC2    C7  645   3.578   2.032  13.272 -0.3849  0.1165  0.4991
   41TMC2    C8  646   3.908   2.187  12.973 -0.3379  0.1832 -0.4792
   41TMC2    O1  647   3.557   2.004  13.390  0.3008  0.3181 -0.1362
   41TMC2    O2  648   3.898   2.308  12.985  0.3966 -0.1655 -0.2329
   41TMC2    O5  649   4.018   2.121  12.932  0.3071  0.4253  0.2664
   41TMC2    H5  650   4.022   2.024  12.937  3.0030  0.5540  0.9012
   42MPD2     C  651   4.004   1.576  13.310  0.6586 -0.2253  0.1936
   42MPD2    C1  652   3.990   1.662  13.413 -0.6105  0.4361 -0.1460
   42MPD2    C2  653   3.983   1.616  13.544 -0.1370  0.1409  0.3237
   42MPD2    C3  654   3.974   1.481  13.575 -0.0957 -0.6385 -0.0311
   42MPD2    C4  655   3.967   1.398  13.471 -0.7024 -0.3639  0.5560
   42MPD2    C5  656   3.984   1.445  13.338  0.3246 -0.1663  0.4871
   42MPD2     H  657   3.968   1.688  13.624  3.1510  0.8283  0.2923
   42MPD2    H1  658   3.963   1.291  13.493 -0.1166 -0.8670 -1.8417
   42MPD2    H2  659   4.030   1.604  13.209 -0.1092 -1.5697 -0.3763
   42MPD2    H3  660   3.996   1.376  13.255  2.2022 -0.1932  0.7799
   42MPD2     N  661   3.967   1.428  13.695 -0.1610  0.5471  0.0607
   42MPD2    H5  662   3.933   1.334  13.713  0.9246 -0.2571 -2.2183
   42MPD2    N1  663   4.003   1.802  13.404 -0.5043  0.3396 -0.1361
   42MPD2    H7  664   3.974   1.862  13.481  0.6033  0.9018 -0.1557
   43TMC2    C1  665   4.270   4.095   0.972 -0.0239 -1.0524  0.1177
   43TMC2    C2  666   4.155   4.140   1.031 -0.2577  0.1352  0.6273
   43TMC2    C3  667   4.147   4.273   1.073 -0.0578 -0.2705 -0.4238
   43TMC2    C4  668   4.361   4.189   0.933 -0.0313  0.4407 -0.3694
   43TMC2    C5  669   4.343   4.317   0.966 -0.1710  0.4616  0.4372
   43TMC2    C6  670   4.242   4.364   1.044 -0.5969  0.2894 -0.3049
   43TMC2     C  671   4.269   3.964   0.914 -0.7195  0.3549  0.0247
   43TMC2     O  672   4.376   3.931   0.856  0.7139 -0.1681 -0.1578
   43TMC2     H  673   4.084   4.069   1.072 -0.0576 -1.9424 -2.6515
   43TMC2    H1  674   4.454   4.167   0.882  0.5297 -1.8481  1.6479
   43TMC2    H2  675   4.216   4.468   1.058 -1.3937  0.1293 -0.5704
   43TMC2    C7  676   4.469   4.394   0.966 -0.2442  0.1175  0.0060
   43TMC2    C8  677   4.083   4.301   1.195 -0.0721  0.0256  0.3062
   43TMC2    O1  678   4.561   4.385   0.884  0.2578 -0.0575 -0.1416
   43TMC2    O2  679   3.964   4.287   1.197 -0.9450 -0.0918 -0.2730
   43TMC2    O5  680   4.164   4.247   1.283  0.1000 -0.3812 -0.3009
   43TMC2    H5  681   4.255   4.267   1.253  0.2067  0.0513  0.3152
   44MPD2     C  682   4.130   3.487   0.841 -0.0071 -0.2085  0.1701
   44MPD2    C1  683   4.200   3.572   0.753  0.4722 -0.7291  0.1724
   44MPD2    C2  684   4.213   3.700   0.796 -0.2284  0.1518 -0.6524
   44MPD2    C3  685   4.142   3.754   0.903  0.1085  0.0433 -0.9623
   44MPD2    C4  686   4.055   3.675   0.970  0.2698 -0.5361 -0.0771
   44MPD2    C5  687   4.055   3.540   0.946 -0.6336  0.2821  0.8793
   44MPD2     H  688   4.276   3.768   0.740  0.6165  0.5564  0.7811
   44MPD2    H1  689   3.992   3.704   1.054  0.1446  1.9521 -1.0240
   44MPD2    H2  690   4.117   3.380   0.831 -0.8989 -0.0467 -0.4172
   44MPD2    H3  691   3.991   3.473   1.003 -2.7515  1.0774 -0.5570
   44MPD2     N  692   4.155   3.889   0.942  0.1911 -0.3451 -0.6081
   44MPD2    H5  693   4.080   3.931   0.997  2.8141  0.9148  2.0507
   44MPD2    N1  694   4.276   3.529   0.643  0.3295  0.2340 -0.2804
   44MPD2    H7  695   4.322   3.605   0.592 -1.4205  2.2110  1.1259
   45TMC2    C1  696   1.153   1.865   9.133  0.6209  0.0297 -0.1972
   45TMC2    C2  697   1.255   1.928   9.072 -0.3711 -0.3347  0.1485
   45TMC2    C3  698   1.272   2.061   9.112  0.2554 -0.3264  0.1878
   45TMC2    C4  699   1.074   1.926   9.229  0.8518  0.8573  0.8545
   45TMC2    C5  700   1.099   2.060   9.257  0.3340  0.4418 -0.6044
   45TMC2    C6  701   1.212   2.124   9.216 -0.3926  0.3217 -0.2567
   45TMC2     C  702   1.129   1.723   9.103  0.0149  0.0198 -0.1174
   45TMC2     O  703   1.207   1.659   9.031  0.4467  0.4810  0.5937
   45TMC2     H  704   1.314   1.876   8.997 -0.1244  2.4093 -1.5424
   45TMC2    H1  705   0.997   1.876   9.286  1.1465  0.3083  0.7782
   45TMC2    H2  706   1.224   2.228   9.245  2.5431  0.4720 -2.0391
   45TMC2    C7  707   0.998   2.132   9.331 -0.5833  0.0141 -0.6132
   45TMC2    C8  708   1.378   2.144   9.060 -0.5439  0.5141 -0.1055
   45TMC2    O1  709   0.937   2.086   9.426 -0.4143 -0.2121  0.3451
   45TMC2    O2  710   1.446   2.221   9.132  0.3803 -0.0135  0.7732
   45TMC2    O5  711   1.407   2.097   8.933 -0.2665 -0.2287 -0.1245
   45TMC2    H5  712   1.341   2.043   8.884  1.2488 -2.1517 -0.0655
   46MPD2     C  713   1.038   1.444   9.109  0.0544 -0.2551  0.1607
   46MPD2    C1  714   0.958   1.555   9.132  0.3114  0.4856  0.1629
   46MPD2    C2  715   0.830   1.534   9.167 -1.2130 -0.1776  0.0589
   46MPD2    C3  716   0.767   1.415   9.183 -0.3420 -0.9857 -0.1506
   46MPD2    C4  717   0.845   1.304   9.172 -0.7296  0.3710 -0.2180
   46MPD2    C5  718   0.980   1.315   9.135 -0.4565  0.6140 -0.6131
   46MPD2     H  719   0.773   1.626   9.180 -0.1523  0.0686  2.8017
   46MPD2    H1  720   0.809   1.204   9.194  2.4085 -0.7915 -0.2661
   46MPD2    H2  721   1.141   1.449   9.077  0.3894  1.0623  1.4606
   46MPD2    H3  722   1.045   1.229   9.120 -1.7022 -0.2684 -0.9904
   46MPD2     N  723   0.627   1.412   9.222  0.4732 -0.1119  0.0663
   46MPD2    H5  724   0.584   1.503   9.229  0.4897 -0.0997  0.0111
   46MPD2    N1  725   1.004   1.686   9.130  0.5386  0.6812  0.0833
   46MPD2    H7  726   0.939   1.759   9.158 -4.4851 -3.2060 -1.3742
   47TMC2    C1  727   1.920   2.529   9.095 -0.6471  0.2632  0.1956
   47TMC2    C2  728   1.807   2.589   9.040  0.1073  0.6228  0.5259
   47TMC2    C3  729   1.701   2.510   8.996  0.0249  0.4428 -0.2496
   47TMC2    C4  730   1.931   2.395   9.099 -0.3067 -0.2360  0.1111
   47TMC2    C5  731   1.822   2.322   9.066 -0.2380  0.3160 -1.0410
   47TMC2    C6  732   1.707   2.380   9.013  0.4860 -0.5788 -0.5382
   47TMC2     C  733   2.037   2.612   9.123  0.1051 -0.5955  0.0497
   47TMC2     O  734   2.027   2.734   9.133 -0.0115  0.4952 -0.3489
   47TMC2     H  735   1.813   2.697   9.030 -0.9371  0.6646  0.3847
   47TMC2    H1  736   2.009   2.327   9.133  0.6307  0.4838 -0.6250
   47TMC2    H2  737   1.641   2.318   8.954 -1.0973  1.1932 -0.6315
   47TMC2    C7  738   1.811   2.192   9.136  0.7306  0.5334 -0.2781
   47TMC2    C8  739   1.569   2.574   8.999 -0.0823 -0.3168  0.5780
   47TMC2    O1  740   1.882   2.178   9.230  0.0273 -0.3475 -0.2697
   47TMC2    O2  741   1.535   2.686   8.972  0.5873  0.1185 -0.3297
   47TMC2    O5  742   1.504   2.501   9.091  0.3019  0.6211 -0.2805
   47TMC2    H5  743   1.553   2.418   9.108  1.5927  1.7922  1.7676
   48MPD2     C  744   2.292   2.696   9.256  0.4394 -0.3496  0.2897
   48MPD2    C1  745   2.272   2.570   9.196 -0.0238  0.2615  0.2759
   48MPD2    C2  746   2.379   2.478   9.195  0.3762 -0.5886 -0.1438
   48MPD2    C3  747   2.498   2.508   9.259  0.4499 -0.1939  0.8760
   48MPD2    C4  748   2.516   2.634   9.308  0.0883  0.5225 -0.9200
   48MPD2    C5  749   2.416   2.724   9.312  0.3357 -0.6497  0.0501
   48MPD2     H  750   2.375   2.387   9.137  0.6710 -0.6515 -0.0629
   48MPD2    H1  751   2.611   2.664   9.351 -0.9373  2.2181  0.1284
   48MPD2    H2  752   2.214   2.771   9.262  0.0352 -0.6920 -0.6300
   48MPD2    H3  753   2.436   2.823   9.350  1.1082 -0.6865 -0.2604
   48MPD2     N  754   2.594   2.404   9.251 -0.1789 -0.2224  0.2525
   48MPD2    H5  755   2.573   2.323   9.193  1.1134  0.4069 -1.0805
   48MPD2    N1  756   2.146   2.531   9.144  0.0354  0.1206 -0.6744
   48MPD2    H7  757   2.140   2.437   9.108  1.2896 -1.4213  3.2167
   49TMC2    C1  758   2.104   4.316  10.698  0.1680 -0.1031  0.1304
   49TMC2    C2  759   2.237   4.317  10.657  0.0349  0.5567  0.2142
   49TMC2    C3  760   2.287   4.414  10.575 -0.0575  0.7855  0.4187
   49TMC2    C4  761   2.014   4.397  10.624 -0.2890  0.2332 -0.0864
   49TMC2    C5  762   2.072   4.480  10.531  0.0023  0.3642 -0.2142
   49TMC2    C6  763   2.203   4.490  10.505 -0.2826 -0.2375 -0.1892
   49TMC2     C  764   2.057   4.215  10.790  0.3079  0.1717  0.4130
   49TMC2     O  765   2.132   4.118  10.799  0.9555 -0.0278  0.0584
   49TMC2     H  766   2.308   4.246  10.700 -0.9754 -0.6116 -0.0295
   49TMC2    H1  767   1.908   4.378  10.617 -0.6548  0.5927  4.4701
   49TMC2    H2  768   2.239   4.562  10.432 -2.4097 -1.1931 -2.2020
   49TMC2    C7  769   1.986   4.593  10.493 -0.2061 -0.2923  0.0307
   49TMC2    C8  770   2.416   4.385  10.533  0.0802 -0.2405 -0.2748
   49TMC2    O1  771   2.017   4.649  10.390 -0.1316 -0.4079 -0.4148
   49TMC2    O2  772   2.471   4.281  10.566 -0.4361 -0.1679  0.3410
   49TMC2    O5  773   2.474   4.503  10.519 -0.2764  0.8506 -0.3081
   49TMC2    H5  774   2.409   4.575  10.533 -0.5374  0.8556 -1.5791
   50MPD2     C  775   1.900   3.996  10.940 -0.9455  0.1236 -0.0203
   50MPD2    C1  776   1.850   4.123  10.896  0.3388  0.9438  0.0592
   50MPD2    C2  777   1.733   4.165  10.951  0.3997 -0.3629  0.2970
   50MPD2    C3  778   1.668   4.089  11.046 -0.0677  0.4037  0.0545
   50MPD2    C4  779   1.712   3.965  11.085  0.1823 -0.0219 -0.0270
   50MPD2    C5  780   1.825   3.918  11.020  0.0670 -0.3083 -0.1173
   50MPD2     H  781   1.695   4.259  10.914  1.8522  0.3480  0.5886
   50MPD2    H1  782   1.669   3.909  11.167 -1.0216 -0.0130 -0.6538
   50MPD2    H2  783   1.995   3.959  10.904 -1.8416 -1.6704 -0.5170
   50MPD2    H3  784   1.858   3.819  11.048 -0.8118 -0.7019 -0.4957
   50MPD2     N  785   1.550   4.130  11.115  0.2099 -0.5330  0.3422
   50MPD2    H5  786   1.513   4.065  11.184 -2.6411 -0.3558 -1.0388
   50MPD2    N1  787   1.921   4.226  10.822  0.1600  0.2021  0.2590
   50MPD2    H7  788   1.873   4.315  10.809 -0.0885 -0.1000 -0.9275
   51TMC2    C1  789   2.143   2.316   1.383 -0.6215  0.3272 -0.2985
   51TMC2    C2  790   2.042   2.233   1.433  0.1257  0.7045  0.1002
   51TMC2    C3  791   1.914   2.259   1.394 -0.7270  0.2510 -1.0171
   51TMC2    C4  792   2.115   2.414   1.292 -0.2530  1.2833  0.4661
   51TMC2    C5  793   1.984   2.432   1.247  0.4336  0.4141  0.1585
   51TMC2    C6  794   1.887   2.355   1.300  0.0349  0.1011 -0.1673
   51TMC2     C  795   2.262   2.241   1.358  0.0694 -0.6678 -0.3061
   51TMC2     O  796   2.305   2.245   1.241  0.4128  0.5684 -0.3453
   51TMC2     H  797   2.068   2.154   1.503 -1.0571  1.8830  1.8601
   51TMC2    H1  798   2.201   2.460   1.246  0.3842 -0.4735 -0.1066
   51TMC2    H2  799   1.787   2.377   1.265 -0.4828  0.1855  1.3386
   51TMC2    C7  800   1.962   2.544   1.158  1.1665 -0.4968  0.2588
   51TMC2    C8  801   1.807   2.188   1.473 -0.7498 -0.2456 -0.2437
   51TMC2    O1  802   2.050   2.636   1.157 -0.1212 -0.2648 -0.0572
   51TMC2    O2  803   1.842   2.087   1.540 -0.2330 -0.3504  0.2498
   51TMC2    O5  804   1.719   2.283   1.507 -0.2200  0.3042 -0.0157
   51TMC2    H5  805   1.740   2.358   1.447  0.7134 -0.4752 -0.6542
   52MPD2     C  806   2.638   1.913   1.492 -0.2525 -0.5012  0.4139
   52MPD2    C1  807   2.601   1.968   1.368  0.1901 -0.1995  0.4149
   52MPD2    C2  808   2.493   2.056   1.366 -1.0828 -0.1077 -1.1882
   52MPD2    C3  809   2.417   2.088   1.472  0.2712 -0.3715 -0.3890
   52MPD2    C4  810   2.463   2.034   1.594  0.0146 -0.4817  0.1073
   52MPD2    C5  811   2.573   1.955   1.603  0.3503 -0.3490 -0.0429
   52MPD2     H  812   2.472   2.106   1.272  0.7371  0.8701 -1.0699
   52MPD2    H1  813   2.422   2.061   1.691  2.5225 -1.5181  1.4563
   52MPD2    H2  814   2.727   1.857   1.517 -0.4014 -0.8913  0.0861
   52MPD2    H3  815   2.618   1.932   1.699 -0.2091 -1.9746 -0.1734
   52MPD2     N  816   2.303   2.171   1.471 -0.2488  0.2963 -0.7343
   52MPD2    H5  817   2.249   2.180   1.556  2.2164  1.3457  0.7155
   52MPD2    N1  818   2.657   1.928   1.245 -0.2713 -0.6928 -0.2614
   52MPD2    H7  819   2.618   1.971   1.162  0.7817 -1.2734 -1.0567
   53TMC2    C1  820   2.102   1.840  11.314  0.5763 -0.6563 -0.0944
   53TMC2    C2  821   2.225   1.808  11.270 -0.0543 -0.3982  0.1489
   53TMC2    C3  822   2.320   1.774  11.360 -0.3313 -0.0916 -0.3431
   53TMC2    C4  823   2.078   1.847  11.446 -0.1848 -0.0995  0.2236
   53TMC2    C5  824   2.174   1.808  11.529  0.6322 -0.2460 -0.4927
   53TMC2    C6  825   2.298   1.752  11.489 -0.4718 -0.5020  0.3197
   53TMC2     C  826   1.996   1.780  11.236 -0.3337 -0.8455 -0.4901
   53TMC2     O  827   2.020   1.752  11.120 -0.1069  0.4879  0.6490
   53TMC2     H  828   2.249   1.805  11.165  0.0082  0.7927  0.1252
   53TMC2    H1  829   1.987   1.893  11.482  1.8630  1.1064  3.8654
   53TMC2    H2  830   2.366   1.716  11.566  1.5554  0.5783 -0.9742
   53TMC2    C7  831   2.123   1.784  11.668 -1.1047  0.0514  0.4308
   53TMC2    C8  832   2.449   1.738  11.300  0.0740 -0.2919 -0.1080
   53TMC2    O1  833   2.045   1.865  11.718  0.5306 -0.2265 -0.0862
   53TMC2    O2  834   2.482   1.761  11.184 -0.7317 -0.3069 -0.0715
   53TMC2    O5  835   2.488   1.631  11.368 -0.3137 -0.3805 -0.2307
   53TMC2    H5  836   2.439   1.612  11.451 -1.0933 -1.2111 -0.8779
   54MPD2     C  837   1.757   1.622  11.156 -0.0374 -0.4094 -0.3349
   54MPD2    C1  838   1.773   1.674  11.283  0.3624  0.0061  0.3366
   54MPD2    C2  839   1.678   1.651  11.378 -0.7307  0.6179 -0.0370
   54MPD2    C3  840   1.565   1.583  11.346  1.1384  0.1481 -0.0929
   54MPD2    C4  841   1.546   1.543  11.218  0.4468 -0.4210  0.6488
   54MPD2    C5  842   1.644   1.554  11.126 -0.3788 -0.8396  0.6427
   54MPD2     H  843   1.701   1.691  11.476 -0.5313  1.1316 -0.2893
   54MPD2    H1  844   1.458   1.486  11.191  0.0972  0.2670  0.3187
   54MPD2    H2  845   1.831   1.624  11.077  3.1012  0.3309  2.6298
   54MPD2    H3  846   1.630   1.520  11.024  3.4648 -2.0195  0.5015
   54MPD2     N  847   1.470   1.540  11.437  0.6763 -0.4164 -0.6581
   54MPD2    H5  848   1.382   1.503  11.402  0.1952  1.2718 -1.2413
   54MPD2    N1  849   1.887   1.754  11.316  0.1095 -0.4096 -0.2694
   54MPD2    H7  850   1.897   1.784  11.412  0.7459  0.8391 -0.7258
   55TMC2    C1  851   2.890   4.500  17.613 -0.2030  0.2070  0.0535
   55TMC2    C2  852   2.903   4.512  17.473 -0.4865  0.7317  0.1403
   55TMC2    C3  853   2.914   4.394  17.403  0.3240 -0.1266 -0.9132
   55TMC2    C4  854   2.888   4.381  17.677  0.2985 -1.0965 -0.1392
   55TMC2    C5  855   2.883   4.265  17.602  0.1110 -0.2902 -1.2955
   55TMC2    C6  856   2.908   4.270  17.463  0.0265 -0.0045 -0.4574
   55TMC2     C  857   2.864   4.612  17.698 -0.1926 -0.0824 -0.1848
   55TMC2     O  858   2.854   4.595   0.079  0.0737 -0.3511 -0.3035
   55TMC2     H  859   2.904   4.599  17.408 -0.3121  1.1815  0.7407
   55TMC2    H1  860   2.868   4.375   0.045  0.8986 -0.4860  0.0066
   55TMC2    H2  861   2.921   4.181  17.402  0.9479 -0.2262  0.0659
   55TMC2    C7  862   2.893   4.134  17.657  0.0640 -0.1822  0.6780
   55TMC2    C8  863   2.940   4.403  17.260 -0.5277 -0.2695 -0.1378
   55TMC2    O1  864   2.946   4.053  17.587  0.2786 -0.0966 -0.4444
   55TMC2    O2  865   2.869   4.481  17.200  0.6756 -0.3243  0.2982
   55TMC2    O5  866   3.007   4.294  17.213 -0.2468  0.0443  0.5432
   55TMC2    H5  867   3.062   4.252  17.283  0.8149  2.0761  0.9249
   56MPD2     C  868   2.728   0.208  17.584 -0.0230 -0.2772 -0.1510
   56MPD2    C1  869   2.752   0.107  17.674  0.3668 -0.7608  0.0606
   56MPD2    C2  870   2.711   0.118   0.065 -0.3955  0.6875 -0.3643
   56MPD2    C3  871   2.645   0.230   0.106  0.0558  0.1586  0.1298
   56MPD2    C4  872   2.626   0.334   0.017 -1.0641  0.0252 -0.4544
   56MPD2    C5  873   2.674   0.327  17.629  0.0772  0.5034 -0.1607
   56MPD2     H  874   2.717   0.034   0.133 -0.1046  0.6231 -0.4685
   56MPD2    H1  875   2.582   0.429   0.044  2.2614  1.2916  0.5731
   56MPD2    H2  876   2.762   0.206  17.482 -0.2402  0.3586 -0.2361
   56MPD2    H3  877   2.657   0.409  17.560 -0.8694  0.7526  0.3718
   56MPD2     N  878   2.594   0.231   0.240  0.1638  0.1703  0.5754
   56MPD2    H5  879   2.598   0.140   0.285 -0.6080  0.4712  1.2534
   56MPD2    N1  880   2.811   4.718  17.624  0.1565 -0.1260  0.5367
   56MPD2    H7  881   2.815   4.707  17.523 -1.2350 -0.8770  0.5717
   57TMC2    C1  882   2.467   0.081  14.022  0.2587  0.1831 -0.5590
   57TMC2    C2  883   2.536   0.064  14.140 -0.2807  0.0314  0.0886
   57TMC2    C3  884   2.665   0.022  14.137 -0.2335  0.2714 -0.0814
   57TMC2    C4  885   2.533   0.051  13.901 -0.2278 -0.0792 -0.5128
   57TMC2    C5  886   2.666   0.031  13.901  0.2988 -0.2219  0.0409
   57TMC2    C6  887   2.733   0.002  14.018 -0.1055 -0.2268 -0.1267
   57TMC2     C  888   2.319   0.080  14.026 -0.3362 -0.2786  0.2745
   57TMC2     O  889   2.254   0.056  13.927 -0.6784  0.2730  0.0058
   57TMC2     H  890   2.510   0.112  14.233  1.1754 -1.4222  1.2356
   57TMC2    H1  891   2.470   0.067  13.814  0.7115 -2.6024 -1.6768
   57TMC2    H2  892   2.840   4.720  14.020  0.3140  2.3204 -0.5564
   57TMC2    C7  893   2.708   4.710  13.778 -0.4349  0.7241  0.6125
   57TMC2    C8  894   2.739   4.729  14.253 -0.3129 -0.2946 -0.0339
   57TMC2    O1  895   2.770   4.605  13.779 -0.3853  0.5118  0.0936
   57TMC2    O2  896   2.859   4.732  14.258 -0.2641 -0.4882  0.5007
   57TMC2    O5  897   2.671   4.632  14.315  0.3345 -0.6231 -0.3150
   57TMC2    H5  898   2.573   4.635  14.309  0.2800 -0.6700  0.5297
   58MPD2     C  899   1.910   0.165  14.343  0.5957  0.5639 -0.0031
   58MPD2    C1  900   1.910   0.108  14.217 -0.5796  0.2709  0.5900
   58MPD2    C2  901   2.030   0.086  14.152 -0.0178  0.1332 -0.1144
   58MPD2    C3  902   2.152   0.128  14.206 -0.4966 -0.2530  0.4917
   58MPD2    C4  903   2.138   0.207  14.321 -0.0300  0.6960 -0.0350
   58MPD2    C5  904   2.021   0.218  14.390  0.1071 -0.2536  0.1104
   58MPD2     H  905   2.032   0.030  14.059  2.9336  1.0720 -0.6270
   58MPD2    H1  906   2.226   0.242  14.374  0.3813 -0.8087  0.2649
   58MPD2    H2  907   1.824   0.186  14.406  0.7818  1.0940  0.0795
   58MPD2    H3  908   2.016   0.282  14.478 -0.7242 -2.7152  1.8449
   58MPD2     N  909   2.281   0.112  14.153  0.0756  0.3324 -0.0208
   58MPD2    H5  910   2.353   0.118  14.224 -0.9632  1.1541  0.9496
   58MPD2    N1  911   1.792   0.062  14.147 -0.0559 -0.3942  0.1802
   58MPD2    H7  912   1.811   0.027  14.053 -1.0584 -3.2033  1.0168
   59TMC2    C1  913   4.161   4.666  12.774  0.2756  0.1938 -0.1807
   59TMC2    C2  914   4.032   4.628  12.762 -0.6557  0.0048  0.1263
   59TMC2    C3  915   3.956   4.697  12.673  0.7597  0.6567 -0.0672
   59TMC2    C4  916   4.216   0.023  12.696  0.1537  0.5981 -0.6542
   59TMC2    C5  917   4.136   0.092  12.610 -0.0503  0.1619  0.5194
   59TMC2    C6  918   4.005   0.060  12.590  0.2470 -0.1032 -0.5668
   59TMC2     C  919   4.211   4.646  12.905  0.1828  0.6967 -0.8620
   59TMC2     O  920   4.170   4.547  12.968  0.6166  0.1307  0.1918
   59TMC2     H  921   3.990   4.550  12.824 -1.7334  1.3011  1.0282
   59TMC2    H1  922   4.323   0.044  12.699  0.2245 -0.1303  2.0237
   59TMC2    H2  923   3.949   0.099  12.505  0.4015  1.5526  0.0816
   59TMC2    C7  924   4.206   0.198  12.539 -0.2762  0.5567 -0.0996
   59TMC2    C8  925   3.822   4.643  12.642 -0.8150 -0.3063  0.6464
   59TMC2    O1  926   4.329   0.207  12.534  0.1485  0.1133 -0.1303
   59TMC2    O2  927   3.787   4.535  12.679 -0.7609  0.0953  0.1254
   59TMC2    O5  928   3.746   0.010  12.599 -0.7214  0.4107  0.0588
   59TMC2    H5  929   3.790   0.097  12.612 -1.2100  0.9890 -2.0661
   60MPD2     C  930   4.286   4.693  13.193 -0.4715  0.5190 -0.2243
   60MPD2    C1  931   4.319   0.042  13.088  0.6561 -0.0638  0.1023
   60MPD2    C2  932   4.406   0.146  13.116 -0.4680 -0.1366  0.2607
   60MPD2    C3  933   4.451   0.180  13.244  0.5541  0.0923 -0.1732
   60MPD2    C4  934   4.407   0.095  13.342  0.4640  0.5599  0.5212
   60MPD2    C5  935   4.329   4.721  13.318  0.5475  0.0833 -0.6127
   60MPD2     H  936   4.442   0.209  13.036  0.3491 -1.9690 -0.8022
   60MPD2    H1  937   4.435   0.107  13.446 -0.2858  0.7890  0.7004
   60MPD2    H2  938   4.211   4.616  13.177  0.7131 -0.7825  0.4603
   60MPD2    H3  939   4.289   4.661  13.399 -0.8271  1.2510 -0.4268
   60MPD2     N  940   4.524   0.291  13.278 -0.1229 -0.0522  0.5796
   60MPD2    H5  941   4.550   0.296  13.376 -1.7700  2.3357  0.8942
   60MPD2    N1  942   4.287   0.014  12.952  0.1306  0.0998  0.0373
   60MPD2    H7  943   4.292   0.098  12.895  0.8622 -1.3446 -2.0491
   61TMC2    C1  944   3.603   1.843  15.998  0.3251  0.4128 -0.2359
   61TMC2    C2  945   3.537   1.807  16.105 -0.0109 -0.0684 -0.7478
   61TMC2    C3  946   3.509   1.908  16.201 -0.5939  0.2085  0.4363
   61TMC2    C4  947   3.662   1.974  15.986  0.3900 -0.5422 -0.8212
   61TMC2    C5  948   3.631   2.067  16.083  0.0514 -0.4465  0.0244
   61TMC2    C6  949   3.556   2.033  16.191  0.1571  0.4371 -0.2390
   61TMC2     C  950   3.624   1.737  15.894 -0.1225  0.2414  0.7528
   61TMC2     O  951   3.596   1.618  15.925  0.1956  0.9564 -0.0208
   61TMC2     H  952   3.496   1.708  16.119 -1.8307  0.8660  0.4670
   61TMC2    H1  953   3.722   1.991  15.897 -0.7124  1.2123 -1.2416
   61TMC2    H2  954   3.552   2.099  16.276 -0.4222 -0.0845  0.1355
   61TMC2    C7  955   3.672   2.201  16.065 -0.0211  0.1879 -0.4387
   61TMC2    C8  956   3.430   1.864  16.317  0.2848  0.6647  0.5533
   61TMC2    O1  957   3.774   2.220  16.005  0.1136  0.0919 -0.4989
   61TMC2    O2  958   3.388   1.749  16.329  0.6953 -0.2049 -0.1766
   61TMC2    O5  959   3.376   1.963  16.388  0.0753 -0.0012  0.3593
   61TMC2    H5  960   3.371   2.054  16.351  2.6062  1.5084  3.6398
   62MPD2     C  961   3.805   1.578  15.720 -0.0146  0.3032  0.5141
   62MPD2    C1  962   3.770   1.708  15.691  0.5152 -0.0152 -0.6904
   62MPD2    C2  963   3.816   1.769  15.584  0.4452  0.1727  0.8621
   62MPD2    C3  964   3.884   1.695  15.483 -1.0280  0.3855 -0.3964
   62MPD2    C4  965   3.909   1.562  15.508 -0.1064 -0.1192  0.0011
   62MPD2    C5  966   3.873   1.506  15.629  0.1119  0.5857 -0.3786
   62MPD2     H  967   3.800   1.876  15.575 -4.1506 -0.4735  1.3682
   62MPD2    H1  968   3.978   1.508  15.444  2.1544  0.5919  1.8308
   62MPD2    H2  969   3.782   1.528  15.813 -0.3792 -1.2141 -0.3914
   62MPD2    H3  970   3.903   1.402  15.641 -1.0107  0.3996  0.7919
   62MPD2     N  971   3.926   1.756  15.353 -0.3506 -0.3016 -0.3613
   62MPD2    H5  972   3.984   1.703  15.289  0.9279  0.6620 -0.0091
   62MPD2    N1  973   3.694   1.782  15.785 -0.3831 -0.1289  0.1622
   62MPD2    H7  974   3.687   1.882  15.767 -1.0273  0.1188  1.8000
   63TMC2    C1  975   2.842   2.152  10.141  0.3489 -0.1765 -0.3822
   63TMC2    C2  976   2.973   2.145  10.181 -0.5234 -0.2191  0.1958
   63TMC2    C3  977   3.052   2.250  10.151  0.5055  0.0429  0.1773
   63TMC2    C4  978   2.786   2.272  10.107  0.6091  0.5477  0.1343
   63TMC2    C5  979   2.871   2.377  10.082 -0.2207  0.3718 -0.3578
   63TMC2    C6  980   3.002   2.364  10.107  0.6191  0.3949  0.4864
   63TMC2     C  981   2.739   2.057  10.184  0.1316  0.2935  0.2283
   63TMC2     O  982   2.630   2.088  10.154 -0.0981  0.1724  0.1501
   63TMC2     H  983   3.020   2.049  10.194  0.4607  0.3111  0.5938
   63TMC2    H1  984   2.684   2.280  10.070  0.9295  1.6704 -0.4833
   63TMC2    H2  985   3.075   2.442  10.089  0.9006 -0.2222 -1.0618
   63TMC2    C7  986   2.803   2.496  10.060  0.0741  0.0162  0.2259
   63TMC2    C8  987   3.195   2.246  10.175 -0.2280  0.1452  0.0246
   63TMC2    O1  988   2.688   2.509  10.084  0.6833 -0.1736  0.0214
   63TMC2    O2  989   3.269   2.330  10.120 -0.4488 -0.0374 -0.5684
   63TMC2    O5  990   3.217   2.168  10.284  0.0680 -0.0593  0.0761
   63TMC2    H5  991   3.134   2.135  10.326  0.3385  1.1804  1.5915
   64MPD2     C  992   2.553   1.648  10.422  1.0366 -0.3961 -0.5048
   64MPD2    C1  993   2.689   1.644  10.428 -0.4360  0.4123  0.7505
   64MPD2    C2  994   2.763   1.742  10.371  0.0385  0.0447 -0.3841
   64MPD2    C3  995   2.702   1.863  10.326  0.4830 -0.4360 -0.8455
   64MPD2    C4  996   2.568   1.874  10.326  0.5055  0.8477 -0.1853
   64MPD2    C5  997   2.493   1.760  10.372  0.1460 -0.1379  0.4337
   64MPD2     H  998   2.870   1.725  10.379 -0.2147 -1.5275 -0.4212
   64MPD2    H1  999   2.508   1.959  10.296 -2.6803 -1.5638 -0.5776
   64MPD2    H2 1000   2.499   1.556  10.440  1.9103 -0.1402  3.2950
   64MPD2    H3 1001   2.385   1.761  10.378  0.1571  0.7013  0.5676
   64MPD2     N 1002   2.785   1.956  10.267 -0.3458 -0.7946 -0.0261
   64MPD2    H5 1003   2.884   1.937  10.279 -0.0107  1.5453  0.8306
   64MPD2    N1 1004   2.758   1.525  10.471 -0.0650 -0.0698 -0.2173
   64MPD2    H7 1005   2.859   1.520  10.458 -0.2165 -1.1017 -1.0041
   65TMC2    C1 1006   4.645   1.604  15.845 -0.6287  0.0180  0.5228
   65TMC2    C2 1007   4.685   1.551  15.728 -0.1818  0.1795  0.6666
   65TMC2    C3 1008   4.680   1.633  15.616 -0.2629  0.4078 -0.7477
   65TMC2    C4 1009   4.602   1.733  15.858  0.0359  0.7940 -0.2067
   65TMC2    C5 1010   4.599   1.808  15.743  0.0194 -0.1194  0.3718
   65TMC2    C6 1011   4.639   1.765  15.618  0.0141  0.0502  0.3621
   65TMC2     C 1012   4.600   1.522  15.956 -0.3503 -1.4103  0.9656
   65TMC2     O 1013   4.614   1.589  16.061 -0.1702 -0.1662 -0.0036
   65TMC2     H 1014   0.001   1.456  15.717 -1.8407 -0.4461 -1.6270
   65TMC2    H1 1015   4.559   1.768  15.951 -2.6889 -2.0163 -0.4367
   65TMC2    H2 1016   4.630   1.822  15.526  1.6029  1.8121  1.3163
   65TMC2    C7 1017   4.521   1.932  15.737 -0.4274  0.3241  0.5341
   65TMC2    C8 1018   0.027   1.589  15.501  0.5154 -0.0223  0.4548
   65TMC2    O1 1019   4.561   2.027  15.667  0.3011 -0.0236  0.8640
   65TMC2    O2 1020   0.064   1.476  15.469  0.0347  0.0456  0.5054
   65TMC2    O5 1021   0.110   1.698  15.492  0.0228 -0.2704  0.3941
   65TMC2    H5 1022   0.083   1.770  15.553 -0.6610 -1.8567  1.9283
   66MPD2     C 1023   4.489   1.331  16.155  0.0937 -0.6146  0.1372
   66MPD2    C1 1024   4.498   1.310  16.019 -0.3603  0.5839  0.2861
   66MPD2    C2 1025   4.445   1.193  15.962 -0.4559 -0.0360 -0.5114
   66MPD2    C3 1026   4.400   1.095  16.044 -0.2588  0.3076  0.1805
   66MPD2    C4 1027   4.379   1.117  16.178  0.1563  0.4023  0.3690
   66MPD2    C5 1028   4.429   1.233  16.228 -0.1883 -0.5969 -0.0278
   66MPD2     H 1029   4.454   1.173  15.855  1.2905  0.3045 -0.4363
   66MPD2    H1 1030   4.345   1.038  16.244 -0.2532  1.0414  0.9304
   66MPD2    H2 1031   4.531   1.416  16.208 -1.7995  0.0802  0.5398
   66MPD2    H3 1032   4.414   1.243  16.335 -1.6790 -0.2793 -0.2670
   66MPD2     N 1033   4.361   0.965  16.005  0.8095  0.3369 -0.0792
   66MPD2    H5 1034   4.318   0.911  16.080 -1.4279  1.5154 -0.5190
   66MPD2    N1 1035   4.557   1.397  15.924  0.3377 -0.0435 -0.4519
   66MPD2    H7 1036   4.553   1.372  15.826 -2.4759  1.2111 -0.6538
   67TMC2    C1 1037   4.497   0.436  14.554  0.1930  0.0562  0.1972
   67TMC2    C2 1038   4.381   0.416  14.632  0.3753  0.2401  0.7873
   67TMC2    C3 1039   4.378   0.487  14.752 -0.3136  0.6139  0.1520
   67TMC2    C4 1040   4.597   0.516  14.589  0.0722 -0.4086  0.2254
   67TMC2    C5 1041   4.596   0.572  14.712  0.5393  0.3936 -0.0476
   67TMC2    C6 1042   4.482   0.570  14.788 -0.8174  0.3550 -0.0868
   67TMC2     C 1043   4.518   0.357  14.437  0.0106  0.4957  0.1330
   67TMC2     O 1044   4.634   0.342  14.394 -0.5361  0.7598  0.0886
   67TMC2     H 1045   4.306   0.344  14.601  0.1542  0.8237 -0.0097
   67TMC2    H1 1046   4.696   0.516  14.543 -0.8933 -3.1845 -1.9049
   67TMC2    H2 1047   4.469   0.641  14.868 -1.7972 -0.2304  0.2718
   67TMC2    C7 1048   4.716   0.592  14.783 -0.0502  0.1679  0.1095
   67TMC2    C8 1049   4.267   0.480  14.845  0.3492 -0.2879  0.2205
   67TMC2    O1 1050   0.085   0.578  14.718  0.0776  0.2157 -0.3045
   67TMC2    O2 1051   4.243   0.562  14.933  0.2916 -0.4556  0.3480
   67TMC2    O5 1052   4.205   0.360  14.819 -0.1585  0.2167 -0.5235
   67TMC2    H5 1053   4.250   0.299  14.756 -0.0275 -0.1132 -0.1101
   68MPD2     C 1054   4.472   0.202  14.174  0.2015  0.4038  0.6919
   68MPD2    C1 1055   4.374   0.243  14.267 -0.5477  0.3062  0.2622
   68MPD2    C2 1056   4.240   0.245  14.227  0.3210 -0.3659  0.5149
   68MPD2    C3 1057   4.210   0.201  14.097  0.3851 -0.0834  0.7481
   68MPD2    C4 1058   4.313   0.168  14.016 -0.0969  0.0599 -0.6678
   68MPD2    C5 1059   4.441   0.157  14.053 -0.6069 -0.1813  0.0683
   68MPD2     H 1060   4.170   0.286  14.299 -1.7961 -1.9091 -0.6547
   68MPD2    H1 1061   4.298   0.145  13.911 -0.2665 -1.7264 -0.2401
   68MPD2    H2 1062   4.576   0.214  14.199  0.5562  2.6650 -1.8783
   68MPD2    H3 1063   4.521   0.135  13.983  0.0675  1.8531  0.2121
   68MPD2     N 1064   4.074   0.215  14.055  0.6613  0.7310 -0.4987
   68MPD2    H5 1065   4.062   0.210  13.954 -1.1382 -0.9946 -0.2156
   68MPD2    N1 1066   4.401   0.309  14.386  0.3513 -0.3721 -0.1076
   68MPD2    H7 1067   4.314   0.339  14.430 -0.4528 -3.0347  0.0962
   69TMC2    C1 1068   2.169   1.760  12.231  0.5402 -0.1994 -0.1223
   69TMC2    C2 1069   2.114   1.887  12.249 -0.3674  0.1661  0.1116
   69TMC2    C3 1070   2.175   1.992  12.189 -0.2560 -0.4283  0.3746
   69TMC2    C4 1071   2.256   1.742  12.131 -0.0874 -0.7126  0.2135
   69TMC2    C5 1072   2.297   1.849  12.056 -0.3916  0.6118 -0.2838
   69TMC2    C6 1073   2.266   1.979  12.089  0.2754  0.5214  0.0913
   69TMC2     C 1074   2.119   1.653  12.314 -0.3320  0.4779 -0.2248
   69TMC2     O 1075   2.030   1.680  12.390  0.1191 -0.3546  0.1565
   69TMC2     H 1076   2.042   1.898  12.330 -0.4579 -0.3605  0.1043
   69TMC2    H1 1077   2.284   1.645  12.091  0.5384 -1.0703  1.5389
   69TMC2    H2 1078   2.314   2.067  12.048 -0.4284  1.3094  0.9769
   69TMC2    C7 1079   2.402   1.819  11.955  1.0237  0.3206 -0.2589
   69TMC2    C8 1080   2.107   2.112  12.211  0.2991 -0.2595  0.2217
   69TMC2    O1 1081   2.453   1.708  11.952  0.4755 -0.0130 -0.2797
   69TMC2    O2 1082   2.043   2.139  12.314 -0.1345  0.0147 -0.2549
   69TMC2    O5 1083   2.113   2.183  12.098 -0.1429 -0.7621  0.0843
   69TMC2    H5 1084   2.158   2.131  12.029  0.4068 -0.1181 -0.0439
   70MPD2     C 1085   2.259   1.318  12.346 -0.1653  1.1129 -0.1098
   70MPD2    C1 1086   2.170   1.421  12.372  0.8544  1.1598 -0.1554
   70MPD2    C2 1087   2.075   1.403  12.470  0.2059  0.3080  0.3814
   70MPD2    C3 1088   2.081   1.294  12.552 -0.1123 -0.0125  0.5097
   70MPD2    C4 1089   2.173   1.194  12.520 -0.5014 -0.8566 -0.6138
   70MPD2    C5 1090   2.269   1.203  12.423 -0.7501  0.4999  0.3145
   70MPD2     H 1091   2.015   1.484  12.509  1.3559  1.0315  0.6534
   70MPD2    H1 1092   2.181   1.112  12.591  2.1180  0.4705  0.6037
   70MPD2    H2 1093   2.341   1.327  12.276  0.1929  1.5239  0.3619
   70MPD2    H3 1094   2.345   1.127  12.412 -0.1426  1.4318 -1.8683
   70MPD2     N 1095   1.998   1.270  12.660 -0.5472 -0.1858 -0.1667
   70MPD2    H5 1096   2.025   1.187  12.711 -0.6617 -1.6462 -2.4691
   70MPD2    N1 1097   2.193   1.540  12.301  0.0777 -0.9480 -0.6332
   70MPD2    H7 1098   2.269   1.544  12.234  0.1110  0.5019 -0.5098
   71TMC2    C1 1099   3.610   1.537   2.159  0.5618 -0.2408  0.3608
   71TMC2    C2 1100   3.624   1.423   2.237  0.6359 -0.0670 -0.0496
   71TMC2    C3 1101   3.514   1.361   2.282  0.5023 -0.0034  0.1463
   71TMC2    C4 1102   3.486   1.587   2.137  0.1766  0.5579 -0.0636
   71TMC2    C5 1103   3.373   1.520   2.175  0.2639 -0.2572  0.4022
   71TMC2    C6 1104   3.389   1.410   2.260 -0.9346 -0.4697 -1.0768
   71TMC2     C 1105   3.719   1.589   2.084 -0.2431  0.5448 -0.1594
   71TMC2     O 1106   3.688   1.669   1.991 -0.1545 -0.2280  0.2472
   71TMC2     H 1107   3.717   1.369   2.249  2.2123  2.1986 -1.9687
   71TMC2    H1 1108   3.476   1.683   2.090 -0.3215  0.5419  0.0101
   71TMC2    H2 1109   3.306   1.357   2.307 -0.4693 -1.5489 -1.4619
   71TMC2    C7 1110   3.244   1.589   2.159 -0.4943 -0.6618 -0.4141
   71TMC2    C8 1111   3.512   1.230   2.329  0.5505 -1.0322 -0.8294
   71TMC2    O1 1112   3.161   1.552   2.238 -0.9505  0.4840 -0.4228
   71TMC2    O2 1113   3.436   1.155   2.274 -0.0480 -0.1220 -0.1567
   71TMC2    O5 1114   3.633   1.205   2.381 -0.1406  0.0030 -0.5844
   71TMC2    H5 1115   3.682   1.281   2.419  0.4238 -0.5991 -0.1022
   72MPD2     C 1116   4.205   1.736   1.988  0.1816  0.0502 -0.5351
   72MPD2    C1 1117   4.084   1.774   1.932  0.2147 -0.5753  0.4140
   72MPD2    C2 1118   3.966   1.717   1.974  0.9824  0.7823  0.5905
   72MPD2    C3 1119   3.964   1.612   2.066  0.0327 -0.2535 -0.0100
   72MPD2    C4 1120   4.080   1.568   2.120  0.0317 -0.1071  0.8379
   72MPD2    C5 1121   4.195   1.635   2.085 -0.2369  0.5380  0.0576
   72MPD2     H 1122   3.874   1.749   1.928  1.0990 -0.4788 -0.4860
   72MPD2    H1 1123   4.078   1.492   2.197 -0.4738 -1.1794 -0.2315
   72MPD2    H2 1124   4.303   1.778   1.967 -0.0151 -0.1449 -1.8908
   72MPD2    H3 1125   4.283   1.597   2.136 -0.2486 -0.0282 -0.3369
   72MPD2     N 1126   3.845   1.550   2.116  0.3466  0.2804  0.3219
   72MPD2    H5 1127   3.854   1.470   2.178  0.5855 -0.0979 -0.2034
   72MPD2    N1 1128   4.077   1.879   1.840 -0.2967  0.5189  0.1230
   72MPD2    H7 1129   3.983   1.906   1.814 -0.8117 -0.5399  0.8787
   73TMC2    C1 1130   3.563   4.126  14.172 -0.3504 -0.3325 -0.2299
   73TMC2    C2 1131   3.505   4.135  14.294 -0.3526  1.0963  0.2480
   73TMC2    C3 1132   3.498   4.027  14.373  0.4542  0.2324  0.7355
   73TMC2    C4 1133   3.625   4.009  14.137 -0.1271  0.2511  0.1194
   73TMC2    C5 1134   3.642   3.912  14.233  0.2622 -0.3676  0.0134
   73TMC2    C6 1135   3.573   3.916  14.352 -0.0232 -0.4102  0.0757
   73TMC2     C 1136   3.634   4.240  14.114  0.1538 -0.0855  0.7342
   73TMC2     O 1137   3.746   4.205  14.078  0.2441 -0.5623  0.5025
   73TMC2     H 1138   3.462   4.228  14.331 -2.0856  0.7698 -0.9203
   73TMC2    H1 1139   3.671   4.001  14.039 -0.7366 -1.6903 -0.0043
   73TMC2    H2 1140   3.586   3.839  14.426 -2.1415  0.1459  1.0426
   73TMC2    C7 1141   3.783   3.865  14.241  0.3984 -0.3097 -0.2849
   73TMC2    C8 1142   3.393   4.036  14.475  0.6574  0.8958  0.0881
   73TMC2    O1 1143   3.812   3.774  14.318 -0.1127  0.2127  0.0388
   73TMC2    O2 1144   3.306   4.126  14.486 -0.6150  0.5543  0.2253
   73TMC2    O5 1145   3.445   3.985  14.585  0.9179  0.1002  0.3099
   73TMC2    H5 1146   3.541   3.975  14.569  0.7374 -0.9310 -0.1422
   74MPD2     C 1147   3.765   4.707  13.957 -0.5564 -1.1091 -0.4019
   74MPD2    C1 1148   3.843   4.601  14.006  0.5970 -0.0595  0.1948
   74MPD2    C2 1149   3.777   4.492  14.068  0.0161  0.0986  0.6857
   74MPD2    C3 1150   3.636   4.483  14.069 -0.3023 -0.5088 -0.8841
   74MPD2    C4 1151   3.570   4.593  14.026 -0.2721 -0.1291 -0.5298
   74MPD2    C5 1152   3.625   4.711  13.986  0.1640 -0.0672 -0.2223
   74MPD2     H 1153   3.842   4.422  14.119 -0.5200 -0.6028  0.4111
   74MPD2    H1 1154   3.462   4.585  14.039 -0.2834 -2.3051 -2.1267
   74MPD2    H2 1155   3.806   0.065  13.920  1.8976 -1.0204  2.5471
   74MPD2    H3 1156   3.570   0.064  13.956 -1.2706 -2.0412 -3.2952
   74MPD2     N 1157   3.568   4.361  14.113 -0.6145 -0.1976  0.0079
   74MPD2    H5 1158   3.467   4.347  14.121 -0.5688 -0.6906 -0.2865
   74MPD2    N1 1159   3.986   4.614  14.010  0.2146 -0.5103 -0.1632
   74MPD2    H7 1160   4.024   4.703  13.981  0.5136 -1.2533 -2.0878
   75TMC2    C1 1161   3.844   0.294  14.059  0.3796  0.3227  0.9456
   75TMC2    C2 1162   3.743   0.326  14.142  0.1754 -0.0978  1.3326
   75TMC2    C3 1163   3.648   0.414  14.104 -0.2811  0.2366  0.1000
   75TMC2    C4 1164   3.853   0.348  13.932 -0.4089  0.1987 -1.4336
   75TMC2    C5 1165   3.757   0.449  13.898 -0.1443  0.0090 -0.1723
   75TMC2    C6 1166   3.656   0.480  13.984 -0.1075 -0.1472  0.3643
   75TMC2     C 1167   3.968   0.262  14.130  0.3512 -0.0425 -0.2171
   75TMC2     O 1168   3.968   0.281  14.250  0.1678  0.2549 -0.3492
   75TMC2     H 1169   3.748   0.287  14.243  1.1478  0.0280  1.3350
   75TMC2    H1 1170   3.932   0.326  13.861  3.4609  1.2393  2.6142
   75TMC2    H2 1171   3.586   0.557  13.954  1.1590  1.2169  0.9244
   75TMC2    C7 1172   3.733   0.480  13.760  0.5991  0.4591  0.6756
   75TMC2    C8 1173   3.541   0.453  14.196  0.3739 -1.1740 -0.2990
   75TMC2    O1 1174   3.756   0.397  13.677  0.2598  0.3831  0.0988
   75TMC2    O2 1175   3.488   0.562  14.184  0.0040  0.3263  0.9463
   75TMC2    O5 1176   3.500   0.340  14.253  0.2846  0.1567  0.2247
   75TMC2    H5 1177   3.564   0.265  14.250  0.6988  0.5289 -0.1635
   76TMC2    C1 1178   2.989   0.758  12.078 -0.5617  1.0684 -0.0501
   76TMC2    C2 1179   2.962   0.626  12.079  0.4360 -0.0567  0.2521
   76TMC2    C3 1180   2.966   0.556  12.197  0.4510 -0.0756 -0.6770
   76TMC2    C4 1181   3.013   0.816  12.199 -0.1800 -0.0829 -0.4954
   76TMC2    C5 1182   3.018   0.744  12.319  0.4499  0.6130  0.0566
   76TMC2    C6 1183   2.996   0.610  12.317 -0.2070  0.0476  0.1030
   76TMC2     C 1184   2.958   0.849  11.971 -0.4604  1.0061  0.2261
   76TMC2     O 1185   3.006   0.959  11.985 -0.4468  0.3937 -0.8321
   76TMC2     H 1186   2.955   0.581  11.981  0.9073 -0.8386  0.5789
   76TMC2    H1 1187   3.029   0.922  12.214  0.3923 -0.2206 -0.1565
   76TMC2    H2 1188   3.000   0.544  12.402  2.1302 -0.4995 -0.4382
   76TMC2    C7 1189   3.080   0.805  12.437 -0.5473  0.3145 -0.2754
   76TMC2    C8 1190   2.944   0.409  12.195 -0.5785 -0.2549 -0.1510
   76TMC2    O1 1191   3.131   0.716  12.504 -0.5412  0.1840 -0.2221
   76TMC2    O2 1192   2.977   0.335  12.289 -0.3565  0.4100 -0.2098
   76TMC2    O5 1193   2.869   0.366  12.091 -0.3203  0.1551  0.1355
   76TMC2    H5 1194   2.826   0.436  12.038 -1.5224 -0.7550 -0.0935
   77MPD2     C 1195   2.728   0.974  11.533 -0.4637  0.1372 -0.7438
   77MPD2    C1 1196   2.808   1.046  11.619  0.1409 -1.1353 -0.1760
   77MPD2    C2 1197   2.868   0.986  11.724 -0.1417 -0.0941  0.1113
   77MPD2    C3 1198   2.839   0.849  11.750  0.2218  0.4286  0.3480
   77MPD2    C4 1199   2.765   0.777  11.659 -0.0992  0.0308 -0.3257
   77MPD2    C5 1200   2.710   0.840  11.554 -0.7025  0.3440  0.5280
   77MPD2     H 1201   2.907   1.051  11.802  0.5359  2.2359 -2.1684
   77MPD2    H1 1202   2.743   0.671  11.669 -1.9469  0.4279 -0.2081
   77MPD2    H2 1203   2.672   1.014  11.449  0.7078 -0.0275 -1.6097
   77MPD2    H3 1204   2.655   0.789  11.476  0.9695 -0.5289 -0.0719
   77MPD2     N 1205   2.888   0.786  11.868  0.5918  0.3412 -0.6626
   77MPD2    H5 1206   2.854   0.691  11.871  2.6303 -0.4396 -1.9465
   77MPD2    N1 1207   2.846   1.179  11.593 -0.7212 -0.0919 -0.1243
   77MPD2    H7 1208   2.923   1.226  11.640 -0.5654  1.1075 -1.5716
   78TMC2    C1 1209   0.323   1.241   2.115 -0.7713  0.5824  0.2833
   78TMC2    C2 1210   0.298   1.342   2.204  0.4614 -0.3427 -0.3711
   78TMC2    C3 1211   0.350   1.468   2.176  0.1228  0.1460  0.5113
   78TMC2    C4 1212   0.397   1.265   2.000 -0.7396 -0.0194 -0.0343
   78TMC2    C5 1213   0.446   1.391   1.973 -0.0722 -0.2820 -0.6061
   78TMC2    C6 1214   0.417   1.494   2.059  0.1958  0.3708  0.3961
   78TMC2     C 1215   0.295   1.102   2.162  0.4560 -0.0470  0.1124
   78TMC2     O 1216   0.361   1.014   2.108 -0.0747 -0.4617  0.3718
   78TMC2     H 1217   0.248   1.329   2.300 -0.8852  0.8730 -0.9190
   78TMC2    H1 1218   0.419   1.175   1.942 -0.2125 -1.0513  1.7672
   78TMC2    H2 1219   0.442   1.598   2.038  0.3132  0.3690  0.5302
   78TMC2    C7 1220   0.506   1.429   1.849  0.4346 -0.2236 -0.2250
   78TMC2    C8 1221   0.312   1.586   2.251  0.0004 -0.2044  0.7997
   78TMC2    O1 1222   0.540   1.549   1.835 -0.5395  0.0764 -0.0400
   78TMC2    O2 1223   0.205   1.605   2.306  0.5169 -0.1209 -0.5773
   78TMC2    O5 1224   0.420   1.672   2.254  0.2052 -0.0557 -0.1077
   78TMC2    H5 1225   0.497   1.612   2.250 -0.9010 -1.3577 -1.7302
   79MPD1     C 1226   4.698   0.740   2.301 -0.1370 -0.2787  0.3505
   79MPD1    C1 1227   0.091   0.726   2.271 -0.0324  0.2280  0.4110
   79MPD1    C2 1228   0.160   0.844   2.258 -0.3200 -0.2433 -0.2795
   79MPD1    C3 1229   0.107   0.968   2.263  0.5610 -0.8060  1.2355
   79MPD1    C4 1230   4.709   0.982   2.306  0.4122  0.3417  0.1205
   79MPD1    C5 1231   4.637   0.861   2.316 -0.3629 -0.1503 -0.3847
   79MPD1     H 1232   0.268   0.835   2.248 -0.0878  1.3704  0.7894
   79MPD1    H1 1233   4.649   1.072   2.306 -1.2581 -0.7573 -0.3152
   79MPD1    H2 1234   4.644   0.648   2.320 -0.2966 -0.7189 -2.1958
   79MPD1    H3 1235   4.534   0.868   2.350  0.5717  2.4971  1.8457
   79MPD1     N 1236   0.184   1.085   2.242  0.7998  0.0385 -0.1097
   79MPD1    H5 1237   0.139   1.171   2.272  2.1144  0.2083  1.3681
   79MPD1    N1 1238   0.152   0.605   2.239 -0.4484  0.1462 -0.2617
   79MPD1    H6 1239   0.110   0.524   2.284  0.1169  0.0851  0.1643
   79MPD1    H7 1240   0.252   0.608   2.260 -0.3601  1.6740 -0.8624
   80TMC2    C1 1241   1.032   0.931  12.014  0.4626 -0.1072  0.0304
   80TMC2    C2 1242   0.931   1.022  11.989 -1.0756 -0.1252  0.4232
   80TMC2    C3 1243   0.804   0.979  12.014 -0.1471  0.2457 -0.5335
   80TMC2    C4 1244   1.019   0.807  12.077 -0.4727 -0.2864  0.4944
   80TMC2    C5 1245   0.891   0.780  12.103 -0.2910  0.0535 -0.0261
   80TMC2    C6 1246   0.779   0.855  12.068  0.5571 -0.3392  0.0227
   80TMC2     C 1247   1.154   0.957  11.940  1.4982  0.2040 -0.2500
   80TMC2     O 1248   1.127   0.989  11.826 -0.4167  0.5081  0.1361
   80TMC2     H 1249   0.941   1.119  11.942 -0.9801 -0.8805 -1.0923
   80TMC2    H1 1250   1.102   0.740  12.096 -0.8574 -1.2072 -1.1323
   80TMC2    H2 1251   0.680   0.812  12.076  0.3808 -0.3520 -2.2304
   80TMC2    C7 1252   0.858   0.647  12.165 -0.1654 -0.1236  0.0298
   80TMC2    C8 1253   0.696   1.065  11.974 -0.1213 -0.2882 -0.5279
   80TMC2    O1 1254   0.738   0.621  12.165 -0.0161  0.0681  0.1089
   80TMC2    O2 1255   0.684   1.128  11.870 -0.4587  0.1176 -0.7754
   80TMC2    O5 1256   0.612   1.076  12.084 -0.0111  0.0065  0.0886
   80TMC2    H5 1257   0.656   1.026  12.156 -2.4213  0.4944  1.8829
   81MPD2     C 1258   1.411   1.046  11.821  0.2648 -0.0937  0.2756
   81MPD2    C1 1259   1.401   0.988  11.949 -0.6057 -0.2372 -0.8201
   81MPD2    C2 1260   1.510   0.967  12.029 -0.0746  0.5494 -0.0701
   81MPD2    C3 1261   1.635   1.006  11.980 -0.5530 -0.5976 -0.2763
   81MPD2    C4 1262   1.645   1.062  11.852  0.4707  0.0810  0.0485
   81MPD2    C5 1263   1.536   1.090  11.779  0.6306 -0.6224  0.6321
   81MPD2     H 1264   1.492   0.922  12.126  0.2589  1.4540  0.4182
   81MPD2    H1 1265   1.739   1.084  11.801 -0.1616  0.2994 -1.0209
   81MPD2    H2 1266   1.325   1.079  11.763 -0.0200 -0.2813  0.5932
   81MPD2    H3 1267   1.544   1.138  11.682 -4.3788 -0.6324  0.1914
   81MPD2     N 1268   1.758   0.992  12.051  0.0987  0.1637  0.6920
   81MPD2    H5 1269   1.838   1.047  12.021  1.8011 -2.6179  0.1989
   81MPD2    N1 1270   1.279   0.940  12.000 -0.2418  0.2674  0.8952
   81MPD2    H7 1271   1.281   0.907  12.096  0.0677 -0.4072  0.6528
   82TMC2    C1 1272   4.734   0.274  10.857 -0.1012  0.2180  0.4263
   82TMC2    C2 1273   0.066   0.356  10.943  0.4896  0.7958  0.1063
   82TMC2    C3 1274   0.111   0.297  11.053  0.7381 -0.3121  0.1150
   82TMC2    C4 1275   4.700   0.149  10.881 -0.5832  0.2369  0.1187
   82TMC2    C5 1276   0.019   0.094  10.995  1.0413 -0.1919 -0.5537
   82TMC2    C6 1277   0.097   0.162  11.080  0.3199 -0.6529  0.1952
   82TMC2     C 1278   4.665   0.339  10.747 -0.3683  0.0892 -0.7924
   82TMC2     O 1279   4.653   0.268  10.648 -0.5586 -0.0023 -0.2659
   82TMC2     H 1280   0.095   0.459  10.924  0.9918  0.6250 -0.0564
   82TMC2    H1 1281   4.634   0.095  10.815  1.9424 -1.0914 -1.3061
   82TMC2    H2 1282   0.127   0.117  11.174  2.6827  5.0643  2.1565
   82TMC2    C7 1283   4.691   4.724  11.064  0.5945 -0.0467 -0.0802
   82TMC2    C8 1284   0.159   0.379  11.155 -0.0873 -0.2791 -0.3902
   82TMC2    O1 1285   4.673   4.733  11.183 -0.0871 -0.6653  0.4089
   82TMC2    O2 1286   0.256   0.353  11.225  0.4834  0.1753  0.0564
   82TMC2    O5 1287   0.079   0.480  11.166  0.4450 -0.3883  0.1828
   82TMC2    H5 1288   4.726   0.461  11.126 -0.1190  2.2932  0.1466
   83MPD2     C 1289   4.483   0.766  10.543 -0.7111  0.9323  0.1466
   83MPD2    C1 1290   4.502   0.645  10.485  0.1695  0.4056 -0.2532
   83MPD2    C2 1291   4.537   0.535  10.562 -0.9300 -0.0203 -0.1371
   83MPD2    C3 1292   4.552   0.550  10.694  0.1407  0.4840  0.2578
   83MPD2    C4 1293   4.518   0.671  10.752 -0.1461  0.0423 -0.4016
   83MPD2    C5 1294   4.488   0.778  10.679 -0.2640 -0.4990  0.0142
   83MPD2     H 1295   4.574   0.445  10.513 -0.3180 -0.1695  0.5910
   83MPD2    H1 1296   4.525   0.685  10.859  0.5904 -1.7352 -0.2142
   83MPD2    H2 1297   4.454   0.851  10.482  0.5280  1.5019  0.3641
   83MPD2    H3 1298   4.467   0.874  10.723 -0.8820 -1.0056  0.8240
   83MPD2     N 1299   4.614   0.464  10.779  0.4972  0.0650  0.0310
   83MPD2    H5 1300   4.604   0.479  10.879  0.4224 -1.6807  0.2752
   83MPD2    N1 1301   4.506   0.634  10.345 -0.6493  1.0164  0.3189
   83MPD2    H7 1302   4.492   0.541  10.308  0.4950  1.4338 -1.1753
   84TMC2    C1 1303   1.167   4.393  11.216 -0.3033  1.5345 -0.2410
   84TMC2    C2 1304   1.082   4.294  11.206  0.1285 -0.6923  0.1423
   84TMC2    C3 1305   1.126   4.170  11.165 -0.3563 -0.0239  0.0177
   84TMC2    C4 1306   1.303   4.385  11.192 -0.6272 -0.1095  0.1237
   84TMC2    C5 1307   1.348   4.258  11.161 -0.0252  0.2314  0.2647
   84TMC2    C6 1308   1.263   4.152  11.152  0.7291  0.2374  0.0780
   84TMC2     C 1309   1.109   4.530  11.214 -0.2398 -0.8067 -0.3888
   84TMC2     O 1310   0.993   4.548  11.250 -0.2786  0.2883 -0.1830
   84TMC2     H 1311   0.974   4.306  11.216 -0.4818 -4.7784 -1.8181
   84TMC2    H1 1312   1.377   4.462  11.214 -0.7004 -0.0932  0.3117
   84TMC2    H2 1313   1.298   4.054  11.120 -0.7549  0.1142 -1.1881
   84TMC2    C7 1314   1.484   4.251  11.099 -0.4414 -0.7481 -0.1457
   84TMC2    C8 1315   1.041   4.066  11.221  0.0898 -0.3349  0.1366
   84TMC2    O1 1316   1.515   4.352  11.035  0.0513 -0.0063 -0.2772
   84TMC2    O2 1317   0.948   4.024  11.157 -0.5024  0.3196 -0.4056
   84TMC2    O5 1318   1.127   3.988  11.286 -0.0486 -0.2160 -0.2014
   84TMC2    H5 1319   1.202   4.035  11.328  0.8654  1.1878 -3.3746
   85TMC2    C1 1320   1.802   2.700  16.335 -1.0151  0.1327  0.0163
   85TMC2    C2 1321   1.681   2.745  16.297  0.0417  0.1820  0.0255
   85TMC2    C3 1322   1.659   2.875  16.268 -0.5085  0.1142  0.4664
   85TMC2    C4 1323   1.915   2.780  16.336  0.9800 -0.7000  0.0678
   85TMC2    C5 1324   1.893   2.910  16.304 -0.7203 -0.0040 -0.3705
   85TMC2    C6 1325   1.769   2.958  16.268  0.5268  0.0029  0.0374
   85TMC2     C 1326   1.819   2.580  16.409 -0.1958  1.2657  0.1126
   85TMC2     O 1327   1.935   2.557  16.448 -0.0968 -0.0001  0.5907
   85TMC2     H 1328   1.589   2.687  16.298 -1.3571  2.4021  0.9085
   85TMC2    H1 1329   2.007   2.747  16.381  1.5147  1.6477  0.7071
   85TMC2    H2 1330   1.746   3.053  16.221  1.2045 -1.0043 -2.2985
   85TMC2    C7 1331   2.007   2.978  16.250 -0.1270  0.1741 -0.7458
   85TMC2    C8 1332   1.520   2.919  16.235 -0.1410  0.4750  0.2922
   85TMC2    O1 1333   2.102   2.905  16.225  0.4971 -0.2899 -0.2138
   85TMC2    O2 1334   1.491   3.020  16.172 -0.2299 -0.0054  0.4501
   85TMC2    O5 1335   1.432   2.861  16.323  0.0548  0.1076 -0.7765
   85TMC2    H5 1336   1.461   2.785  16.377 -1.6827 -0.7374 -1.0312
   86MPD2     C 1337   1.658   2.168  16.658  0.3069 -0.2978  0.4798
   86MPD2    C1 1338   1.581   2.176  16.548  0.1103  0.3924 -0.4240
   86MPD2    C2 1339   1.606   2.287  16.474  0.6543 -0.4903 -0.1417
   86MPD2    C3 1340   1.699   2.387  16.504  0.3381 -0.6584 -0.3603
   86MPD2    C4 1341   1.777   2.369  16.617 -0.6481  0.0427  0.3240
   86MPD2    C5 1342   1.748   2.264  16.699  0.2962  0.1171  0.1757
   86MPD2     H 1343   1.544   2.295  16.385 -0.1841  1.5320  0.6229
   86MPD2    H1 1344   1.854   2.437  16.652 -1.4369  0.3676  1.4465
   86MPD2    H2 1345   1.649   2.078  16.718 -0.6369  0.0476  0.8681
   86MPD2    H3 1346   1.812   2.243  16.784 -0.2715 -2.2674  0.0195
   86MPD2     N 1347   1.712   2.494  16.414 -0.1791  0.2725 -0.3936
   86MPD2    H5 1348   1.634   2.507  16.350  0.9472  1.5075 -1.5159
   86MPD2    N1 1349   1.488   2.078  16.504  0.9751 -0.8862 -0.2052
   86MPD2    H7 1350   1.434   2.101  16.421  1.2204 -4.1404 -1.3087
   87TMC2    C1 1351   4.172   0.638   1.204  0.4580 -0.2138 -0.1082
   87TMC2    C2 1352   4.286   0.654   1.274 -0.0768  0.2262 -0.5156
   87TMC2    C3 1353   4.270   0.703   1.405 -0.6664  0.4309  0.4483
   87TMC2    C4 1354   4.047   0.661   1.258  0.2470  0.3788  0.7226
   87TMC2    C5 1355   4.039   0.696   1.388  0.0592  0.2199  0.0161
   87TMC2    C6 1356   4.151   0.723   1.464  0.4432  1.0445  0.2622
   87TMC2     C 1357   4.174   0.546   1.095 -0.0388  0.0298  0.9221
   87TMC2     O 1358   4.095   0.565   1.006 -0.2060 -0.1646 -0.1432
   87TMC2     H 1359   4.383   0.621   1.236 -0.6983  0.0247 -1.9362
   87TMC2    H1 1360   3.957   0.643   1.199  0.5721 -1.0610  0.6583
   87TMC2    H2 1361   4.139   0.775   1.558  1.1340 -0.6455  1.2844
   87TMC2    C7 1362   3.909   0.733   1.447  0.3422 -0.4748 -0.0496
   87TMC2    C8 1363   4.390   0.716   1.480  0.3948 -0.5136 -0.0649
   87TMC2    O1 1364   3.903   0.815   1.540 -0.7912  0.3082 -0.2311
   87TMC2    O2 1365   4.503   0.708   1.438  0.5112 -0.9343 -0.3043
   87TMC2    O5 1366   4.341   0.689   1.599  0.3411 -0.1040  0.3787
   87TMC2    H5 1367   4.246   0.666   1.593  0.8008 -1.6412 -0.9601
   88MPD2     C 1368   3.594   0.570   1.385  0.5057  0.3996  0.7236
   88MPD2    C1 1369   3.676   0.671   1.420 -0.1141 -0.6224  0.1302
   88MPD2    C2 1370   3.616   0.788   1.464 -0.0149 -0.1054 -0.6049
   88MPD2    C3 1371   3.476   0.796   1.481 -0.3230  0.0735  0.0269
   88MPD2    C4 1372   3.401   0.696   1.427  0.2138 -0.3264 -0.2273
   88MPD2    C5 1373   3.458   0.583   1.378  0.4808 -0.2192 -0.0034
   88MPD2     H 1374   3.676   0.875   1.488  1.5626 -2.0922  2.5238
   88MPD2    H1 1375   3.293   0.701   1.429  0.2493  0.7384 -1.2150
   88MPD2    H2 1376   3.639   0.479   1.346  2.3704  2.0783 -1.0369
   88MPD2    H3 1377   3.390   0.503   1.351  0.4820 -0.1051 -0.3450
   88MPD2     N 1378   3.406   0.911   1.525 -0.2084  0.4866  0.4877
   88MPD2    H5 1379   3.308   0.906   1.498  0.2460  0.0447 -1.0577
   88MPD2    N1 1380   3.813   0.651   1.397  0.2491  0.0210 -0.4096
   88MPD2    H7 1381   3.844   0.572   1.342  0.8703  0.4605 -0.6978
   89TMC2    C1 1382   4.609   3.613   1.932 -0.3086  0.5137 -0.6307
   89TMC2    C2 1383   4.483   3.598   1.995  0.2290 -0.6216 -0.4061
   89TMC2    C3 1384   4.408   3.706   2.016  0.0062  0.1050 -0.3335
   89TMC2    C4 1385   4.649   3.736   1.882 -0.9413 -0.2872 -0.2045
   89TMC2    C5 1386   4.574   3.845   1.921 -0.0254 -0.0197  1.0342
   89TMC2    C6 1387   4.447   3.830   1.975  0.3694 -0.0518 -0.5852
   89TMC2     C 1388   4.706   3.509   1.937 -0.7123 -0.1301 -0.5810
   89TMC2     O 1389   0.088   3.544   1.926 -0.3470 -0.1083  0.3655
   89TMC2     H 1390   4.459   3.501   2.037 -2.2570  1.0521  2.0533
   89TMC2    H1 1391   0.018   3.746   1.851 -1.4018  2.3328 -0.8736
   89TMC2    H2 1392   4.382   3.916   1.979  1.4663  0.7677 -0.1900
   89TMC2    C7 1393   4.616   3.970   1.877  0.3776 -0.2562 -0.6447
   89TMC2    C8 1394   4.281   3.697   2.086 -0.3424  0.9435 -0.1290
   89TMC2    O1 1395   4.604   4.048   1.971  0.4768 -0.5037 -0.0501
   89TMC2    O2 1396   4.202   3.790   2.086  0.1230  0.4184  0.0562
   89TMC2    O5 1397   4.329   3.647   2.202  0.2994  0.2958  0.0160
   89TMC2    H5 1398   4.414   3.596   2.202 -0.2993 -0.7000 -0.9308
   90MPD2     C 1399   0.104   3.012   1.888  0.3168 -0.2939  0.1511
   90MPD2    C1 1400   4.711   3.020   1.937  0.5271 -0.0270  0.0368
   90MPD2    C2 1401   4.660   3.143   1.955 -0.7097  0.4416 -0.4413
   90MPD2    C3 1402   4.725   3.258   1.924 -0.0792 -0.2104  0.8120
   90MPD2    C4 1403   0.117   3.248   1.864 -0.0887 -0.3967  0.3662
   90MPD2    C5 1404   0.181   3.128   1.864  0.1517 -0.2955  0.0785
   90MPD2     H 1405   4.561   3.147   1.998  0.1592 -0.4932  1.6438
   90MPD2    H1 1406   0.170   3.337   1.830  1.6148 -1.6612 -0.2895
   90MPD2    H2 1407   0.153   2.916   1.886  0.6646 -0.1128  0.0432
   90MPD2    H3 1408   0.279   3.122   1.818  1.2821  0.4230  2.4373
   90MPD2     N 1409   4.653   3.378   1.931  0.3364  0.1546  0.3674
   90MPD2    H5 1410   4.552   3.367   1.936  0.3459  1.2177  2.6078
   90MPD2    N1 1411   4.630   2.907   1.976  0.1512 -0.4610  0.7382
   90MPD2    H7 1412   4.543   2.927   2.024 -0.1699 -0.2530  0.0660
   91TMC2    C1 1413   1.613   3.069  16.761  0.3378 -0.1615  0.1318
   91TMC2    C2 1414   1.614   3.176  16.846  0.0879  0.4907 -0.5040
   91TMC2    C3 1415   1.511   3.188  16.935  0.0285  0.0149 -0.4569
   91TMC2    C4 1416   1.505   2.991  16.741  0.4774  0.2792 -0.3598
   91TMC2    C5 1417   1.395   3.012  16.820 -0.1461 -0.4084  0.5077
   91TMC2    C6 1418   1.392   3.112  16.917  0.1854 -0.0119 -0.7448
   91TMC2     C 1419   1.733   3.027  16.695  0.2343  0.7519 -0.1150
   91TMC2     O 1420   1.724   2.946  16.607 -0.0646 -0.2097  0.1400
   91TMC2     H 1421   1.689   3.253  16.838  0.6358  0.2563  2.2116
   91TMC2    H1 1422   1.510   2.904  16.676  0.6106  0.1106 -0.1238
   91TMC2    H2 1423   1.306   3.138  16.977  0.0200  0.3495 -1.1374
   91TMC2    C7 1424   1.275   2.939  16.805 -0.0011 -0.1032 -0.0236
   91TMC2    C8 1425   1.500   3.302  17.023 -0.4109 -0.0848  0.0441
   91TMC2    O1 1426   1.195   2.944  16.899 -0.0890  0.0756  0.6839
   91TMC2    O2 1427   1.395   3.362  17.044 -0.0948 -0.2178 -0.1613
   91TMC2    O5 1428   1.626   3.353  17.048 -0.1664  0.1346 -0.2092
   91TMC2    H5 1429   1.702   3.293  17.030  0.4999  1.3378 -1.4023
   92MPD2     C 1430   2.012   2.972  16.615  0.3781  0.2489 -0.2092
   92MPD2    C1 1431   1.975   3.044  16.727 -0.1886 -0.4709  0.0555
   92MPD2    C2 1432   2.070   3.104  16.802  0.3349  0.2906 -0.7638
   92MPD2    C3 1433   2.203   3.085  16.791  0.0277 -0.2045  0.2877
   92MPD2    C4 1434   2.238   3.014  16.678 -0.8984 -0.1421 -0.8740
   92MPD2    C5 1435   2.149   2.963  16.588  0.2800  0.5576 -0.4687
   92MPD2     H 1436   2.028   3.174  16.874 -1.2037  1.4457 -2.7695
   92MPD2    H1 1437   2.337   2.977  16.653 -2.1233 -2.8362 -1.6589
   92MPD2    H2 1438   1.939   2.918  16.557  0.0400  2.1283 -1.5473
   92MPD2    H3 1439   2.185   2.894  16.513 -0.2521  2.2040 -2.2547
   92MPD2     N 1440   2.301   3.130  16.888 -0.3732  0.1387 -0.1844
   92MPD2    H5 1441   2.264   3.160  16.977  0.4762 -0.5818  0.4144
   92MPD2    N1 1442   1.844   3.076  16.756  0.2422 -0.4456 -0.2507
   92MPD2    H7 1443   1.817   3.123  16.842  1.0071  0.0630 -0.2923
   93TMC2    C1 1444   3.736   3.402  14.231  0.5356  0.6438  0.2346
   93TMC2    C2 1445   3.846   3.436  14.311 -0.1354  0.7372  0.1135
   93TMC2    C3 1446   3.973   3.428  14.251 -0.0356 -0.5976 -0.7459
   93TMC2    C4 1447   3.748   3.387  14.095  0.9045  0.2527  0.5796
   93TMC2    C5 1448   3.881   3.390  14.044 -0.4615  0.2138 -0.7017
   93TMC2    C6 1449   3.994   3.401  14.121  0.2955 -1.1681  0.2079
   93TMC2     C 1450   3.604   3.434  14.285 -0.6430  0.2389  0.2965
   93TMC2     O 1451   3.598   3.507  14.384  0.4226  0.5918 -0.3252
   93TMC2     H 1452   3.829   3.468  14.413  2.0583  2.0122  0.0709
   93TMC2    H1 1453   3.672   3.397  14.018  1.6418  0.7050 -0.0932
   93TMC2    H2 1454   4.090   3.412  14.073  0.0514 -1.5373 -0.3652
   93TMC2    C7 1455   3.905   3.440  13.910 -0.6453 -0.0353 -0.7950
   93TMC2    C8 1456   4.099   3.438  14.331  0.2337  0.4779  0.2251
   93TMC2    O1 1457   3.991   3.376  13.852  0.3076  0.2775 -0.4650
   93TMC2    O2 1458   4.197   3.466  14.267 -0.1637  0.8216 -0.4144
   93TMC2    O5 1459   4.071   3.494  14.455  0.2250 -0.4872 -0.2102
   93TMC2    H5 1460   3.989   3.456  14.494 -0.5185  1.1933 -0.0859
   94MPD2     C 1461   3.317   3.504  14.301  0.0363 -0.1937  0.3723
   94MPD2    C1 1462   3.362   3.386  14.256  0.1445 -0.2263 -0.2080
   94MPD2    C2 1463   3.272   3.295  14.208  0.9679  0.0384 -0.2990
   94MPD2    C3 1464   3.135   3.318  14.229 -0.2290  0.0877  0.4849
   94MPD2    C4 1465   3.087   3.430  14.281 -0.8446  0.4734 -0.6344
   94MPD2    C5 1466   3.182   3.524  14.310  0.7017 -0.5274 -0.2962
   94MPD2     H 1467   3.309   3.205  14.162 -0.2039  1.2685 -3.6481
   94MPD2    H1 1468   2.984   3.440  14.313 -1.4951  0.2361 -2.6731
   94MPD2    H2 1469   3.376   3.593  14.319  1.7258 -1.6999  2.2229
   94MPD2    H3 1470   3.140   3.617  14.349 -0.2494 -0.4522 -1.4972
   94MPD2     N 1471   3.034   3.224  14.196  0.1121  0.2933  0.1572
   94MPD2    H5 1472   2.939   3.245  14.227  0.3565  0.9344  0.4678
   94MPD2    N1 1473   3.499   3.369  14.217  0.1585  0.1084 -0.7507
   94MPD2    H7 1474   3.529   3.292  14.159  0.4458  0.2262 -0.7620
   95TMC2    C1 1475   3.710   0.172  16.509  0.2414 -0.7222  0.1983
   95TMC2    C2 1476   3.755   0.041  16.487  1.1090  0.6389 -0.1633
   95TMC2    C3 1477   3.693   4.676  16.548  0.8940 -0.3016 -0.6282
   95TMC2    C4 1478   3.603   0.198  16.591 -1.3910  0.6450  0.6512
   95TMC2    C5 1479   3.541   0.092  16.646  0.1588  0.2675 -0.3664
   95TMC2    C6 1480   3.586   4.700  16.633 -0.4890  0.3845  0.0675
   95TMC2     C 1481   3.774   0.280  16.429  0.7564  1.1910 -0.3832
   95TMC2     O 1482   3.822   0.254  16.319 -0.6529  0.4125  0.6340
   95TMC2     H 1483   3.849   0.026  16.435  1.1457  0.5289 -0.0628
   95TMC2    H1 1484   3.569   0.300  16.605 -1.6271  1.0986 -3.0863
   95TMC2    H2 1485   3.543   4.608  16.672 -0.7074  0.3808 -0.1727
   95TMC2    C7 1486   3.482   0.128  16.768 -0.2335  0.5065  0.7929
   95TMC2    C8 1487   3.755   4.550  16.523  0.0717 -0.5776  0.0643
   95TMC2    O1 1488   3.448   0.245  16.776  0.7329  0.3865  0.1221
   95TMC2    O2 1489   3.746   4.466  16.609 -0.1612 -0.8424 -0.8081
   95TMC2    O5 1490   3.772   4.534  16.393  0.1231 -0.1470 -0.3839
   95TMC2    H5 1491   3.738   4.606  16.336 -1.9404 -0.4510  0.4864
   96MPD2     C 1492   3.885   0.781  16.335  0.1759  0.2061 -0.0616
   96MPD2    C1 1493   3.925   0.665  16.269  0.4972  0.1370 -1.0113
   96MPD2    C2 1494   3.885   0.540  16.316 -0.4896  0.1464  0.0281
   96MPD2    C3 1495   3.807   0.526  16.430 -0.5134 -0.7332 -0.2182
   96MPD2    C4 1496   3.764   0.642  16.496  0.1793 -1.1571  0.3237
   96MPD2    C5 1497   3.807   0.769  16.450  0.2971  0.3553  0.2933
   96MPD2     H 1498   3.922   0.445  16.278 -1.8330 -0.1959 -0.4069
   96MPD2    H1 1499   3.691   0.636  16.576  1.3584 -1.0487  1.3945
   96MPD2    H2 1500   3.923   0.879  16.307 -0.8621  1.1402  1.7393
   96MPD2    H3 1501   3.767   0.857  16.498 -2.8307 -0.0177 -1.6920
   96MPD2     N 1502   3.757   0.406  16.483 -0.1590  0.1718 -0.2882
   96MPD2    H5 1503   3.709   0.410  16.572  0.3902 -2.3356  0.1182
   96MPD2    N1 1504   4.015   0.683  16.162 -0.2648  0.2620 -0.4069
   96MPD2    H7 1505   4.039   0.780  16.141 -0.2190  0.5545  0.9884
   97TMC2    C1 1506   0.737   3.708  17.665 -0.5959  0.0485 -0.5736
   97TMC2    C2 1507   0.725   3.791  17.557  0.3100 -0.0941  0.2158
   97TMC2    C3 1508   0.711   3.923  17.581  0.2706 -0.3348  0.4364
   97TMC2    C4 1509   0.736   3.755   0.049 -0.0020  0.2080  0.2180
   97TMC2    C5 1510   0.735   3.890   0.072  0.5056  0.1144  0.2564
   97TMC2    C6 1511   0.704   3.969  17.705  0.8706  0.0442 -0.2322
   97TMC2     C 1512   0.787   3.573  17.654 -0.1331  0.4594 -0.3297
   97TMC2     O 1513   0.875   3.551  17.738  0.2996 -0.6723 -0.4769
   97TMC2     H 1514   0.749   3.756  17.457 -0.2845  1.8327 -0.5993
   97TMC2    H1 1515   0.741   3.685   0.131 -0.5072 -0.8220 -0.6294
   97TMC2    H2 1516   0.713   4.076  17.721  0.8431  0.0348 -0.1524
   97TMC2    C7 1517   0.840   3.942   0.163  0.6510 -0.3265 -0.6604
   97TMC2    C8 1518   0.702   4.021  17.480  0.5349  0.4450  0.7358
   97TMC2    O1 1519   0.906   4.037   0.117  0.5321 -0.2293  0.7878
   97TMC2    O2 1520   0.636   4.126  17.493  0.1503 -0.5248 -0.1275
   97TMC2    O5 1521   0.834   4.040  17.448  0.2697 -0.2462 -0.3461
   97TMC2    H5 1522   0.889   3.960  17.451  0.1878 -0.3861 -2.1775
   98MPD2     C 1523   0.866   3.098  17.481 -0.7292  0.5775 -0.0702
   98MPD2    C1 1524   0.902   3.157  17.601  0.5470  0.1425 -0.4963
   98MPD2    C2 1525   0.868   3.285  17.619  0.0217  0.4664  0.4849
   98MPD2    C3 1526   0.788   3.360  17.532  0.9174  0.3957 -0.3268
   98MPD2    C4 1527   0.748   3.299  17.416 -0.9121 -0.2293 -0.1816
   98MPD2    C5 1528   0.788   3.168  17.391 -0.1996 -0.2404 -0.2647
   98MPD2     H 1529   0.912   3.344  17.698  1.7421 -0.3979  0.1682
   98MPD2    H1 1530   0.685   3.342  17.339 -1.9720  0.8796  1.3206
   98MPD2    H2 1531   0.888   2.993  17.468 -0.3661  0.5478  0.7984
   98MPD2    H3 1532   0.764   3.119  17.298  2.1995  0.8394 -1.4641
   98MPD2     N 1533   0.747   3.499  17.546  0.8328  0.1930 -0.4570
   98MPD2    H5 1534   0.682   3.539  17.479 -0.8588 -1.6210  0.0985
   98MPD2    N1 1535   0.968   3.078  17.700  0.3709 -0.0294  0.4344
   98MPD2    H7 1536   0.974   2.979  17.682  0.5883  0.1124 -0.2619
   99TMC2    C1 1537   0.039   0.071   1.622  0.6426 -0.8048 -0.4693
   99TMC2    C2 1538   0.150   0.100   1.693 -0.1759  0.0889  0.0815
   99TMC2    C3 1539   0.141   0.097   1.827 -0.2184 -0.1746 -0.2649
   99TMC2    C4 1540   4.646   0.055   1.673  0.3106  0.6283 -0.9270
   99TMC2    C5 1541   4.640   0.082   1.809  0.1139 -0.3132  0.5279
   99TMC2    C6 1542   0.019   0.102   1.889 -0.3169 -0.0297  0.1476
   99TMC2     C 1543   0.052   0.063   1.478 -1.0603 -0.2146  0.6800
   99TMC2     O 1544   0.131   0.150   1.431  0.0901  0.0543  0.1673
   99TMC2     H 1545   0.244   0.122   1.643 -0.5055  2.2755  0.4265
   99TMC2    H1 1546   4.564   0.053   1.602  0.4705  1.4379 -1.1250
   99TMC2    H2 1547   0.010   0.110   1.997  1.3970 -1.0057  0.3681
   99TMC2    C7 1548   4.508   0.083   1.868  0.0356 -0.7040 -0.5309
   99TMC2    C8 1549   0.257   0.137   1.912  0.0751 -0.3482 -0.0350
   99TMC2    O1 1550   4.498   0.118   1.987  0.0425 -0.1440 -0.8159
   99TMC2    O2 1551   0.243   0.166   2.029 -0.0937  0.7343  0.1394
   99TMC2    O5 1552   0.369   0.081   1.856 -0.3770  0.5687 -0.3671
   99TMC2    H5 1553   0.352   0.023   1.779  0.4674 -1.0640  0.6743
  100MPD2     C 1554   0.040   0.019   1.183 -0.2332  0.3440  0.1166
  100MPD2    C1 1555   4.694   4.687   1.276  0.6765  0.3749 -0.8169
  100MPD2    C2 1556   4.595   4.608   1.231  0.6428  0.3223 -0.0991
  100MPD2    C3 1557   4.578   4.573   1.097 -0.3444  0.0441  0.1151
  100MPD2    C4 1558   4.666   4.633   1.006 -0.0573  0.2027 -0.1964
  100MPD2    C5 1559   0.026   4.723   1.049 -0.5141 -0.1368 -0.7104
  100MPD2     H 1560   4.533   4.560   1.305 -0.0840 -1.6068 -1.9659
  100MPD2    H1 1561   4.656   4.613   0.900  1.4223  1.2024 -0.5122
  100MPD2    H2 1562   0.118   0.088   1.211 -1.7967  2.2137 -0.1568
  100MPD2    H3 1563   0.080   0.047   0.976  1.4634 -1.2056 -0.0962
  100MPD2     N 1564   4.469   4.484   1.064  0.0414 -0.3499 -0.7865
  100MPD2    H5 1565   4.412   4.470   1.147  1.2481  1.1175  0.2881
  100MPD2    N1 1566   4.704   4.707   1.414 -0.7194  0.0184 -0.3379
  100MPD2    H7 1567   4.648   4.638   1.463  0.0190  0.1736  0.7322
  101TMC2    C1 1568   0.899   0.933  12.932  0.8632 -0.4669  0.1446
  101TMC2    C2 1569   0.891   0.940  13.070 -0.0721  0.1461 -0.1912
  101TMC2    C3 1570   0.950   1.053  13.121 -0.0651 -0.4148  0.0709
  101TMC2    C4 1571   0.964   1.028  12.855 -0.4664  0.8784 -0.2780
  101TMC2    C5 1572   1.020   1.134  12.916  0.5367  0.0692  0.2781
  101TMC2    C6 1573   1.019   1.150  13.051  0.0569  0.2742 -0.3517
  101TMC2     C 1574   0.801   0.850  12.866 -0.0338  0.1013  0.5728
  101TMC2     O 1575   0.800   0.829  12.746  0.3192 -0.0482  0.0689
  101TMC2     H 1576   0.870   0.857  13.137  1.3692 -0.1976 -0.1727
  101TMC2    H1 1577   0.971   1.011  12.748 -2.0568 -2.0786  0.0577
  101TMC2    H2 1578   1.057   1.235  13.105  1.7602  0.5163 -1.9102
  101TMC2    C7 1579   1.106   1.220  12.837  0.1523 -0.6887 -0.0218
  101TMC2    C8 1580   0.973   1.051  13.258 -0.3352  0.2601  1.1418
  101TMC2    O1 1581   1.081   1.235  12.719 -0.4896 -0.2133  0.5196
  101TMC2    O2 1582   1.063   1.115  13.316 -0.5920  0.0301  0.1858
  101TMC2    O5 1583   0.855   1.021  13.314  0.0045  0.7197 -1.0647
  101TMC2    H5 1584   0.781   0.994  13.255  0.0388 -1.7392  0.0496
  102MPD2     C 1585   0.632   0.617  12.813  0.8009 -0.2472  0.2341
  102MPD2    C1 1586   0.618   0.693  12.926  0.7717 -0.2348 -0.0908
  102MPD2    C2 1587   0.513   0.668  13.016 -0.2807  0.3001  0.5117
  102MPD2    C3 1588   0.421   0.573  12.983 -0.9693  0.1626 -0.5302
  102MPD2    C4 1589   0.434   0.493  12.867  0.1131  0.1679  0.2163
  102MPD2    C5 1590   0.540   0.522  12.783 -0.3368 -0.0638 -0.0033
  102MPD2     H 1591   0.501   0.726  13.107  0.1811  1.1802  0.0076
  102MPD2    H1 1592   0.376   0.408  12.835 -0.4911  0.5520  0.2869
  102MPD2    H2 1593   0.706   0.632  12.735 -0.3562  1.1608 -0.5985
  102MPD2    H3 1594   0.557   0.454  12.700  0.3029  1.6326 -1.2496
  102MPD2     N 1595   0.316   0.546  13.072  0.1600  0.2088 -0.1086
  102MPD2    H5 1596   0.264   0.464  13.043 -1.0855  0.7078  0.6882
  102MPD2    N1 1597   0.706   0.800  12.952  0.0397 -0.1799  0.1173
  102MPD2    H7 1598   0.701   0.849  13.041 -0.3581 -2.9274  1.6304
  103TMC2    C1 1599   2.972   1.563  12.640  0.4153 -0.7123 -0.5800
  103TMC2    C2 1600   2.916   1.630  12.530 -0.0336 -0.0144 -0.2831
  103TMC2    C3 1601   2.962   1.758  12.497  0.4377 -0.2600 -0.2136
  103TMC2    C4 1602   3.075   1.621  12.706 -0.4831  0.4475  0.2142
  103TMC2    C5 1603   3.119   1.752  12.671  0.7832 -0.1850 -0.9138
  103TMC2    C6 1604   3.068   1.816  12.560 -0.1135 -0.2369 -0.0344
  103TMC2     C 1605   2.988   1.422  12.610 -0.4150 -1.1923  0.2320
  103TMC2     O 1606   2.959   1.396  12.493 -0.5148  0.5411 -0.0640
  103TMC2     H 1607   2.846   1.574  12.469 -0.9510  0.3467  0.4368
  103TMC2    H1 1608   3.114   1.581  12.799  0.2278  1.1357  0.2065
  103TMC2    H2 1609   3.086   1.923  12.553  0.7455 -0.2236  2.5217
  103TMC2    C7 1610   3.194   1.823  12.769  0.0043 -0.4337  0.2161
  103TMC2    C8 1611   2.886   1.829  12.393  1.1171 -0.2476  0.4587
  103TMC2    O1 1612   3.277   1.906  12.730 -0.6099 -0.2375  0.1144
  103TMC2    O2 1613   2.780   1.777  12.353 -0.5839 -0.0426  0.3025
  103TMC2    O5 1614   2.962   1.923  12.334  0.2632  0.2219  0.0497
  103TMC2    H5 1615   3.044   1.946  12.382 -1.2631  4.1733  0.6916
  104MPD2     C 1616   3.150   1.163  12.803  0.7568 -0.5401 -0.1711
  104MPD2    C1 1617   3.082   1.221  12.696  0.3648  0.0048 -0.2311
  104MPD2    C2 1618   3.051   1.146  12.587 -0.1773  0.0970  0.1616
  104MPD2    C3 1619   3.096   1.013  12.579 -0.1956 -0.2302 -0.2477
  104MPD2    C4 1620   3.173   0.956  12.675 -0.5069  0.3647 -0.3893
  104MPD2    C5 1621   3.192   1.033  12.786  0.1550  0.0983 -0.0153
  104MPD2     H 1622   2.984   1.178  12.509  0.7940  0.5222 -0.4960
  104MPD2    H1 1623   3.213   0.856  12.681  0.4581  0.6534 -1.8752
  104MPD2    H2 1624   3.182   1.208  12.896 -0.4923  3.4792 -1.6780
  104MPD2    H3 1625   3.249   0.987  12.865  1.2575  0.4862 -0.5877
  104MPD2     N 1626   3.067   0.944  12.456 -0.0319 -0.4189  0.3193
  104MPD2    H5 1627   3.013   0.995  12.386  0.9609 -1.2238 -1.0522
  104MPD2    N1 1628   3.055   1.355  12.709  0.6506 -0.6324 -0.0832
  104MPD2    H7 1629   3.070   1.404  12.796  3.6089 -0.5386 -0.6424
  105TMC2    C1 1630   4.372   0.272   0.285  0.2948 -0.0737 -0.7452
  105TMC2    C2 1631   4.326   0.402   0.289  0.0875  0.2492 -0.3304
  105TMC2    C3 1632   4.227   0.430   0.380 -0.1880 -0.1684 -0.5685
  105TMC2    C4 1633   4.321   0.172   0.365  0.1921  0.5834 -0.0871
  105TMC2    C5 1634   4.229   0.210   0.455  0.7400 -0.0157 -0.3289
  105TMC2    C6 1635   4.180   0.339   0.464 -0.0312 -0.4341  0.4974
  105TMC2     C 1636   4.512   0.260   0.269  0.7987  0.1615 -0.0490
  105TMC2     O 1637   4.563   0.162   0.319 -0.1250 -0.3546  0.4105
  105TMC2     H 1638   4.390   0.476   0.242 -0.9940  0.5724 -1.2944
  105TMC2    H1 1639   4.369   0.074   0.365  0.7407  0.8484 -0.0591
  105TMC2    H2 1640   4.098   0.374   0.525 -0.4781  0.7267 -0.7692
  105TMC2    C7 1641   4.256   0.145   0.579  0.0346  0.2420  0.4811
  105TMC2    C8 1642   4.225   0.558   0.436 -0.0389 -0.4812 -0.1935
  105TMC2    O1 1643   4.302   0.032   0.582  0.5157  0.3527  0.4096
  105TMC2    O2 1644   4.225   0.595   0.556  0.1229 -0.0118  0.3909
  105TMC2    O5 1645   4.216   0.647   0.332  0.0869  0.0313  0.2614
  105TMC2    H5 1646   4.197   0.591   0.254  0.9130 -1.1912  0.9351
  106MPD2     C 1647   0.231   0.350   0.068 -0.1099 -0.3383 -0.0169
  106MPD2    C1 1648   0.149   0.443   0.018  0.6643 -0.4640 -0.6853
  106MPD2    C2 1649   0.018   0.448   0.064 -0.0808 -0.4167  0.0405
  106MPD2    C3 1650   4.711   0.365   0.160  0.4305  0.1623  0.4050
  106MPD2    C4 1651   0.070   0.276   0.214  0.3639  0.5206  0.2241
  106MPD2    C5 1652   0.196   0.274   0.173  0.0241 -0.1916  0.3141
  106MPD2     H 1653   4.688   0.518   0.013 -1.3835 -0.0659  2.2123
  106MPD2    H1 1654   0.045   0.218   0.301 -0.7834 -0.4746 -0.7857
  106MPD2    H2 1655   0.338   0.339   0.053  0.4716  0.8309  3.4925
  106MPD2    H3 1656   0.266   0.210   0.226 -0.5656  0.2471  1.6263
  106MPD2     N 1657   4.573   0.355   0.187 -0.1901  0.3736 -0.1974
  106MPD2    H5 1658   4.527   0.422   0.127 -0.2130  0.4653 -0.0770
  106MPD2    N1 1659   0.181   0.519  17.648 -0.4555 -0.6674  0.6248
  106MPD2    H7 1660   0.102   0.556  17.596  0.9845  0.6850 -0.5981
  107TMC2    C1 1661   0.609   0.345  11.524 -0.0613  0.3741 -0.0758
  107TMC2    C2 1662   0.558   0.477  11.526  0.4035 -0.5053  0.1551
  107TMC2    C3 1663   0.629   0.578  11.471  0.3595 -0.5317  0.3281
  107TMC2    C4 1664   0.736   0.329  11.472  0.0453  0.3272  0.9587
  107TMC2    C5 1665   0.803   0.429  11.409  0.3463 -0.3268  0.5828
  107TMC2    C6 1666   0.741   0.553  11.405 -0.4971 -0.3240 -0.0515
  107TMC2     C 1667   0.544   0.250  11.609  0.2890 -1.1494  0.0831
  107TMC2     O 1668   0.457   0.286  11.682 -0.4121  0.2057  0.2811
  107TMC2     H 1669   0.476   0.502  11.593  0.6189  0.2011  0.1579
  107TMC2    H1 1670   0.792   0.237  11.480  2.0177  1.4586  0.2009
  107TMC2    H2 1671   0.791   0.634  11.353  0.3869 -0.4447  0.6320
  107TMC2    C7 1672   0.913   0.408  11.317  0.1831  0.1116 -0.1657
  107TMC2    C8 1673   0.599   0.716  11.505 -0.3971 -0.1536  0.3279
  107TMC2    O1 1674   0.967   0.506  11.269  0.4474  0.1924  0.4909
  107TMC2    O2 1675   0.687   0.800  11.503  0.3973  0.2241  0.8443
  107TMC2    O5 1676   0.481   0.731  11.435 -0.1599 -0.2737 -0.1307
  107TMC2    H5 1677   0.429   0.649  11.425 -0.6885 -0.1728  1.8492
  108MPD2     C 1678   0.646   4.643  11.666 -0.3891  0.4895 -0.0461
  108MPD2    C1 1679   0.585   0.026  11.702 -0.3901 -0.6166  0.0570
  108MPD2    C2 1680   0.505   0.020  11.817  0.2514 -0.6443 -0.5078
  108MPD2    C3 1681   0.477   4.641  11.888 -0.5430  0.2973  0.0921
  108MPD2    C4 1682   0.543   4.525  11.853  0.4987  0.4332  0.5046
  108MPD2    C5 1683   0.625   4.528  11.744 -0.1406 -0.8929  0.6753
  108MPD2     H 1684   0.460   0.114  11.846  0.0092 -1.3206  1.2883
  108MPD2    H1 1685   0.524   4.436  11.912 -0.5893  0.2440 -0.1266
  108MPD2    H2 1686   0.704   4.628  11.575 -0.4843 -0.1770  0.0022
  108MPD2    H3 1687   0.675   4.433  11.726  0.2042 -0.3143 -1.4021
  108MPD2     N 1688   0.395   4.631  12.001 -0.2048  0.1821  0.4873
  108MPD2    H5 1689   0.401   4.540  12.046 -2.3221  0.3142  1.0297
  108MPD2    N1 1690   0.602   0.133  11.615 -0.1528  0.5916 -0.1946
  108MPD2    H7 1691   0.674   0.122  11.544 -0.6691 -0.2274 -0.5957
  109TMC2    C1 1692   0.733   1.834   0.226 -0.9833 -0.2578  0.6666
  109TMC2    C2 1693   0.715   1.802   0.093  0.6563 -0.6149  0.2162
  109TMC2    C3 1694   0.774   1.882   0.000 -0.3140  0.5811 -0.0508
  109TMC2    C4 1695   0.800   1.950   0.265  0.3293 -0.0125  0.0416
  109TMC2    C5 1696   0.863   2.018   0.168  0.2303 -0.3653  0.3154
  109TMC2    C6 1697   0.849   1.987   0.035  0.5602  0.5568 -0.0285
  109TMC2     C 1698   0.664   1.753   0.328  0.1149 -0.1360 -0.0235
  109TMC2     O 1699   0.589   1.664   0.288  0.7119 -0.0276  0.3928
  109TMC2     H 1700   0.668   1.706   0.073 -0.9748 -0.3803  2.8664
  109TMC2    H1 1701   0.817   1.988   0.365 -0.6848 -0.6578  0.4641
  109TMC2    H2 1702   0.877   2.047  17.689  0.4064  2.3451  1.1830
  109TMC2    C7 1703   0.938   2.138   0.199  0.4594 -0.4816  0.5932
  109TMC2    C8 1704   0.759   1.851  17.602 -0.5113 -0.0654 -0.0889
  109TMC2    O1 1705   0.964   2.208   0.104 -0.2303  0.5368 -0.5642
  109TMC2    O2 1706   0.768   1.737  17.560 -0.1578 -0.5998 -0.3339
  109TMC2    O5 1707   0.693   1.945  17.534  0.3952  0.1656 -0.1628
  109TMC2    H5 1708   0.673   2.026  17.585 -0.9851 -0.5538  0.4603
  110MPD2     C 1709   0.565   1.597   0.815 -0.0281  0.4970  0.0788
  110MPD2    C1 1710   0.678   1.673   0.814 -0.4283  0.0799 -0.3587
  110MPD2    C2 1711   0.728   1.729   0.699 -0.0775 -0.5047  0.2877
  110MPD2    C3 1712   0.665   1.705   0.572 -0.4803 -0.0918  0.2575
  110MPD2    C4 1713   0.553   1.618   0.573  0.1206 -0.4608 -0.4113
  110MPD2    C5 1714   0.506   1.573   0.695  0.2163  0.0129  0.1527
  110MPD2     H 1715   0.818   1.788   0.692 -0.2872 -0.1081  0.9660
  110MPD2    H1 1716   0.494   1.603   0.483 -1.4975 -1.0486  0.7550
  110MPD2    H2 1717   0.519   1.548   0.900 -0.9326  0.4994 -0.4084
  110MPD2    H3 1718   0.418   1.510   0.696  1.0920 -1.2037  0.2981
  110MPD2     N 1719   0.711   1.772   0.458  0.2056 -0.8647  1.0384
  110MPD2    H5 1720   0.797   1.825   0.458 -1.1428  1.3345 -3.3961
  110MPD2    N1 1721   0.742   1.697   0.934 -0.2940  1.0782 -0.2385
  110MPD2    H7 1722   0.712   1.649   1.018  0.4568 -0.0202 -0.6131
  111TMC2    C1 1723   0.672   1.882  11.476  0.4999  0.1512  0.0389
  111TMC2    C2 1724   0.567   1.925  11.549 -0.2784  0.5552  0.2695
  111TMC2    C3 1725   0.579   1.919  11.682  0.1320  0.3174  0.0693
  111TMC2    C4 1726   0.796   1.846  11.526 -0.1067 -0.2985  0.2040
  111TMC2    C5 1727   0.810   1.851  11.662  0.9379  0.1330  0.0139
  111TMC2    C6 1728   0.702   1.882  11.745 -0.1646 -0.1068  0.6767
  111TMC2     C 1729   0.633   1.855  11.335  0.3368  0.3067  0.8623
  111TMC2     O 1730   0.546   1.923  11.284  0.5858 -0.3688 -0.7575
  111TMC2     H 1731   0.471   1.961  11.513  0.5593  2.3946 -0.1112
  111TMC2    H1 1732   0.878   1.820  11.460  1.0045  1.1861  0.9849
  111TMC2    H2 1733   0.711   1.870  11.852 -1.0869  0.1015  0.7742
  111TMC2    C7 1734   0.938   1.868  11.723 -0.7153 -0.0776 -0.3833
  111TMC2    C8 1735   0.488   2.000  11.760 -0.4755 -0.2539  0.1633
  111TMC2    O1 1736   0.940   1.894  11.842 -0.2617 -0.2271 -0.2845
  111TMC2    O2 1737   0.419   2.082  11.698  0.0335  0.3898 -0.1759
  111TMC2    O5 1738   0.452   1.946  11.875 -0.1754 -0.0817 -0.1244
  111TMC2    H5 1739   0.492   1.858  11.892  0.1815 -0.0883 -0.9545
  112MPD2     C 1740   0.775   1.657  10.875 -0.3096  0.3672  0.1896
  112MPD2    C1 1741   0.664   1.736  10.907  0.0449  1.4469  0.1558
  112MPD2    C2 1742   0.658   1.775  11.040  0.3813 -0.1630  0.1211
  112MPD2    C3 1743   0.744   1.730  11.143 -0.1605  0.5986  0.6591
  112MPD2    C4 1744   0.843   1.644  11.105 -0.1998 -0.1674  0.3397
  112MPD2    C5 1745   0.863   1.617  10.973  0.2836  0.7022  0.0753
  112MPD2     H 1746   0.572   1.831  11.075  0.5317 -1.4858  2.5939
  112MPD2    H1 1747   0.906   1.595  11.179 -0.1365  1.1607  1.1622
  112MPD2    H2 1748   0.797   1.620  10.776 -0.2565 -1.9699  1.0717
  112MPD2    H3 1749   0.938   1.549  10.934  0.0551 -0.2455  1.2861
  112MPD2     N 1750   0.731   1.770  11.279  0.4795  0.4944  0.7281
  112MPD2    H5 1751   0.808   1.747  11.340  0.7927  2.3414  1.0262
  112MPD2    N1 1752   0.565   1.775  10.811  0.4125 -0.0565  0.4392
  112MPD2    H7 1753   0.579   1.732  10.720  2.9950 -0.5763  1.0790
  113TMC2    C1 1754   3.116   4.608   0.846  0.1442 -0.4966 -0.5132
  113TMC2    C2 1755   3.012   4.699   0.850  0.0553  0.7826  0.1286
  113TMC2    C3 1756   2.927   4.701   0.747 -0.1028 -0.1871 -0.8490
  113TMC2    C4 1757   3.132   4.523   0.741 -0.1391  0.5054  0.1336
  113TMC2    C5 1758   3.032   4.524   0.648  0.1585  0.2871  0.0793
  113TMC2    C6 1759   2.928   4.610   0.647 -0.2817  0.0773 -0.3774
  113TMC2     C 1760   3.229   4.643   0.933 -1.2358  0.3281  0.0719
  113TMC2     O 1761   3.205   4.724   1.025  0.1394 -0.0783 -0.1887
  113TMC2     H 1762   2.994   0.021   0.940  0.6913 -0.4996  1.0546
  113TMC2    H1 1763   3.217   4.456   0.734 -1.8447 -1.5282 -1.1153
  113TMC2    H2 1764   2.845   4.606   0.578 -0.1807 -2.5347 -0.3259
  113TMC2    C7 1765   3.012   4.404   0.582 -0.4073  0.7419 -0.2462
  113TMC2    C8 1766   2.812   0.051   0.776  0.7497 -0.3333  0.3057
  113TMC2    O1 1767   2.935   4.396   0.482 -0.3633  0.1510 -0.4942
  113TMC2    O2 1768   2.771   0.085   0.885  0.0292  0.5242 -0.0672
  113TMC2    O5 1769   2.786   0.101   0.656 -0.2970  0.1157  0.0874
  113TMC2    H5 1770   2.855   0.078   0.590  1.1974  0.4076  1.5543
  114MPD2     C 1771   3.697   4.570   1.164 -0.5177 -0.2706  0.2450
  114MPD2    C1 1772   3.598   4.665   1.193 -0.0319  0.6107 -0.9087
  114MPD2    C2 1773   3.482   4.661   1.115  0.9445 -0.1070 -0.4558
  114MPD2    C3 1774   3.468   4.576   1.003  0.1744 -0.3166 -0.1010
  114MPD2    C4 1775   3.575   4.495   0.963  0.2812  0.3424 -0.2981
  114MPD2    C5 1776   3.684   4.495   1.045 -0.1275  0.6077  0.4335
  114MPD2     H 1777   3.417   0.013   1.122 -1.2059 -1.7048 -0.4282
  114MPD2    H1 1778   3.557   4.423   0.884 -0.2615  0.3249 -0.1547
  114MPD2    H2 1779   3.787   4.552   1.222  0.0080  0.2326 -0.4065
  114MPD2    H3 1780   3.764   4.424   1.025 -2.7679 -1.8505 -1.4136
  114MPD2     N 1781   3.348   4.566   0.918 -0.3055  0.4087  0.3542
  114MPD2    H5 1782   3.355   4.511   0.833  1.0392  3.1565 -1.3224
  114MPD2    N1 1783   3.608   0.016   1.306 -0.0925 -0.5540  0.5185
  114MPD2    H7 1784   3.526   0.073   1.324 -1.1255 -1.4628 -1.2229
  115TMC2    C1 1785   4.099   2.565   0.541  0.2806 -0.1744  0.3811
  115TMC2    C2 1786   4.189   2.588   0.644  0.1236 -0.5292  0.4802
  115TMC2    C3 1787   4.255   2.714   0.642 -0.1343 -0.2047 -0.1867
  115TMC2    C4 1788   4.080   2.648   0.434  0.2207 -0.8215 -0.0520
  115TMC2    C5 1789   4.147   2.773   0.436  0.2212 -0.1203 -0.1814
  115TMC2    C6 1790   4.233   2.804   0.542 -0.4012 -0.3844  0.2231
  115TMC2     C 1791   4.063   2.430   0.504 -0.0101  0.6434 -0.6764
  115TMC2     O 1792   4.020   2.408   0.393  0.7270  0.4023  0.1624
  115TMC2     H 1793   4.204   2.532   0.735 -0.6988  1.6063  1.9294
  115TMC2    H1 1794   4.008   2.614   0.361  0.8009 -1.9690 -0.0822
  115TMC2    H2 1795   4.266   2.906   0.558 -2.0966 -0.1127  1.9560
  115TMC2    C7 1796   4.112   2.868   0.333  0.2193 -0.1640  0.0936
  115TMC2    C8 1797   4.308   2.755   0.768  0.2800  0.4542  0.2457
  115TMC2    O1 1798   4.187   2.965   0.324  0.4208  1.1605 -0.2039
  115TMC2    O2 1799   4.297   2.705   0.878  0.1036 -0.1272 -0.0992
  115TMC2    O5 1800   4.414   2.835   0.747 -0.4701  0.0385  0.1340
  115TMC2    H5 1801   4.424   2.862   0.653  2.1268  0.3977  0.5183
  116MPD2     C 1802   4.140   1.922   0.519 -0.0073 -0.6450 -0.0292
  116MPD2    C1 1803   4.049   1.990   0.447  0.5774  0.4368 -0.0259
  116MPD2    C2 1804   4.027   2.122   0.470  0.3923 -0.2837  0.3621
  116MPD2    C3 1805   4.101   2.193   0.569 -0.6045  0.6334 -0.6006
  116MPD2    C4 1806   4.184   2.122   0.648  0.4267 -1.2944 -0.2650
  116MPD2    C5 1807   4.211   1.987   0.619  0.1496  0.2010  0.4712
  116MPD2     H 1808   3.963   2.180   0.405 -0.4943 -2.0217 -0.3127
  116MPD2    H1 1809   4.229   2.179   0.728 -1.6887  0.8411 -0.5866
  116MPD2    H2 1810   4.140   1.817   0.492 -0.0278 -1.1283  1.8095
  116MPD2    H3 1811   4.261   1.924   0.692 -0.9598 -0.9694  0.2249
  116MPD2     N 1812   4.094   2.335   0.599 -0.8449  0.3642  0.0223
  116MPD2    H5 1813   4.126   2.367   0.689 -1.7917 -0.4704  0.6562
  116MPD2    N1 1814   3.989   1.917   0.341 -0.7873 -0.1193 -0.1450
  116MPD2    H7 1815   4.030   1.824   0.329 -0.1553  0.3442 -1.5145
  117TMC2    C1 1816   3.092   3.610  13.959  0.4354  0.5768 -0.2506
  117TMC2    C2 1817   3.221   3.568  13.952  0.0832  0.5720 -0.1591
  117TMC2    C3 1818   3.324   3.646  14.008 -0.4935 -0.5227  0.0630
  117TMC2    C4 1819   3.059   3.731  14.025 -0.3826 -0.3409  0.1995
  117TMC2    C5 1820   3.164   3.796  14.081 -0.1401  0.4578  0.1490
  117TMC2    C6 1821   3.294   3.757  14.079 -0.3862  0.5718 -0.4243
  117TMC2     C 1822   2.988   3.513  13.927 -0.6772  0.0124  0.4699
  117TMC2     O 1823   3.024   3.419  13.861 -0.2454 -0.3491  0.2240
  117TMC2     H 1824   3.236   3.461  13.940  0.6283  0.8844 -2.1690
  117TMC2    H1 1825   2.960   3.774  14.016  0.9868  2.6592 -0.5314
  117TMC2    H2 1826   3.367   3.815  14.134 -1.0235 -0.1380  1.1683
  117TMC2    C7 1827   3.133   3.925  14.144 -0.3554 -0.3492 -0.0504
  117TMC2    C8 1828   3.466   3.634  13.976  0.3970 -0.4249  0.2338
  117TMC2    O1 1829   3.231   3.995  14.151  0.1943  0.4806  0.2361
  117TMC2    O2 1830   3.541   3.728  14.003 -0.3003 -0.2052  0.2262
  117TMC2    O5 1831   3.479   3.548  13.869  0.5288  0.0503 -0.0631
  117TMC2    H5 1832   3.415   3.474  13.876  0.1439  0.2797 -1.2202
  118MPD2     C 1833   2.822   4.113  14.167 -1.1803  0.0887 -0.4977
  118MPD2    C1 1834   2.955   4.091  14.190  0.6278 -0.2434 -0.3149
  118MPD2    C2 1835   3.037   4.198  14.206 -0.1985 -0.0926 -0.2518
  118MPD2    C3 1836   2.983   4.323  14.228  0.3012 -0.2975 -0.3199
  118MPD2    C4 1837   2.848   4.345  14.198 -0.2253 -0.0104  0.6575
  118MPD2    C5 1838   2.771   4.235  14.171 -0.8364 -0.2002 -0.3823
  118MPD2     H 1839   3.143   4.194  14.225 -0.1957 -1.8949 -0.6070
  118MPD2    H1 1840   2.812   4.448  14.198 -0.7844 -0.2109  0.1331
  118MPD2    H2 1841   2.759   4.025  14.156 -0.5615 -0.2659 -1.1803
  118MPD2    H3 1842   2.666   4.246  14.148 -0.6417  0.5167 -0.9162
  118MPD2     N 1843   3.054   4.432  14.272  0.9254  0.1590  0.2941
  118MPD2    H5 1844   3.002   4.519  14.276  0.0706 -0.3076 -0.8109
  118MPD2    N1 1845   2.999   3.963  14.164 -0.3442  0.1961  0.0100
  118MPD2    H7 1846   2.926   3.893  14.157  0.3859 -0.6898  1.2583
  119TMC2    C1 1847   1.357   3.953  13.539  0.1735 -0.7064 -0.3153
  119TMC2    C2 1848   1.433   3.905  13.429 -0.2118 -0.9731  0.7962
  119TMC2    C3 1849   1.381   3.943  13.309  0.0660  0.6185 -0.8559
  119TMC2    C4 1850   1.240   4.022  13.517  0.1591  0.7702 -0.7211
  119TMC2    C5 1851   1.195   4.040  13.392  0.2005 -0.6522  0.2801
  119TMC2    C6 1852   1.263   4.005  13.278  0.3115  0.0501 -0.3042
  119TMC2     C 1853   1.426   4.020  13.643  0.3796  0.2809 -0.5724
  119TMC2     O 1854   1.346   4.090  13.706 -0.1887 -0.4085  0.1469
  119TMC2     H 1855   1.528   3.855  13.438 -0.6099 -2.2855 -2.7420
  119TMC2    H1 1856   1.173   4.043  13.600 -0.0526 -0.2956 -0.6119
  119TMC2    H2 1857   1.240   4.049  13.181  0.2379  1.9151  0.5636
  119TMC2    C7 1858   1.061   4.094  13.364 -0.4768  0.3060 -0.5904
  119TMC2    C8 1859   1.475   3.932  13.199 -0.2697 -0.8538  0.1977
  119TMC2    O1 1860   1.010   4.070  13.254 -0.5126  0.3538 -0.1465
  119TMC2    O2 1861   1.595   3.911  13.211 -0.0436 -0.1963  0.0331
  119TMC2    O5 1862   1.407   3.900  13.086 -0.0716 -0.2512  0.1674
  119TMC2    H5 1863   1.313   3.871  13.093  0.3935 -2.1150 -1.4372
  120MPD2     C 1864   1.822   4.275  13.835  0.0174  0.9417 -0.4897
  120MPD2    C1 1865   1.687   4.308  13.818 -0.0441  0.3754  0.1833
  120MPD2    C2 1866   1.599   4.220  13.760  0.2414 -1.4037  0.7074
  120MPD2    C3 1867   1.648   4.093  13.717 -0.2629 -0.3504 -0.0976
  120MPD2    C4 1868   1.781   4.063  13.725  0.3545  0.8537  0.3056
  120MPD2    C5 1869   1.869   4.154  13.780 -0.1236 -0.0228  0.5541
  120MPD2     H 1870   1.496   4.252  13.749  0.5786 -0.4631  0.2957
  120MPD2    H1 1871   1.821   3.965  13.703  0.1335  1.3474 -2.2673
  120MPD2    H2 1872   1.881   4.339  13.898  1.0800 -0.0867 -0.4430
  120MPD2    H3 1873   1.970   4.117  13.793  0.3192  1.2295  0.6466
  120MPD2     N 1874   1.559   3.997  13.659  0.4823 -0.0612  0.2203
  120MPD2    H5 1875   1.612   3.930  13.604 -1.6227 -1.0074 -0.6686
  120MPD2    N1 1876   1.636   4.431  13.866  0.4965 -0.2928 -0.4622
  120MPD2    H7 1877   1.709   4.495  13.895 -1.7409  2.2843 -0.5369
  121TMC2    C1 1878   3.186   1.538  13.805 -0.4967 -0.5691  0.2330
  121TMC2    C2 1879   3.304   1.466  13.834 -0.4516 -0.6471  0.1526
  121TMC2    C3 1880   3.337   1.457  13.968 -0.4598 -0.2242  0.5222
  121TMC2    C4 1881   3.110   1.587  13.904 -0.4527  0.3037  1.0472
  121TMC2    C5 1882   3.151   1.575  14.033  0.2941  0.1823 -0.1211
  121TMC2    C6 1883   3.266   1.517  14.069 -0.1292 -0.5473 -0.0323
  121TMC2     C 1884   3.135   1.545  13.672 -0.1263 -0.1321 -0.7965
  121TMC2     O 1885   3.189   1.459  13.599 -0.1905 -0.1439  0.0028
  121TMC2     H 1886   3.357   1.417  13.753  1.6488  2.7540 -0.5065
  121TMC2    H1 1887   3.019   1.643  13.886 -0.1959 -0.4820 -2.5580
  121TMC2    H2 1888   3.298   1.504  14.172 -0.7213 -1.7775  0.0025
  121TMC2    C7 1889   3.078   1.635  14.143  0.4404 -0.2607 -0.3157
  121TMC2    C8 1890   3.470   1.417  14.008  1.1514  0.5405  0.4581
  121TMC2    O1 1891   3.142   1.660  14.246 -0.2224 -0.4397  0.1155
  121TMC2    O2 1892   3.502   1.382  14.123 -0.2190  0.7639  0.0536
  121TMC2    O5 1893   3.557   1.449  13.910 -0.6889 -0.3790 -0.2799
  121TMC2    H5 1894   3.522   1.508  13.840  0.5096  0.7755  0.0996
  122MPD2     C 1895   2.964   1.578  13.454  0.0802  0.4059 -0.0606
  122MPD2    C1 1896   2.994   1.689  13.530  0.9652  0.3811 -0.4287
  122MPD2    C2 1897   2.947   1.811  13.502 -0.1490 -0.0943 -0.3585
  122MPD2    C3 1898   2.871   1.836  13.387 -0.1079  0.8596  0.3224
  122MPD2    C4 1899   2.844   1.723  13.306  0.4163  0.5186  0.1974
  122MPD2    C5 1900   2.891   1.599  13.336  0.5989  0.1484 -1.0223
  122MPD2     H 1901   2.952   1.888  13.577 -1.4582 -0.6130  0.2506
  122MPD2    H1 1902   2.795   1.744  13.211  2.6530  0.2840 -0.9988
  122MPD2    H2 1903   3.006   1.478  13.462 -0.4945  0.2901  1.4349
  122MPD2    H3 1904   2.879   1.519  13.265 -0.2833 -0.1987 -0.4846
  122MPD2     N 1905   2.841   1.967  13.342 -0.0559  0.1524 -0.3984
  122MPD2    H5 1906   2.788   1.976  13.256 -0.8894  0.7940  0.1723
  122MPD2    N1 1907   3.065   1.661  13.646 -0.0608  0.7393  0.7164
  122MPD2    H7 1908   3.055   1.730  13.720 -2.0506  1.5286 -0.2756
  123TMC2    C1 1909   0.789   1.563  10.360  0.2610  0.8659  0.3567
  123TMC2    C2 1910   0.780   1.695  10.351 -0.3738 -0.0355 -0.2943
  123TMC2    C3 1911   0.826   1.758  10.240  0.8980 -0.3306  0.3920
  123TMC2    C4 1912   0.846   1.486  10.265  0.7483 -0.7754  0.3121
  123TMC2    C5 1913   0.893   1.546  10.151  0.4763 -0.4356 -0.0612
  123TMC2    C6 1914   0.895   1.682  10.142  0.2643  0.4366 -0.0229
  123TMC2     C 1915   0.767   1.512  10.498  0.1044  0.4449  0.3482
  123TMC2     O 1916   0.681   1.562  10.572  0.5015  0.2897  0.1572
  123TMC2     H 1917   0.725   1.737  10.434  0.1105 -0.3430  0.1806
  123TMC2    H1 1918   0.831   1.379  10.267  1.4460 -0.9121 -1.0979
  123TMC2    H2 1919   0.935   1.740  10.059 -1.5543  1.2996 -0.2880
  123TMC2    C7 1920   0.933   1.463  10.043  0.8474 -0.2961 -0.1701
  123TMC2    C8 1921   0.817   1.902  10.224 -1.4543 -0.4560 -0.4512
  123TMC2    O1 1922   0.864   1.371  10.009  0.6879  0.3320 -0.1289
  123TMC2    O2 1923   0.872   1.948  10.124 -0.0491  0.3828 -0.7176
  123TMC2    O5 1924   0.778   1.964  10.336 -0.6937 -0.3225 -0.2348
  123TMC2    H5 1925   0.754   1.908  10.413 -0.4824  0.7792  0.6410
  124MPD2     C 1926   0.791   1.116  10.823  0.4603  0.5131  0.1168
  124MPD2    C1 1927   0.845   1.069  10.704 -0.0595 -0.0981 -0.1049
  124MPD2    C2 1928   0.858   1.162  10.601 -0.6516  0.1458 -0.4757
  124MPD2    C3 1929   0.815   1.294  10.625 -0.4854 -0.1874  0.6506
  124MPD2    C4 1930   0.747   1.328  10.734 -0.1430  0.2681  0.4048
  124MPD2    C5 1931   0.741   1.243  10.840  0.3929  1.6605  0.7904
  124MPD2     H 1932   0.915   1.140  10.512 -0.5514  0.1367 -0.4094
  124MPD2    H1 1933   0.709   1.427  10.757 -1.8037 -0.2105 -0.3134
  124MPD2    H2 1934   0.780   1.038  10.898  0.8335 -1.2428 -1.6671
  124MPD2    H3 1935   0.690   1.282  10.928 -2.4990 -1.7581  0.6640
  124MPD2     N 1936   0.826   1.389  10.521 -0.5037  0.1973 -0.6296
  124MPD2    H5 1937   0.895   1.367  10.450 -1.2601 -1.6417 -0.7819
  124MPD2    N1 1938   0.866   0.932  10.677 -0.7908 -0.6706  0.6552
  124MPD2    H7 1939   0.819   0.871  10.743  1.5518 -2.0601  1.0331
  125TMC2    C1 1940   1.568   1.769   9.812  0.3390  0.2172 -0.4421
  125TMC2    C2 1941   1.584   1.658   9.889  0.2388  0.4178 -0.7647
  125TMC2    C3 1942   1.642   1.549   9.830  0.1999  0.9380  0.0871
  125TMC2    C4 1943   1.603   1.774   9.681 -0.4454 -0.5979 -0.5131
  125TMC2    C5 1944   1.647   1.659   9.626  0.2962  0.0425  0.1251
  125TMC2    C6 1945   1.674   1.546   9.700 -0.0209 -0.2665  0.2298
  125TMC2     C 1946   1.522   1.891   9.880 -0.7744 -0.2073 -0.7176
  125TMC2     O 1947   1.453   1.875   9.982  0.0068 -0.3156  0.2868
  125TMC2     H 1948   1.541   1.654   9.988  2.4865  1.8776  0.2672
  125TMC2    H1 1949   1.574   1.864   9.628 -0.5917 -1.4393 -1.8262
  125TMC2    H2 1950   1.708   1.453   9.655  0.5513  0.8000 -1.5363
  125TMC2    C7 1951   1.677   1.648   9.486 -0.4252 -0.4572 -0.8042
  125TMC2    C8 1952   1.680   1.431   9.910 -0.1201 -0.8693  0.1706
  125TMC2    O1 1953   1.667   1.539   9.434  0.2748 -0.2207  0.0504
  125TMC2    O2 1954   1.663   1.314   9.874  0.4000 -0.1735  0.2173
  125TMC2    O5 1955   1.681   1.476  10.036 -0.4016 -0.2003  0.4750
  125TMC2    H5 1956   1.698   1.571  10.048 -1.5561  0.2421 -1.3909
  126MPD1     C 1957   1.432   2.395   9.885  0.2561 -0.3029 -0.1176
  126MPD1    C1 1958   1.543   2.375   9.800  0.1232 -0.3547 -1.0047
  126MPD1    C2 1959   1.590   2.243   9.796 -0.1532 -0.1825  0.2462
  126MPD1    C3 1960   1.529   2.137   9.854 -0.4395 -0.4276 -0.6844
  126MPD1    C4 1961   1.420   2.161   9.924  0.1540  0.1403  0.1389
  126MPD1    C5 1962   1.379   2.287   9.948  0.4836  0.2113 -0.0982
  126MPD1     H 1963   1.677   2.222   9.735 -0.6010  0.6393 -0.6741
  126MPD1    H1 1964   1.355   2.086   9.966 -1.0131  1.2548  0.3065
  126MPD1    H2 1965   1.394   2.494   9.909  4.5572  1.4466 -0.5147
  126MPD1    H3 1966   1.283   2.308   9.993  0.1780 -0.9923 -0.1711
  126MPD1     N 1967   1.570   2.010   9.820 -0.2233 -0.3489  0.4837
  126MPD1    H5 1968   1.651   2.000   9.759  1.7594  0.7803  2.9190
  126MPD1    N1 1969   1.615   2.491   9.748 -0.1110  0.1212 -1.0925
  126MPD1    H6 1970   1.652   2.468   9.656 -0.4189 -1.3546 -0.8527
  126MPD1    H7 1971   1.553   2.572   9.746  0.0858  0.2916 -0.1255
  127TMC2    C1 1972   2.631   1.313   9.813 -0.3230 -0.2980  0.3450
  127TMC2    C2 1973   2.741   1.235   9.830  0.3607  0.1842  0.2528
  127TMC2    C3 1974   2.729   1.130   9.919 -0.3837 -0.5561 -1.4090
  127TMC2    C4 1975   2.505   1.280   9.871  1.2329 -0.4322 -0.8168
  127TMC2    C5 1976   2.502   1.168   9.955  0.6474  0.1201 -0.2420
  127TMC2    C6 1977   2.616   1.107   9.989 -0.2277 -0.4353 -0.8353
  127TMC2     C 1978   2.643   1.439   9.744  0.3932  0.9645  0.6922
  127TMC2     O 1979   2.755   1.478   9.717  0.3767 -0.5466  0.4254
  127TMC2     H 1980   2.840   1.255   9.792 -0.9068  1.5363 -2.3367
  127TMC2    H1 1981   2.422   1.344   9.843  0.6191 -1.1957 -0.7186
  127TMC2    H2 1982   2.612   1.032  10.067  2.7908 -0.1362 -0.3876
  127TMC2    C7 1983   2.375   1.125  10.009  0.2211 -0.3123 -0.3782
  127TMC2    C8 1984   2.818   1.019   9.912 -0.1104 -0.1002  0.2890
  127TMC2    O1 1985   2.285   1.201   9.981 -0.3237 -0.0355  0.0884
  127TMC2    O2 1986   2.939   1.030   9.906  0.2030  0.0848  0.3270
  127TMC2    O5 1987   2.758   0.921   9.838 -0.1730  0.4492 -0.2013
  127TMC2    H5 1988   2.664   0.936   9.815 -0.3790 -0.5355  0.0018
  128MPD2     C 1989   2.387   1.593   9.530  0.1125 -0.4785  0.2182
  128MPD2    C1 1990   2.510   1.581   9.573 -0.6137 -0.3829  0.8738
  128MPD2    C2 1991   2.617   1.662   9.523 -0.5629 -0.4587 -0.2349
  128MPD2    C3 1992   2.582   1.754   9.424 -0.2863 -0.0432  0.2324
  128MPD2    C4 1993   2.453   1.766   9.385  0.0620  0.7132 -0.7144
  128MPD2    C5 1994   2.358   1.686   9.435 -0.2833  0.1050 -0.6408
  128MPD2     H 1995   2.722   1.664   9.548 -1.0487 -0.5685  1.8447
  128MPD2    H1 1996   2.415   1.828   9.304 -1.1742  0.3306 -0.4307
  128MPD2    H2 1997   2.302   1.537   9.567 -0.2618 -1.0648 -1.5040
  128MPD2    H3 1998   2.259   1.698   9.391  0.0889 -0.6439 -1.6785
  128MPD2     N 1999   2.691   1.831   9.374  0.9388 -0.4925  0.1698
  128MPD2    H5 2000   2.783   1.813   9.412  0.4256  1.1716  2.2259
  128MPD2    N1 2001   2.525   1.487   9.675  0.0042 -0.0535 -0.2100
  128MPD2    H7 2002   2.437   1.450   9.707  0.8517 -0.8948  1.1584
  129TMC2    C1 2003   2.107   1.158   1.090  0.1011 -0.2055  0.8475
  129TMC2    C2 2004   2.066   1.286   1.106 -0.5537 -0.9218 -0.2925
  129TMC2    C3 2005   1.942   1.302   1.165 -0.5459 -0.2909  0.6683
  129TMC2    C4 2006   2.038   1.045   1.135  0.3857 -0.0768 -0.2913
  129TMC2    C5 2007   1.925   1.073   1.208 -1.0256 -0.1808  0.1307
  129TMC2    C6 2008   1.869   1.195   1.215  0.1052 -0.6653  0.5160
  129TMC2     C 2009   2.242   1.125   1.040 -0.7694  0.5039  0.2507
  129TMC2     O 2010   2.265   1.007   1.014  0.3895 -0.1290  0.5526
  129TMC2     H 2011   2.112   1.376   1.067 -3.5626  0.1670 -1.3758
  129TMC2    H1 2012   2.060   0.945   1.098 -1.0708 -0.2278 -0.7292
  129TMC2    H2 2013   1.774   1.216   1.261  0.1314  0.7478 -0.0591
  129TMC2    C7 2014   1.823   0.973   1.234  0.4358 -0.8071  0.0013
  129TMC2    C8 2015   1.915   1.435   1.208 -0.1050  0.0323  0.5113
  129TMC2    O1 2016   1.708   1.005   1.249 -0.5742 -0.0131 -0.4241
  129TMC2    O2 2017   1.924   1.534   1.132 -0.6243 -0.2978  0.6076
  129TMC2    O5 2018   1.897   1.438   1.341 -0.0653 -0.5061 -0.4070
  129TMC2    H5 2019   1.908   1.349   1.381 -0.6601 -1.3045 -2.0478
  130MPD2     C 2020   2.460   1.172   0.851  0.7764 -0.2821  0.2231
  130MPD2    C1 2021   2.425   1.264   0.948 -0.1045 -0.4596 -0.2244
  130MPD2    C2 2022   2.499   1.379   0.964  0.7138 -0.1635 -0.8427
  130MPD2    C3 2023   2.617   1.405   0.884  0.4419 -0.0356  0.7995
  130MPD2    C4 2024   2.649   1.320   0.782 -0.1062  0.8433  0.0517
  130MPD2    C5 2025   2.570   1.206   0.770  1.0883 -0.5553  0.8474
  130MPD2     H 2026   2.461   1.451   1.035  0.8714  0.1710 -1.0970
  130MPD2    H1 2027   2.731   1.335   0.713 -0.4320 -1.0471 -0.7483
  130MPD2    H2 2028   2.401   1.081   0.855 -1.4968  1.1643 -0.3389
  130MPD2    H3 2029   2.610   1.142   0.692  1.2003 -1.5282  1.7046
  130MPD2     N 2030   2.703   1.510   0.920 -0.3201  0.0553  0.4194
  130MPD2    H5 2031   2.684   1.544   1.014  1.3475  0.0841  0.7311
  130MPD2    N1 2032   2.320   1.239   1.030 -0.0442  0.0298  0.2301
  130MPD2    H7 2033   2.286   1.317   1.084 -1.6014 -0.0048 -0.6988
  131TMC2    C1 2034   0.785   1.191   9.713 -0.5671 -0.0850  0.4914
  131TMC2    C2 2035   0.670   1.269   9.712  0.4440  0.6395 -0.3057
  131TMC2    C3 2036   0.677   1.386   9.636 -0.1086 -1.1809  0.2709
  131TMC2    C4 2037   0.900   1.214   9.645  0.3604  0.1201 -0.4993
  131TMC2    C5 2038   0.901   1.332   9.575  0.2710  0.1952 -0.5164
  131TMC2    C6 2039   0.792   1.417   9.567 -0.2996  0.8284  0.5505
  131TMC2     C 2040   0.784   1.079   9.810 -0.3726 -0.1475 -0.1495
  131TMC2     O 2041   0.727   1.093   9.917  0.0392  1.0094  0.2851
  131TMC2     H 2042   0.581   1.231   9.760  2.0279 -0.9062  1.3901
  131TMC2    H1 2043   0.984   1.146   9.634  0.9379  0.9050 -0.9543
  131TMC2    H2 2044   0.802   1.518   9.530  2.0236 -0.6121 -2.6422
  131TMC2    C7 2045   1.023   1.372   9.510 -0.7623 -0.5543 -0.1734
  131TMC2    C8 2046   0.575   1.482   9.637  0.8665  0.3951  0.1156
  131TMC2    O1 2047   1.101   1.279   9.479  0.1096 -0.2086 -0.4572
  131TMC2    O2 2048   0.553   1.561   9.546 -0.0705  0.0818  0.4185
  131TMC2    O5 2049   0.522   1.498   9.762 -0.0875  0.4958 -0.3339
  131TMC2    H5 2050   0.557   1.432   9.826  1.7983  2.7044  0.8708
  132MPD2     C 2051   0.903   0.738   9.739 -0.6423  0.2915  0.5804
  132MPD2    C1 2052   0.863   0.846   9.818 -0.0422 -0.1884 -0.0405
  132MPD2    C2 2053   0.854   0.833   9.962 -0.2847  0.0535  0.1714
  132MPD2    C3 2054   0.865   0.709  10.018  0.4542  0.5743  0.5335
  132MPD2    C4 2055   0.911   0.604   9.937  0.1673 -0.1302  0.2809
  132MPD2    C5 2056   0.924   0.619   9.800 -0.4606  0.7570 -0.1208
  132MPD2     H 2057   0.833   0.915  10.028  1.1601  0.9321 -0.4526
  132MPD2    H1 2058   0.935   0.502   9.966  0.0995 -0.4345 -0.7380
  132MPD2    H2 2059   0.909   0.750   9.632  0.4123  2.1246  0.8318
  132MPD2    H3 2060   0.964   0.527   9.761 -1.9995 -0.2885  0.7719
  132MPD2     N 2061   0.868   0.701  10.161 -1.0043 -0.1910  0.7627
  132MPD2    H5 2062   0.845   0.780  10.220 -3.3291  1.8507 -2.9333
  132MPD2    N1 2063   0.841   0.970   9.750  0.5563  0.9185 -0.1367
  132MPD2    H7 2064   0.865   0.969   9.651 -1.5760  0.8973 -0.6399
  133TMC2    C1 2065   0.143   2.303   9.315 -0.4312 -0.4163 -0.3620
  133TMC2    C2 2066   0.069   2.403   9.253  0.5258  0.1926  0.9297
  133TMC2    C3 2067   0.047   2.516   9.326  0.4028 -0.0475  0.3327
  133TMC2    C4 2068   0.185   2.309   9.444  0.2396  0.0254  0.1441
  133TMC2    C5 2069   0.159   2.428   9.519 -0.6614 -0.4077  0.7786
  133TMC2    C6 2070   0.092   2.529   9.453  0.0690  0.3158  0.1851
  133TMC2     C 2071   0.151   2.176   9.250  0.8222  0.1420 -0.1113
  133TMC2     O 2072   0.247   2.110   9.283 -0.1354  0.3289 -0.2840
  133TMC2     H 2073   0.045   2.402   9.147 -1.1580 -1.1191  1.3159
  133TMC2    H1 2074   0.245   2.234   9.494 -0.9573  0.3168  2.0209
  133TMC2    H2 2075   0.052   2.613   9.509  0.2865  0.1190  0.6333
  133TMC2    C7 2076   0.204   2.427   9.661  0.5853  0.5952 -0.7271
  133TMC2    C8 2077   0.022   2.630   9.244 -0.1500 -0.1852 -0.1299
  133TMC2    O1 2078   0.260   2.328   9.713  0.2056 -0.4411 -0.2213
  133TMC2    O2 2079   4.677   2.631   9.154 -0.6626 -0.1566 -0.6548
  133TMC2    O5 2080   0.104   2.728   9.282 -0.1954 -0.0096  0.1781
  133TMC2    H5 2081   0.162   2.708   9.359  0.3564  2.0276  0.2764
  134MPD2     C 2082   4.706   2.032   8.967 -0.3283 -0.3973  0.3924
  134MPD2    C1 2083   0.039   2.021   9.081 -0.7451 -0.0560  0.1828
  134MPD2    C2 2084   0.086   1.894   9.128  0.2714  0.0309  0.7778
  134MPD2    C3 2085   0.045   1.784   9.062 -0.3436 -0.0500  0.0972
  134MPD2    C4 2086   4.701   1.795   8.947 -0.5858  0.1481 -0.5702
  134MPD2    C5 2087   4.672   1.923   8.901  0.8992  0.3409  0.0557
  134MPD2     H 2088   0.151   1.890   9.214 -1.0465 -0.4017  1.7474
  134MPD2    H1 2089   4.661   1.707   8.898 -1.5982  1.7855 -2.6853
  134MPD2    H2 2090   4.690   2.129   8.921 -2.0890 -0.8603  0.0115
  134MPD2    H3 2091   4.613   1.937   8.811  3.1773 -0.4891 -1.5865
  134MPD2     N 2092   0.095   1.658   9.093  0.3367 -0.0910 -0.4272
  134MPD2    H5 2093   0.062   1.579   9.039 -2.2315  0.9320 -0.3558
  134MPD2    N1 2094   0.069   2.143   9.143  0.0423  0.0051  0.6681
  134MPD2    H7 2095   0.001   2.213   9.112 -0.3859  0.3576  2.3963
  135TMC2    C1 2096   2.192   3.150   9.780 -0.0980 -0.2005 -0.0360
  135TMC2    C2 2097   2.100   3.202   9.690 -0.2088 -0.0987 -0.3665
  135TMC2    C3 2098   1.974   3.223   9.726  0.3495 -0.3137 -0.3597
  135TMC2    C4 2099   2.138   3.104   9.899  0.1488 -0.0873  0.5566
  135TMC2    C5 2100   2.009   3.135   9.930  0.2374  0.2213 -0.2228
  135TMC2    C6 2101   1.925   3.200   9.849  0.3329 -0.1195  0.2799
  135TMC2     C 2102   2.332   3.136   9.746  0.2163 -0.0174 -0.1149
  135TMC2     O 2103   2.408   3.132   9.841 -0.0433 -0.3883  0.3420
  135TMC2     H 2104   2.128   3.233   9.590 -1.1481  0.0366 -0.5863
  135TMC2    H1 2105   2.197   3.046   9.970  1.8406  1.5750  0.4842
  135TMC2    H2 2106   1.825   3.233   9.876  0.4051  0.1044  0.2724
  135TMC2    C7 2107   1.964   3.118  10.069  0.1721 -0.0586  0.1492
  135TMC2    C8 2108   1.877   3.225   9.626 -0.3083 -0.3176 -0.6226
  135TMC2    O1 2109   2.036   3.067  10.152  0.0298 -0.3068  0.2373
  135TMC2    O2 2110   1.770   3.286   9.627  0.1903 -0.3723 -0.4451
  135TMC2    O5 2111   1.894   3.118   9.547 -0.0918  0.1233 -0.1389
  135TMC2    H5 2112   1.982   3.076   9.541 -0.2481 -0.3517  0.8664
  136MPD2     C 2113   2.588   3.119   9.615  0.0681  0.8250 -0.1755
  136MPD2    C1 2114   2.472   3.117   9.537  0.4081 -1.0757 -0.9576
  136MPD2    C2 2115   2.471   3.090   9.404  0.5219  0.2406 -0.1395
  136MPD2    C3 2116   2.586   3.045   9.342 -0.7898  0.2980 -0.2632
  136MPD2    C4 2117   2.703   3.046   9.416 -0.5969 -0.3689  0.3792
  136MPD2    C5 2118   2.710   3.096   9.545  1.0812 -0.5096 -0.0717
  136MPD2     H 2119   2.376   3.087   9.351 -0.1227  0.4137  1.0004
  136MPD2    H1 2120   2.794   3.029   9.360  0.8741  1.2017  2.3326
  136MPD2    H2 2121   2.594   3.129   9.723  0.0833 -2.7310  0.1500
  136MPD2    H3 2122   2.803   3.104   9.601 -0.8132  0.0090  2.9786
  136MPD2     N 2123   2.594   2.987   9.208  0.4178 -0.0661 -0.4278
  136MPD2    H5 2124   2.682   2.940   9.190  1.8869  2.2205  0.7723
  136MPD2    N1 2125   2.355   3.135   9.609 -0.1351  0.2091  0.2094
  136MPD2    H7 2126   2.274   3.139   9.549 -0.0855  0.7602  0.1771
  137TMC2    C1 2127   2.239   2.411   9.836 -0.5854 -0.1529  0.1914
  137TMC2    C2 2128   2.369   2.420   9.836 -0.0058  0.3749  0.3247
  137TMC2    C3 2129   2.421   2.523   9.757  0.3914 -0.9582 -0.2959
  137TMC2    C4 2130   2.156   2.491   9.769  0.0238 -0.3038  0.0814
  137TMC2    C5 2131   2.213   2.581   9.690  0.8630 -0.6307  1.1502
  137TMC2    C6 2132   2.342   2.606   9.679 -0.0950 -0.5122 -0.8052
  137TMC2     C 2133   2.184   2.322   9.941 -0.7242 -0.6638  0.0649
  137TMC2     O 2134   2.070   2.349   9.969  0.6103 -0.7675 -0.1009
  137TMC2     H 2135   2.432   2.359   9.900  0.0040 -0.3075 -0.3183
  137TMC2    H1 2136   2.051   2.475   9.791  0.4020 -1.3416  1.1306
  137TMC2    H2 2137   2.385   2.671   9.604 -0.2333  1.0396  0.4805
  137TMC2    C7 2138   2.123   2.646   9.590 -0.6166  0.4165 -0.1820
  137TMC2    C8 2139   2.561   2.534   9.751 -0.3164 -0.2722 -0.2687
  137TMC2    O1 2140   2.161   2.751   9.543 -0.2174  0.1802 -0.1094
  137TMC2    O2 2141   2.634   2.435   9.764  0.6592 -0.3976  1.2519
  137TMC2    O5 2142   2.603   2.660   9.728  0.2485 -0.1755  0.2117
  137TMC2    H5 2143   2.537   2.730   9.747 -0.0762 -0.8497  1.6127
  138MPD2     C 2144   2.269   1.992  10.062  0.3815 -0.8003 -0.0458
  138MPD2    C1 2145   2.230   2.120  10.074 -0.0152  0.2126 -0.0369
  138MPD2    C2 2146   2.144   2.155  10.177  0.5453  0.3749  0.0809
  138MPD2    C3 2147   2.090   2.065  10.270 -0.0799  0.2539 -0.7626
  138MPD2    C4 2148   2.130   1.936  10.254 -0.6279 -0.0318 -0.3010
  138MPD2    C5 2149   2.227   1.903  10.155 -0.7383  0.7820  0.1842
  138MPD2     H 2150   2.104   2.256  10.181 -0.8929 -0.2388  1.1459
  138MPD2    H1 2151   2.092   1.863  10.325  0.1937  0.0535  0.2269
  138MPD2    H2 2152   2.330   1.953   9.981 -2.2835  0.7952 -2.8034
  138MPD2    H3 2153   2.264   1.801  10.147 -3.0287 -0.2283  2.6066
  138MPD2     N 2154   2.002   2.124  10.365 -0.1993  0.1332 -0.2581
  138MPD2    H5 2155   1.995   2.225  10.366  0.4990  0.1813  0.8424
  138MPD2    N1 2156   2.254   2.209   9.968  0.5459  0.1240 -0.0676
  138MPD2    H7 2157   2.333   2.201   9.905  1.3730  2.0629  0.7056
  139TMC2    C1 2158   3.074   4.512  13.499 -0.7641  0.0399  0.0353
  139TMC2    C2 2159   3.138   4.523  13.378 -0.5236  0.3501  0.1477
  139TMC2    C3 2160   3.138   4.651  13.325  0.5932  0.0785 -0.3348
  139TMC2    C4 2161   3.032   4.620  13.578 -0.4602 -0.3513  0.6838
  139TMC2    C5 2162   3.031   0.004  13.511 -0.0162 -0.1887 -0.0004
  139TMC2    C6 2163   3.078   0.023  13.385  0.5595 -0.4001 -0.4295
  139TMC2     C 2164   3.039   4.375  13.534  0.5699  0.0384 -0.2869
  139TMC2     O 2165   3.078   4.293  13.457  0.2275 -0.2939  0.7052
  139TMC2     H 2166   3.188   4.442  13.326 -0.5567 -0.6266  1.6730
  139TMC2    H1 2167   2.968   4.601  13.663 -0.8201 -0.0901  0.4673
  139TMC2    H2 2168   3.075   0.118  13.334  0.8094 -0.1479  0.0295
  139TMC2    C7 2169   2.979   0.126  13.576  0.7133 -0.3240  0.0044
  139TMC2    C8 2170   3.165   4.653  13.182 -0.3910 -0.4717 -0.4667
  139TMC2    O1 2171   2.953   0.220  13.500  0.1497 -0.4177  0.4962
  139TMC2    O2 2172   3.152   4.548  13.119  0.0908  0.1494  0.0653
  139TMC2    O5 2173   3.266   0.008  13.162 -0.2395 -0.4764 -0.0722
  139TMC2    H5 2174   3.273   0.065  13.241  1.3062  1.2209 -1.4552
  140MPD2     C 2175   2.801   4.253  13.784 -0.3606  0.4643  0.0159
  140MPD2    C1 2176   2.896   4.249  13.689  0.7645  1.1179 -0.1943
  140MPD2    C2 2177   2.936   4.121  13.654  0.1135 -1.0329  0.6816
  140MPD2    C3 2178   2.877   4.008  13.711 -0.2938  0.8193 -0.2674
  140MPD2    C4 2179   2.781   4.016  13.811  0.7531 -0.1650 -0.1575
  140MPD2    C5 2180   2.736   4.142  13.844  0.7874  0.7292 -0.0187
  140MPD2     H 2181   3.016   4.103  13.583  0.6613 -0.9035  1.2714
  140MPD2    H1 2182   2.735   3.930  13.860 -0.5340  0.5160 -0.1705
  140MPD2    H2 2183   2.776   4.355  13.812 -1.9340  0.2189 -0.4820
  140MPD2    H3 2184   2.660   4.155  13.920 -0.1378 -0.0684 -0.7947
  140MPD2     N 2185   2.923   3.885  13.670 -0.2877 -0.0205  0.3943
  140MPD2    H5 2186   3.004   3.876  13.611 -0.5589  0.9622 -0.1310
  140MPD2    N1 2187   2.948   4.368  13.636  0.5057 -0.1979  1.0816
  140MPD2    H7 2188   2.909   4.454  13.674  0.1046  1.0690 -2.2046
  141TMC2    C1 2189   3.983   1.411  13.940  0.0743  0.4044  0.1652
  141TMC2    C2 2190   3.908   1.299  13.926 -0.2948  0.3130  0.0835
  141TMC2    C3 2191   3.831   1.268  14.030  0.3714 -0.0387  0.0403
  141TMC2    C4 2192   3.981   1.492  14.051  0.5904  0.2253 -0.8044
  141TMC2    C5 2193   3.912   1.449  14.158  0.1671 -0.4587 -0.7350
  141TMC2    C6 2194   3.826   1.336  14.149 -0.7892  0.3285 -0.1585
  141TMC2     C 2195   3.988   1.493  13.816  0.4841 -0.8049  0.5929
  141TMC2     O 2196   4.011   1.615  13.832 -0.0366  0.1789  0.1960
  141TMC2     H 2197   3.921   1.236  13.839  3.7949  0.5311  0.5412
  141TMC2    H1 2198   4.055   1.570  14.059 -0.4978  1.4115 -2.3570
  141TMC2    H2 2199   3.760   1.305  14.230 -1.0226 -0.2433 -0.5689
  141TMC2    C7 2200   3.948   1.509  14.292  0.4639 -0.0744 -0.1916
  141TMC2    C8 2201   3.778   1.133  14.033  0.1577 -0.5567 -0.5274
  141TMC2    O1 2202   4.008   1.620  14.290 -0.2388 -0.8614 -0.0592
  141TMC2    O2 2203   3.756   1.076  14.140 -0.4328  0.3474  0.1818
  141TMC2    O5 2204   3.771   1.069  13.913 -0.1886 -0.2847  0.1018
  141TMC2    H5 2205   3.779   1.139  13.845  1.8882 -1.7060 -1.1149
  142TMC2    C1 2206   1.258   0.663   9.866 -0.0637 -0.3678  0.0812
  142TMC2    C2 2207   1.280   0.624   9.731 -0.0943 -0.2044 -0.1706
  142TMC2    C3 2208   1.286   0.730   9.643  0.1849  0.8742  0.1175
  142TMC2    C4 2209   1.236   0.794   9.899 -0.7564 -0.2516  0.4050
  142TMC2    C5 2210   1.232   0.886   9.799 -0.1015 -0.3358  0.6974
  142TMC2    C6 2211   1.252   0.859   9.670 -0.5848  0.0481 -0.1179
  142TMC2     C 2212   1.247   0.564   9.968 -0.5329  0.7691  0.3286
  142TMC2     O 2213   1.217   0.449   9.927 -0.3503  0.1041 -0.2485
  142TMC2     H 2214   1.305   0.520   9.709  2.7277  0.2156  1.0670
  142TMC2    H1 2215   1.227   0.832  10.000 -2.7937 -1.5964  0.7478
  142TMC2    H2 2216   1.241   0.941   9.600  2.3555  1.4859  1.1011
  142TMC2    C7 2217   1.180   1.018   9.838 -0.6450  0.0210 -0.6662
  142TMC2    C8 2218   1.307   0.696   9.503 -0.2007  0.7077 -0.6525
  142TMC2    O1 2219   1.114   1.029   9.943 -0.1444 -0.7730 -0.7476
  142TMC2    O2 2220   1.292   0.585   9.458 -0.2200  0.5235  0.1171
  142TMC2    O5 2221   1.397   0.785   9.454 -0.0113  0.2323 -0.1632
  142TMC2    H5 2222   1.400   0.855   9.522 -2.2375 -0.5803  0.8021
  143MPD2     C 2223   1.252   0.428  10.457 -0.1093 -0.0825  0.5676
  143MPD2    C1 2224   1.204   0.359  10.350 -0.0445 -0.5457  0.4407
  143MPD2    C2 2225   1.216   0.420  10.228  0.8181 -0.2869  0.0838
  143MPD2    C3 2226   1.269   0.546  10.218 -0.1330 -0.2504 -0.1104
  143MPD2    C4 2227   1.308   0.621  10.330 -0.3639  0.1647 -0.5178
  143MPD2    C5 2228   1.301   0.558  10.450  0.4892  0.3033 -0.5967
  143MPD2     H 2229   1.179   0.372  10.138  0.9492 -1.0620  0.4404
  143MPD2    H1 2230   1.337   0.725  10.318  1.0956 -0.2402 -0.4352
  143MPD2    H2 2231   1.234   0.379  10.552 -1.5596 -2.1375 -0.7689
  143MPD2    H3 2232   1.321   0.606  10.545  2.8784  1.3847 -1.6368
  143MPD2     N 2233   1.280   0.619  10.092  0.5381 -0.9670  0.4474
  143MPD2    H5 2234   1.317   0.713  10.098 -1.0557 -0.4307  1.9635
  143MPD2    N1 2235   1.144   0.234  10.372  0.5357  0.4039 -0.3452
  143MPD2    H7 2236   1.152   0.195  10.465 -0.2687  2.3491  0.5422
  144TMC2    C1 2237   3.598   3.283   1.111  0.2595  0.4629 -0.4797
  144TMC2    C2 2238   3.624   3.150   1.074  0.2663  0.4144 -0.3791
  144TMC2    C3 2239   3.739   3.092   1.134 -0.0780  0.1525  0.3169
  144TMC2    C4 2240   3.693   3.365   1.172  0.1656 -0.0605 -0.3898
  144TMC2    C5 2241   3.802   3.307   1.226 -0.1841 -0.4954  0.3179
  144TMC2    C6 2242   3.827   3.168   1.205  0.9276  0.3462  0.9630
  144TMC2     C 2243   3.473   3.341   1.060 -0.0298  0.4462  0.4119
  144TMC2     O 2244   3.381   3.265   1.040  0.4217 -0.1260 -0.0421
  144TMC2     H 2245   3.549   3.088   1.026  3.1389 -1.1591 -2.8299
  144TMC2    H1 2246   3.680   3.471   1.186 -1.4921 -0.0765 -1.8554
  144TMC2    H2 2247   3.909   3.117   1.254  2.8807  1.8976 -0.6819
  144TMC2    C7 2248   3.913   3.389   1.262  0.3548  0.0901 -0.2564
  144TMC2    C8 2249   3.812   2.993   1.062  0.3900  0.6665  0.5941
  144TMC2    O1 2250   4.017   3.337   1.241 -0.5368 -0.3014  0.3236
  144TMC2    O2 2251   3.893   2.915   1.115 -0.1745  0.1467 -0.6277
  144TMC2    O5 2252   3.834   3.054   0.943 -0.5236  0.2033 -0.0646
  144TMC2    H5 2253   3.777   3.130   0.916  0.0411  0.5934 -0.1745
  145MPD2     C 2254   3.274   3.673   0.721 -0.1945  0.1976  0.2908
  145MPD2    C1 2255   3.281   3.533   0.725 -0.0448 -0.2932  0.0698
  145MPD2    C2 2256   3.339   3.469   0.834  0.2481  0.4422 -0.0241
  145MPD2    C3 2257   3.405   3.538   0.934  0.2654  0.4631  0.4787
  145MPD2    C4 2258   3.402   3.685   0.928 -0.1684 -0.7236  0.3779
  145MPD2    C5 2259   3.333   3.740   0.825  0.0247  0.3083  0.5923
  145MPD2     H 2260   3.346   3.361   0.832 -1.4997  0.3767 -3.0012
  145MPD2    H1 2261   3.456   3.741   1.004 -0.8077  1.8257 -1.0627
  145MPD2    H2 2262   3.238   3.729   0.637 -1.8530  2.7080  2.6788
  145MPD2    H3 2263   3.338   3.848   0.817 -2.7415  0.3278 -0.6312
  145MPD2     N 2264   3.483   3.472   1.034 -0.4525 -0.1462 -0.3467
  145MPD2    H5 2265   3.542   3.536   1.086 -1.0135  0.1456 -0.0706
  145MPD2    N1 2266   3.246   3.454   0.615  0.8197 -0.5269  0.3041
  145MPD2    H7 2267   3.243   3.353   0.625  1.5310 -0.5650  0.1658
  146TMC2    C1 2268   0.325   2.302  12.306 -0.1370 -0.0900  0.7643
  146TMC2    C2 2269   0.229   2.307  12.214 -0.5253 -0.1771  0.3270
  146TMC2    C3 2270   0.258   2.271  12.085 -0.9177 -0.2211 -0.5152
  146TMC2    C4 2271   0.449   2.241  12.288 -0.2794  0.0443 -0.2430
  146TMC2    C5 2272   0.474   2.214  12.156 -0.0726  0.6619  0.1355
  146TMC2    C6 2273   0.380   2.220  12.048  0.3610  0.1881  0.2539
  146TMC2     C 2274   0.312   2.377  12.429  0.5249 -0.8737 -0.4635
  146TMC2     O 2275   0.250   2.482  12.430  0.7479  0.0920  0.2626
  146TMC2     H 2276   0.140   2.364  12.238  1.5926  2.1939  2.5272
  146TMC2    H1 2277   0.532   2.261  12.355 -1.9627  0.2014  1.7959
  146TMC2    H2 2278   0.413   2.207  11.945 -0.7481  1.9365 -0.3236
  146TMC2    C7 2279   0.615   2.174  12.134  0.5409 -0.4650  0.6121
  146TMC2    C8 2280   0.152   2.244  11.991  0.1153  1.0738 -0.6305
  146TMC2    O1 2281   0.665   2.183  12.025 -0.3619 -0.3945  0.4269
  146TMC2    O2 2282   0.037   2.274  12.015 -0.7638  0.2980 -0.0780
  146TMC2    O5 2283   0.191   2.135  11.925 -0.0867  0.1836  0.5078
  146TMC2    H5 2284   0.280   2.109  11.956 -0.7414 -2.3579  0.2571
  147MPD2     C 2285   1.042   1.928  12.256 -0.4677 -0.2540  0.4920
  147MPD2    C1 2286   0.944   1.888  12.341 -0.3113 -0.8532  0.0293
  147MPD2    C2 2287   0.821   1.954  12.340 -0.0762 -0.6581 -0.3368
  147MPD2    C3 2288   0.793   2.047  12.240 -0.7578  0.2585 -0.1929
  147MPD2    C4 2289   0.893   2.073  12.144 -0.6008 -0.3706 -0.8575
  147MPD2    C5 2290   1.014   2.014  12.161  0.2208 -0.3212 -0.0555
  147MPD2     H 2291   0.747   1.936  12.416 -0.7186  0.7670 -0.6162
  147MPD2    H1 2292   0.876   2.136  12.058  1.4535  0.9854 -0.2682
  147MPD2    H2 2293   1.145   1.895  12.257  0.1888  1.7500 -1.5926
  147MPD2    H3 2294   1.093   2.041  12.092  0.6447 -1.3102  0.0302
  147MPD2     N 2295   0.666   2.102  12.238  0.2690 -0.0963  0.5139
  147MPD2    H5 2296   0.609   2.070  12.316  0.9309  0.7329  1.3493
  147MPD2    N1 2297   0.981   1.800  12.443  0.4270  0.1561  0.0757
  147MPD2    H7 2298   1.073   1.757  12.439  0.3298  0.1552 -2.0738
  148TMC2    C1 2299   0.166   0.840  11.192  0.2304 -1.0145 -0.2421
  148TMC2    C2 2300   0.175   0.951  11.267  0.0332  1.0259 -0.7561
  148TMC2    C3 2301   0.280   1.037  11.269 -0.2848  0.2064  0.5082
  148TMC2    C4 2302   0.285   0.807  11.125 -0.2578  0.2919 -0.1394
  148TMC2    C5 2303   0.392   0.892  11.139  0.1872  0.6810 -0.5685
  148TMC2    C6 2304   0.381   1.016  11.189  0.1948  0.3641  0.1493
  148TMC2     C 2305   0.085   0.883  11.089 -0.9339 -0.0477  1.3094
  148TMC2     O 2306   0.040   0.992  11.106  0.7641 -0.0458 -0.3157
  148TMC2     H 2307   0.094   0.972  11.336  0.1045 -3.3655  0.6804
  148TMC2    H1 2308   0.301   0.707  11.088  2.3852  1.6766 -2.7244
  148TMC2    H2 2309   0.472   1.074  11.190 -0.2479  1.0697 -0.5792
  148TMC2    C7 2310   0.463   0.887  11.014  0.2279 -0.0112 -0.2139
  148TMC2    C8 2311   0.246   1.172  11.296 -0.1516 -0.4074 -0.0396
  148TMC2    O1 2312   0.497   0.774  10.985 -0.4815 -0.2864  0.2412
  148TMC2    O2 2313   0.130   1.204  11.314 -0.1236 -0.5084  0.0337
  148TMC2    O5 2314   0.357   1.237  11.337  0.0543  0.2220 -0.4646
  148TMC2    H5 2315   0.432   1.178  11.357  0.0168  0.1529 -0.5260
  149MPD2     C 2316   0.056   0.969  10.813  0.2203  0.2310  0.0860
  149MPD2    C1 2317   0.087   0.842  10.845  0.0886 -0.5977 -0.2905
  149MPD2    C2 2318   0.109   0.741  10.746  0.6523  0.3703  0.3303
  149MPD2    C3 2319   0.116   0.769  10.614  0.5179  0.2447 -0.2130
  149MPD2    C4 2320   0.095   0.906  10.588 -0.6015 -0.4852  0.1019
  149MPD2    C5 2321   0.051   1.000  10.679  0.1795  0.0683 -0.7475
  149MPD2     H 2322   0.132   0.642  10.784 -2.2310 -0.6102 -0.4690
  149MPD2    H1 2323   0.119   0.946  10.490  1.3332 -0.6346  0.5232
  149MPD2    H2 2324   0.010   1.039  10.881  1.1344  2.5419 -1.6669
  149MPD2    H3 2325   0.046   1.100  10.638  0.0891  0.0509 -0.7783
  149MPD2     N 2326   0.146   0.677  10.511  0.0437 -0.0423 -0.3837
  149MPD2    H5 2327   0.127   0.711  10.417  0.1013 -1.6166 -0.9720
  149MPD2    N1 2328   0.108   0.800  10.978  0.3909  0.0673 -0.9135
  149MPD2    H7 2329   0.150   0.709  10.996  0.4673 -0.1735 -2.2924
  150TMC2    C1 2330   1.847   0.262  12.742 -0.1669 -0.6813 -0.2994
  150TMC2    C2 2331   1.901   0.238  12.866  0.4486 -0.0782 -0.0763
  150TMC2    C3 2332   2.018   0.303  12.890 -0.3983  0.1137  0.2773
  150TMC2    C4 2333   1.915   0.330  12.645  0.3367  0.9345  0.3089
  150TMC2    C5 2334   2.041   0.382  12.671 -0.3342 -0.7057  0.2085
  150TMC2    C6 2335   2.088   0.377  12.800 -0.1935  0.1342 -0.1017
  150TMC2     C 2336   1.714   0.204  12.719  0.0863 -0.6961  0.3426
  150TMC2     O 2337   1.669   0.141  12.812 -0.2300  0.0834  0.3342
  150TMC2     H 2338   1.852   0.185  12.947 -0.3775  0.1583 -0.4184
  150TMC2    H1 2339   1.871   0.335  12.546 -0.3765  1.9261  0.6700
  150TMC2    H2 2340   2.178   0.427  12.834  0.2908 -1.4763  0.9986
  150TMC2    C7 2341   2.134   0.398  12.556  0.0509  0.0631  0.9897
  150TMC2    C8 2342   2.073   0.305  13.022 -0.2677 -0.2310  0.0101
  150TMC2    O1 2343   2.091   0.420  12.443  0.6040  0.3496  0.1156
  150TMC2    O2 2344   2.159   0.378  13.060  0.1636  0.2445  0.2105
  150TMC2    O5 2345   2.052   0.183  13.073 -0.5669 -0.0861  0.3778
  150TMC2    H5 2346   1.993   0.136  13.010  1.7276  0.3533 -2.1009
  151MPD2     C 2347   1.328   0.049  12.425  0.2931 -0.9839  0.2169
  151MPD2    C1 2348   1.387   0.156  12.359 -0.3390 -0.0691  0.2598
  151MPD2    C2 2349   1.489   0.221  12.426 -0.6437  0.6663  0.7157
  151MPD2    C3 2350   1.541   0.178  12.546  0.2562 -0.9230  0.3551
  151MPD2    C4 2351   1.485   0.065  12.603 -0.0397  0.0244 -0.4187
  151MPD2    C5 2352   1.375   0.003  12.547  0.0918  0.1331  0.0021
  151MPD2     H 2353   1.540   0.309  12.389  2.7172 -0.8773  1.5808
  151MPD2    H1 2354   1.522   0.027  12.697 -0.0285 -2.2959 -1.3524
  151MPD2    H2 2355   1.255   4.722  12.374  0.8888 -3.2562  2.1782
  151MPD2    H3 2356   1.328   4.656  12.600 -0.5697  1.2272  1.0862
  151MPD2     N 2357   1.657   0.232  12.600 -0.0164 -0.5782 -0.6358
  151MPD2    H5 2358   1.696   0.308  12.545 -0.6341  0.0274 -0.2407
  151MPD2    N1 2359   1.353   0.189  12.228  0.4218 -0.1341 -0.1370
  151MPD2    H7 2360   1.280   0.128  12.193  0.1074  0.1966 -0.0611
  152TMC2    C1 2361   2.126   4.566  12.875  0.2506 -0.0951 -0.1914
  152TMC2    C2 2362   2.173   4.468  12.958 -1.0712  0.3953  0.1738
  152TMC2    C3 2363   2.300   4.478  13.004 -0.0189 -0.4111  0.5361
  152TMC2    C4 2364   2.198   4.673  12.854 -0.3002  0.2614 -0.0037
  152TMC2    C5 2365   2.327   4.691  12.906  0.2862  0.0542 -0.3879
  152TMC2    C6 2366   2.377   4.586  12.984  0.4902  0.0101 -0.1744
  152TMC2     C 2367   1.985   4.596  12.890  0.2859  0.3898  0.2503
  152TMC2     O 2368   1.955   4.706  12.942 -0.0362 -0.2548 -0.1413
  152TMC2     H 2369   2.099   4.396  12.991 -0.0805 -0.1079  1.3008
  152TMC2    H1 2370   2.142   0.016  12.805 -1.0571 -0.2525  0.0526
  152TMC2    H2 2371   2.465   4.603  13.045 -0.7623 -0.3198  1.7325
  152TMC2    C7 2372   2.379   0.095  12.908 -0.0995 -0.6365 -0.1455
  152TMC2    C8 2373   2.349   4.388  13.105  0.3287 -0.3716  0.1981
  152TMC2    O1 2374   2.297   0.177  12.871 -0.0608  0.3822  0.4406
  152TMC2    O2 2375   2.282   4.300  13.156 -0.5935  0.7480  0.1975
  152TMC2    O5 2376   2.483   4.373  13.081 -0.0909 -0.3535  0.7067
  152TMC2    H5 2377   2.526   4.431  13.015 -0.4985 -0.5764  0.2456
  153MPD2     C 2378   1.713   4.366  12.850 -0.0178  0.5300 -0.4550
  153MPD2    C1 2379   1.769   4.486  12.875  0.6684 -0.2295 -0.1844
  153MPD2    C2 2380   1.690   4.595  12.901 -0.3269 -0.2033 -0.2612
  153MPD2    C3 2381   1.554   4.591  12.898 -0.1206  0.1343 -0.6829
  153MPD2    C4 2382   1.495   4.466  12.868  0.6017 -0.4826  0.0315
  153MPD2    C5 2383   1.576   4.362  12.842  0.6332 -0.2113 -0.3109
  153MPD2     H 2384   1.732   4.692  12.925 -0.8054  0.1370 -0.7840
  153MPD2    H1 2385   1.389   4.446  12.872  0.1533  1.7292 -0.7019
  153MPD2    H2 2386   1.765   4.271  12.838 -0.9693 -0.0052 -0.4205
  153MPD2    H3 2387   1.529   4.272  12.803  0.4920 -0.0980 -0.4044
  153MPD2     N 2388   1.483   4.709  12.944 -0.0152  0.1538  0.3784
  153MPD2    H5 2389   1.541   0.055  12.962 -1.6749  0.8960  2.4370
  153MPD2    N1 2390   1.910   4.488  12.866 -0.1187  0.5471  0.2905
  153MPD2    H7 2391   1.956   4.408  12.823  0.2594  0.7605  0.3034
  154TMC2    C1 2392   3.726   0.198   0.998 -0.0557 -0.7991  0.8486
  154TMC2    C2 2393   3.780   0.267   1.107  0.0617 -0.0255  0.1550
  154TMC2    C3 2394   3.908   0.240   1.147 -0.5376 -0.2491 -0.6884
  154TMC2    C4 2395   3.801   0.102   0.938 -0.2080  0.2539 -0.5222
  154TMC2    C5 2396   3.933   0.086   0.972 -0.2770  0.6163 -0.0303
  154TMC2    C6 2397   3.982   0.155   1.077  0.0445  0.6172 -0.2373
  154TMC2     C 2398   3.584   0.220   0.974  0.1081  0.8309  0.0109
  154TMC2     O 2399   3.516   0.280   1.055 -0.2563  0.9304  0.3133
  154TMC2     H 2400   3.716   0.333   1.166  1.4148  1.7962 -0.4245
  154TMC2    H1 2401   3.746   0.037   0.871 -1.1527 -0.2883  0.7934
  154TMC2    H2 2402   4.088   0.151   1.098  0.5001  0.1416 -2.6584
  154TMC2    C7 2403   3.999   4.687   0.937 -0.4048  0.3889 -0.5000
  154TMC2    C8 2404   3.959   0.311   1.261 -0.0639 -0.3007  0.5341
  154TMC2    O1 2405   4.101   4.657   0.998 -0.1040 -0.4866  0.0752
  154TMC2    O2 2406   3.909   0.414   1.306  0.1214 -0.2517  0.0277
  154TMC2    O5 2407   4.059   0.242   1.326 -0.7441 -0.1192 -1.1687
  154TMC2    H5 2408   4.062   0.152   1.286 -0.8770 -0.8754  0.5162
  155MPD2     C 2409   3.404   0.160   0.660  0.4994  0.2410 -0.7815
  155MPD2    C1 2410   3.412   0.195   0.794 -0.2986 -0.3429  0.5661
  155MPD2    C2 2411   3.309   0.255   0.859 -0.0659 -0.6665 -0.5311
  155MPD2    C3 2412   3.198   0.279   0.785  0.1646 -0.0387  0.4015
  155MPD2    C4 2413   3.189   0.244   0.651  0.4085 -0.5806 -0.0267
  155MPD2    C5 2414   3.294   0.183   0.588  0.1041  0.2727 -0.5535
  155MPD2     H 2415   3.303   0.278   0.965 -0.8095 -0.2329 -0.6649
  155MPD2    H1 2416   3.101   0.266   0.592 -0.4852  1.5231  2.0744
  155MPD2    H2 2417   3.483   0.102   0.613 -2.2411 -1.6382 -3.0227
  155MPD2    H3 2418   3.285   0.161   0.482 -1.3280 -0.2730 -0.3093
  155MPD2     N 2419   3.082   0.332   0.847 -0.0352 -0.2247 -0.2830
  155MPD2    H5 2420   3.091   0.334   0.948  0.0051 -1.2941 -0.2582
  155MPD2    N1 2421   3.538   0.169   0.849  0.3409 -0.4403 -0.7926
  155MPD2    H7 2422   3.597   0.105   0.797  0.3237  0.3752 -1.8104
  156TMC2    C1 2423   2.321   2.733  11.850 -0.4976  0.5362  0.3370
  156TMC2    C2 2424   2.257   2.622  11.809  0.3091 -0.3187 -0.1109
  156TMC2    C3 2425   2.204   2.621  11.683  0.4271 -0.4505 -0.0940
  156TMC2    C4 2426   2.343   2.838  11.757 -0.1419  0.4314 -0.7157
  156TMC2    C5 2427   2.287   2.832  11.635 -0.4202  0.6289 -0.1049
  156TMC2    C6 2428   2.222   2.718  11.596 -0.4214  0.6088 -0.4358
  156TMC2     C 2429   2.406   2.731  11.966  0.4844  0.1397 -0.2599
  156TMC2     O 2430   2.487   2.816  11.983 -0.6912 -0.3139 -0.4356
  156TMC2     H 2431   2.255   2.529  11.865 -0.4699  1.1227  2.2502
  156TMC2    H1 2432   2.391   2.928  11.793  0.4854  0.4216 -1.5079
  156TMC2    H2 2433   2.164   2.717  11.504  1.1080 -1.6862 -1.3896
  156TMC2    C7 2434   2.298   2.952  11.551  0.1316 -0.4705  0.2423
  156TMC2    C8 2435   2.160   2.491  11.632  0.3163 -0.4398 -0.1966
  156TMC2    O1 2436   2.300   3.055  11.617 -0.3372  0.3035  0.4018
  156TMC2    O2 2437   2.113   2.403  11.703 -0.3238  0.1920 -0.0198
  156TMC2    O5 2438   2.180   2.489  11.499 -0.2218 -0.0453 -0.2369
  156TMC2    H5 2439   2.228   2.563  11.457 -2.2744  1.2265 -0.3363
  157MPD2     C 2440   2.411   2.477  12.240  0.0011  0.3856 -0.8110
  157MPD2    C1 2441   2.466   2.579  12.156 -0.6456 -0.6684 -0.1058
  157MPD2    C2 2442   2.596   2.619  12.166 -0.0776  0.1569 -0.2369
  157MPD2    C3 2443   2.674   2.563  12.264 -0.4143  0.0565  0.7485
  157MPD2    C4 2444   2.622   2.459  12.345  0.7883 -0.3917 -0.0338
  157MPD2    C5 2445   2.492   2.428  12.339 -0.8179  0.4962  0.2297
  157MPD2     H 2446   2.640   2.691  12.099  0.9747  0.3760  0.6970
  157MPD2    H1 2447   2.672   2.410  12.428  0.7943 -0.1582  0.1022
  157MPD2    H2 2448   2.314   2.431  12.230  0.4544 -0.8530  0.4954
  157MPD2    H3 2449   2.442   2.352  12.398 -0.4547 -0.1860 -0.3419
  157MPD2     N 2450   2.814   2.600  12.261  0.0025 -0.0423 -0.0888
  157MPD2    H5 2451   2.841   2.678  12.201  0.8256 -0.9642 -0.9171
  157MPD2    N1 2452   2.380   2.625  12.052  0.3093  0.2352  0.3368
  157MPD2    H7 2453   2.299   2.567  12.032  0.1650  1.2585 -1.9989
  158TMC2    C1 2454   3.377   1.196  13.465  0.1039 -0.7338 -0.5572
  158TMC2    C2 2455   3.475   1.231  13.371  0.5066  1.0482  0.1689
  158TMC2    C3 2456   3.428   1.251  13.241  0.7068 -0.5052 -0.3065
  158TMC2    C4 2457   3.241   1.201  13.447  0.3494  0.6036  0.1015
  158TMC2    C5 2458   3.198   1.227  13.317  0.1744  0.2159  0.4696
  158TMC2    C6 2459   3.291   1.239  13.218  0.0841  0.1557  0.1354
  158TMC2     C 2460   3.410   1.185  13.603 -0.1675 -1.2252 -0.1399
  158TMC2     O 2461   3.512   1.246  13.639  0.3607  0.4865 -0.3834
  158TMC2     H 2462   3.579   1.208  13.391  0.5810  1.6439  0.4674
  158TMC2    H1 2463   3.172   1.194  13.531 -1.6012 -2.1216 -1.7251
  158TMC2    H2 2464   3.256   1.265  13.119  1.2319 -3.1139 -1.1416
  158TMC2    C7 2465   3.056   1.237  13.291  0.0470 -0.6979 -0.3711
  158TMC2    C8 2466   3.510   1.299  13.134 -0.4590  0.0283  0.6995
  158TMC2    O1 2467   3.019   1.302  13.195 -0.0925 -0.9464  0.1348
  158TMC2    O2 2468   3.498   1.285  13.013 -0.9948 -0.3899 -0.0449
  158TMC2    O5 2469   3.632   1.323  13.194 -0.6078  0.1328  0.5399
  158TMC2    H5 2470   3.621   1.348  13.288 -0.7392 -0.5542  0.7081
  159MPD2     C 2471   3.343   0.993  14.080  0.6338  0.2523 -0.2046
  159MPD2    C1 2472   3.237   0.954  13.997  0.2436  0.3774  0.4182
  159MPD2    C2 2473   3.236   0.998  13.867  0.6404 -0.0546  1.0533
  159MPD2    C3 2474   3.334   1.079  13.815  0.3145  0.3471 -0.1302
  159MPD2    C4 2475   3.438   1.115  13.893  0.0820  0.7562  0.5278
  159MPD2    C5 2476   3.443   1.074  14.028 -0.4685 -0.1191  0.2686
  159MPD2     H 2477   3.143   0.984  13.812  2.1702  2.2518 -2.1291
  159MPD2    H1 2478   3.519   1.179  13.861 -0.4122  0.7918 -0.6462
  159MPD2    H2 2479   3.349   0.983  14.188 -0.5408  0.8895 -0.0773
  159MPD2    H3 2480   3.518   1.120  14.092 -1.1327  0.9135  0.3101
  159MPD2     N 2481   3.322   1.113  13.678  0.5405 -0.5405 -0.4019
  159MPD2    H5 2482   3.247   1.064  13.630  0.5340 -0.0603 -0.8793
  159MPD2    N1 2483   3.139   0.872  14.058  0.3240  0.6296  0.6317
  159MPD2    H7 2484   3.149   0.856  14.158  1.9750  1.8011  0.6478
  160TMC2    C1 2485   2.163   3.641   1.248  1.4096  0.6477 -0.0435
  160TMC2    C2 2486   2.212   3.631   1.375  0.1192  0.1968  0.0356
  160TMC2    C3 2487   2.347   3.671   1.386 -0.5567 -0.1268  0.3949
  160TMC2    C4 2488   2.234   3.678   1.137  0.4252  1.1048  0.1138
  160TMC2    C5 2489   2.368   3.721   1.157 -0.4238 -0.1932  0.1328
  160TMC2    C6 2490   2.423   3.724   1.280 -0.2823  0.2497  0.4891
  160TMC2     C 2491   2.018   3.633   1.236  0.4569  0.2194  0.5075
  160TMC2     O 2492   1.959   3.548   1.303  0.2072  0.3347 -0.1561
  160TMC2     H 2493   2.155   3.593   1.459  1.5689 -0.5162  0.7041
  160TMC2    H1 2494   2.194   3.666   1.037  0.9941  1.0694 -0.1106
  160TMC2    H2 2495   2.530   3.734   1.293 -0.5274  1.9947  1.1107
  160TMC2    C7 2496   2.442   3.780   1.052  0.1473 -0.2048 -0.0871
  160TMC2    C8 2497   2.414   3.649   1.510  0.8254  0.1091 -0.4892
  160TMC2    O1 2498   2.410   3.752   0.938  0.3222 -0.4521  0.4964
  160TMC2    O2 2499   2.384   3.571   1.603  0.5357  0.4928  0.5531
  160TMC2    O5 2500   2.454   3.775   1.531 -0.3783 -0.1228 -0.0654
  160TMC2    H5 2501   2.419   3.836   1.462 -1.1277  0.5442  0.8959
  161MPD2     C 2502   1.731   3.677   1.205 -0.1173 -0.5142 -0.7890
  161MPD2    C1 2503   1.824   3.764   1.156 -0.0128  0.3400  0.5171
  161MPD2    C2 2504   1.781   3.887   1.111 -0.2126 -0.0322  0.2012
  161MPD2    C3 2505   1.647   3.924   1.110 -0.4231  0.3982  0.1513
  161MPD2    C4 2506   1.558   3.838   1.164  0.1392 -0.0091 -0.0710
  161MPD2    C5 2507   1.601   3.715   1.211  0.8510 -0.4724  0.6243
  161MPD2     H 2508   1.864   3.950   1.082  1.4042 -1.0410  2.5466
  161MPD2    H1 2509   1.450   3.853   1.156 -0.1519 -0.9368  2.3272
  161MPD2    H2 2510   1.759   3.576   1.232  1.0999 -0.4690 -1.8926
  161MPD2    H3 2511   1.527   3.645   1.247 -0.4334  1.4542  1.7182
  161MPD2     N 2512   1.588   4.041   1.054 -0.3056  0.2298  0.3560
  161MPD2    H5 2513   1.490   4.060   1.074 -1.2087 -0.4443 -3.4736
  161MPD2    N1 2514   1.966   3.736   1.166 -0.1470 -0.7180 -0.5352
  161MPD2    H7 2515   2.032   3.799   1.122  0.2540 -0.7579  0.0131
  162TMC2    C1 2516   1.114   1.582   1.518 -0.0195  0.1252 -0.1290
  162TMC2    C2 2517   1.198   1.679   1.566  0.6236 -0.0958 -0.9056
  162TMC2    C3 2518   1.222   1.688   1.702  0.0016  0.5143 -0.3157
  162TMC2    C4 2519   1.045   1.496   1.597  0.0058 -0.7094 -0.5914
  162TMC2    C5 2520   1.066   1.511   1.735 -0.7608  0.9322  0.5409
  162TMC2    C6 2521   1.158   1.605   1.790  0.3566 -0.1350  0.1273
  162TMC2     C 2522   1.108   1.550   1.376 -0.1173 -0.3510  0.3200
  162TMC2     O 2523   1.018   1.479   1.340 -0.1666  0.1239  0.4552
  162TMC2     H 2524   1.259   1.729   1.492  0.2045 -0.0510 -1.2244
  162TMC2    H1 2525   0.965   1.436   1.554 -0.8894 -0.5792  0.8958
  162TMC2    H2 2526   1.176   1.612   1.897  1.1032 -0.7041  0.0328
  162TMC2    C7 2527   0.991   1.413   1.813  0.4991 -0.0206  0.3675
  162TMC2    C8 2528   1.282   1.800   1.766  0.0177 -0.4327  0.0403
  162TMC2    O1 2529   0.935   1.444   1.916  0.1508 -0.0436  0.2473
  162TMC2    O2 2530   1.335   1.796   1.879  0.2665 -0.4290  0.7681
  162TMC2    O5 2531   1.222   1.908   1.720  0.2242  0.2641  0.3105
  162TMC2    H5 2532   1.174   1.890   1.636  0.2531 -2.4524  0.8643
  163MPD2     C 2533   1.207   1.591   0.869 -0.1143  0.6869 -0.5610
  163MPD2    C1 2534   1.096   1.538   0.939 -0.0210  0.2268  0.2945
  163MPD2    C2 2535   1.101   1.544   1.075  0.7907 -0.6887  0.0131
  163MPD2    C3 2536   1.203   1.585   1.154 -0.2700  0.1779  0.3991
  163MPD2    C4 2537   1.304   1.640   1.086 -0.5596  1.0915 -0.2032
  163MPD2    C5 2538   1.301   1.648   0.952  0.5213 -0.1423  0.3299
  163MPD2     H 2539   1.007   1.516   1.123 -0.1349 -0.1489 -1.4904
  163MPD2    H1 2540   1.391   1.677   1.138  1.7067 -2.0859 -1.7453
  163MPD2    H2 2541   1.211   1.600   0.761  3.1691 -0.4640 -0.5583
  163MPD2    H3 2542   1.383   1.688   0.893  0.1167  1.9090  1.1384
  163MPD2     N 2543   1.210   1.598   1.295 -0.4968 -0.1170  0.5902
  163MPD2    H5 2544   1.300   1.615   1.338 -1.0503 -0.5113  1.8944
  163MPD2    N1 2545   0.995   1.479   0.865  0.6633  0.2436 -0.7488
  163MPD2    H7 2546   1.012   1.482   0.765 -2.7770 -1.4187 -1.3844
  164TMC2    C1 2547   0.957   1.035  11.194  0.4576 -0.7717 -0.3002
  164TMC2    C2 2548   1.066   1.088  11.254 -0.2764  0.3805 -0.4048
  164TMC2    C3 2549   1.058   1.222  11.285 -0.0514  0.3860 -0.2516
  164TMC2    C4 2550   0.837   1.105  11.177  0.0312  0.5360 -0.7278
  164TMC2    C5 2551   0.835   1.242  11.201  0.0539 -0.4254  0.0707
  164TMC2    C6 2552   0.945   1.299  11.255 -0.5418  0.2397 -0.7670
  164TMC2     C 2553   0.971   0.910  11.117  0.0898  0.1012 -0.5590
  164TMC2     O 2554   0.867   0.847  11.103 -0.2276 -0.0845  0.4083
  164TMC2     H 2555   1.155   1.029  11.272  0.2550  0.7865 -1.7566
  164TMC2    H1 2556   0.745   1.051  11.158 -1.6906  2.9975  0.6951
  164TMC2    H2 2557   0.953   1.405  11.274 -3.0108  0.1417  0.7900
  164TMC2    C7 2558   0.712   1.313  11.216  0.2876  0.4061 -0.1550
  164TMC2    C8 2559   1.189   1.286  11.293 -0.1441 -0.2631  0.1016
  164TMC2    O1 2560   0.618   1.289  11.143  0.4440  0.2343  0.4079
  164TMC2    O2 2561   1.210   1.397  11.248  0.3930  0.0331 -0.6070
  164TMC2    O5 2562   1.261   1.212  11.381  0.2663 -0.4812 -0.0894
  164TMC2    H5 2563   1.231   1.125  11.416 -1.8662  1.1973  2.2265
  165TMC2    C1 2564   2.043   3.096   0.783 -0.2600 -0.0859 -0.2387
  165TMC2    C2 2565   2.043   3.116   0.650  0.3703  0.0967 -0.0110
  165TMC2    C3 2566   2.134   3.206   0.600 -0.0986 -0.3854  0.5542
  165TMC2    C4 2567   2.128   3.176   0.864 -0.0561  0.1646  0.4036
  165TMC2    C5 2568   2.218   3.266   0.807 -0.3385  0.2312 -0.0689
  165TMC2    C6 2569   2.222   3.278   0.674 -0.5482  0.8247 -0.6818
  165TMC2     C 2570   1.971   2.995   0.858  0.2815  1.2493 -0.1011
  165TMC2     O 2571   1.998   2.977   0.976  0.2617  0.3226  0.2304
  165TMC2     H 2572   1.995   3.045   0.584 -1.2148  2.4147 -1.3625
  165TMC2    H1 2573   2.119   3.167   0.972 -0.9368  1.3577  0.4299
  165TMC2    H2 2574   2.301   3.329   0.620  1.9874  1.1054  3.2113
  165TMC2    C7 2575   2.333   3.319   0.881 -0.4153 -0.1509 -0.4332
  165TMC2    C8 2576   2.138   3.229   0.458 -0.4538 -0.3179  0.1172
  165TMC2    O1 2577   2.419   3.364   0.809 -0.3023 -0.6974  0.0587
  165TMC2    O2 2578   2.080   3.156   0.379  0.4380  0.3041  0.6116
  165TMC2    O5 2579   2.141   3.362   0.451 -0.0814  0.2608  0.2131
  165TMC2    H5 2580   2.168   3.410   0.532  0.8189  0.1625 -0.0303
  166MPD2     C 2581   1.735   2.531   0.872 -0.8619 -0.2896  0.1568
  166MPD2    C1 2582   1.828   2.588   0.957  0.1658 -0.3086 -0.3983
  166MPD2    C2 2583   1.877   2.713   0.922 -0.3265  0.1046 -0.1999
  166MPD2    C3 2584   1.825   2.791   0.821 -0.1138 -0.5343  0.0957
  166MPD2    C4 2585   1.723   2.737   0.752  0.7571 -0.9163 -0.2003
  166MPD2    C5 2586   1.681   2.608   0.773  0.1423 -0.0694 -0.2550
  166MPD2     H 2587   1.964   2.756   0.970 -0.3605  0.3596 -0.3652
  166MPD2    H1 2588   1.685   2.789   0.665  0.6969  0.8354  0.8767
  166MPD2    H2 2589   1.696   2.430   0.880 -1.8170 -0.0950 -2.2924
  166MPD2    H3 2590   1.607   2.577   0.701  2.0872  1.3264 -2.8417
  166MPD2     N 2591   1.881   2.918   0.789 -0.7640  0.0944  0.0316
  166MPD2    H5 2592   1.843   2.959   0.705 -0.6618 -1.2213 -0.6480
  166MPD2    N1 2593   1.869   2.512   1.067  0.3271 -0.5819  0.1539
  166MPD2    H7 2594   1.838   2.416   1.072 -0.5106 -0.3211 -0.0849
  167TMC2    C1 2595   0.116   0.902  12.918  0.5618 -0.0575  0.5218
  167TMC2    C2 2596   0.006   0.923  12.997  0.2758 -0.6611 -0.0417
  167TMC2    C3 2597   4.658   0.817  13.007 -0.3742 -0.3613 -0.0652
  167TMC2    C4 2598   0.141   0.784  12.846  0.3923 -0.4555 -0.1377
  167TMC2    C5 2599   0.044   0.685  12.854  0.8753  0.4101  0.0569
  167TMC2    C6 2600   4.676   0.698  12.939  0.2783  0.3422  0.2728
  167TMC2     C 2601   0.188   1.020  12.878 -0.9309  0.2502 -0.5715
  167TMC2     O 2602   0.186   1.120  12.947 -0.1497 -0.0414 -0.0840
  167TMC2     H 2603   4.711   1.013  13.050  0.8046 -0.3966 -0.1857
  167TMC2    H1 2604   0.238   0.758  12.806  0.2794  0.5511 -1.0807
  167TMC2    H2 2605   4.600   0.621  12.940 -2.4253  3.0261  0.9572
  167TMC2    C7 2606   0.079   0.557  12.799  1.1216  0.2000  0.3633
  167TMC2    C8 2607   4.581   0.804  13.131 -0.2344  0.0657  0.1782
  167TMC2    O1 2608   0.028   0.458  12.852 -0.3934 -0.5712  0.4977
  167TMC2    O2 2609   4.587   0.885  13.220 -0.2552 -0.4631 -0.9242
  167TMC2    O5 2610   4.494   0.704  13.126  0.3907 -0.3218  0.3570
  167TMC2    H5 2611   4.444   0.686  13.209  0.1744  1.0368  0.5253
  168MPD2     C 2612   0.308   1.242  12.718 -0.4537 -0.2293 -0.0983
  168MPD2    C1 2613   0.280   1.112  12.675 -0.5482 -0.0914  0.4108
  168MPD2    C2 2614   0.322   1.077  12.544 -0.4958 -0.0113  0.2586
  168MPD2    C3 2615   0.357   1.164  12.451  0.1077 -0.3888 -0.6891
  168MPD2    C4 2616   0.369   1.298  12.493 -0.2746 -0.7596  0.2154
  168MPD2    C5 2617   0.355   1.330  12.627 -0.8786 -0.0365 -0.3744
  168MPD2     H 2618   0.303   0.973  12.518 -0.0612  0.5019 -2.0908
  168MPD2    H1 2619   0.391   1.380  12.425  0.8387 -0.9342  0.3689
  168MPD2    H2 2620   0.289   1.280  12.818 -0.1060  2.0799 -0.9015
  168MPD2    H3 2621   0.377   1.432  12.655  1.0506 -0.2179 -1.2185
  168MPD2     N 2622   0.373   1.129  12.315 -1.0207 -0.2689  0.1272
  168MPD2    H5 2623   0.392   1.210  12.257 -1.0670 -0.0793  0.3790
  168MPD2    N1 2624   0.236   1.004  12.756  0.3980 -0.3651  0.1711
  168MPD2    H7 2625   0.221   0.916  12.708  0.6140  0.7190 -1.9016
  169MPD1     C 2626   2.667   1.991   8.771 -0.5769 -0.4247 -0.2263
  169MPD1    C1 2627   2.566   1.933   8.847  0.5819 -0.1086 -0.0886
  169MPD1    C2 2628   2.592   1.833   8.929  0.2946 -0.4064  0.2154
  169MPD1    C3 2629   2.720   1.791   8.949 -0.8502 -0.7356  0.2494
  169MPD1    C4 2630   2.820   1.864   8.893 -0.1486  0.0899  0.0352
  169MPD1    C5 2631   2.794   1.953   8.795  1.0519  0.3134  0.0418
  169MPD1     H 2632   2.514   1.779   8.981 -0.2611 -2.2928 -2.6024
  169MPD1    H1 2633   2.923   1.854   8.926  0.4118  2.8262 -0.8440
  169MPD1    H2 2634   2.642   2.055   8.687 -0.7449  0.3736  0.4262
  169MPD1    H3 2635   2.874   2.008   8.747  0.7834  1.5416  0.9949
  169MPD1     N 2636   2.733   1.680   9.038  0.0461 -0.5233 -0.0097
  169MPD1    H5 2637   2.641   1.649   9.067  0.6355 -1.5874  0.6973
  169MPD1    N1 2638   2.433   1.972   8.815  0.8086 -0.2664  0.4250
  169MPD1    H6 2639   2.420   2.070   8.790 -1.9613 -0.4248  1.2694
  169MPD1    H7 2640   2.378   1.943   8.896  1.8129  2.7431  2.2085
  170MPD1     C 2641   1.164   2.490  12.541  0.1843 -0.8478 -0.4209
  170MPD1    C1 2642   1.057   2.579  12.553 -0.4140 -0.2528 -0.6335
  170MPD1    C2 2643   1.033   2.637  12.676  0.3224  0.5978 -0.5775
  170MPD1    C3 2644   1.110   2.598  12.785 -0.2198 -0.2264  0.1870
  170MPD1    C4 2645   1.209   2.504  12.769 -0.5284  0.4426 -0.0665
  170MPD1    C5 2646   1.238   2.453  12.648  0.6620  0.5225  0.2179
  170MPD1     H 2647   0.977   2.730  12.685 -0.5904 -0.1279  1.0594
  170MPD1    H1 2648   1.289   2.494  12.842  0.4598 -0.1312 -1.2269
  170MPD1    H2 2649   1.188   2.440  12.448 -0.3266 -1.9268  0.0239
  170MPD1    H3 2650   1.328   2.395  12.631 -0.3563 -0.4536 -1.8939
  170MPD1     N 2651   1.083   2.665  12.906  0.0070  0.5566  0.3374
  170MPD1    H5 2652   1.031   2.752  12.901 -0.9261  0.0102  0.3652
  170MPD1    N1 2653   1.003   2.622  12.436  0.1747  0.2452  0.1205
  170MPD1    H6 2654   0.920   2.679  12.446  0.1957  0.3125 -0.0905
  170MPD1    H7 2655   0.998   2.557  12.358 -0.4547  1.1179 -0.5600
  171MPD1     C 2656   4.172   4.489  15.371 -0.2271 -0.6539 -0.0203
  171MPD1    C1 2657   4.196   4.365  15.321 -0.4136  0.2466  0.1349
  171MPD1    C2 2658   4.268   4.273  15.398 -0.5668  0.0303 -0.0496
  171MPD1    C3 2659   4.311   4.308  15.520  0.3119 -0.5660  0.4418
  171MPD1    C4 2660   4.280   4.435  15.570 -0.1481  0.0612  0.5089
  171MPD1    C5 2661   4.203   4.524  15.501 -0.0554 -0.4471 -0.4504
  171MPD1     H 2662   4.308   4.183  15.353 -1.1436 -0.1468 -0.2196
  171MPD1    H1 2663   4.299   4.447  15.676 -0.5173 -0.9879  0.6917
  171MPD1    H2 2664   4.125   4.570  15.317  1.1058 -0.6448 -1.1601
  171MPD1    H3 2665   4.172   4.619  15.543 -0.9007 -0.9362  0.0329
  171MPD1     N 2666   4.398   4.228  15.597  1.1496 -0.0129 -0.3547
  171MPD1    H5 2667   4.432   4.265  15.685 -0.9180  0.7846  0.1218
  171MPD1    N1 2668   4.176   4.338  15.187  0.0031 -0.5502  0.2210
  171MPD1    H6 2669   4.147   4.243  15.166 -0.3586 -0.0302 -1.6433
  171MPD1    H7 2670   4.102   4.397  15.151  0.5278 -0.3404 -0.5248
  172MPD1     C 2671   3.505   2.813   0.550 -0.8472  0.2477 -0.2200
  172MPD1    C1 2672   3.553   2.858   0.676  0.1911  0.2615 -0.3215
  172MPD1    C2 2673   3.603   2.988   0.689 -0.1796 -0.3700 -0.4988
  172MPD1    C3 2674   3.631   3.061   0.575  0.5069  0.1113  0.3731
  172MPD1    C4 2675   3.608   3.005   0.454  0.2315 -0.1672 -0.0882
  172MPD1    C5 2676   3.535   2.889   0.443 -0.3512 -0.4974  0.0917
  172MPD1     H 2677   3.613   3.032   0.788 -0.0145  1.0138 -1.1183
  172MPD1    H1 2678   3.640   3.063   0.368 -0.6611  1.3577  0.6194
  172MPD1    H2 2679   3.460   2.720   0.519 -0.0344  0.0245 -0.7411
  172MPD1    H3 2680   3.499   2.860   0.345 -2.0402 -1.4649  1.0003
  172MPD1     N 2681   3.690   3.192   0.583  0.7588  0.1386  0.9669
  172MPD1    H5 2682   3.709   3.234   0.492  0.1361  0.4545  0.9872
  172MPD1    N1 2683   3.528   2.778   0.783  0.7750 -0.7754 -0.2514
  172MPD1    H6 2684   3.569   2.807   0.872  1.6657 -2.4175 -0.1201
  172MPD1    H7 2685   3.566   2.684   0.773 -1.9118 -1.8138 -0.7341
  173MPD1     C 2686   0.510   3.654  13.466  0.4421  0.2892  0.6996
  173MPD1    C1 2687   0.601   3.561  13.513  0.1372  0.2117  0.2677
  173MPD1    C2 2688   0.577   3.518  13.641 -0.3996 -0.6653  0.2213
  173MPD1    C3 2689   0.492   3.586  13.731 -0.5120  0.8192  0.8799
  173MPD1    C4 2690   0.410   3.686  13.684 -1.0722  0.1560 -0.4271
  173MPD1    C5 2691   0.418   3.718  13.550  0.0020  0.0313 -0.2098
  173MPD1     H 2692   0.642   3.442  13.685 -0.5531 -1.4338 -0.8676
  173MPD1    H1 2693   0.331   3.730  13.744 -0.6040  2.1326 -1.2893
  173MPD1    H2 2694   0.515   3.681  13.361  0.9971 -2.6540 -0.0250
  173MPD1    H3 2695   0.374   3.811  13.518 -1.0133  0.6338  2.9207
  173MPD1     N 2696   0.489   3.540  13.866  0.5120  0.4314 -0.0706
  173MPD1    H5 2697   0.533   3.454  13.899  2.7200  1.6051  0.0300
  173MPD1    N1 2698   0.684   3.493  13.426  0.2710  0.5599 -0.1349
  173MPD1    H6 2699   0.722   3.559  13.359 -3.8655  1.5190 -1.5464
  173MPD1    H7 2700   0.763   3.446  13.471  0.0460  0.4971  0.1962
  174MPD1     C 2701   1.145   3.157  14.147  0.4309 -0.2549 -0.2286
  174MPD1    C1 2702   1.097   3.183  14.269 -0.3079  0.4542  0.8307
  174MPD1    C2 2703   0.966   3.228  14.281  0.5187 -0.2595 -0.1834
  174MPD1    C3 2704   0.886   3.243  14.164  0.6161 -0.2794  0.0036
  174MPD1    C4 2705   0.931   3.204  14.041 -0.0889 -0.0648 -0.0639
  174MPD1    C5 2706   1.066   3.173  14.034 -0.5193  0.1609  0.9996
  174MPD1     H 2707   0.929   3.247  14.381  2.8642  1.7845  0.2897
  174MPD1    H1 2708   0.877   3.200  13.947 -0.1432  1.5906 -0.0998
  174MPD1    H2 2709   1.251   3.144  14.129  0.0837 -1.7065 -1.1838
  174MPD1    H3 2710   1.114   3.140  13.942 -0.7100 -1.0353  1.3296
  174MPD1     N 2711   0.749   3.279  14.167  0.5014 -0.4432 -0.1855
  174MPD1    H5 2712   0.693   3.276  14.083 -0.3954 -1.0996  0.4259
  174MPD1    N1 2713   1.189   3.183  14.378 -0.2230 -0.2102 -0.6263
  174MPD1    H6 2714   1.258   3.111  14.356 -0.0781 -0.3001  0.1364
  174MPD1    H7 2715   1.137   3.154  14.460  4.8083  1.1870  3.0420
  175MPD1     C 2716   3.934   4.246  15.661  0.1172 -0.5927  0.4336
  175MPD1    C1 2717   3.799   4.224  15.674  0.3878  0.5215 -0.2633
  175MPD1    C2 2718   3.737   4.235  15.801 -0.2547 -0.1840  0.3083
  175MPD1    C3 2719   3.813   4.276  15.912  0.5042  0.0679  0.1896
  175MPD1    C4 2720   3.944   4.305  15.895 -0.2311  0.4150  0.4599
  175MPD1    C5 2721   4.007   4.290  15.773 -0.1988  0.0320 -0.0427
  175MPD1     H 2722   3.629   4.241  15.806 -0.2628 -0.2599  0.2100
  175MPD1    H1 2723   4.002   4.345  15.977 -0.3447  1.2490  0.1255
  175MPD1    H2 2724   3.983   4.225  15.566  0.4340 -0.1383  0.5009
  175MPD1    H3 2725   4.111   4.316  15.759 -0.1847 -0.3366 -0.6116
  175MPD1     N 2726   3.764   4.262  16.039  0.3170 -0.0409  0.0563
  175MPD1    H5 2727   3.832   4.278  16.113  0.4846 -0.2911 -0.0411
  175MPD1    N1 2728   3.725   4.207  15.558  0.0649 -0.1356 -0.0623
  175MPD1    H6 2729   3.644   4.146  15.561  0.5118 -0.6193  1.6533
  175MPD1    H7 2730   3.785   4.174  15.482 -0.4527 -0.4240 -0.3462
  176MPD1     C 2731   0.107   1.434  16.261  0.2880 -0.4118 -0.0224
  176MPD1    C1 2732   0.119   1.570  16.290  0.4023 -0.2978  0.2954
  176MPD1    C2 2733   0.158   1.604  16.418 -0.2910 -0.0811  0.1539
  176MPD1    C3 2734   0.170   1.503  16.515 -0.7372  0.3538 -0.2653
  176MPD1    C4 2735   0.146   1.368  16.487  0.2817  0.0174  0.3436
  176MPD1    C5 2736   0.105   1.338  16.361  0.1297 -0.2975 -0.1932
  176MPD1     H 2737   0.168   1.708  16.446 -0.9796 -0.3321  1.3393
  176MPD1    H1 2738   0.176   1.284  16.550 -2.3269 -0.1407  1.3766
  176MPD1    H2 2739   0.082   1.401  16.161  2.7341 -1.7005 -0.1893
  176MPD1    H3 2740   0.081   1.234  16.342 -0.3007 -0.5381  1.7293
  176MPD1     N 2741   0.223   1.540  16.638 -0.1051 -0.1732 -0.2546
  176MPD1    H5 2742   0.245   1.638  16.652  0.7840 -0.2830 -0.8755
  176MPD1    N1 2743   0.133   1.659  16.183 -0.1530 -0.2581  0.5245
  176MPD1    H6 2744   0.058   1.644  16.117 -1.0687 -0.4990  1.6222
  176MPD1    H7 2745   0.125   1.757  16.208  1.9999 -0.0447  0.4131
  177MPD1     C 2746   3.462   1.908   9.685  0.8915 -0.2401 -0.4974
  177MPD1    C1 2747   3.411   1.827   9.588  0.1364 -0.4044  0.0293
  177MPD1    C2 2748   3.298   1.869   9.521 -0.2400  0.3879  1.1288
  177MPD1    C3 2749   3.226   1.984   9.558 -0.2717 -0.7260  0.2576
  177MPD1    C4 2750   3.274   2.052   9.670 -0.7774 -0.0981  0.3706
  177MPD1    C5 2751   3.389   2.012   9.734  0.3554  0.3190  0.5147
  177MPD1     H 2752   3.265   1.807   9.439 -0.8943  2.9567 -0.5691
  177MPD1    H1 2753   3.222   2.135   9.717 -1.2668 -1.6581  2.5354
  177MPD1    H2 2754   3.558   1.889   9.731  1.2751  4.3028  0.6235
  177MPD1    H3 2755   3.441   2.069   9.811  0.0807  2.2458 -0.7312
  177MPD1     N 2756   3.116   2.019   9.479 -0.1621  0.0513  0.4234
  177MPD1    H5 2757   3.089   1.958   9.402  1.0224 -1.3304  1.0877
  177MPD1    N1 2758   3.496   1.737   9.526 -1.0078 -0.6678 -0.5747
  177MPD1    H6 2759   3.576   1.707   9.581 -1.0240 -0.5707 -0.4983
  177MPD1    H7 2760   3.450   1.659   9.479 -0.0384 -1.2563 -0.5341
  178MPD1     C 2761   1.381   1.820   0.564  0.2660  0.3936 -0.4513
  178MPD1    C1 2762   1.332   1.755   0.454  0.5498 -0.3551 -0.2161
  178MPD1    C2 2763   1.302   1.836   0.344  0.1913  0.0755 -0.0736
  178MPD1    C3 2764   1.325   1.973   0.342  0.7443  1.1680  0.0072
  178MPD1    C4 2765   1.382   2.030   0.453 -1.0862 -0.7937  0.0936
  178MPD1    C5 2766   1.411   1.953   0.565 -0.3882  0.3091  0.2903
  178MPD1     H 2767   1.248   1.791   0.262 -1.6369  1.2481  0.4783
  178MPD1    H1 2768   1.407   2.135   0.448 -2.5244 -0.4704 -0.3852
  178MPD1    H2 2769   1.388   1.765   0.658 -0.4202  2.3859  0.7632
  178MPD1    H3 2770   1.431   2.003   0.659  2.3537  2.9964 -1.6928
  178MPD1     N 2771   1.302   2.059   0.230  0.3203 -0.4112  0.0302
  178MPD1    H5 2772   1.335   2.152   0.253  0.1137 -0.3533  0.0906
  178MPD1    N1 2773   1.305   1.624   0.457  0.2051 -0.2329  0.3261
  178MPD1    H6 2774   1.333   1.584   0.367 -0.4172 -1.5033  0.7014
  178MPD1    H7 2775   1.372   1.576   0.516 -0.1240 -1.4506 -0.2684
  179MPD1     C 2776   0.766   0.877  15.150  0.7732 -0.0838 -0.3037
  179MPD1    C1 2777   0.829   0.779  15.228  0.6609 -0.2258  0.1397
  179MPD1    C2 2778   0.759   0.701  15.325 -0.0769  0.5857  0.5977
  179MPD1    C3 2779   0.627   0.730  15.343 -0.2699 -0.3381  0.6790
  179MPD1    C4 2780   0.559   0.823  15.269  0.1742  0.0745  0.2353
  179MPD1    C5 2781   0.633   0.895  15.179  0.2485  0.6322  0.6725
  179MPD1     H 2782   0.812   0.623  15.378  0.3972 -0.2053 -1.0632
  179MPD1    H1 2783   0.453   0.846  15.267  0.4826  1.5454  0.4722
  179MPD1    H2 2784   0.810   0.937  15.071  1.0751  1.0141  0.6889
  179MPD1    H3 2785   0.575   0.964  15.119  3.0489  1.4610 -1.0824
  179MPD1     N 2786   0.548   0.656  15.435 -0.1579 -0.0890 -0.0154
  179MPD1    H5 2787   0.452   0.689  15.444  0.1626  1.0718 -0.8174
  179MPD1    N1 2788   0.965   0.758  15.204 -0.7045  0.0582  0.0699
  179MPD1    H6 2789   1.010   0.846  15.181 -0.2140 -0.2553 -0.1605
  179MPD1    H7 2790   1.012   0.708  15.279 -0.5338 -0.6557 -0.5249
  180MPD1     C 2791   0.331   1.896  15.226 -0.3085  0.1294  0.3201
  180MPD1    C1 2792   0.416   1.922  15.120  0.6211  0.1378 -0.6363
  180MPD1    C2 2793   0.372   1.885  14.992  0.4209  0.7487 -0.2625
  180MPD1    C3 2794   0.244   1.854  14.961  1.4066  0.1043  0.5895
  180MPD1    C4 2795   0.157   1.838  15.072  0.3228 -0.1058  0.5022
  180MPD1    C5 2796   0.204   1.860  15.195 -0.0989 -0.0570 -0.1147
  180MPD1     H 2797   0.441   1.893  14.908 -0.6988  0.9809 -1.1696
  180MPD1    H1 2798   0.054   1.806  15.062 -0.5880  2.7146  1.0265
  180MPD1    H2 2799   0.355   1.909  15.331  3.0374  0.1174 -0.4490
  180MPD1    H3 2800   0.136   1.853  15.279  2.2964 -0.5013  1.7784
  180MPD1     N 2801   0.210   1.835  14.826  0.4279  0.2086 -0.5771
  180MPD1    H5 2802   0.291   1.855  14.768 -0.5765  3.7671 -0.6993
  180MPD1    N1 2803   0.553   1.958  15.146 -0.0188  0.3891  1.0392
  180MPD1    H6 2804   0.571   2.007  15.233  0.6066  1.1441  0.4890
  180MPD1    H7 2805   0.583   2.008  15.062  0.3687  0.4308  1.2026
  181MPD1     C 2806   2.665   0.185   8.743  0.5811  0.3952 -0.1052
  181MPD1    C1 2807   2.743   0.072   8.733 -0.1442  0.3036 -0.6530
  181MPD1    C2 2808   2.762   4.732   8.851  0.2106  0.1806  0.1258
  181MPD1    C3 2809   2.697   0.033   8.970 -0.4240  0.3784 -0.4948
  181MPD1    C4 2810   2.615   0.141   8.972 -0.4884  0.0454 -0.6389
  181MPD1    C5 2811   2.603   0.218   8.863  0.0946  0.0709  0.8092
  181MPD1     H 2812   2.841   4.658   8.845 -0.2721 -0.2723 -0.7460
  181MPD1    H1 2813   2.578   0.181   9.065 -2.5783 -0.4758 -1.2496
  181MPD1    H2 2814   2.668   0.258   8.663  0.7228 -0.5809 -0.9894
  181MPD1    H3 2815   2.549   0.311   8.882  0.0064  0.3706 -0.9579
  181MPD1     N 2816   2.716   4.704   9.096  0.1129 -0.0816 -0.9866
  181MPD1    H5 2817   2.675   0.010   9.179  0.4668 -1.0239 -0.3416
  181MPD1    N1 2818   2.816   0.043   8.620  0.3978 -0.7145  0.1269
  181MPD1    H6 2819   2.861   4.687   8.617 -0.8265 -1.3486  1.1962
  181MPD1    H7 2820   2.786   0.081   8.530  0.8337 -0.1249  0.2271
  182MPD1     C 2821   3.206   2.248   1.678  0.3043 -0.5367 -0.1290
  182MPD1    C1 2822   3.271   2.159   1.594 -0.3549  0.3493  0.2695
  182MPD1    C2 2823   3.291   2.198   1.462 -0.2277 -0.1295  0.3174
  182MPD1    C3 2824   3.239   2.317   1.413 -0.7196 -0.5979  0.0490
  182MPD1    C4 2825   3.170   2.399   1.497  0.1154 -0.2082 -0.3938
  182MPD1    C5 2826   3.155   2.368   1.631 -0.6582 -0.2429  0.6118
  182MPD1     H 2827   3.353   2.130   1.405 -1.5643  0.3002 -1.6297
  182MPD1    H1 2828   3.132   2.496   1.468 -1.3688 -0.4778  0.6538
  182MPD1    H2 2829   3.195   2.211   1.779 -0.7714 -1.0158 -0.4174
  182MPD1    H3 2830   3.100   2.438   1.693  0.4743  0.4061  0.8766
  182MPD1     N 2831   3.258   2.369   1.285 -0.3038  0.1056  0.7318
  182MPD1    H5 2832   3.209   2.456   1.266 -2.9531 -1.1247  1.8893
  182MPD1    N1 2833   3.287   2.024   1.639 -0.5305 -0.2588 -0.4643
  182MPD1    H6 2834   3.314   2.025   1.737  1.9197  2.1647 -1.1820
  182MPD1    H7 2835   3.364   1.979   1.590 -3.0037 -1.4985 -3.2184
  183MPD1     C 2836   3.033   2.288   8.486  0.8500 -0.4231  0.2846
  183MPD1    C1 2837   2.944   2.387   8.504  0.4338 -0.6096 -0.8076
  183MPD1    C2 2838   2.980   2.479   8.600 -0.5664 -0.6452  0.0767
  183MPD1    C3 2839   3.093   2.465   8.679  0.1309  0.1098  0.6065
  183MPD1    C4 2840   3.163   2.351   8.677  0.9284 -0.8731  0.3376
  183MPD1    C5 2841   3.139   2.264   8.575 -0.1710 -0.0922  0.1026
  183MPD1     H 2842   2.931   2.576   8.605  0.8924  0.2015 -1.8521
  183MPD1    H1 2843   3.248   2.334   8.741 -0.3678  0.4491  2.4010
  183MPD1    H2 2844   3.019   2.220   8.402 -1.2097  1.3265 -0.7674
  183MPD1    H3 2845   3.224   2.201   8.552  1.1963  0.2256  4.2814
  183MPD1     N 2846   3.112   2.560   8.782 -0.2005 -0.1252  0.8390
  183MPD1    H5 2847   3.055   2.644   8.781 -1.2346 -0.8507 -1.1757
  183MPD1    N1 2848   2.836   2.408   8.411 -0.0978 -0.0657  0.3001
  183MPD1    H6 2849   2.820   2.326   8.353  0.4689  0.2964 -0.3713
  183MPD1    H7 2850   2.754   2.453   8.451 -1.6736 -1.3913 -1.4762
  184MPD1     C 2851   2.420   1.159  10.378  0.4759 -0.1531 -0.0745
  184MPD1    C1 2852   2.321   1.237  10.332  0.2800  0.4643  0.3725
  184MPD1    C2 2853   2.355   1.342  10.248  0.4201  0.0452 -0.2051
  184MPD1    C3 2854   2.487   1.370  10.219 -0.2135  0.0627 -0.7993
  184MPD1    C4 2855   2.584   1.288  10.269  0.6057 -0.6023 -0.6674
  184MPD1    C5 2856   2.549   1.191  10.349 -0.8450  0.6910 -0.2616
  184MPD1     H 2857   2.267   1.402  10.229  0.2054  0.4245  1.9220
  184MPD1    H1 2858   2.689   1.281  10.242  1.4425  1.6028  2.1315
  184MPD1    H2 2859   2.401   1.072  10.439 -1.0439 -0.7902 -1.4578
  184MPD1    H3 2860   2.623   1.122  10.388 -0.9906  0.7736  0.1608
  184MPD1     N 2861   2.531   1.478  10.136  0.0712  0.0196 -0.1687
  184MPD1    H5 2862   2.631   1.485  10.120  0.3025 -0.8604  0.9263
  184MPD1    N1 2863   2.197   1.224  10.396 -0.2927  0.3881  0.3059
  184MPD1    H6 2864   2.186   1.128  10.427 -0.9612  0.0027 -1.1506
  184MPD1    H7 2865   2.127   1.251  10.327 -0.7864  0.7957  0.9581
  185MPD1     C 2866   2.246   2.296   9.470  0.1615 -0.3205  0.7616
  185MPD1    C1 2867   2.169   2.181   9.492 -0.3912  0.2697  0.2314
  185MPD1    C2 2868   2.225   2.090   9.578 -0.4448 -0.1865 -0.1443
  185MPD1    C3 2869   2.363   2.091   9.593  0.6855  1.0177  0.5299
  185MPD1    C4 2870   2.437   2.196   9.548 -0.2525 -1.1286 -0.5255
  185MPD1    C5 2871   2.376   2.303   9.486 -0.3011  0.3741  0.2585
  185MPD1     H 2872   2.158   2.011   9.611  1.8756 -2.1787 -0.2582
  185MPD1    H1 2873   2.543   2.202   9.566 -0.6393  1.9062  0.7195
  185MPD1    H2 2874   2.196   2.378   9.421  0.4934 -0.1677  0.6756
  185MPD1    H3 2875   2.433   2.392   9.464  0.2180 -0.7066 -2.7406
  185MPD1     N 2876   2.427   1.988   9.660  0.2183 -0.6397  0.7443
  185MPD1    H5 2877   2.528   1.988   9.650  0.2080  2.2932  0.7920
  185MPD1    N1 2878   2.029   2.174   9.457  0.5695 -0.4677  0.1918
  185MPD1    H6 2879   2.014   2.215   9.365 -2.8978  0.2856  1.0837
  185MPD1    H7 2880   1.997   2.078   9.467 -3.3965  0.8342 -0.0445
  186MPD1     C 2881   1.453   0.477  15.807 -0.4716 -0.2398 -0.2732
  186MPD1    C1 2882   1.360   0.423  15.898 -0.7188  0.5502  0.1648
  186MPD1    C2 2883   1.304   0.512  15.990 -0.3197  0.9622  0.4811
  186MPD1    C3 2884   1.335   0.644  15.990 -0.0325  0.5038 -0.3421
  186MPD1    C4 2885   1.416   0.697  15.889 -0.4519  0.9749  0.0454
  186MPD1    C5 2886   1.473   0.613  15.794 -0.2458  0.1399 -0.9816
  186MPD1     H 2887   1.242   0.479  16.073 -1.7207 -2.6197 -1.9716
  186MPD1    H1 2888   1.437   0.804  15.887 -2.7220  1.4097 -0.3000
  186MPD1    H2 2889   1.504   0.415  15.735  0.4498 -1.0980  1.1040
  186MPD1    H3 2890   1.541   0.642  15.715 -0.4922  2.0208 -0.4888
  186MPD1     N 2891   1.292   0.740  16.086  0.0934  0.7806 -0.5754
  186MPD1    H5 2892   1.312   0.838  16.067  0.8801  0.3191 -2.1021
  186MPD1    N1 2893   1.352   0.285  15.916  0.1092 -0.2650 -0.1564
  186MPD1    H6 2894   1.260   0.253  15.945  0.2846 -1.1218 -0.5457
  186MPD1    H7 2895   1.384   0.224  15.841 -0.8537 -0.4588 -0.3970
  187MPD1     C 2896   0.823   2.985   0.495  0.3537 -0.2010 -0.3201
  187MPD1    C1 2897   0.794   2.873   0.424 -0.2392 -0.4467  0.1277
  187MPD1    C2 2898   0.712   2.895   0.314 -0.4971  0.0377 -0.7363
  187MPD1    C3 2899   0.673   3.017   0.262  0.2984  0.6265  0.0223
  187MPD1    C4 2900   0.709   3.129   0.338 -0.2208  0.2248 -0.5051
  187MPD1    C5 2901   0.784   3.109   0.451  0.2093  0.3840 -0.2974
  187MPD1     H 2902   0.692   2.803   0.259  0.8108  0.5438 -2.0805
  187MPD1    H1 2903   0.684   3.231   0.309  0.6126  0.6053  0.1046
  187MPD1    H2 2904   0.888   2.984   0.581  0.9932  0.1340 -0.7965
  187MPD1    H3 2905   0.815   3.187   0.519  3.5219 -0.3979 -0.8778
  187MPD1     N 2906   0.602   3.041   0.147  0.8713 -0.3091 -0.3488
  187MPD1    H5 2907   0.561   3.133   0.134  0.4753 -0.2779  1.1602
  187MPD1    N1 2908   0.805   2.748   0.483 -0.5803  0.4343  0.2466
  187MPD1    H6 2909   0.895   2.739   0.531  0.2620 -0.6503 -1.5477
  187MPD1    H7 2910   0.804   2.673   0.415 -1.3616  2.2139 -1.6837
  188MPD1     C 2911   4.391   2.925  10.268  0.4322  0.3592  0.7874
  188MPD1    C1 2912   4.323   2.865  10.164  0.5749 -0.3071  0.4344
  188MPD1    C2 2913   4.377   2.744  10.122 -0.0109 -0.0888 -0.0070
  188MPD1    C3 2914   4.500   2.688  10.172 -0.1783  0.8013  0.0790
  188MPD1    C4 2915   4.560   2.762  10.275 -0.4882  0.5153 -0.2919
  188MPD1    C5 2916   4.507   2.874  10.319  0.7472  1.0192 -0.5872
  188MPD1     H 2917   4.324   2.702  10.038 -0.7902  1.9463 -0.5303
  188MPD1    H1 2918   4.658   2.728  10.308 -0.6514 -1.3578 -1.7455
  188MPD1    H2 2919   4.362   3.023  10.305 -1.7078  0.4243 -1.0422
  188MPD1    H3 2920   4.556   2.931  10.398  1.8068 -1.0434  0.2309
  188MPD1     N 2921   4.555   2.565  10.127  0.1524  0.0094  0.1095
  188MPD1    H5 2922   4.644   2.531  10.160  0.4870 -1.0439 -1.8503
  188MPD1    N1 2923   4.215   2.916  10.093  0.7259  0.2841 -0.2968
  188MPD1    H6 2924   4.157   2.980  10.146 -0.0212  0.1895 -0.9983
  188MPD1    H7 2925   4.165   2.845  10.039 -1.3013 -0.1206  2.0988
  189MPD1     C 2926   2.034   3.572   0.235 -0.2559 -0.1957  0.1404
  189MPD1    C1 2927   1.921   3.553   0.306 -0.2791  0.6833  0.2961
  189MPD1    C2 2928   1.837   3.658   0.322 -0.5835 -0.2447 -0.3342
  189MPD1    C3 2929   1.875   3.788   0.291  0.4263 -0.0795 -0.7734
  189MPD1    C4 2930   1.992   3.813   0.227  0.5132  1.4804  0.5956
  189MPD1    C5 2931   2.069   3.696   0.211  0.1789 -0.4737  0.3077
  189MPD1     H 2932   1.736   3.641   0.357 -1.5554  1.6485 -2.2373
  189MPD1    H1 2933   2.029   3.905   0.184 -1.0380  1.9502  0.2445
  189MPD1    H2 2934   2.099   3.487   0.219 -0.5513 -0.1570 -1.3075
  189MPD1    H3 2935   2.170   3.714   0.174 -0.3891 -0.0086 -1.0186
  189MPD1     N 2936   1.790   3.901   0.319 -0.2789 -0.0993  0.4688
  189MPD1    H5 2937   1.696   3.878   0.350 -0.4000  1.9193  1.5859
  189MPD1    N1 2938   1.881   3.422   0.313 -0.2718 -0.0250  0.0026
  189MPD1    H6 2939   1.968   3.372   0.333 -1.2916 -2.1812 -0.8586
  189MPD1    H7 2940   1.817   3.407   0.391  0.1397 -1.7040  0.0268
  190MPD1     C 2941   0.527   2.118  15.504 -0.5555  0.8069 -0.3719
  190MPD1    C1 2942   0.651   2.161  15.449  0.0354  0.7405 -0.4579
  190MPD1    C2 2943   0.765   2.168  15.529  0.2149 -0.4853  0.8098
  190MPD1    C3 2944   0.761   2.135  15.663 -0.4100  0.4498 -1.0225
  190MPD1    C4 2945   0.637   2.106  15.716 -0.2045  0.1821 -0.2853
  190MPD1    C5 2946   0.526   2.091  15.635 -0.0695 -0.3374  0.1942
  190MPD1     H 2947   0.857   2.183  15.474 -0.8497 -0.0058 -0.8395
  190MPD1    H1 2948   0.613   2.099  15.822 -1.8581  1.8644 -0.5477
  190MPD1    H2 2949   0.445   2.105  15.434 -0.0299  0.2690 -0.8940
  190MPD1    H3 2950   0.432   2.060  15.678 -0.0619 -2.4042 -1.2767
  190MPD1     N 2951   0.878   2.121  15.738  0.3781  0.5622  0.1366
  190MPD1    H5 2952   0.964   2.154  15.694  0.3114  1.5151  0.7370
  190MPD1    N1 2953   0.662   2.179  15.313 -0.2979 -0.2475  0.2723
  190MPD1    H6 2954   0.740   2.236  15.282  0.7777 -2.4051 -1.0455
  190MPD1    H7 2955   0.584   2.223  15.264  0.9830  1.3033 -0.3430
  191MPD1     C 2956   1.485   2.647  11.474 -0.2010  1.2633 -0.5620
  191MPD1    C1 2957   1.455   2.669  11.339  0.0282 -0.7038  1.0167
  191MPD1    C2 2958   1.336   2.737  11.310 -0.1946  0.3898 -0.5223
  191MPD1    C3 2959   1.273   2.801  11.413  0.7617  0.4119  0.4090
  191MPD1    C4 2960   1.326   2.803  11.539 -0.2335 -0.4479 -0.6427
  191MPD1    C5 2961   1.437   2.732  11.566 -0.3869  0.1892  0.0194
  191MPD1     H 2962   1.294   2.747  11.211 -0.6987 -5.1447 -0.9140
  191MPD1    H1 2963   1.272   2.850  11.622  0.8036  1.1367 -0.8588
  191MPD1    H2 2964   1.568   2.583  11.505 -0.9576 -0.0209 -1.1729
  191MPD1    H3 2965   1.471   2.736  11.669  3.0423 -2.6325 -1.0083
  191MPD1     N 2966   1.163   2.882  11.379  0.3549 -0.0808 -0.3655
  191MPD1    H5 2967   1.158   2.889  11.278  1.1130  1.5632 -0.2976
  191MPD1    N1 2968   1.529   2.599  11.240 -0.3423 -0.0615 -0.1164
  191MPD1    H6 2969   1.625   2.583  11.270 -0.2142  0.0501 -0.4676
  191MPD1    H7 2970   1.538   2.635  11.145 -2.1184  0.2134 -0.1768
  192MPD1     C 2971   0.988   3.411  10.622  0.1671 -0.2161  0.1790
  192MPD1    C1 2972   1.090   3.331  10.667 -0.2204  0.5678  0.1519
  192MPD1    C2 2973   1.097   3.315  10.805  0.0441  0.4016 -0.1302
  192MPD1    C3 2974   0.994   3.353  10.887 -0.4699 -0.1989  0.9099
  192MPD1    C4 2975   0.888   3.421  10.831  0.3557  0.0761  0.5423
  192MPD1    C5 2976   0.886   3.452  10.698  0.6929  0.5984  0.4990
  192MPD1     H 2977   1.178   3.252  10.839  0.4078  0.6356 -0.5672
  192MPD1    H1 2978   0.802   3.454  10.887 -0.4844 -2.3075  0.6551
  192MPD1    H2 2979   0.983   3.449  10.521 -1.5470 -0.1649  0.2809
  192MPD1    H3 2980   0.806   3.506  10.648  0.4019 -0.8054 -0.5448
  192MPD1     N 2981   0.985   3.318  11.019  0.3053  0.0260 -0.5144
  192MPD1    H5 2982   0.898   3.350  11.061  1.5773  2.7829  0.0257
  192MPD1    N1 2983   1.196   3.291  10.583  0.0210  0.3966 -0.3335
  192MPD1    H6 2984   1.174   3.278  10.485  1.3376 -0.9015 -0.4536
  192MPD1    H7 2985   1.244   3.209  10.618  0.5117  1.2639  1.0331
  193MPD1     C 2986   0.028   3.656  16.933 -0.5145 -0.3744  0.9359
  193MPD1    C1 2987   4.678   3.750  16.983  0.4380  0.4034  0.0004
  193MPD1    C2 2988   0.004   3.873  17.021  0.6762  0.2610  0.5501
  193MPD1    C3 2989   0.143   3.905  17.007  0.9798 -0.1793 -0.2755
  193MPD1    C4 2990   0.213   3.810  16.938  0.4316 -0.8105  0.2447
  193MPD1    C5 2991   0.158   3.688  16.915 -0.1890  0.6107  0.6493
  193MPD1     H 2992   4.666   3.945  17.056 -0.7603 -0.5990 -0.6779
  193MPD1    H1 2993   0.321   3.804  16.933  0.4309  0.4444 -1.2858
  193MPD1    H2 2994   0.002   3.555  16.903  0.3492 -0.5206  0.6797
  193MPD1    H3 2995   0.230   3.615  16.881 -0.8035 -0.2084  1.1209
  193MPD1     N 2996   0.207   4.022  17.045  0.0977  0.5183  0.1214
  193MPD1    H5 2997   0.306   4.030  17.021  0.1128  1.2955  0.4349
  193MPD1    N1 2998   4.543   3.714  17.008 -0.3579 -0.7774  0.0070
  193MPD1    H6 2999   4.478   3.792  17.000 -0.7506 -0.9690  1.3005
  193MPD1    H7 3000   4.511   3.627  16.968  2.6313 -2.2396  0.8040
  194MPD1     C 3001   2.121   1.523  16.762  0.4706 -0.0388  0.1332
  194MPD1    C1 3002   2.163   1.578  16.886 -0.1943 -0.0887 -0.2307
  194MPD1    C2 3003   2.243   1.493  16.969 -0.5279  0.8141  0.4560
  194MPD1    C3 3004   2.298   1.373  16.918 -0.2094 -0.4226 -0.6016
  194MPD1    C4 3005   2.280   1.344  16.784  0.4026  0.4056 -0.6785
  194MPD1    C5 3006   2.178   1.404  16.718  0.2081 -0.4251  0.1069
  194MPD1     H 3007   2.263   1.512  17.074  2.4697 -0.1063  0.0476
  194MPD1    H1 3008   2.334   1.258  16.749  0.6563  0.5204 -0.5729
  194MPD1    H2 3009   2.048   1.569  16.698  0.1817  2.5547  2.3354
  194MPD1    H3 3010   2.153   1.361  16.622 -2.0993  0.9306  0.1040
  194MPD1     N 3011   2.381   1.283  16.992 -0.3744  0.1188  0.2794
  194MPD1    H5 3012   2.389   1.186  16.963 -0.3110  0.3901 -0.6226
  194MPD1    N1 3013   2.086   1.674  16.952 -0.2839  0.0210  0.1414
  194MPD1    H6 3014   2.138   1.714  17.029 -0.3770  0.2232  0.0990
  194MPD1    H7 3015   2.051   1.747  16.891 -2.2037 -1.0985 -0.1031
  195MPD1     C 3016   0.780   2.422   0.497  0.8534  0.7767 -0.0987
  195MPD1    C1 3017   0.730   2.420   0.364  0.8795  0.4457 -0.0174
  195MPD1    C2 3018   0.638   2.330   0.335 -0.3268  0.7236 -0.2547
  195MPD1    C3 3019   0.592   2.239   0.431 -1.3446  0.0305  0.2444
  195MPD1    C4 3020   0.632   2.253   0.564  0.0160  0.0891  0.0487
  195MPD1    C5 3021   0.724   2.338   0.593 -0.5993 -0.2350  0.2541
  195MPD1     H 3022   0.601   2.315   0.234 -1.7775 -0.5308  0.4644
  195MPD1    H1 3023   0.591   2.193   0.645 -0.0430 -2.4545 -1.8566
  195MPD1    H2 3024   0.852   2.495   0.531 -0.1727  2.3185 -1.2583
  195MPD1    H3 3025   0.769   2.333   0.692  1.7367  1.1610 -0.7474
  195MPD1     N 3026   0.509   2.127   0.402 -0.0868 -0.6225 -0.0964
  195MPD1    H5 3027   0.474   2.079   0.484 -2.9950 -0.9127 -1.5022
  195MPD1    N1 3028   0.754   2.528   0.275  0.0637  0.1317 -0.1266
  195MPD1    H6 3029   0.848   2.567   0.276  0.4086 -0.8356  4.1850
  195MPD1    H7 3030   0.735   2.513   0.176 -1.0782 -0.3161  0.1686
  196MPD1     C 3031   3.456   1.833   1.378 -0.0330  0.1376 -0.1039
  196MPD1    C1 3032   3.532   1.925   1.304  0.0007  0.5422  0.2807
  196MPD1    C2 3033   3.634   1.992   1.363  0.4700 -0.0254 -0.3945
  196MPD1    C3 3034   3.662   1.989   1.496  0.1010 -0.1333 -0.0764
  196MPD1    C4 3035   3.593   1.888   1.565  0.3191 -0.0524 -0.8700
  196MPD1    C5 3036   3.493   1.810   1.508  0.3075  0.2174  0.3296
  196MPD1     H 3037   3.701   2.056   1.306  0.2187  2.3098  1.9479
  196MPD1    H1 3038   3.624   1.873   1.668 -0.4285 -0.3282 -0.6849
  196MPD1    H2 3039   3.386   1.763   1.334 -1.3288  1.3949 -0.0388
  196MPD1    H3 3040   3.445   1.738   1.573  0.6151 -0.9676 -0.7494
  196MPD1     N 3041   3.770   2.059   1.554 -0.0531 -0.3851  0.4572
  196MPD1    H5 3042   3.803   2.027   1.644  0.2811 -0.7991  0.1828
  196MPD1    N1 3043   3.488   1.951   1.174 -0.6010  0.1872 -0.6615
  196MPD1    H6 3044   3.397   1.915   1.144 -0.3906 -1.1061  0.2557
  196MPD1    H7 3045   3.482   2.051   1.157 -3.4397  0.1610  0.1732
  197MPD1     C 3046   3.663   4.175   0.208 -0.4289  0.4381  0.1548
  197MPD1    C1 3047   3.643   4.305   0.259  0.2495 -0.3195 -0.5298
  197MPD1    C2 3048   3.655   4.414   0.173 -0.2133 -0.2238 -0.2554
  197MPD1    C3 3049   3.648   4.396   0.036 -0.0090  0.7999 -0.0916
  197MPD1    C4 3050   3.644   4.269  17.725  0.0929  0.2555 -0.4592
  197MPD1    C5 3051   3.652   4.160   0.068  0.1255  0.0209  0.0520
  197MPD1     H 3052   3.658   4.516   0.210 -0.8956  0.2185 -1.4352
  197MPD1    H1 3053   3.627   4.255  17.619 -2.0172  0.4282 -0.1598
  197MPD1    H2 3054   3.657   4.087   0.272  0.9225 -0.3801 -0.8363
  197MPD1    H3 3055   3.643   4.060   0.028 -2.7053 -0.9322  3.0943
  197MPD1     N 3056   3.662   4.499  17.679  0.5751 -0.0793 -0.3119
  197MPD1    H5 3057   3.665   4.481  17.579 -2.1112  0.2042 -0.4298
  197MPD1    N1 3058   3.642   4.321   0.394 -0.0769  0.0584  0.2449
  197MPD1    H6 3059   3.601   4.239   0.439 -0.0306 -0.5247 -0.7833
  197MPD1    H7 3060   3.593   4.407   0.414 -0.5714 -0.1097 -0.2654
  198MPD1     C 3061   0.106   3.130  15.872  0.3712  0.6631  0.3427
  198MPD1    C1 3062   0.177   3.059  15.780 -0.3503 -0.0096  1.0717
  198MPD1    C2 3063   0.311   3.023  15.803 -0.2893  0.0206 -0.2597
  198MPD1    C3 3064   0.367   3.033  15.929  0.1369  0.0111 -0.0848
  198MPD1    C4 3065   0.279   3.078  16.032  0.4735  0.0608 -0.6327
  198MPD1    C5 3066   0.154   3.132  15.999 -0.4379 -1.0188  0.0052
  198MPD1     H 3067   0.368   2.991  15.716  3.1276 -1.4071  2.4636
  198MPD1    H1 3068   0.311   3.072  16.136  0.2330  0.0978 -0.5574
  198MPD1    H2 3069   0.006   3.170  15.855  1.4122  2.1716 -2.0731
  198MPD1    H3 3070   0.100   3.186  16.075 -1.9606 -0.9638 -1.1137
  198MPD1     N 3071   0.498   2.986  15.961 -0.7735 -0.2262  0.3244
  198MPD1    H5 3072   0.535   3.011  16.051  1.4774  1.1040 -0.9832
  198MPD1    N1 3073   0.142   3.057  15.645 -0.0514  0.2974  0.2895
  198MPD1    H6 3074   0.045   3.030  15.632 -0.2784  0.7115  1.1502
  198MPD1    H7 3075   0.197   2.997  15.583 -0.9214 -0.6924  0.4801
  199MPD1     C 3076   2.670   0.083  10.256 -0.1653  0.2949 -0.2065
  199MPD1    C1 3077   2.690   0.217  10.283  0.1576  0.3596 -0.4314
  199MPD1    C2 3078   2.625   0.314  10.203  0.1424 -0.0212 -0.1242
  199MPD1    C3 3079   2.541   0.276  10.100  0.1724 -1.1788  0.3319
  199MPD1    C4 3080   2.532   0.139  10.067  0.2287  0.0499 -0.5570
  199MPD1    C5 3081   2.602   0.053  10.138  0.2506 -0.4828 -0.6614
  199MPD1     H 3082   2.645   0.417  10.232 -1.1005 -0.2683  1.6386
  199MPD1    H1 3083   2.488   0.113   9.972 -2.2489  0.9024  0.3285
  199MPD1    H2 3084   2.717   4.735  10.307 -1.3658  0.7807  1.6900
  199MPD1    H3 3085   2.596   4.682  10.116  1.3003 -1.0898  2.0560
  199MPD1     N 3086   2.468   0.364  10.016 -0.7230  0.4630  0.0546
  199MPD1    H5 3087   2.417   0.314   9.944  0.8511 -0.2115 -0.6105
  199MPD1    N1 3088   2.748   0.251  10.409 -0.0944  0.7327  0.0327
  199MPD1    H6 3089   2.788   0.345  10.412  0.2036  0.5194  2.2866
  199MPD1    H7 3090   2.810   0.180  10.446 -0.3818  1.2325  1.4555
  200MPD1     C 3091   2.189   4.455  14.952 -0.5054 -0.0897 -0.6535
  200MPD1    C1 3092   2.308   4.473  14.888 -0.0365  0.1048  0.4578
  200MPD1    C2 3093   2.374   4.606  14.888  0.1850  0.0533  0.4119
  200MPD1    C3 3094   2.334   4.702  14.971 -0.0113 -0.0389  0.0423
  200MPD1    C4 3095   2.225   4.672  15.045  0.4132 -0.2650 -0.0364
  200MPD1    C5 3096   2.149   4.562  15.032  0.1860  0.2975 -0.1143
  200MPD1     H 3097   2.450   4.629  14.815  0.4567 -2.0102  0.0384
  200MPD1    H1 3098   2.192   4.732  15.130  0.2011 -0.4577  0.0161
  200MPD1    H2 3099   2.136   4.361  14.943  1.5744 -1.4004  0.7591
  200MPD1    H3 3100   2.060   4.531  15.085  0.0682 -0.6162 -0.8391
  200MPD1     N 3101   2.406   0.092  14.985 -0.5226  0.3954 -0.0797
  200MPD1    H5 3102   2.483   0.109  14.921  0.1167 -1.7893  0.1121
  200MPD1    N1 3103   2.342   4.377  14.783 -0.3264  0.1542 -0.1698
  200MPD1    H6 3104   2.436   4.387  14.744 -0.7345  0.3638 -1.1051
  200MPD1    H7 3105   2.329   4.281  14.813 -0.1676  0.0584 -0.4060
  201MPD1     C 3106   0.383   3.273  12.553  0.0102  0.2930  0.0707
  201MPD1    C1 3107   0.254   3.298  12.591 -0.2960 -0.9157  0.1872
  201MPD1    C2 3108   0.195   3.201  12.670  0.2561  0.5916 -0.0389
  201MPD1    C3 3109   0.240   3.074  12.672  0.1688  0.4926 -0.5045
  201MPD1    C4 3110   0.367   3.054  12.628 -0.4525  0.0831 -0.4175
  201MPD1    C5 3111   0.443   3.152  12.575 -0.3420  0.7232 -0.1016
  201MPD1     H 3112   0.099   3.224  12.716 -0.2376 -1.7067  0.0635
  201MPD1    H1 3113   0.413   2.957  12.640  0.1121 -0.0422 -3.8168
  201MPD1    H2 3114   0.443   3.351  12.507  0.8409 -1.7166 -2.2578
  201MPD1    H3 3115   0.546   3.132  12.550  0.1158  2.1137  0.6779
  201MPD1     N 3116   0.160   2.974  12.731  0.0031  0.4508  0.2284
  201MPD1    H5 3117   0.071   3.001  12.772  0.4858 -0.8804  2.1272
  201MPD1    N1 3118   0.203   3.428  12.595 -0.4680  0.1129 -0.1767
  201MPD1    H6 3119   0.255   3.490  12.533  0.8847 -1.0479 -0.2046
  201MPD1    H7 3120   0.104   3.421  12.571 -0.6527  0.0115  0.6096
  202MPD1     C 3121   4.335   1.919   8.870  0.1521 -0.0488  0.2244
  202MPD1    C1 3122   4.312   2.050   8.875  0.1230 -0.2621 -0.0072
  202MPD1    C2 3123   4.260   2.106   8.990  0.7867 -0.1584 -0.1447
  202MPD1    C3 3124   4.293   2.053   9.112 -0.1064 -0.2970 -0.2692
  202MPD1    C4 3125   4.345   1.926   9.110 -0.1143 -0.1298 -0.1461
  202MPD1    C5 3126   4.353   1.859   8.990 -0.0082  0.7865  0.1726
  202MPD1     H 3127   4.220   2.207   8.986 -1.2564 -0.8732  2.5370
  202MPD1    H1 3128   4.381   1.871   9.196 -2.1168  0.4995  1.0867
  202MPD1    H2 3129   4.357   1.853   8.787 -0.8268  2.0588 -1.6829
  202MPD1    H3 3130   4.368   1.752   8.999  1.7155  0.9792 -0.4269
  202MPD1     N 3131   4.271   2.111   9.237 -0.2379  0.4991  0.3687
  202MPD1    H5 3132   4.308   2.065   9.319 -0.7416  2.0013  1.4271
  202MPD1    N1 3133   4.276   2.105   8.750  0.7033 -0.3483 -0.6678
  202MPD1    H6 3134   4.269   2.206   8.757  2.8483 -0.3289  1.0600
  202MPD1    H7 3135   4.340   2.078   8.676  0.4703 -3.3370  0.2149
  203MPD1     C 3136   2.679   3.646  12.501  0.5992  1.3179  0.5520
  203MPD1    C1 3137   2.694   3.531  12.429  0.2058 -0.5950  0.5863
  203MPD1    C2 3138   2.798   3.444  12.464 -0.8472 -0.6778 -0.1022
  203MPD1    C3 3139   2.874   3.476  12.581  0.0487 -0.4523  0.0871
  203MPD1    C4 3140   2.844   3.585  12.662 -0.3417 -0.3392 -0.0336
  203MPD1    C5 3141   2.754   3.680  12.612 -0.3695  0.1687  0.4861
  203MPD1     H 3142   2.829   3.354  12.411  1.8825 -1.4485  2.8449
  203MPD1    H1 3143   2.886   3.611  12.758 -0.3261 -0.2813 -0.0560
  203MPD1    H2 3144   2.597   3.712  12.476 -1.2217 -1.4138 -0.7202
  203MPD1    H3 3145   2.729   3.765  12.674  1.6861  2.0698 -1.2854
  203MPD1     N 3146   2.972   3.383  12.621 -0.5792  0.2084 -0.2328
  203MPD1    H5 3147   3.001   3.303  12.565 -1.8029 -1.4399  1.4674
  203MPD1    N1 3148   2.622   3.517  12.310 -0.2439  0.0789  0.2136
  203MPD1    H6 3149   2.523   3.539  12.316 -0.0468  0.6925  1.1429
  203MPD1    H7 3150   2.632   3.424  12.271  0.4382  0.5646 -0.7929
  204MPD1     C 3151   1.996   0.481   0.148  0.3982  0.1080 -0.6507
  204MPD1    C1 3152   2.067   0.496   0.033 -0.2345  0.1538  0.5187
  204MPD1    C2 3153   2.158   0.395  17.729  0.0586 -0.5932 -0.4471
  204MPD1    C3 3154   2.169   0.273   0.054 -0.2892 -0.3085  0.0810
  204MPD1    C4 3155   2.092   0.255   0.174  0.1727 -0.5928  0.1252
  204MPD1    C5 3156   2.024   0.366   0.228 -0.3638  0.7396  0.0159
  204MPD1     H 3157   2.222   0.425  17.647 -1.3992  0.8520 -1.0549
  204MPD1    H1 3158   2.106   0.173   0.244  2.7113 -0.6697 -0.4499
  204MPD1    H2 3159   1.925   0.556   0.178  0.1310  0.3988 -2.0106
  204MPD1    H3 3160   1.981   0.361   0.328  0.6572  1.0777  0.4722
  204MPD1     N 3161   2.251   0.172   0.000 -0.3399 -0.5781  0.1458
  204MPD1    H5 3162   2.280   0.185  17.643 -1.2314 -1.9572 -0.3055
  204MPD1    N1 3163   2.065   0.626  17.714  0.1597 -0.0673  0.4925
  204MPD1    H6 3164   2.078   0.626  17.613  0.7204  0.8427  0.5637
  204MPD1    H7 3165   1.974   0.670  17.729 -0.9500 -1.6328 -1.6199
  205MPD1     C 3166   3.140   3.291  17.074  0.1337 -0.0198 -0.1639
  205MPD1    C1 3167   3.034   3.365  17.038 -0.6039  0.0586  0.4556
  205MPD1    C2 3168   2.953   3.413  17.141  0.4746  0.7366  0.1770
  205MPD1    C3 3169   2.983   3.385  17.276  0.2756  0.6177 -0.1339
  205MPD1    C4 3170   3.085   3.301  17.305  0.1176 -0.2280 -0.2664
  205MPD1    C5 3171   3.165   3.261  17.204 -0.3098  1.1476  0.0413
  205MPD1     H 3172   2.863   3.468  17.119 -0.9657 -2.1115 -0.9742
  205MPD1    H1 3173   3.101   3.271  17.408 -1.5933 -2.0435 -0.5323
  205MPD1    H2 3174   3.207   3.248  17.001 -0.9069 -3.1341  0.7040
  205MPD1    H3 3175   3.243   3.187  17.220  0.6430  1.6887 -2.0821
  205MPD1     N 3176   2.905   3.427  17.385  0.4511  0.4286  0.3652
  205MPD1    H5 3177   2.938   3.394  17.475  1.3546 -1.9587 -0.8272
  205MPD1    N1 3178   3.029   3.409  16.904  0.1053  0.2888  0.0560
  205MPD1    H6 3179   2.945   3.464  16.887 -0.5361 -1.1256 -1.4016
  205MPD1    H7 3180   3.032   3.323  16.849  1.4785  0.6200 -0.3739
  206MPD1     C 3181   2.635   1.882  17.174  0.6830  0.2757 -0.1445
  206MPD1    C1 3182   2.705   1.796  17.088 -0.8107  0.2967  0.4798
  206MPD1    C2 3183   2.629   1.739  16.986  0.0486  0.2422 -0.2966
  206MPD1    C3 3184   2.506   1.786  16.952 -0.0910 -0.7036 -0.1940
  206MPD1    C4 3185   2.456   1.891  17.021 -0.4749 -0.5108  0.1555
  206MPD1    C5 3186   2.519   1.934  17.132  0.2025  1.0117 -0.2558
  206MPD1     H 3187   2.670   1.652  16.935 -1.4312 -1.3157  1.1545
  206MPD1    H1 3188   2.371   1.945  16.980  1.0150 -0.5460 -2.9816
  206MPD1    H2 3189   2.676   1.911  17.270 -0.0625  0.5013  0.1091
  206MPD1    H3 3190   2.466   2.013  17.184 -2.6516 -0.0244 -1.6129
  206MPD1     N 3191   2.443   1.748  16.831  0.2896 -0.2419 -0.6153
  206MPD1    H5 3192   2.351   1.790  16.816 -0.8645 -2.5309 -0.0610
  206MPD1    N1 3193   2.822   1.726  17.129  0.2546 -0.5424 -0.0947
  206MPD1    H6 3194   2.868   1.678  17.053 -1.3693 -0.1436 -1.3244
  206MPD1    H7 3195   2.887   1.778  17.188 -0.7569  2.4574 -1.6604
  207MPD1     C 3196   0.410   4.180  10.255  0.5747  0.9522  0.1636
  207MPD1    C1 3197   0.444   4.262  10.156  0.6321 -0.5000  0.3406
  207MPD1    C2 3198   0.530   4.366  10.193 -0.7680  0.2119 -0.3010
  207MPD1    C3 3199   0.591   4.369  10.319 -0.5869 -0.0792  0.3874
  207MPD1    C4 3200   0.551   4.280  10.414  0.3720  0.2747 -0.2608
  207MPD1    C5 3201   0.468   4.183  10.380  0.1791  0.6491  0.2395
  207MPD1     H 3202   0.551   4.442  10.119  0.1949  0.1187 -0.1173
  207MPD1    H1 3203   0.589   4.285  10.515  2.2081 -1.2750 -0.8703
  207MPD1    H2 3204   0.332   4.110  10.227 -0.5711  1.9508  0.8340
  207MPD1    H3 3205   0.430   4.115  10.455 -0.9957  1.3947  0.3295
  207MPD1     N 3206   0.698   4.462  10.351  0.5332 -0.3102  0.5867
  207MPD1    H5 3207   0.734   4.454  10.446  1.1990  1.7410  0.5029
  207MPD1    N1 3208   0.358   4.279  10.041  0.1110 -0.6366 -1.0421
  207MPD1    H6 3209   0.410   4.330   9.970  1.3382  0.3665  0.6024
  207MPD1    H7 3210   0.311   4.194  10.010 -0.3677 -1.2180  1.3127
  208MPD1     C 3211   3.139   2.512  17.020 -0.3641  0.6621 -0.0312
  208MPD1    C1 3212   3.234   2.455  17.098  0.0120 -0.0820 -0.8649
  208MPD1    C2 3213   3.226   2.464  17.234 -0.1157  0.7659  0.1255
  208MPD1    C3 3214   3.114   2.516  17.295 -0.0769 -0.2174 -0.3997
  208MPD1    C4 3215   3.013   2.558  17.211 -0.1561  0.4211  0.9428
  208MPD1    C5 3216   3.025   2.557  17.076  0.6115  0.1474 -0.2658
  208MPD1     H 3217   3.311   2.432  17.294 -0.6319  0.4931  0.7065
  208MPD1    H1 3218   2.923   2.602  17.253 -1.1809 -0.4402 -0.3612
  208MPD1    H2 3219   3.145   2.521  16.913  2.6256 -1.1067 -0.0182
  208MPD1    H3 3220   2.946   2.586  17.007  0.0481 -2.0506 -0.5538
  208MPD1     N 3221   3.108   2.515  17.434  0.1979 -0.5697  0.1768
  208MPD1    H5 3222   3.182   2.464  17.480 -0.1780 -1.7335 -0.5223
  208MPD1    N1 3223   3.336   2.388  17.030  0.3382  0.5075 -0.4255
  208MPD1    H6 3224   3.369   2.309  17.084 -1.0216  0.8715  0.9529
  208MPD1    H7 3225   3.305   2.356  16.938 -0.2352  0.7268 -0.3141
  209MPD1     C 3226   0.690   3.609  11.383  0.7780  0.3586 -0.0908
  209MPD1    C1 3227   0.810   3.612  11.440 -0.1586  0.0014  0.5391
  209MPD1    C2 3228   0.925   3.610  11.360  0.4869  0.0531  0.2045
  209MPD1    C3 3229   0.910   3.604  11.226 -0.0838  0.0083 -0.1177
  209MPD1    C4 3230   0.791   3.574  11.161  1.3693 -0.6841 -0.2655
  209MPD1    C5 3231   0.680   3.576  11.249 -0.0139  0.0247 -0.1865
  209MPD1     H 3232   1.023   3.627  11.403  1.7902 -2.7841 -1.5791
  209MPD1    H1 3233   0.774   3.564  11.055 -0.7880  1.8360 -0.1672
  209MPD1    H2 3234   0.595   3.606  11.435  2.0858  0.1071  2.2989
  209MPD1    H3 3235   0.580   3.560  11.211 -0.1155  0.6440 -0.1771
  209MPD1     N 3236   1.024   3.628  11.142 -0.0369 -0.0466 -0.0121
  209MPD1    H5 3237   1.112   3.642  11.191  0.0427 -1.0262  0.1233
  209MPD1    N1 3238   0.820   3.659  11.573 -0.9406  0.4205 -0.0095
  209MPD1    H6 3239   0.904   3.623  11.618 -0.9610  0.8088  0.3356
  209MPD1    H7 3240   0.739   3.649  11.634 -0.5316  1.1442  0.6451
  210MPD1     C 3241   1.692   3.158  10.863 -0.2409 -0.4938 -0.0773
  210MPD1    C1 3242   1.735   3.260  10.943  0.6384 -0.9197 -0.2767
  210MPD1    C2 3243   1.650   3.365  10.960  0.0960  0.4033 -0.1122
  210MPD1    C3 3244   1.528   3.373  10.897 -0.6667 -0.0824 -0.4134
  210MPD1    C4 3245   1.493   3.269  10.816  0.3578 -0.3080  0.0607
  210MPD1    C5 3246   1.569   3.161  10.798  0.4526  0.4153  0.1607
  210MPD1     H 3247   1.677   3.449  11.024  1.9782  1.3106 -2.0826
  210MPD1    H1 3248   1.404   3.278  10.756 -0.9638 -1.8874  1.8171
  210MPD1    H2 3249   1.758   3.073  10.862  1.9018  1.1688  0.0250
  210MPD1    H3 3250   1.528   3.074  10.747 -2.1227  1.0794  1.1242
  210MPD1     N 3251   1.444   3.486  10.888  0.1707 -0.6211  0.1230
  210MPD1    H5 3252   1.351   3.479  10.848 -0.0673  3.4823 -0.0299
  210MPD1    N1 3253   1.860   3.260  11.009  0.5722 -0.0283 -0.1883
  210MPD1    H6 3254   1.874   3.171  11.055  0.0013 -0.2093 -0.3693
  210MPD1    H7 3255   1.865   3.326  11.087 -3.4863 -0.2384  0.2415
  211MPD1     C 3256   3.124   2.886  17.541 -0.3661 -0.1919  0.3375
  211MPD1    C1 3257   3.040   2.974  17.606 -0.0051 -0.2770  0.2164
  211MPD1    C2 3258   2.936   3.038  17.534 -0.0591 -0.4787  0.1444
  211MPD1    C3 3259   2.922   3.021  17.400  0.5033 -0.3080  0.5975
  211MPD1    C4 3260   3.009   2.940  17.328  0.6421 -0.0222 -1.0173
  211MPD1    C5 3261   3.106   2.873  17.403 -0.5139 -0.2430 -0.4172
  211MPD1     H 3262   2.866   3.092  17.598  0.0087 -1.4859  1.0741
  211MPD1    H1 3263   3.005   2.924  17.221  0.1948  0.6086 -1.0959
  211MPD1    H2 3264   3.204   2.838  17.598 -0.3363 -0.5251  0.0146
  211MPD1    H3 3265   3.186   2.820  17.351 -0.6861 -2.0307  1.1329
  211MPD1     N 3266   2.816   3.086  17.326  0.8254  0.2724 -0.1046
  211MPD1    H5 3267   2.765   3.154  17.382  1.6093 -0.9474  2.0951
  211MPD1    N1 3268   3.031   2.970   0.006  0.6471  0.0317 -0.2773
  211MPD1    H6 3269   2.990   3.052   0.051  0.0494 -0.0627 -0.6559
  211MPD1    H7 3270   3.115   2.952   0.062  1.4659 -1.0339 -1.8304
  212MPD1     C 3271   2.347   1.337  17.655  0.9291  0.0019  0.1954
  212MPD1    C1 3272   2.307   1.440  17.575 -0.3504  0.2502  0.1619
  212MPD1    C2 3273   2.231   1.414  17.461 -0.4072  0.7575 -0.8089
  212MPD1    C3 3274   2.203   1.281  17.425 -0.2546 -0.4187  0.2094
  212MPD1    C4 3275   2.237   1.181  17.510 -0.2412  0.4619  0.0202
  212MPD1    C5 3276   2.298   1.205  17.629 -0.0120  0.1571  0.0658
  212MPD1     H 3277   2.204   1.495  17.394 -1.3603 -0.6046 -2.0753
  212MPD1    H1 3278   2.219   1.080  17.473 -0.2870  0.3613  0.3092
  212MPD1    H2 3279   2.396   1.356   0.010  1.2534 -0.6566  0.1618
  212MPD1    H3 3280   2.332   1.125  17.694  0.9668 -1.0110 -1.8971
  212MPD1     N 3281   2.134   1.238  17.314  0.4552  0.2994  0.1460
  212MPD1    H5 3282   2.099   1.143  17.326 -1.2283  0.8497 -0.4522
  212MPD1    N1 3283   2.321   1.569  17.618  0.2003 -0.2259  0.0106
  212MPD1    H6 3284   2.419   1.583  17.639  0.2755  0.2009 -0.6295
  212MPD1    H7 3285   2.301   1.636  17.545 -2.2755 -0.8555  0.0989
  213MPD1     C 3286   0.282   2.148  15.993  0.8153  0.4908 -0.4666
  213MPD1    C1 3287   0.154   2.106  15.992 -0.2609 -0.0337 -0.2743
  213MPD1    C2 3288   0.092   2.118  15.866 -0.1227 -0.0846 -0.7752
  213MPD1    C3 3289   0.138   2.208  15.774 -0.2972 -0.0636  0.6150
  213MPD1    C4 3290   0.247   2.281  15.797 -0.9453 -0.0761  0.0624
  213MPD1    C5 3291   0.326   2.241  15.905 -1.6549  0.0059  0.0837
  213MPD1     H 3292   0.002   2.062  15.840 -0.7552 -0.1260  1.4843
  213MPD1    H1 3293   0.290   2.357  15.732 -0.7954 -1.3332 -1.3098
  213MPD1    H2 3294   0.343   2.127  16.080  2.8511 -1.9681 -2.4886
  213MPD1    H3 3295   0.427   2.278  15.920 -0.8171 -2.0642 -0.4570
  213MPD1     N 3296   0.055   2.220  15.661 -0.2064  0.3015  0.5716
  213MPD1    H5 3297   4.703   2.167  15.661 -0.6725  1.0646  0.1809
  213MPD1    N1 3298   0.126   1.987  16.067 -0.0534 -0.5006  0.5176
  213MPD1    H6 3299   0.130   1.993  16.169 -1.1832  1.7822  0.4290
  213MPD1    H7 3300   0.028   1.965  16.052  0.8312 -2.9433 -1.7296
  214MPD1     C 3301   4.307   1.638  15.409  0.5100 -0.2017  0.1313
  214MPD1    C1 3302   4.385   1.662  15.296 -0.6022  0.1030 -0.5814
  214MPD1    C2 3303   4.422   1.790  15.272 -0.4697 -0.2311  0.0701
  214MPD1    C3 3304   4.412   1.883  15.367  0.4542 -0.7320  0.4995
  214MPD1    C4 3305   4.334   1.862  15.482  1.2696  0.7822 -0.2977
  214MPD1    C5 3306   4.279   1.740  15.493 -0.6419 -0.6206  0.0329
  214MPD1     H 3307   4.477   1.811  15.181  0.2558 -3.1141 -0.1463
  214MPD1    H1 3308   4.311   1.943  15.550  0.3006 -0.6953  1.1267
  214MPD1    H2 3309   4.262   1.542  15.436  1.7553 -1.4659 -2.3469
  214MPD1    H3 3310   4.200   1.733  15.567 -1.7294 -1.4616 -1.2124
  214MPD1     N 3311   4.473   2.012  15.361 -0.5805  0.0489  0.5284
  214MPD1    H5 3312   4.456   2.078  15.437  1.1680  2.2551 -0.9822
  214MPD1    N1 3313   4.395   1.561  15.195 -0.1513  0.2649  0.2001
  214MPD1    H6 3314   4.473   1.576  15.131 -0.2983 -2.7170 -0.6579
  214MPD1    H7 3315   4.407   1.468  15.235  2.7504  1.0595  1.1490
  215MPD1     C 3316   0.919   2.370  10.988  0.3361  0.1170  0.4904
  215MPD1    C1 3317   0.794   2.369  11.044 -0.4616 -0.0591 -0.5788
  215MPD1    C2 3318   0.696   2.452  10.999 -0.3631 -0.1626  0.1464
  215MPD1    C3 3319   0.716   2.532  10.887  0.0569  0.2426  0.5573
  215MPD1    C4 3320   0.831   2.518  10.816 -0.3764  0.0718 -0.2068
  215MPD1    C5 3321   0.932   2.442  10.867 -0.0176 -0.0278 -0.5090
  215MPD1     H 3322   0.605   2.453  11.059  0.4348  2.3367  1.3386
  215MPD1    H1 3323   0.857   2.567  10.723 -0.1583  1.0926  0.4000
  215MPD1    H2 3324   1.010   2.318  11.016  0.3597  0.1957  0.5591
  215MPD1    H3 3325   1.025   2.438  10.811  0.6396 -0.5878  0.6117
  215MPD1     N 3326   0.599   2.605  10.834 -0.3459 -0.6048  0.1608
  215MPD1    H5 3327   0.518   2.597  10.894 -0.8642 -2.8791 -0.8734
  215MPD1    N1 3328   0.781   2.306  11.167  0.4773 -0.6614 -1.0733
  215MPD1    H6 3329   0.837   2.222  11.171  1.1970 -0.1804 -1.1609
  215MPD1    H7 3330   0.684   2.285  11.191  0.9853 -1.5378  0.1996
  216MPD1     C 3331   1.923   1.554  17.578 -0.1563  0.3738 -0.2422
  216MPD1    C1 3332   1.937   1.482  17.698  0.4539  0.3958  0.0447
  216MPD1    C2 3333   1.827   1.404   0.012 -0.0310 -0.2721  0.1473
  216MPD1    C3 3334   1.728   1.379  17.659  0.7298  0.3921 -0.5239
  216MPD1    C4 3335   1.718   1.444  17.542 -0.0503 -0.5212  0.1750
  216MPD1    C5 3336   1.808   1.539  17.503  0.1883  0.8576 -0.4628
  216MPD1     H 3337   1.832   1.348   0.105 -0.6291 -0.2802  0.1783
  216MPD1    H1 3338   1.634   1.428  17.474 -0.4210  0.4828  0.3967
  216MPD1    H2 3339   1.998   1.623  17.543  1.4488  0.7288  3.9429
  216MPD1    H3 3340   1.799   1.587  17.406 -0.7949 -1.6546 -1.6073
  216MPD1     N 3341   1.647   1.270  17.693 -0.1319 -0.7592 -0.3182
  216MPD1    H5 3342   1.680   1.218   0.035  3.2488  0.2469 -1.0709
  216MPD1    N1 3343   2.056   1.503   0.023  0.0647  0.2080 -0.0717
  216MPD1    H6 3344   2.082   1.430   0.089  0.9441  0.6535  0.0686
  216MPD1    H7 3345   2.131   1.521  17.695 -1.0181  3.9155 -0.2639
  217MPD1     C 3346   1.811   2.632   8.689  0.7101  0.1478  0.3064
  217MPD1    C1 3347   1.897   2.526   8.693  0.0346 -0.1884 -0.4004
  217MPD1    C2 3348   2.023   2.547   8.750 -0.4760 -0.4876 -0.1897
  217MPD1    C3 3349   2.055   2.680   8.787  0.0650  0.5372  0.0100
  217MPD1    C4 3350   1.957   2.779   8.787  0.2246 -0.2552  0.0200
  217MPD1    C5 3351   1.834   2.754   8.737  0.1605 -0.3109 -0.6276
  217MPD1     H 3352   2.092   2.467   8.770  0.9764  0.6347 -0.6988
  217MPD1    H1 3353   1.973   2.880   8.825  1.4467 -0.6791  0.6070
  217MPD1    H2 3354   1.710   2.624   8.651  0.9752  3.6268 -1.0802
  217MPD1    H3 3355   1.767   2.838   8.722 -0.2467 -0.9173 -2.2686
  217MPD1     N 3356   2.190   2.720   8.822 -0.4016 -0.3744  0.1411
  217MPD1    H5 3357   2.205   2.817   8.851 -0.5805 -0.6675  1.2118
  217MPD1    N1 3358   1.869   2.404   8.622 -0.5670 -0.0322  0.4175
  217MPD1    H6 3359   1.922   2.323   8.651  3.6053  1.7633 -2.1532
  217MPD1    H7 3360   1.773   2.382   8.597 -0.4322 -2.1431  1.7735
  218MPD1     C 3361   4.144   2.992  12.720 -0.2698 -0.6631 -0.6057
  218MPD1    C1 3362   4.165   3.122  12.675  0.2429  0.1059 -0.0413
  218MPD1    C2 3363   4.296   3.164  12.637  0.4348 -0.7384 -1.0333
  218MPD1    C3 3364   4.391   3.074  12.646 -0.2804  0.5595 -0.4273
  218MPD1    C4 3365   4.372   2.952  12.704 -0.3196 -0.3863  0.3483
  218MPD1    C5 3366   4.252   2.911  12.739  0.0802 -0.2044 -0.1709
  218MPD1     H 3367   4.310   3.264  12.599 -2.5265  0.0458 -0.0546
  218MPD1    H1 3368   4.457   2.887  12.721  1.1710  1.6453  0.7224
  218MPD1    H2 3369   4.049   2.946  12.746  1.2758 -2.8675  1.2268
  218MPD1    H3 3370   4.253   2.806  12.768  0.2327  0.3385  1.8036
  218MPD1     N 3371   4.506   3.104  12.570 -0.0547  0.9063 -0.2079
  218MPD1    H5 3372   4.513   3.201  12.543 -3.7823  1.4654  0.7520
  218MPD1    N1 3373   4.053   3.196  12.638  0.1054 -0.1456  0.2645
  218MPD1    H6 3374   3.970   3.172  12.692  0.2818 -0.5645  0.3470
  218MPD1    H7 3375   4.074   3.294  12.655  1.6229 -0.4180 -0.0273
  219MPD1     C 3376   4.659   3.879  12.322  0.3987 -0.1396  0.3338
  219MPD1    C1 3377   0.038   3.815  12.363 -0.4560  0.6708 -0.3846
  219MPD1    C2 3378   0.044   3.684  12.328 -0.3610  0.3826  0.1952
  219MPD1    C3 3379   4.668   3.609  12.289 -0.2334 -0.0075 -0.0507
  219MPD1    C4 3380   4.552   3.671  12.254  0.3161 -0.7183 -0.4195
  219MPD1    C5 3381   4.547   3.808  12.273  0.4152  0.6801  0.3925
  219MPD1     H 3382   0.126   3.620  12.358 -1.5357 -2.7548 -3.2286
  219MPD1    H1 3383   4.462   3.625  12.215 -1.2684  0.4930  1.8091
  219MPD1    H2 3384   4.651   3.987  12.320  0.0250 -0.1679  0.1427
  219MPD1    H3 3385   4.471   3.867  12.222 -0.7865  1.4480  3.0815
  219MPD1     N 3386   4.678   3.464  12.283 -0.1258 -0.3429  0.5489
  219MPD1    H5 3387   4.586   3.422  12.281 -0.4104  0.2281  1.4910
  219MPD1    N1 3388   0.149   3.890  12.412 -0.4549 -0.1196 -0.3751
  219MPD1    H6 3389   0.205   3.835  12.477  0.5043  2.9407  1.3983
  219MPD1    H7 3390   0.142   3.982  12.454 -1.0154 -0.6687  0.7602
  220MPD1     C 3391   0.016   4.421   9.623 -0.5505 -0.1591 -0.2077
  220MPD1    C1 3392   4.652   4.327   9.602 -0.5289  0.1621 -0.5687
  220MPD1    C2 3393   4.642   4.216   9.682  0.0430 -0.4066  0.4551
  220MPD1    C3 3394   0.008   4.186   9.771 -0.3200 -0.1482  0.3015
  220MPD1    C4 3395   0.119   4.268   9.769 -0.2371 -0.8645  0.3949
  220MPD1    C5 3396   0.114   4.391   9.711 -0.4816  0.1487  0.2118
  220MPD1     H 3397   4.555   4.152   9.683 -1.2022  1.2843  1.2623
  220MPD1    H1 3398   0.207   4.246   9.829 -0.6725 -0.7820  1.0632
  220MPD1    H2 3399   0.025   4.514   9.568  1.4926  0.2226  0.7725
  220MPD1    H3 3400   0.196   4.462   9.717 -1.3296  1.3223 -2.0128
  220MPD1     N 3401   4.727   4.068   9.851 -0.0749  0.0720  0.0973
  220MPD1    H5 3402   4.647   4.007   9.839  0.9406 -1.1465 -0.5423
  220MPD1    N1 3403   4.543   4.367   9.522  0.4663  0.1367 -0.2104
  220MPD1    H6 3404   4.498   4.292   9.470 -0.8611  0.2631  0.7554
  220MPD1    H7 3405   4.552   4.447   9.460 -0.2514  1.4443  1.3804
  221MPD1     C 3406   2.913   3.088  16.216  0.1000  0.5107  0.1975
  221MPD1    C1 3407   2.830   2.990  16.163 -0.2306 -0.2188 -0.5682
  221MPD1    C2 3408   2.791   2.886  16.251  0.4804 -0.1737 -0.8338
  221MPD1    C3 3409   2.846   2.873  16.381  0.0414  0.3138 -0.4671
  221MPD1    C4 3410   2.938   2.966  16.416 -0.0152  0.2720 -0.2804
  221MPD1    C5 3411   2.965   3.078  16.342 -0.1503 -0.5576  0.4040
  221MPD1     H 3412   2.723   2.809  16.217  1.5207 -1.1677 -0.6529
  221MPD1    H1 3413   2.981   2.974  16.515 -0.6802 -0.0608  0.0396
  221MPD1    H2 3414   2.918   3.182  16.163  0.3048 -0.4571 -1.4989
  221MPD1    H3 3415   3.031   3.153  16.384  0.2358 -1.6915  1.7963
  221MPD1     N 3416   2.815   2.764  16.462 -0.3066  0.6998  0.5070
  221MPD1    H5 3417   2.874   2.767  16.545 -1.1256 -3.8480  1.2174
  221MPD1    N1 3418   2.775   2.998  16.036  0.6990 -0.6198  0.2428
  221MPD1    H6 3419   2.824   3.061  15.972  1.4384 -1.4675 -0.0356
  221MPD1    H7 3420   2.759   2.909  15.988 -1.7218  0.3651 -0.7443
  222MPD1     C 3421   1.587   1.083   0.466 -0.3970 -0.1732 -0.1642
  222MPD1    C1 3422   1.560   1.214   0.441  0.7798 -0.3693  0.6195
  222MPD1    C2 3423   1.665   1.300   0.415  0.6484  0.4923 -0.4991
  222MPD1    C3 3424   1.803   1.258   0.395  0.0073 -0.1502  0.3663
  222MPD1    C4 3425   1.819   1.125   0.411  0.3392 -0.7607  0.6047
  222MPD1    C5 3426   1.714   1.040   0.453  0.2598 -0.7425  0.0322
  222MPD1     H 3427   1.646   1.407   0.406 -4.0374 -0.5103 -2.0433
  222MPD1    H1 3428   1.901   1.064   0.376  2.2028  1.9876  0.1650
  222MPD1    H2 3429   1.505   1.016   0.492  0.2862 -1.4974 -1.4093
  222MPD1    H3 3430   1.738   0.934   0.456  0.6406 -0.6087  2.0044
  222MPD1     N 3431   1.916   1.340   0.366 -0.2618  0.4632 -0.0923
  222MPD1    H5 3432   2.005   1.298   0.339  0.0475  0.8158  0.3841
  222MPD1    N1 3433   1.431   1.265   0.479 -0.3133 -0.5497  0.5448
  222MPD1    H6 3434   1.412   1.345   0.418  2.2708  1.6620  2.6261
  222MPD1    H7 3435   1.360   1.193   0.471 -0.2820 -0.2858 -2.2449
  223MPD1     C 3436   2.917   1.404   0.322  0.2596  0.0014 -0.0715
  223MPD1    C1 3437   2.871   1.454   0.202  0.1202  0.2046 -0.5183
  223MPD1    C2 3438   2.739   1.492   0.191 -0.1156 -0.3364 -0.3178
  223MPD1    C3 3439   2.644   1.471   0.294 -0.1466  0.3117  0.3498
  223MPD1    C4 3440   2.697   1.422   0.411 -0.2969 -0.0571 -0.0106
  223MPD1    C5 3441   2.826   1.387   0.421 -0.3611  0.7331  0.3872
  223MPD1     H 3442   2.704   1.527   0.095  2.5443 -1.3638 -1.6557
  223MPD1    H1 3443   2.640   1.421   0.503  0.4978 -1.6454  0.4717
  223MPD1    H2 3444   3.020   1.371   0.334  0.6646  0.6326 -1.8056
  223MPD1    H3 3445   2.861   1.345   0.515 -1.0210  1.1796  0.8339
  223MPD1     N 3446   2.508   1.504   0.266  0.7660 -0.0798 -0.0898
  223MPD1    H5 3447   2.482   1.574   0.197 -1.4108 -0.9634 -0.1853
  223MPD1    N1 3448   2.956   1.478   0.091 -0.1428 -0.0126 -0.1744
  223MPD1    H6 3449   3.022   1.402   0.083 -1.1624 -0.9162  0.0540
  223MPD1    H7 3450   2.901   1.471   0.005  2.3502 -0.4725 -1.7191
  224MPD1     C 3451   2.586   3.036   8.688  0.4861  0.9656  0.0585
  224MPD1    C1 3452   2.522   3.143   8.728  0.2265 -0.6522 -0.3370
  224MPD1    C2 3453   2.583   3.226   8.825 -0.0739  0.1347  0.6575
  224MPD1    C3 3454   2.691   3.168   8.905 -0.4165 -0.6507  0.7645
  224MPD1    C4 3455   2.743   3.045   8.863 -0.2740  0.5412 -0.0992
  224MPD1    C5 3456   2.696   2.987   8.752 -0.2295  0.2064  0.6199
  224MPD1     H 3457   2.537   3.316   8.864  0.5354  0.5909  0.3094
  224MPD1    H1 3458   2.835   3.007   8.906 -0.3926 -0.2638 -0.5655
  224MPD1    H2 3459   2.543   2.984   8.602 -1.6990 -0.2279  1.8671
  224MPD1    H3 3460   2.743   2.895   8.720 -1.2027  0.3645 -1.2668
  224MPD1     N 3461   2.751   3.221   9.015  0.1058 -0.0272  0.0308
  224MPD1    H5 3462   2.811   3.152   9.060  1.1342  2.0274  1.8262
  224MPD1    N1 3463   2.429   3.202   8.641  0.2247 -0.2243 -0.3479
  224MPD1    H6 3464   2.372   3.145   8.579 -0.2565 -0.0903 -0.0343
  224MPD1    H7 3465   2.351   3.253   8.684 -0.1040 -2.0777  1.2720
  225MPD1     C 3466   4.439   4.281  12.734  0.1605 -0.5319  0.4138
  225MPD1    C1 3467   4.433   4.388  12.647 -0.8065 -0.4820 -0.0660
  225MPD1    C2 3468   4.314   4.409  12.583  0.2051  0.8969 -0.0862
  225MPD1    C3 3469   4.204   4.323  12.596  0.2277 -0.0620 -0.4795
  225MPD1    C4 3470   4.217   4.218  12.682 -0.0964  0.3512  0.5395
  225MPD1    C5 3471   4.330   4.201  12.753 -0.0105 -0.0318 -0.0723
  225MPD1     H 3472   4.310   4.492  12.513  1.5670  0.7937 -0.2747
  225MPD1    H1 3473   4.144   4.141  12.705  1.3405 -0.3462  2.8277
  225MPD1    H2 3474   4.536   4.252  12.774  0.7927  1.1381  0.0833
  225MPD1    H3 3475   4.340   4.115  12.820 -1.3243  1.6340  2.2660
  225MPD1     N 3476   4.081   4.327  12.537  0.6071 -0.1599  0.8490
  225MPD1    H5 3477   4.022   4.247  12.558  1.5872 -0.9309  0.6383
  225MPD1    N1 3478   4.550   4.460  12.617  0.0559 -0.3218  0.3558
  225MPD1    H6 3479   4.621   4.448  12.689  1.1475  0.1567 -0.6376
  225MPD1    H7 3480   4.526   4.557  12.599 -0.5965 -0.5155  0.1780
  226MPD1     C 3481   3.258   4.611   9.174  0.0017 -0.1148  0.0185
  226MPD1    C1 3482   3.154   4.547   9.115  0.5992  0.1358 -0.0465
  226MPD1    C2 3483   3.127   4.413   9.132  0.1521  0.0624 -0.1519
  226MPD1    C3 3484   3.193   4.347   9.236 -0.4410 -0.3227 -0.0891
  226MPD1    C4 3485   3.292   4.414   9.304  0.2620  0.7254  0.6358
  226MPD1    C5 3486   3.325   4.546   9.269 -0.3209 -0.3226  0.0113
  226MPD1     H 3487   3.062   4.363   9.061  0.3201 -0.5427  0.1181
  226MPD1    H1 3488   3.350   4.363   9.379 -0.1496 -0.8450 -0.1067
  226MPD1    H2 3489   3.276   4.717   9.164  0.5104 -0.1672  0.4168
  226MPD1    H3 3490   3.405   4.601   9.318 -1.4279 -0.1114  1.5686
  226MPD1     N 3491   3.167   4.208   9.258  0.4467  0.0013 -0.3675
  226MPD1    H5 3492   3.108   4.159   9.192  0.6679  0.5175 -0.9506
  226MPD1    N1 3493   3.089   4.619   9.016 -0.6995 -0.0158 -0.5527
  226MPD1    H6 3494   2.991   4.591   9.007 -0.0749 -1.8829 -1.4224
  226MPD1    H7 3495   3.097   4.720   9.030 -0.1312  0.2104 -2.4872
  227MPD1     C 3496   3.423   3.612  10.047  0.6152 -0.5124 -0.0487
  227MPD1    C1 3497   3.468   3.741  10.015  0.2445 -0.3726  0.0962
  227MPD1    C2 3498   3.435   3.793   9.893  0.0220  0.6584 -0.3305
  227MPD1    C3 3499   3.355   3.723   9.804  0.2015 -0.0395 -0.3891
  227MPD1    C4 3500   3.295   3.606   9.848 -0.2482  0.6366 -0.0717
  227MPD1    C5 3501   3.330   3.544   9.964  0.2483 -0.2858 -0.4501
  227MPD1     H 3502   3.466   3.893   9.865 -0.2175  1.1171  1.0230
  227MPD1    H1 3503   3.229   3.551   9.782 -2.1105  1.8272  0.8045
  227MPD1    H2 3504   3.455   3.562  10.138  0.6939  0.0053  0.2081
  227MPD1    H3 3505   3.306   3.440   9.983 -1.3886  0.1743 -0.0450
  227MPD1     N 3506   3.341   3.770   9.671  0.0446  0.5536 -0.3436
  227MPD1    H5 3507   3.364   3.866   9.649 -0.0152  1.0179  1.6767
  227MPD1    N1 3508   3.544   3.813  10.108 -0.0757 -0.3554  0.0631
  227MPD1    H6 3509   3.506   3.907  10.119  0.1809 -0.2727  0.2302
  227MPD1    H7 3510   3.528   3.783  10.204  0.0855  0.9968  0.5052
  228MPD1     C 3511   1.653   1.749  13.161  0.3973  0.7411  0.5936
  228MPD1    C1 3512   1.543   1.713  13.239 -0.0552  0.0624 -0.5641
  228MPD1    C2 3513   1.428   1.706  13.165  0.3928 -0.1505  0.5125
  228MPD1    C3 3514   1.412   1.753  13.033 -0.2080  0.4291 -0.0555
  228MPD1    C4 3515   1.524   1.797  12.964 -0.7492 -0.0161 -0.7575
  228MPD1    C5 3516   1.644   1.790  13.028 -0.1811  0.8005  0.5530
  228MPD1     H 3517   1.337   1.665  13.209  1.2041 -0.8050  1.5726
  228MPD1    H1 3518   1.530   1.819  12.858 -2.0917 -0.3164 -0.8890
  228MPD1    H2 3519   1.752   1.756  13.203  0.7229  0.0435 -0.0663
  228MPD1    H3 3520   1.738   1.813  12.979  0.3129 -0.2215  1.0103
  228MPD1     N 3521   1.289   1.721  12.966 -0.4190 -0.0156  0.1581
  228MPD1    H5 3522   1.228   1.666  13.025 -0.2437  1.8549  2.0563
  228MPD1    N1 3523   1.549   1.657  13.365  0.1919 -0.0797 -0.1929
  228MPD1    H6 3524   1.463   1.675  13.417 -0.1651  1.0064 -1.1665
  228MPD1    H7 3525   1.629   1.690  13.419  1.2925  0.7700 -2.3516
  229MPD1     C 3526   0.565   1.142  14.304  1.2485  0.1736  0.1229
  229MPD1    C1 3527   0.629   1.026  14.278  0.1070 -1.1096 -0.2147
  229MPD1    C2 3528   0.747   0.994  14.342  0.2236 -0.0915  0.0886
  229MPD1    C3 3529   0.789   1.077  14.443 -0.4939 -0.6266 -0.7720
  229MPD1    C4 3530   0.707   1.176  14.482 -0.3792 -0.4332 -0.1104
  229MPD1    C5 3531   0.608   1.225  14.401  0.1632  0.3530 -0.1676
  229MPD1     H 3532   0.804   0.910  14.305 -0.0913 -1.6501  3.1014
  229MPD1    H1 3533   0.739   1.236  14.566 -0.6039  0.8917 -0.9658
  229MPD1    H2 3534   0.483   1.180  14.244 -0.0048  0.0989  1.7956
  229MPD1    H3 3535   0.568   1.321  14.432 -0.1263  0.8184 -1.9798
  229MPD1     N 3536   0.910   1.055  14.504  0.0815  0.3989 -0.0502
  229MPD1    H5 3537   0.941   1.111  14.583  0.3935 -0.4983  0.4587
  229MPD1    N1 3538   0.599   0.955  14.163 -0.4154 -0.7074 -0.7085
  229MPD1    H6 3539   0.500   0.969  14.144  0.4075  3.4194 -1.8865
  229MPD1    H7 3540   0.616   0.855  14.178 -2.2718 -0.8463  0.4957
  230MPD1     C 3541   1.275   0.999  15.415  0.0274 -0.9845 -0.2021
  230MPD1    C1 3542   1.356   0.903  15.358  0.3211 -0.3300  0.0915
  230MPD1    C2 3543   1.325   0.872  15.226  0.1477  0.2290  0.2380
  230MPD1    C3 3544   1.234   0.939  15.154  0.4872  0.4774 -0.0065
  230MPD1    C4 3545   1.159   1.042  15.211 -0.3609 -0.4323  0.3228
  230MPD1    C5 3546   1.191   1.074  15.344 -0.0887  0.0670  0.5334
  230MPD1     H 3547   1.376   0.791  15.175 -2.3915 -0.9143 -0.5353
  230MPD1    H1 3548   1.086   1.100  15.156 -0.1660  0.5517  1.0807
  230MPD1    H2 3549   1.282   1.020  15.521  0.5184  0.5808 -0.5365
  230MPD1    H3 3550   1.142   1.158  15.393 -2.6032 -0.5312 -0.9299
  230MPD1     N 3551   1.201   0.891  15.027  0.1870 -0.3955 -0.2963
  230MPD1    H5 3552   1.241   0.801  15.001  3.3328  1.2598 -1.1555
  230MPD1    N1 3553   1.441   0.833  15.443  0.0417  0.5637 -0.5776
  230MPD1    H6 3554   1.531   0.822  15.397  2.1175  1.7380  3.2192
  230MPD1    H7 3555   1.462   0.882  15.530  0.4609 -1.4980  0.4692
  231MPD1     C 3556   4.437   2.469  15.650 -0.2694 -1.0366  0.2696
  231MPD1    C1 3557   4.370   2.416  15.540  0.0681 -0.3603 -0.0673
  231MPD1    C2 3558   4.371   2.491  15.424 -0.3744 -0.0027  0.5779
  231MPD1    C3 3559   4.410   2.620  15.422 -0.1259 -1.0095  0.3344
  231MPD1    C4 3560   4.465   2.677  15.537  0.5088 -0.5115  0.0560
  231MPD1    C5 3561   4.470   2.601  15.654 -0.3964 -0.1485  0.2151
  231MPD1     H 3562   4.339   2.437  15.335 -1.3779  4.5394 -1.7813
  231MPD1    H1 3563   4.493   2.782  15.543  1.3422 -0.6500 -1.5981
  231MPD1    H2 3564   4.459   2.416  15.742 -0.7588 -0.0343  0.9576
  231MPD1    H3 3565   4.509   2.651  15.742 -0.9500  1.1626 -0.2867
  231MPD1     N 3566   4.412   2.676  15.285  0.0327  0.6548 -0.6651
  231MPD1    H5 3567   4.377   2.616  15.211  1.8469  0.7704 -1.6268
  231MPD1    N1 3568   4.342   2.282  15.537  1.2488 -0.0882  0.2619
  231MPD1    H6 3569   4.265   2.269  15.472  1.2963 -0.4928  0.2865
  231MPD1    H7 3570   4.306   2.240  15.623 -2.8748 -1.4648 -2.1307
  232MPD1     C 3571   1.276   0.937   0.726  0.5090 -0.1743  0.3329
  232MPD1    C1 3572   1.172   0.960   0.814 -0.0395  0.9826  0.3979
  232MPD1    C2 3573   1.077   0.863   0.832  0.0975  0.0074  0.4043
  232MPD1    C3 3574   1.089   0.742   0.776  0.2729 -0.4954 -0.1617
  232MPD1    C4 3575   1.198   0.717   0.692  0.3063  0.3757  0.5475
  232MPD1    C5 3576   1.294   0.813   0.668  0.8453  0.1075 -0.2562
  232MPD1     H 3577   0.992   0.891   0.893 -1.5924 -0.2415 -1.8268
  232MPD1    H1 3578   1.206   0.626   0.633 -0.3285  0.0476  0.9662
  232MPD1    H2 3579   1.338   1.022   0.701  0.6255 -0.4535 -0.3130
  232MPD1    H3 3580   1.369   0.804   0.590 -0.4202  0.0131 -1.4436
  232MPD1     N 3581   0.972   0.658   0.778 -0.0382 -0.7571  1.0122
  232MPD1    H5 3582   0.889   0.701   0.818  0.0864  0.5347 -0.0945
  232MPD1    N1 3583   1.153   1.087   0.874 -0.4798  0.0203 -1.0183
  232MPD1    H6 3584   1.093   1.084   0.956  1.0467 -1.4660  0.0450
  232MPD1    H7 3585   1.243   1.127   0.900  0.3093 -2.7726  0.6904
  233MPD1     C 3586   2.030   2.657   0.411  0.0449 -0.3288 -0.7904
  233MPD1    C1 3587   2.116   2.763   0.389 -0.4621 -0.7064 -0.1941
  233MPD1    C2 3588   2.192   2.809   0.490  0.1909 -0.5787  0.4346
  233MPD1    C3 3589   2.188   2.759   0.615  0.1325  0.4518 -0.3826
  233MPD1    C4 3590   2.097   2.658   0.638 -0.1647 -0.0708  0.1361
  233MPD1    C5 3591   2.008   2.616   0.540 -0.1482 -0.4867  0.1651
  233MPD1     H 3592   2.243   2.903   0.473 -2.5434  1.0424  1.1980
  233MPD1    H1 3593   2.091   2.608   0.734  0.4105  0.5284  0.4886
  233MPD1    H2 3594   1.965   2.615   0.335 -2.0665 -0.7370  1.2410
  233MPD1    H3 3595   1.956   2.522   0.556  0.1377 -0.5790  0.5666
  233MPD1     N 3596   2.266   2.809   0.725  0.1169  0.3177  0.1348
  233MPD1    H5 3597   2.260   2.752   0.809  0.7085  0.3509  0.1984
  233MPD1    N1 3598   2.101   2.844   0.271 -0.2077  0.6887 -0.4397
  233MPD1    H6 3599   2.078   2.790   0.188  0.5825  0.2341 -0.3620
  233MPD1    H7 3600   2.182   2.904   0.255  0.8783 -0.8091 -0.5501
  234MPD1     C 3601   3.911   2.046   9.769 -0.1270 -0.2270  0.2343
  234MPD1    C1 3602   3.862   2.129   9.865 -0.3185 -0.8085 -0.5519
  234MPD1    C2 3603   3.784   2.231   9.815  0.7985 -0.4988  0.1675
  234MPD1    C3 3604   3.731   2.239   9.684 -0.5640 -0.3484 -0.5658
  234MPD1    C4 3605   3.779   2.151   9.588  0.1245 -0.6416  0.2061
  234MPD1    C5 3606   3.869   2.055   9.637  0.1333 -0.5111 -0.1163
  234MPD1     H 3607   3.751   2.308   9.883 -0.9371 -1.7809  0.7739
  234MPD1    H1 3608   3.751   2.162   9.484  2.0790 -3.6405 -0.6077
  234MPD1    H2 3609   3.980   1.972   9.805  0.6304 -0.3402 -1.4738
  234MPD1    H3 3610   3.904   1.973   9.575 -0.8224 -1.5304  0.6718
  234MPD1     N 3611   3.629   2.329   9.663 -0.4737  0.2841 -0.0584
  234MPD1    H5 3612   3.588   2.374   9.744 -0.4198  1.9627 -0.9709
  234MPD1    N1 3613   3.922   2.141   9.991  0.4253  0.2267 -0.2887
  234MPD1    H6 3614   3.873   2.188  10.067 -0.1076 -1.3867  0.3641
  234MPD1    H7 3615   3.953   2.049  10.023 -0.7261 -0.2316 -0.4940
  235MPD1     C 3616   0.565   0.274  11.123  0.5674  0.9004 -0.5843
  235MPD1    C1 3617   0.561   0.415  11.114 -0.5052 -0.3712 -0.0725
  235MPD1    C2 3618   0.635   0.476  11.011 -0.2048 -0.4335 -0.1554
  235MPD1    C3 3619   0.696   0.404  10.912 -0.4861 -0.3284  0.3525
  235MPD1    C4 3620   0.696   0.264  10.922  0.1373  0.3627  0.3754
  235MPD1    C5 3621   0.636   0.203  11.031 -0.7606  1.0327  0.2824
  235MPD1     H 3622   0.633   0.585  11.017  0.0052 -0.4860  0.9391
  235MPD1    H1 3623   0.734   0.196  10.847 -1.1398 -1.7774  1.6435
  235MPD1    H2 3624   0.531   0.218  11.209  1.5546  1.0224 -0.1125
  235MPD1    H3 3625   0.645   0.096  11.044  0.1880  1.0353 -0.3628
  235MPD1     N 3626   0.749   0.484  10.803  0.1546  0.7965 -0.1594
  235MPD1    H5 3627   0.749   0.585  10.817  0.6049  0.8771 -0.7285
  235MPD1    N1 3628   0.508   0.490  11.218  0.7639 -0.2010 -0.0565
  235MPD1    H6 3629   0.422   0.442  11.242  0.8891  0.1297  1.0282
  235MPD1    H7 3630   0.491   0.582  11.177 -1.5714 -0.5047  0.2754
  236MPD1     C 3631   0.095   0.856   9.679 -0.1170 -0.0622  0.4382
  236MPD1    C1 3632   0.145   0.725   9.665 -0.6803 -0.1861  0.0455
  236MPD1    C2 3633   0.150   0.639   9.778 -0.9324 -0.2881 -0.0519
  236MPD1    C3 3634   0.132   0.687   9.907  0.5431 -0.3993 -0.6817
  236MPD1    C4 3635   0.085   0.823   9.914 -0.0015  0.5820  0.0160
  236MPD1    C5 3636   0.061   0.900   9.802 -1.1659 -0.3117  0.1909
  236MPD1     H 3637   0.181   0.536   9.764  0.3068 -0.0228  0.6650
  236MPD1    H1 3638   0.057   0.866  10.009 -1.2525  2.1436 -1.0576
  236MPD1    H2 3639   0.087   0.920   9.591 -0.8545 -0.3740  0.2789
  236MPD1    H3 3640   0.018   0.999   9.808 -0.9647 -0.1902 -0.3287
  236MPD1     N 3641   0.118   0.607  10.025  0.0517 -0.2803  0.0144
  236MPD1    H5 3642   0.076   0.655  10.103  0.7580  0.5670 -0.1286
  236MPD1    N1 3643   0.163   0.671   9.541 -0.2396  0.0308  0.1940
  236MPD1    H6 3644   0.238   0.603   9.548 -0.3103  0.0053  0.6874
  236MPD1    H7 3645   0.193   0.739   9.472 -0.6163 -1.0676 -1.0454
  237MPD1     C 3646   4.671   3.844  15.128  0.0885  1.1630  0.5349
  237MPD1    C1 3647   4.548   3.885  15.170 -0.5655 -0.2812 -0.1319
  237MPD1    C2 3648   4.442   3.802  15.195  0.6599 -0.3687 -0.0619
  237MPD1    C3 3649   4.462   3.667  15.187  0.7336 -0.0556  0.1771
  237MPD1    C4 3650   4.588   3.621  15.153 -0.1717 -0.3856  0.4527
  237MPD1    C5 3651   4.686   3.708  15.126 -0.5091 -0.8246  0.3363
  237MPD1     H 3652   4.346   3.836  15.232  1.2065  0.2547  0.7643
  237MPD1    H1 3653   4.609   3.516  15.137  0.3868 -0.1164 -0.6080
  237MPD1    H2 3654   0.023   3.908  15.119 -0.5822  1.9144 -0.7084
  237MPD1    H3 3655   0.042   3.663  15.090 -0.3123 -1.0719  1.1507
  237MPD1     N 3656   4.361   3.575  15.218  0.2558  0.0980 -0.4279
  237MPD1    H5 3657   4.385   3.477  15.216 -0.8179 -0.1989  1.0795
  237MPD1    N1 3658   4.528   4.023  15.186 -0.6692  0.1402 -0.0259
  237MPD1    H6 3659   4.616   4.071  15.205 -0.5513  0.2798 -0.9142
  237MPD1    H7 3660   4.463   4.035  15.263 -1.4333  2.1370 -0.9812
  238MPD1     C 3661   0.906   3.006  15.398  0.5507  0.1472 -0.1848
  238MPD1    C1 3662   1.008   3.013  15.307 -0.5480  0.5135 -0.3643
  238MPD1    C2 3663   1.010   2.907  15.218 -0.0592  0.0717 -0.3070
  238MPD1    C3 3664   0.937   2.789  15.231  0.6859  0.2800  0.3596
  238MPD1    C4 3665   0.849   2.791  15.340  0.5899 -0.0078  0.2894
  238MPD1    C5 3666   0.837   2.895  15.422 -0.5828  0.2668  0.1271
  238MPD1     H 3667   1.088   2.914  15.143 -0.7936 -2.9217 -1.3579
  238MPD1    H1 3668   0.777   2.713  15.363 -0.6841  0.9939 -0.2738
  238MPD1    H2 3669   0.894   3.095  15.458 -1.0736  0.8970 -1.6357
  238MPD1    H3 3670   0.762   2.893  15.500 -1.8104  3.6757 -0.9552
  238MPD1     N 3671   0.942   2.687  15.135 -0.3272 -0.3328 -1.0100
  238MPD1    H5 3672   0.896   2.598  15.152  1.8948 -0.8494  2.3174
  238MPD1    N1 3673   1.086   3.126  15.282  0.5089 -0.5314  0.1882
  238MPD1    H6 3674   1.172   3.095  15.236  2.1965  4.2130  0.1877
  238MPD1    H7 3675   1.101   3.176  15.369  0.8783  0.8404 -0.6759
  239MPD1     C 3676   1.661   3.397  14.360 -0.1706  0.6047 -0.1537
  239MPD1    C1 3677   1.612   3.523  14.384  0.0169 -0.6393  0.7479
  239MPD1    C2 3678   1.485   3.558  14.328 -0.6317  0.8198  0.0993
  239MPD1    C3 3679   1.411   3.473  14.251  0.0074  0.0344  0.0563
  239MPD1    C4 3680   1.465   3.347  14.230  0.5014  0.3445 -0.5291
  239MPD1    C5 3681   1.588   3.314  14.277 -0.4140  0.6195  0.4281
  239MPD1     H 3682   1.449   3.659  14.345  1.3017  1.9098 -2.1917
  239MPD1    H1 3683   1.412   3.273  14.170 -1.5748  1.6494 -0.3139
  239MPD1    H2 3684   1.755   3.361  14.398 -0.7812 -0.2742  0.5267
  239MPD1    H3 3685   1.613   3.209  14.265  0.0285  1.0163 -2.0269
  239MPD1     N 3686   1.280   3.503  14.201 -0.0216 -0.3811  0.5914
  239MPD1    H5 3687   1.233   3.441  14.136  1.2315 -0.5424 -0.1747
  239MPD1    N1 3688   1.687   3.616  14.467 -0.0503 -0.0098 -0.6400
  239MPD1    H6 3689   1.789   3.614  14.468 -0.0865 -1.0458  0.6883
  239MPD1    H7 3690   1.651   3.711  14.461  0.8021  0.4737  1.9094
  240MPD1     C 3691   0.808   2.821  14.273  0.3848 -0.2009 -0.4959
  240MPD1    C1 3692   0.693   2.757  14.302 -0.4370  0.5427 -0.2689
  240MPD1    C2 3693   0.639   2.758  14.434 -0.5463 -0.4972  0.1516
  240MPD1    C3 3694   0.703   2.825  14.541 -0.1676  0.4740 -0.5589
  240MPD1    C4 3695   0.806   2.903  14.501 -0.5469 -0.3559  0.4041
  240MPD1    C5 3696   0.856   2.905  14.371 -0.3236 -0.1251  0.2325
  240MPD1     H 3697   0.561   2.685  14.452 -2.4595  1.3390 -0.7782
  240MPD1    H1 3698   0.876   2.938  14.576 -0.5855  1.2212 -0.2937
  240MPD1    H2 3699   0.857   2.806  14.177 -0.8135  5.4777 -2.0209
  240MPD1    H3 3700   0.943   2.966  14.351 -0.1016 -0.0944  1.3222
  240MPD1     N 3701   0.650   2.815  14.670  0.1751  0.0867 -0.0728
  240MPD1    H5 3702   0.576   2.746  14.680 -1.6315  1.8778 -0.9947
  240MPD1    N1 3703   0.643   2.674  14.200 -0.1046  0.0768  0.3057
  240MPD1    H6 3704   0.657   2.705  14.104  2.5803 -0.8286  0.4240
  240MPD1    H7 3705   0.543   2.669  14.220  0.1920 -0.7279  1.5529
  241MPD1     C 3706   0.458   3.414  15.447  0.6245 -0.7239 -0.0031
  241MPD1    C1 3707   0.432   3.284  15.496  0.8584  0.0665  0.1522
  241MPD1    C2 3708   0.461   3.173  15.419  0.1197 -0.4685  0.1434
  241MPD1    C3 3709   0.535   3.180  15.301  0.3091  0.3270 -0.2336
  241MPD1    C4 3710   0.565   3.310  15.260 -0.6086 -0.1065  0.0608
  241MPD1    C5 3711   0.520   3.426  15.330 -0.3926  0.1780 -0.1543
  241MPD1     H 3712   0.445   3.073  15.459 -2.5050  0.1576  0.6664
  241MPD1    H1 3713   0.621   3.325  15.169 -0.1579 -2.1461  0.0062
  241MPD1    H2 3714   0.450   3.505  15.506 -0.1910 -0.2283 -0.8916
  241MPD1    H3 3715   0.551   3.525  15.299 -0.6556  0.3827  0.2309
  241MPD1     N 3716   0.580   3.075  15.216 -0.5614 -0.9917 -0.2243
  241MPD1    H5 3717   0.637   3.101  15.135 -2.1714  0.3892 -0.9142
  241MPD1    N1 3718   0.377   3.280  15.627  0.0800  0.1204  0.1334
  241MPD1    H6 3719   0.301   3.347  15.618  0.3345  0.1245 -2.0203
  241MPD1    H7 3720   0.315   3.202  15.647  0.5646  0.2276  2.0150
  242MPD1     C 3721   0.649   0.787  15.880  0.1729  0.2743  0.1685
  242MPD1    C1 3722   0.522   0.794  15.836 -0.0035  0.5620  0.7939
  242MPD1    C2 3723   0.497   0.869  15.722  0.6829 -0.0681 -0.1365
  242MPD1    C3 3724   0.602   0.934  15.659  0.1253 -0.3602  0.2445
  242MPD1    C4 3725   0.728   0.910  15.696 -0.3491 -0.6393  0.0693
  242MPD1    C5 3726   0.757   0.840  15.804 -0.5353  0.1682  0.0421
  242MPD1     H 3727   0.396   0.865  15.682 -0.0757 -1.3982  1.9018
  242MPD1    H1 3728   0.809   0.960  15.644 -1.3162 -0.1091 -0.9588
  242MPD1    H2 3729   0.681   0.736  15.970  0.0870  0.2778  0.2015
  242MPD1    H3 3730   0.859   0.831  15.838 -0.2211  0.2559 -0.8860
  242MPD1     N 3731   0.587   1.030  15.559 -0.8372  0.1562  0.0653
  242MPD1    H5 3732   0.676   1.064  15.522  0.5855 -0.7129  2.6524
  242MPD1    N1 3733   0.420   0.762  15.920  0.4406 -0.6008 -0.0365
  242MPD1    H6 3734   0.341   0.732  15.863 -0.9510 -0.8734  2.0325
  242MPD1    H7 3735   0.446   0.689  15.987  0.1614  1.4411  2.3033
  243MPD1     C 3736   1.222   0.290   0.408 -0.1075  0.4291  0.4266
  243MPD1    C1 3737   1.277   0.166   0.394  0.3129  0.2393  1.1818
  243MPD1    C2 3738   1.386   0.154   0.308  0.1666 -0.0087  0.9388
  243MPD1    C3 3739   1.450   0.256   0.245 -0.1346  0.4271  0.2746
  243MPD1    C4 3740   1.399   0.380   0.276  0.0949 -0.0311  0.1147
  243MPD1    C5 3741   1.286   0.395   0.347  0.3536 -0.0357 -0.0323
  243MPD1     H 3742   1.420   0.053   0.290  1.1868  0.3589  0.8008
  243MPD1    H1 3743   1.430   0.470   0.224 -0.0512  0.6297  1.1679
  243MPD1    H2 3744   1.124   0.309   0.451 -1.2195 -1.3121 -1.3063
  243MPD1    H3 3745   1.254   0.496   0.373 -3.5005 -0.7105 -2.1465
  243MPD1     N 3746   1.570   0.247   0.168 -0.2124  0.5254  0.2343
  243MPD1    H5 3747   1.608   0.154   0.156  0.3663  0.5361  2.0737
  243MPD1    N1 3748   1.198   0.059   0.438  0.4487  0.4344  0.0742
  243MPD1    H6 3749   1.256   4.712   0.457  0.9507  0.6656 -0.4446
  243MPD1    H7 3750   1.131   0.074   0.513 -0.8060 -0.0189 -0.9559
  244MPD1     C 3751   2.141   4.268  17.646 -0.1266 -0.4437 -0.0785
  244MPD1    C1 3752   2.178   4.350  17.547 -0.2096 -0.9611  0.5029
  244MPD1    C2 3753   2.116   4.472  17.550  0.4416 -0.2840  0.3107
  244MPD1    C3 3754   2.035   4.525  17.653  0.0697 -0.3399  0.4389
  244MPD1    C4 3755   2.019   4.442   0.022  0.2067  1.1100 -0.4923
  244MPD1    C5 3756   2.068   4.312   0.017  0.0818  0.9025  0.1281
  244MPD1     H 3757   2.138   4.536  17.465 -0.8023  0.7838  0.8068
  244MPD1    H1 3758   1.974   4.469   0.117  0.4053 -0.8702  0.1637
  244MPD1    H2 3759   2.173   4.165  17.657  0.9233 -0.0334  0.7973
  244MPD1    H3 3760   2.029   4.243   0.091 -0.5133  2.8492  1.6186
  244MPD1     N 3761   1.984   4.658  17.653  0.0079  0.4335 -0.1067
  244MPD1    H5 3762   1.985   4.706  17.564  1.1738  0.9499  0.1799
  244MPD1    N1 3763   2.239   4.296  17.431 -0.1878  0.0930  0.1483
  244MPD1    H6 3764   2.298   4.218  17.459  1.2833  1.1580 -0.0084
  244MPD1    H7 3765   2.284   4.353  17.360  0.2448 -0.8289 -0.3295
  245MPD1     C 3766   4.009   0.249  13.311  0.4389 -0.1006 -0.3740
  245MPD1    C1 3767   3.980   0.289  13.443  0.4967  0.1258  0.1106
  245MPD1    C2 3768   4.060   0.384  13.502  0.4383  0.9742 -0.0323
  245MPD1    C3 3769   4.161   0.449  13.439  0.2948  0.5191 -0.0186
  245MPD1    C4 3770   4.182   0.418  13.309 -0.2638 -0.3117  0.3845
  245MPD1    C5 3771   4.113   0.317  13.254 -0.9247 -0.5533  0.2700
  245MPD1     H 3772   4.036   0.399  13.607  1.1766 -1.0751  0.4279
  245MPD1    H1 3773   4.241   0.473  13.236 -0.7582  1.6784  1.4796
  245MPD1    H2 3774   3.954   0.174  13.255  0.3575 -0.5060  0.2518
  245MPD1    H3 3775   4.139   0.278  13.157 -0.9277  0.5910 -0.1925
  245MPD1     N 3776   4.229   0.551  13.503  0.1360  0.4352  0.5132
  245MPD1    H5 3777   4.212   0.565  13.602  2.2257  1.3081  0.7495
  245MPD1    N1 3778   3.873   0.226  13.517  0.2300 -0.1512 -0.5759
  245MPD1    H6 3779   3.828   0.295  13.576 -0.3102 -0.1676 -0.9743
  245MPD1    H7 3780   3.809   0.164  13.467 -0.1666  0.8751 -1.3319
  246MPD1     C 3781   0.230   2.622  10.122  0.0187 -0.0197 -0.4572
  246MPD1    C1 3782   0.266   2.722  10.035 -0.1317 -0.4371 -0.0841
  246MPD1    C2 3783   0.261   2.700   9.903 -0.4954 -0.3523  0.1511
  246MPD1    C3 3784   0.227   2.578   9.846  0.1009 -0.3378 -0.2204
  246MPD1    C4 3785   0.207   2.474   9.937  0.4673 -0.4609 -0.8394
  246MPD1    C5 3786   0.209   2.497  10.073  0.1539  0.4372 -0.7396
  246MPD1     H 3787   0.269   2.783   9.833 -2.8617  0.1994  0.5509
  246MPD1    H1 3788   0.177   2.376   9.903 -1.1574  0.1553 -1.2048
  246MPD1    H2 3789   0.233   2.642  10.228  2.3538  1.5628 -0.8095
  246MPD1    H3 3790   0.177   2.424  10.145  2.2076 -0.5313 -0.7900
  246MPD1     N 3791   0.217   2.555   9.708  0.2591 -0.2229 -0.2166
  246MPD1    H5 3792   0.234   2.629   9.641  0.3827  0.5580  0.6918
  246MPD1    N1 3793   0.267   2.850  10.088  0.8080  0.6194  0.2567
  246MPD1    H6 3794   0.303   2.922  10.026 -1.8365  0.6743 -1.1970
  246MPD1    H7 3795   0.322   2.851  10.174  0.6667 -0.2716  0.3541
  247MPD1     C 3796   3.448   0.078  17.289  0.2733 -0.3448  0.2810
  247MPD1    C1 3797   3.396   0.176  17.209  0.2645  0.0250  0.3381
  247MPD1    C2 3798   3.407   0.161  17.068 -0.0526 -0.2480  0.3307
  247MPD1    C3 3799   3.467   0.049  17.013 -0.1021 -0.2390 -0.2433
  247MPD1    C4 3800   3.503   4.684  17.097  0.1431  0.1994  0.2984
  247MPD1    C5 3801   3.499   4.699  17.232  0.6684 -0.1683  0.4035
  247MPD1     H 3802   3.369   0.244  17.011 -2.4722 -1.0861  0.7421
  247MPD1    H1 3803   3.547   4.592  17.059  1.0803  0.9921 -0.5337
  247MPD1    H2 3804   3.453   0.084  17.397 -1.8488 -3.2652  0.5351
  247MPD1    H3 3805   3.532   4.614  17.291 -0.9283  0.2449  1.8790
  247MPD1     N 3806   3.489   0.034  16.873 -0.4148 -0.4926  0.0305
  247MPD1    H5 3807   3.519   4.674  16.851 -2.3209 -1.0189 -0.2361
  247MPD1    N1 3808   3.359   0.300  17.262  0.7780 -0.7384  0.5328
  247MPD1    H6 3809   3.320   0.278  17.354 -1.1986  0.1295 -0.0933
  247MPD1    H7 3810   3.281   0.349  17.217  1.5253 -1.4335 -1.5152
  248MPD1     C 3811   4.142   4.357   0.557  0.1736  0.8496 -0.7939
  248MPD1    C1 3812   4.003   4.373   0.550  0.1291 -0.2866  0.3884
  248MPD1    C2 3813   3.943   4.457   0.646 -0.4613 -0.2248 -0.1575
  248MPD1    C3 3814   4.018   4.530   0.740  0.5914 -0.1050 -0.6508
  248MPD1    C4 3815   4.155   4.509   0.746 -0.3258  0.2946  0.0672
  248MPD1    C5 3816   4.211   4.421   0.657 -0.3831 -0.1759  0.5462
  248MPD1     H 3817   3.835   4.471   0.641 -0.4495  0.1280  0.5192
  248MPD1    H1 3818   4.223   4.553   0.818 -0.3243 -0.0428  0.2703
  248MPD1    H2 3819   4.197   4.278   0.507  0.9699  0.2452  1.0367
  248MPD1    H3 3820   4.318   4.402   0.660  0.1759  2.9628  1.2512
  248MPD1     N 3821   3.954   4.631   0.812 -0.5572 -0.2296 -0.0589
  248MPD1    H5 3822   3.861   4.661   0.782 -0.2225 -1.0626 -1.9187
  248MPD1    N1 3823   3.923   4.286   0.474  0.0019  0.2150 -0.0740
  248MPD1    H6 3824   3.829   4.323   0.462  0.2999  1.0716  0.1689
  248MPD1    H7 3825   3.967   4.252   0.389 -0.2027 -1.3959  0.4727
  249MPD1     C 3826   1.624   0.220  10.543 -0.0975 -0.8695  0.1970
  249MPD1    C1 3827   1.656   0.164  10.665 -0.0741 -0.8274 -0.6255
  249MPD1    C2 3828   1.728   0.049  10.675  0.0470  0.4695 -0.0265
  249MPD1    C3 3829   1.802   0.005  10.564  0.2184 -0.1171  0.2065
  249MPD1    C4 3830   1.779   0.063  10.442  0.5615 -0.2637 -0.3865
  249MPD1    C5 3831   1.696   0.174  10.434  0.0262 -0.0065 -0.0046
  249MPD1     H 3832   1.724   4.726  10.767 -1.7116 -1.6395 -1.4535
  249MPD1    H1 3833   1.816   0.027  10.346 -0.1282 -1.6789 -0.1239
  249MPD1    H2 3834   1.552   0.301  10.532  0.7361  0.0064  1.1753
  249MPD1    H3 3835   1.681   0.204  10.331 -1.6201 -0.9545 -0.0523
  249MPD1     N 3836   1.883   4.626  10.582  0.0268 -0.0551 -0.0815
  249MPD1    H5 3837   1.882   4.584  10.674 -3.3583 -1.0449 -0.5542
  249MPD1    N1 3838   1.577   0.193  10.771  0.1587  0.0677  0.2631
  249MPD1    H6 3839   1.618   0.171  10.861  1.2358 -1.3560 -0.5868
  249MPD1    H7 3840   1.569   0.295  10.769  1.3962  0.1820  1.4555
  250MPD2     C 3841   2.178   4.050  12.982 -0.0897  0.5119  0.0560
  250MPD2    C1 3842   2.286   3.975  13.026 -0.7958  0.6011 -0.1417
  250MPD2    C2 3843   2.304   3.855  12.954 -0.0655 -0.0893 -0.4082
  250MPD2    C3 3844   2.217   3.810  12.848  0.3639 -0.1903 -0.2671
  250MPD2    C4 3845   2.108   3.885  12.815  0.4048  0.3426  0.8422
  250MPD2    C5 3846   2.091   4.000  12.888 -0.2270 -0.9853 -0.1687
  250MPD2     H 3847   2.390   3.796  12.981 -0.2246 -0.7024 -1.2144
  250MPD2    H1 3848   2.038   3.851  12.739  3.0963 -1.6551 -0.7398
  250MPD2    H2 3849   2.165   4.148  13.026 -1.6387  1.3284 -2.1940
  250MPD2    H3 3850   2.005   4.064  12.870 -0.0174 -0.7252 -0.2583
  250MPD2     N 3851   2.242   3.696  12.762 -0.3241 -0.8164  0.1614
  250MPD2    H5 3852   2.165   3.679  12.698 -2.1096 -0.7223  2.2674
  250MPD2    N1 3853   2.371   4.018  13.131  0.3013  0.2585 -0.4210
  250MPD2    H7 3854   2.363   4.118  13.148 -1.2093  0.1849 -0.6310
  251TMC3    C1 3855   2.574   4.005  13.255  0.0968  0.9170  0.0131
  251TMC3    C2 3856   2.567   4.132  13.293 -0.3559 -0.1393  0.3150
  251TMC3    C3 3857   2.689   4.196  13.316  0.4047 -0.0944 -0.1258
  251TMC3    C4 3858   2.701   3.939  13.238 -0.1486  0.4034 -0.1037
  251TMC3    C5 3859   2.814   4.008  13.276 -0.5234  0.1244  0.7849
  251TMC3    C6 3860   2.812   4.138  13.305 -0.5465 -0.7692 -0.2719
  251TMC3     C 3861   2.468   3.936  13.182 -0.4153  0.0638 -0.2530
  251TMC3     O 3862   2.477   3.814  13.191  0.2249 -0.2330  0.2869
  251TMC3     H 3863   2.469   4.174  13.313 -1.4589 -2.7134  0.4578
  251TMC3    H1 3864   2.699   3.832  13.226  1.4572  0.1729  1.5910
  251TMC3    H2 3865   2.897   4.192  13.346  0.4323 -2.1851 -0.4170
  251TMC3    C7 3866   2.926   3.921  13.314  0.1827 -0.2855  0.1848
  251TMC3    C8 3867   2.679   4.315  13.397 -0.1872 -0.5255  0.0380
  251TMC3    O1 3868   2.918   3.796  13.296  1.0181 -0.2530  0.0264
  251TMC3    O2 3869   2.614   4.301  13.499  0.0056  0.1565  0.5990
  252TMC3    C1 3870   2.839   1.524   9.171 -0.6047 -0.2800 -0.0951
  252TMC3    C2 3871   2.945   1.527   9.263  0.9619 -0.0701 -0.0955
  252TMC3    C3 3872   2.930   1.449   9.372 -0.0219  0.5576  0.2096
  252TMC3    C4 3873   2.727   1.442   9.187 -0.6107 -0.1106  0.4446
  252TMC3    C5 3874   2.711   1.368   9.304  0.0335  0.0128 -0.2586
  252TMC3    C6 3875   2.808   1.381   9.401 -0.4965  0.1791 -0.4211
  252TMC3     C 3876   2.851   1.621   9.072  0.4454 -0.2614 -0.0681
  252TMC3     O 3877   2.963   1.647   9.043 -0.0406  0.0749  0.0864
  252TMC3     H 3878   3.023   1.600   9.244  0.6709  0.5678  1.1769
  252TMC3    H1 3879   2.643   1.447   9.118  1.0217 -0.3312 -1.5825
  252TMC3    H2 3880   2.787   1.346   9.501  0.2673  1.2810  0.1185
  252TMC3    C7 3881   2.574   1.335   9.324  0.2754  0.2737  0.1086
  252TMC3    C8 3882   3.033   1.448   9.474  0.7992 -0.0175 -0.2290
  252TMC3    O1 3883   2.496   1.381   9.248  0.0603 -0.1221 -0.2340
  252TMC3    O2 3884   3.109   1.546   9.459 -0.5729 -0.0929  0.2937
  253MPD2     C 3885   3.881   3.814  15.371 -0.1384 -0.5280  0.8521
  253MPD2    C1 3886   3.747   3.816  15.365 -0.4802  0.1569 -0.4663
  253MPD2    C2 3887   3.678   3.842  15.485 -0.0590 -0.3726  0.2766
  253MPD2    C3 3888   3.751   3.861  15.600 -0.5275 -0.2831  0.1544
  253MPD2    C4 3889   3.886   3.853  15.600  0.4230  0.2291  1.1741
  253MPD2    C5 3890   3.953   3.836  15.485 -0.3423 -0.1633 -0.2688
  253MPD2     H 3891   3.569   3.846  15.489 -0.1067  1.1845 -2.2812
  253MPD2    H1 3892   3.950   3.877  15.685 -2.8608  1.6915  3.2115
  253MPD2    H2 3893   3.943   3.787  15.287 -0.3372  0.2641  0.4452
  253MPD2    H3 3894   4.060   3.822  15.492 -0.5595 -0.1931  2.8986
  253MPD2     N 3895   3.691   3.884  15.725  0.2564 -0.0052  0.1100
  253MPD2    H5 3896   3.754   3.870  15.803 -0.9643 -1.4902  0.8442
  253MPD2    N1 3897   3.680   3.827  15.247  0.4113 -0.4143 -0.2478
  253MPD2    H7 3898   3.579   3.829  15.248  0.5074  2.0015  2.6803
  254TMC3    C1 3899   3.513   3.916  15.881  0.2877  0.0086  0.6388
  254TMC3    C2 3900   3.402   3.992  15.909  0.0694 -0.0807  0.6048
  254TMC3    C3 3901   3.355   3.983  16.032  0.0570 -0.3870  0.3768
  254TMC3    C4 3902   3.577   3.826  15.966  0.0236  0.5303 -0.2678
  254TMC3    C5 3903   3.513   3.813  16.083  0.3774 -0.1976 -0.9383
  254TMC3    C6 3904   3.406   3.886  16.125  0.3355 -0.3704 -0.4721
  254TMC3     C 3905   3.560   3.914  15.743 -0.1721 -0.0247 -0.5970
  254TMC3     O 3906   3.471   3.935  15.657 -0.4703 -0.2182  0.1876
  254TMC3     H 3907   3.359   4.060  15.836 -1.5220 -0.1661  1.4528
  254TMC3    H1 3908   3.658   3.761  15.935  0.0637  1.1480 -1.4332
  254TMC3    H2 3909   3.368   3.876  16.226  0.6826 -0.9872 -0.4075
  254TMC3    C7 3910   3.576   3.746  16.195 -0.3899 -0.4192  0.3791
  254TMC3    C8 3911   3.253   4.065  16.091  0.6600  0.5037  0.7317
  254TMC3    O1 3912   3.504   3.720  16.293 -0.3591 -0.4080  0.1134
  254TMC3    O2 3913   3.203   4.018  16.195  0.2225 -0.3398  0.9599
  255MPD2     C 3914   1.000   2.290  10.479  0.0280 -0.1188 -0.0372
  255MPD2    C1 3915   1.072   2.398  10.503 -0.2184 -0.0252  0.0183
  255MPD2    C2 3916   1.204   2.391  10.550 -0.1758  0.3355 -0.4100
  255MPD2    C3 3917   1.266   2.270  10.558 -0.5489 -0.1297 -0.4323
  255MPD2    C4 3918   1.186   2.161  10.544  0.0618 -0.4502  0.0915
  255MPD2    C5 3919   1.052   2.172  10.507 -0.1651  0.4981 -0.0820
  255MPD2     H 3920   1.262   2.482  10.561  1.0201 -0.5628  0.6087
  255MPD2    H1 3921   1.215   2.057  10.550  1.3899 -0.1892 -1.7254
  255MPD2    H2 3922   0.904   2.300  10.429  0.1932  1.7601 -0.0022
  255MPD2    H3 3923   0.996   2.081  10.484  1.3767 -0.5715  0.4296
  255MPD2     N 3924   1.405   2.266  10.568 -0.2183  0.8407 -0.3990
  255MPD2    H5 3925   1.449   2.357  10.574  1.2478  0.0388  0.9698
  255MPD2    N1 3926   1.022   2.524  10.476  0.3729  0.1684 -1.0913
  255MPD2    H7 3927   0.929   2.523  10.436 -1.7195  0.1151  3.7560
  256TMC3    C1 3928   1.076   2.747  10.437  0.2517 -0.1119 -0.0547
  256TMC3    C2 3929   1.173   2.836  10.467 -0.1645 -0.6787  0.6200
  256TMC3    C3 3930   1.199   2.922  10.364 -0.6679 -0.1889  0.2050
  256TMC3    C4 3931   1.006   2.739  10.312 -0.3622  0.0386  0.5036
  256TMC3    C5 3932   1.046   2.825  10.217 -0.0045 -0.6318 -0.3018
  256TMC3    C6 3933   1.145   2.919  10.238 -0.8710 -0.2684  0.2355
  256TMC3     C 3934   1.062   2.637  10.537  0.6746  0.5375  0.3477
  256TMC3     O 3935   1.123   2.648  10.642  0.0714  0.1455 -0.1401
  256TMC3     H 3936   1.214   2.846  10.566  0.0789  0.1539  0.4391
  256TMC3    H1 3937   0.928   2.666  10.295 -0.1627  0.2309 -1.2436
  256TMC3    H2 3938   1.185   2.978  10.156 -0.9748  2.0638  1.8792
  256TMC3    C7 3939   1.039   2.775  10.076 -0.0524  0.4370  0.0204
  256TMC3    C8 3940   1.318   3.003  10.383 -0.0115  0.9618 -0.1328
  256TMC3    O1 3941   1.025   2.653  10.070 -0.1263  0.4539 -0.2000
  256TMC3    O2 3942   1.333   3.049  10.491 -0.1705  0.4958 -0.1434
  257MPD2     C 3943   0.669   3.424  12.936 -0.0409 -0.0236 -0.3201
  257MPD2    C1 3944   0.713   3.340  12.837 -0.4756  0.2071 -0.4736
  257MPD2    C2 3945   0.792   3.231  12.878  0.8353  0.4366 -0.0465
  257MPD2    C3 3946   0.786   3.193  13.008  0.0375 -1.4145  0.2906
  257MPD2    C4 3947   0.720   3.263  13.102  0.0551  0.5924  0.1839
  257MPD2    C5 3948   0.659   3.380  13.063  0.3266 -0.1686  0.2885
  257MPD2     H 3949   0.854   3.176  12.809 -0.1435  1.5599 -1.8267
  257MPD2    H1 3950   0.709   3.241  13.208  0.5369 -3.3098 -0.5736
  257MPD2    H2 3951   0.608   3.511  12.914 -0.0200 -0.4239 -1.9282
  257MPD2    H3 3952   0.619   3.440  13.144 -0.9388 -1.8437  0.9067
  257MPD2     N 3953   0.876   3.084  13.042 -0.0835 -0.1957  0.7585
  257MPD2    H5 3954   0.911   3.032  12.963  0.5512  1.1765  0.1303
  257MPD2    N1 3955   0.705   3.380  12.700  0.1544 -0.3291  0.1168
  257MPD2    H7 3956   0.670   3.473  12.682 -1.0918 -1.0815 -1.3491
  258TMC3    C1 3957   0.986   2.920  13.193  0.3978 -0.5693 -0.0244
  258TMC3    C2 3958   0.999   2.825  13.092  0.3402 -0.5501  0.1391
  258TMC3    C3 3959   1.078   2.721  13.124 -0.3947 -0.6637 -0.1558
  258TMC3    C4 3960   1.045   2.909  13.315  0.0636 -0.0510 -0.3436
  258TMC3    C5 3961   1.123   2.800  13.335  0.0483 -0.2926 -0.2609
  258TMC3    C6 3962   1.139   2.695  13.246  0.2755 -0.2419 -0.6560
  258TMC3     C 3963   0.891   3.031  13.172  0.1445  0.8912  0.7936
  258TMC3     O 3964   0.838   3.075  13.274 -0.2838 -0.0207 -0.2588
  258TMC3     H 3965   0.933   2.843  13.008  0.7629 -0.7252 -0.2345
  258TMC3    H1 3966   1.025   2.983  13.392 -1.0977  0.2164 -0.8984
  258TMC3    H2 3967   1.215   2.620  13.262 -0.4461 -0.9309 -0.4524
  258TMC3    C7 3968   1.173   2.788  13.469  0.4004 -0.3025 -0.8350
  258TMC3    C8 3969   1.123   2.631  13.023 -0.7281 -1.1439  0.6566
  258TMC3    O1 3970   1.196   2.894  13.526  0.4870  0.0506 -0.2093
  258TMC3    O2 3971   1.193   2.531  13.056 -0.2116 -0.2531  0.3417
  259MPD2     C 3972   0.139   1.019   1.076  0.0030  0.5917  0.8637
  259MPD2    C1 3973   0.053   0.913   1.051  0.1886 -0.2256 -0.8510
  259MPD2    C2 3974   4.689   0.934   0.958  0.3365  0.2218 -0.5890
  259MPD2    C3 3975   4.693   1.040   0.868 -0.5985 -0.1974  1.0349
  259MPD2    C4 3976   0.054   1.141   0.891  0.0682 -0.3496 -0.4762
  259MPD2    C5 3977   0.145   1.127   0.993  0.5850  0.0608 -0.3566
  259MPD2     H 3978   4.613   0.861   0.935 -0.3766  1.0772 -0.9553
  259MPD2    H1 3979   0.064   1.230   0.830  1.8095  2.3288  3.6825
  259MPD2    H2 3980   0.200   1.014   1.166 -0.2021  1.3400  1.0425
  259MPD2    H3 3981   0.222   1.204   1.003  0.5672  0.1871 -1.2534
  259MPD2     N 3982   4.599   1.036   0.762  0.0021  0.2808 -0.7604
  259MPD2    H5 3983   4.535   0.958   0.767 -1.1402  1.2807  0.2905
  259MPD2    N1 3984   0.060   0.797   1.131 -0.2047  0.3589  0.0430
  259MPD2    H7 3985   0.143   0.794   1.189 -1.3968 -1.7138  1.6545
  260TMC3    C1 3986   4.550   1.057   0.534 -0.0033  0.2364 -0.0637
  260TMC3    C2 3987   4.640   1.091   0.435 -0.5465  0.0517  0.5723
  260TMC3    C3 3988   4.695   1.001   0.349 -0.2251  0.3821 -0.6259
  260TMC3    C4 3989   4.497   0.931   0.537  0.3944 -0.6060  0.5833
  260TMC3    C5 3990   4.539   0.840   0.438  0.0604 -0.5546  0.6300
  260TMC3    C6 3991   4.643   0.878   0.355 -0.0748 -0.0479  0.0119
  260TMC3     C 3992   4.590   1.123   0.652 -0.2068  0.2749  0.0912
  260TMC3     O 3993   4.647   1.231   0.655  0.5825  0.3323 -0.4076
  260TMC3     H 3994   4.687   1.188   0.433  1.2061 -0.8037  0.7951
  260TMC3    H1 3995   4.412   0.916   0.603  0.3162 -0.0191  0.6123
  260TMC3    H2 3996   4.680   0.802   0.287 -1.7128 -0.0714 -0.8521
  260TMC3    C7 3997   4.546   0.697   0.473  0.2368 -0.1215 -1.0782
  260TMC3    C8 3998   0.094   1.017   0.323 -0.0968 -0.4869  0.5371
  260TMC3    O1 3999   4.589   0.624   0.386  0.6263  0.4128 -0.0791
  260TMC3    O2 4000   0.129   1.128   0.282 -0.1386  0.0958 -0.3212
  261MPD2     C 4001   1.976   3.364  12.186 -0.1443  0.1187  0.1652
  261MPD2    C1 4002   2.059   3.459  12.213 -1.1005  0.1057  0.1209
  261MPD2    C2 4003   2.051   3.579  12.144  0.7533  0.2580 -0.0863
  261MPD2    C3 4004   1.946   3.603  12.055 -0.1237  0.5799 -0.0565
  261MPD2    C4 4005   1.867   3.502  12.016  0.5443  0.1200 -0.2689
  261MPD2    C5 4006   1.880   3.383  12.085 -0.1095  0.2164 -0.0789
  261MPD2     H 4007   2.116   3.657  12.181  0.2133  0.3250  0.7197
  261MPD2    H1 4008   1.801   3.510  11.930 -0.2046 -1.9156  0.1272
  261MPD2    H2 4009   1.983   3.266  12.232 -2.7347 -0.0166  0.2560
  261MPD2    H3 4010   1.815   3.299  12.062 -0.2365  0.0876  0.7321
  261MPD2     N 4011   1.940   3.723  11.988  0.5632 -0.1948  0.4883
  261MPD2    H5 4012   2.016   3.787  12.007  0.1265  0.2950  0.6022
  261MPD2    N1 4013   2.153   3.458  12.323  0.7774 -0.3124 -0.3647
  261MPD2    H7 4014   2.212   3.540  12.336  1.1458 -0.9795  2.0598
  262TMC3    C1 4015   1.849   3.915  11.875  0.2814  0.6062 -0.8710
  262TMC3    C2 4016   1.746   3.999  11.867  0.4114 -0.2657  0.2538
  262TMC3    C3 4017   1.771   4.123  11.815 -0.0820  0.2725  0.3942
  262TMC3    C4 4018   1.975   3.943  11.830  0.0213  0.1898  0.0691
  262TMC3    C5 4019   1.994   4.061  11.770  0.1746  0.1258  0.4655
  262TMC3    C6 4020   1.894   4.159  11.774  0.4682  0.3278 -0.3468
  262TMC3     C 4021   1.830   3.781  11.928  0.6611  0.9287 -0.0044
  262TMC3     O 4022   1.714   3.738  11.943 -0.4080  0.1403 -0.3829
  262TMC3     H 4023   1.647   3.960  11.889 -0.1186 -0.1098 -1.8741
  262TMC3    H1 4024   2.061   3.878  11.845 -0.5184 -0.0213  2.3080
  262TMC3    H2 4025   1.899   4.259  11.731  1.1000  0.6323  0.4224
  262TMC3    C7 4026   2.110   4.072  11.675  0.6662 -0.1088 -0.8136
  262TMC3    C8 4027   1.666   4.218  11.797 -0.0331 -0.4904  0.7388
  262TMC3    O1 4028   2.160   3.965  11.658 -0.2669  0.7171 -0.2115
  262TMC3    O2 4029   1.679   4.306  11.709  0.2872  0.4981  0.7910
  263MPD2     C 4030   3.097   2.747  11.657  0.6017  0.4812 -0.4136
  263MPD2    C1 4031   3.201   2.794  11.585  0.5644  0.2234 -0.4484
  263MPD2    C2 4032   3.188   2.801  11.446 -0.0164  0.6688 -0.0657
  263MPD2    C3 4033   3.071   2.763  11.384 -1.1217  0.1077  0.3266
  263MPD2    C4 4034   2.973   2.712  11.465 -0.5353  0.5699 -0.3894
  263MPD2    C5 4035   2.985   2.707  11.602  0.1634  0.1421  0.5798
  263MPD2     H 4036   3.261   2.850  11.382 -0.5849  0.6083 -0.7603
  263MPD2    H1 4037   2.879   2.675  11.424 -2.2945  2.0344  2.2496
  263MPD2    H2 4038   3.103   2.746  11.765  1.0947  4.4204 -0.3825
  263MPD2    H3 4039   2.902   2.663  11.655  0.4850 -0.3249  0.6954
  263MPD2     N 4040   3.058   2.800  11.249 -0.1658  0.6381 -0.4727
  263MPD2    H5 4041   3.133   2.834  11.189 -0.0060 -0.3880 -0.8444
  263MPD2    N1 4042   3.312   2.833  11.657 -0.3051  0.5304 -0.7134
  263MPD2    H7 4043   3.297   2.838  11.757  0.9574  0.8328 -0.5398
  264TMC3    C1 4044   2.947   2.881  11.068  0.1905 -0.2322 -0.6883
  264TMC3    C2 4045   2.866   2.994  11.062  0.1762  0.2709 -0.0329
  264TMC3    C3 4046   2.869   3.084  10.963  0.0301  0.4183 -0.4390
  264TMC3    C4 4047   3.057   2.878  10.984 -0.2888 -0.1706  0.6867
  264TMC3    C5 4048   3.063   2.974  10.891 -0.3249 -0.4813 -0.3508
  264TMC3    C6 4049   2.967   3.065  10.868 -0.1542 -0.1752  0.7629
  264TMC3     C 4050   2.931   2.811  11.190 -0.8735 -0.4481  0.5631
  264TMC3     O 4051   2.817   2.788  11.229 -0.3901 -0.5198  0.5822
  264TMC3     H 4052   2.790   3.006  11.137 -0.4575  2.3466 -1.0226
  264TMC3    H1 4053   3.137   2.808  11.005  0.5935  1.1592  1.7723
  264TMC3    H2 4054   2.960   3.132  10.783  0.7053 -0.2091  0.6686
  264TMC3    C7 4055   3.195   3.005  10.840  0.6922 -0.6980 -0.1591
  264TMC3    C8 4056   2.890   3.221  11.002  0.4293 -0.3021 -0.4927
  264TMC3    O1 4057   3.282   2.919  10.834  0.0038  0.4734  0.1875
  264TMC3    O2 4058   2.978   3.290  10.950 -0.0565 -0.1675  0.2952
  265MPD2     C 4059   4.716   3.479  15.663  0.3723 -0.5130  0.4665
  265MPD2    C1 4060   0.021   3.588  15.582  0.5091 -0.0238  0.2519
  265MPD2    C2 4061   0.075   3.562  15.453 -0.6516 -0.3232 -0.5239
  265MPD2    C3 4062   0.096   3.430  15.405 -0.2897  0.3920 -0.0955
  265MPD2    C4 4063   0.043   3.333  15.481  0.1649 -0.2499  1.0112
  265MPD2    C5 4064   4.725   3.351  15.610 -0.4956 -0.5350  0.1122
  265MPD2     H 4065   0.121   3.646  15.402  0.0798 -0.3242  0.1342
  265MPD2    H1 4066   0.045   3.228  15.453  2.4786 -0.1042  0.6002
  265MPD2    H2 4067   4.674   3.490  15.762  0.7954  0.1766  0.5706
  265MPD2    H3 4068   4.690   3.263  15.663 -0.1620 -1.0507 -0.5257
  265MPD2     N 4069   0.156   3.397  15.279  0.6909  0.3302 -0.2782
  265MPD2    H5 4070   0.168   3.297  15.267 -1.0479 -0.0620  1.1800
  265MPD2    N1 4071   0.014   3.722  15.625  0.0724  0.7822 -0.5341
  265MPD2    H7 4072   0.036   3.798  15.561 -0.3470  1.7533  0.4792
  266TMC3    C1 4073   4.660   3.892  15.767  0.0072  0.0878 -0.1419
  266TMC3    C2 4074   4.628   3.926  15.905 -0.5935  0.4171 -0.3573
  266TMC3    C3 4075   4.524   4.012  15.914  0.2159  0.0327 -0.3050
  266TMC3    C4 4076   4.608   3.954  15.655 -0.7392 -0.6653 -0.5287
  266TMC3    C5 4077   4.521   4.056  15.683 -0.2794  0.1957  0.9140
  266TMC3    C6 4078   4.471   4.080  15.804 -0.1048  0.6813 -0.0964
  266TMC3     C 4079   4.698   3.755  15.750 -0.5033  0.3062  0.3058
  266TMC3     O 4080   4.657   3.686  15.840 -0.1105  0.3743 -0.3328
  266TMC3     H 4081   4.667   3.863  15.984  1.5547  1.4848 -0.5915
  266TMC3    H1 4082   4.631   3.929  15.552  1.3302 -1.1277  0.0602
  266TMC3    H2 4083   4.391   4.146  15.836  1.1031  1.0527  2.2048
  266TMC3    C7 4084   4.446   4.103  15.570 -0.5123 -0.2727  0.1311
  266TMC3    C8 4085   4.448   4.012  16.043 -0.4864  0.0755  0.2013
  266TMC3    O1 4086   4.456   4.047  15.464  0.2590  0.5928 -0.1497
  266TMC3    O2 4087   4.330   4.011  16.038 -0.3448  0.1293 -0.0925
  267MPD2     C 4088   1.748   0.524   0.580 -0.4651  0.6199 -0.3574
  267MPD2    C1 4089   1.829   0.612   0.511 -0.1921 -0.4198  0.0119
  267MPD2    C2 4090   1.777   0.687   0.407  0.1236  0.1927  1.0776
  267MPD2    C3 4091   1.639   0.679   0.371 -0.3570  0.2172 -0.3679
  267MPD2    C4 4092   1.557   0.613   0.463 -0.3628  0.1769 -0.2323
  267MPD2    C5 4093   1.616   0.528   0.557  0.2798 -0.3496  0.5729
  267MPD2     H 4094   1.843   0.745   0.344 -1.2571 -0.0957 -0.6450
  267MPD2    H1 4095   1.451   0.593   0.449 -0.2780 -1.4301  1.5257
  267MPD2    H2 4096   1.781   0.440   0.640  0.8318  0.0828 -1.7986
  267MPD2    H3 4097   1.554   0.455   0.609  0.6671 -3.3218 -3.1907
  267MPD2     N 4098   1.578   0.757   0.269 -0.0558  0.0322  0.4116
  267MPD2    H5 4099   1.478   0.743   0.258  0.0142  0.5616 -0.9067
  267MPD2    N1 4100   1.966   0.598   0.522  1.1100  0.3069 -0.5365
  267MPD2    H7 4101   2.005   0.510   0.552  0.7412  0.2629 -0.1783
  268TMC3    C1 4102   2.200   0.655   0.505 -0.6528 -0.0974 -0.1864
  268TMC3    C2 4103   2.283   0.719   0.426 -0.0513  0.4220 -0.2382
  268TMC3    C3 4104   2.412   0.711   0.469 -0.0940  0.6610 -0.0838
  268TMC3    C4 4105   2.227   0.592   0.624 -0.9017 -0.9919  1.0257
  268TMC3    C5 4106   2.357   0.587   0.662  0.0371  0.0692 -0.3236
  268TMC3    C6 4107   2.453   0.647   0.586 -0.0020  0.1047 -0.1481
  268TMC3     C 4108   2.058   0.691   0.478  0.1569 -0.4781  0.2222
  268TMC3     O 4109   2.040   0.802   0.427  0.1436  0.3903 -0.0487
  268TMC3     H 4110   2.249   0.782   0.345  0.5438 -1.3619 -1.8599
  268TMC3    H1 4111   2.154   0.544   0.689 -1.1710 -0.7130  0.9317
  268TMC3    H2 4112   2.558   0.633   0.609  0.2894  0.3292 -1.3293
  268TMC3    C7 4113   2.400   0.489   0.756  0.5678  0.5265  0.1808
  268TMC3    C8 4114   2.517   0.794   0.412 -0.5874 -0.2344  0.1700
  268TMC3    O1 4115   2.504   0.427   0.732 -0.1025 -0.4143  0.2343
  268TMC3    O2 4116   2.622   0.811   0.475  0.1050 -0.3474  0.1601
  269MPD2     C 4117   2.946   4.436  15.596 -0.7327  0.1197  0.8402
  269MPD2    C1 4118   2.823   4.447  15.653  0.3055  0.6233  0.4876
  269MPD2    C2 4119   2.752   4.565  15.628  0.2533  0.0368 -0.2122
  269MPD2    C3 4120   2.803   4.666  15.548  0.2464 -0.6628 -0.1270
  269MPD2    C4 4121   2.934   4.658  15.511 -0.6087 -0.2891  0.2141
  269MPD2    C5 4122   3.004   4.540  15.539  0.1983  0.3699 -0.0403
  269MPD2     H 4123   2.651   4.583  15.662 -0.0050  2.0587 -2.0652
  269MPD2    H1 4124   2.983   0.007  15.462 -0.5767  0.3182  1.2929
  269MPD2    H2 4125   3.010   4.349  15.607 -0.7431 -0.1086 -0.9039
  269MPD2    H3 4126   3.110   4.539  15.520  0.3665  1.3845  0.8358
  269MPD2     N 4127   2.716   0.042  15.530 -0.1470  0.7233 -1.1561
  269MPD2    H5 4128   2.633   0.056  15.588  0.2719  1.0304 -0.6305
  269MPD2    N1 4129   2.778   4.330  15.718 -0.1240  0.1386  0.7497
  269MPD2    H7 4130   2.844   4.253  15.712 -1.7720 -1.0853 -1.5026
  270TMC3    C1 4131   2.618   4.173  15.797 -0.2068  0.9165  1.2202
  270TMC3    C2 4132   2.480   4.142  15.798 -1.0798  0.2971 -0.1659
  270TMC3    C3 4133   2.443   4.018  15.837 -0.2775  0.7604 -0.2692
  270TMC3    C4 4134   2.709   4.101  15.870  0.2380 -0.0606  0.2147
  270TMC3    C5 4135   2.661   3.986  15.935  0.4906  1.2091  0.1486
  270TMC3    C6 4136   2.533   3.944  15.907  0.2827  0.0471 -0.1189
  270TMC3     C 4137   2.650   4.312  15.762 -0.4070 -0.3600  0.4641
  270TMC3     O 4138   2.553   4.386  15.753 -0.3150 -0.3860 -0.8222
  270TMC3     H 4139   2.411   4.203  15.740 -0.2454  2.8228  1.5047
  270TMC3    H1 4140   2.814   4.121  15.852  0.0543  2.8756  2.5517
  270TMC3    H2 4141   2.497   3.854  15.955 -1.3249  0.2470 -0.9345
  270TMC3    C7 4142   2.757   3.876  15.925  0.2915 -0.0479 -0.0147
  270TMC3    C8 4143   2.388   3.935  15.737  0.4361  0.2327 -0.7254
  270TMC3    O1 4144   2.863   3.881  15.989 -0.3954  0.0347 -0.5571
  270TMC3    O2 4145   2.441   3.825  15.735 -0.4447  0.4111  0.0729
  271MPD2     C 4146   1.922   3.366  14.033  0.2050  0.3955  0.1226
  271MPD2    C1 4147   1.916   3.472  14.123 -0.6712 -0.4092  0.0899
  271MPD2    C2 4148   1.815   3.568  14.112  0.5712 -0.4927 -0.7567
  271MPD2    C3 4149   1.728   3.572  14.004  0.0044  0.4117 -0.5798
  271MPD2    C4 4150   1.743   3.475  13.906 -0.2368  0.2673  0.2018
  271MPD2    C5 4151   1.833   3.368  13.926 -0.8365 -0.6615  0.0662
  271MPD2     H 4152   1.825   3.648  14.185  1.5010 -2.7279  1.5692
  271MPD2    H1 4153   1.690   3.470  13.811 -0.4176  0.0588  0.3129
  271MPD2    H2 4154   1.974   3.271  14.037 -0.8976 -0.1783  0.6799
  271MPD2    H3 4155   1.837   3.290  13.851  0.8563 -0.3434 -0.1665
  271MPD2     N 4156   1.633   3.670  13.981 -0.2351  0.4065 -0.0687
  271MPD2    H5 4157   1.563   3.648  13.911 -1.7149 -0.5342  1.6970
  271MPD2    N1 4158   2.011   3.479  14.226 -0.4428  0.4984 -0.1734
  271MPD2    H7 4159   2.001   3.559  14.287  3.6039  0.6652  0.2520
  272TMC3    C1 4160   2.144   3.367  14.396 -0.3938  0.9168 -0.3243
  272TMC3    C2 4161   2.266   3.316  14.423 -0.0788  0.1936 -0.0807
  272TMC3    C3 4162   2.304   3.312  14.563 -0.4725 -0.3173  0.1265
  272TMC3    C4 4163   2.060   3.424  14.486  0.6746 -0.2328  0.2196
  272TMC3    C5 4164   2.108   3.423  14.613  0.1641 -0.3901 -0.7731
  272TMC3    C6 4165   2.230   3.382  14.656  0.3416  0.7908  0.2952
  272TMC3     C 4166   2.103   3.377  14.258  0.0683 -0.0289 -0.0332
  272TMC3     O 4167   2.165   3.303  14.180 -0.2090  0.9423 -0.3524
  272TMC3     H 4168   2.333   3.274  14.349  1.0122  1.8302 -0.0081
  272TMC3    H1 4169   1.967   3.473  14.462  1.5699  0.4134 -1.8993
  272TMC3    H2 4170   2.259   3.396  14.759  0.4404  0.5787  0.2963
  272TMC3    C7 4171   2.041   3.525  14.698  0.3032 -0.4959  0.3822
  272TMC3    C8 4172   2.446   3.307  14.586  0.4991 -0.6163 -0.0792
  272TMC3    O1 4173   1.919   3.545  14.694 -0.1039  0.4029 -0.1738
  272TMC3    O2 4174   2.513   3.374  14.508  0.0020  0.0687  0.1274
  273MPD2     C 4175   3.121   2.024  11.636 -0.8795  0.1276  0.0501
  273MPD2    C1 4176   3.255   2.051  11.663  0.0638  0.2299 -0.9515
  273MPD2    C2 4177   3.351   2.059  11.572  0.2142  0.0185  0.3883
  273MPD2    C3 4178   3.312   2.043  11.443 -0.0805  0.0283  0.5756
  273MPD2    C4 4179   3.178   2.025  11.406 -0.5960  0.0971  0.1158
  273MPD2    C5 4180   3.082   2.011  11.504 -0.8062 -0.2648 -0.2173
  273MPD2     H 4181   3.454   2.064  11.606  0.6380  1.2278 -1.0961
  273MPD2    H1 4182   3.153   1.991  11.306  0.2120 -0.0125 -0.0532
  273MPD2    H2 4183   3.046   2.013  11.714 -0.9984 -0.5340 -0.1538
  273MPD2    H3 4184   2.981   1.980  11.480 -0.4527 -0.6961 -1.1087
  273MPD2     N 4185   3.415   2.046  11.353  0.2287  0.0676  0.4953
  273MPD2    H5 4186   3.512   2.043  11.384  0.6878 -1.4181 -1.0975
  273MPD2    N1 4187   3.284   2.084  11.801  0.0429 -0.2248 -0.0265
  273MPD2    H7 4188   3.228   2.048  11.878  1.3739  1.5272  1.7766
  274TMC3    C1 4189   3.527   2.121  11.164  0.0928 -0.0680  0.0448
  274TMC3    C2 4190   3.529   2.134  11.031 -0.3572  0.3120 -0.1873
  274TMC3    C3 4191   3.631   2.187  10.966 -0.3032  0.2556 -0.4683
  274TMC3    C4 4192   3.638   2.161  11.238  0.1394  0.6538  0.4033
  274TMC3    C5 4193   3.742   2.210  11.169 -0.6355  0.2331  0.0188
  274TMC3    C6 4194   3.744   2.228  11.036  0.1464 -0.4947  0.2932
  274TMC3     C 4195   3.401   2.077  11.223  0.5973 -0.0916 -0.0970
  274TMC3     O 4196   3.300   2.101  11.155 -0.0910  0.7657 -0.6877
  274TMC3     H 4197   3.441   2.107  10.974  0.2883 -2.8988  0.3379
  274TMC3    H1 4198   3.642   2.165  11.346 -1.5055  2.2545  0.4063
  274TMC3    H2 4199   3.812   2.304  10.999 -0.2454 -0.5381 -0.5274
  274TMC3    C7 4200   3.841   2.281  11.235 -0.4259  0.3441  0.2494
  274TMC3    C8 4201   3.590   2.236  10.840 -0.4457 -0.1124  0.1414
  274TMC3    O1 4202   3.944   2.293  11.172  0.2329  0.2649  0.6791
  274TMC3    O2 4203   3.488   2.194  10.785 -0.1512  0.5543  0.9912
  275MPD2     C 4204   3.650   4.486  14.758 -0.2512  0.5315 -0.2314
  275MPD2    C1 4205   3.541   4.564  14.791  0.0962  0.0004 -0.0239
  275MPD2    C2 4206   3.411   4.523  14.758 -0.0206 -0.5420 -0.2965
  275MPD2    C3 4207   3.387   4.406  14.692  0.2319 -0.0688  0.0081
  275MPD2    C4 4208   3.497   4.328  14.657  0.5293 -0.1070 -0.5358
  275MPD2    C5 4209   3.622   4.369  14.689  0.0474  0.2657 -0.1409
  275MPD2     H 4210   3.328   4.584  14.794  0.2491  0.1097 -0.7958
  275MPD2    H1 4211   3.484   4.231  14.610  2.6352 -0.7207  0.1330
  275MPD2    H2 4212   3.755   4.502  14.778 -0.8306  3.0840  0.7295
  275MPD2    H3 4213   3.700   4.295  14.678  0.9487  1.4994 -2.0475
  275MPD2     N 4214   3.261   4.369  14.648  0.2237  0.7262  0.0871
  275MPD2    H5 4215   3.263   4.278  14.604  1.0423  0.5503  0.4827
  275MPD2    N1 4216   3.543   4.687  14.871 -0.3321 -0.1940  0.5314
  275MPD2    H7 4217   3.449   4.725  14.877  0.3400  2.1787 -3.8816
  276TMC3    C1 4218   3.620   0.115  15.027 -0.0525  0.4162  0.8015
  276TMC3    C2 4219   3.482   0.119  15.061  0.0841 -0.3748  0.5057
  276TMC3    C3 4220   3.433   0.112  15.186 -0.2493  0.2572 -0.3319
  276TMC3    C4 4221   3.708   0.121  15.129  0.1087 -0.2375 -0.2696
  276TMC3    C5 4222   3.653   0.128  15.254  1.3100  0.3080 -0.2206
  276TMC3    C6 4223   3.522   0.111  15.286  0.3433 -0.5293  0.2662
  276TMC3     C 4224   3.655   0.004  14.934  0.6280  0.0416 -0.3872
  276TMC3     O 4225   3.770   4.699  14.927  0.1237  0.2598 -0.1776
  276TMC3     H 4226   3.410   0.133  14.981 -1.0540  0.0368  1.6098
  276TMC3    H1 4227   3.815   0.128  15.112  0.1562  1.7888  0.8791
  276TMC3    H2 4228   3.485   0.111  15.388 -1.7207  0.2817 -0.4978
  276TMC3    C7 4229   3.746   0.166  15.352 -0.3753  0.4980  0.0899
  276TMC3    C8 4230   3.323   0.020  15.195 -0.4559  0.1060 -0.2838
  276TMC3    O1 4231   3.701   0.245  15.434  0.2597  0.0965  0.2889
  276TMC3    O2 4232   3.210   0.060  15.214  0.2762 -0.1936  0.2452
  277MPD2     C 4233   4.541   3.777  12.685  0.0996 -0.4117 -0.8718
  277MPD2    C1 4234   4.566   3.766  12.821  0.3451  0.0914 -0.6949
  277MPD2    C2 4235   4.487   3.673  12.884 -0.0599 -0.0835 -0.1279
  277MPD2    C3 4236   4.377   3.621  12.826 -0.0330 -0.0625  0.2675
  277MPD2    C4 4237   4.348   3.651  12.687  0.0354  0.0560  0.1708
  277MPD2    C5 4238   4.439   3.724  12.611 -0.0945  0.1542 -0.0494
  277MPD2     H 4239   4.504   3.659  12.990 -1.5827  0.9370  0.2562
  277MPD2    H1 4240   4.260   3.612  12.637 -0.9951 -1.4766  3.1723
  277MPD2    H2 4241   4.607   3.846  12.634 -0.8024 -0.7936 -2.5465
  277MPD2    H3 4242   4.430   3.747  12.505  0.6332  0.4418 -0.0456
  277MPD2     N 4243   4.286   3.558  12.910 -0.9174  0.0651 -0.5503
  277MPD2    H5 4244   4.308   3.565  13.009 -0.8141  1.7792 -0.6886
  277MPD2    N1 4245   4.675   3.841  12.878 -0.5156 -0.8209  0.7637
  277MPD2    H7 4246   4.708   3.916  12.818  0.9747 -2.8178 -0.9145
  278TMC3    C1 4247   4.095   3.445  12.985  0.2621  0.1045 -0.0590
  278TMC3    C2 4248   4.060   3.314  12.997  0.2674 -0.4240  0.0682
  278TMC3    C3 4249   3.995   3.276  13.113  0.9383  0.1562  0.2542
  278TMC3    C4 4250   4.067   3.534  13.090 -0.5701 -0.0815 -0.2838
  278TMC3    C5 4251   4.001   3.489  13.200  0.1527  0.0690  0.6847
  278TMC3    C6 4252   3.955   3.364  13.208  0.4633 -0.1299  0.5353
  278TMC3     C 4253   4.172   3.489  12.867 -0.4466 -0.1785 -0.1500
  278TMC3     O 4254   4.146   3.460  12.753  0.2868 -0.5952  0.1153
  278TMC3     H 4255   4.095   3.244  12.922  1.1781  1.4062 -1.2286
  278TMC3    H1 4256   4.094   3.639  13.082  1.9555 -0.7481 -0.4579
  278TMC3    H2 4257   3.894   3.326  13.289  1.1001 -1.2138  0.5096
  278TMC3    C7 4258   3.941   3.593  13.279  0.2174  0.2204  0.8773
  278TMC3    C8 4259   4.030   3.148  13.170  0.1700  0.0110  0.5242
  278TMC3    O1 4260   3.921   3.705  13.232 -0.3256 -0.1155 -0.2933
  278TMC3    O2 4261   3.991   3.126  13.286  0.1895  0.1065 -0.4306
  279MPD2     C 4262   4.145   3.323   0.194 -0.1496 -0.6879 -0.6753
  279MPD2    C1 4263   4.103   3.453   0.233  0.3295  0.2907  0.0103
  279MPD2    C2 4264   4.159   3.560   0.167  0.5229  0.4683  0.1650
  279MPD2    C3 4265   4.260   3.540   0.070  0.4413 -0.2768  0.1350
  279MPD2    C4 4266   4.304   3.412   0.039  0.0972  0.2684 -0.0639
  279MPD2    C5 4267   4.252   3.308   0.111  0.4858 -0.0065 -0.4902
  279MPD2     H 4268   4.103   3.653   0.171 -0.4599 -0.1864  1.8367
  279MPD2    H1 4269   4.375   3.393  17.698  0.7554 -0.9500  0.8167
  279MPD2    H2 4270   4.115   3.230   0.241 -1.1382 -1.4068 -2.7464
  279MPD2    H3 4271   4.299   3.211   0.102 -1.0362 -0.8468  0.5746
  279MPD2     N 4272   4.298   3.650  17.733 -0.1523 -0.0323 -0.0417
  279MPD2    H5 4273   4.343   3.636  17.643 -0.3427  2.1599 -0.4887
  279MPD2    N1 4274   3.996   3.459   0.322 -0.5371  0.8184  0.1090
  279MPD2    H7 4275   3.967   3.369   0.361  0.6657  1.1129  1.6700
  280TMC3    C1 4276   3.889   3.542   0.513  0.5195  0.1412  0.5812
  280TMC3    C2 4277   3.847   3.413   0.547 -0.1674  0.4059 -0.5680
  280TMC3    C3 4278   3.790   3.394   0.673  0.3700  0.0388 -0.3114
  280TMC3    C4 4279   3.855   3.644   0.596  0.3686  1.6463 -0.0352
  280TMC3    C5 4280   3.795   3.623   0.715  0.1201 -0.5632  0.4646
  280TMC3    C6 4281   3.751   3.496   0.752  0.3154 -0.3961 -0.1379
  280TMC3     C 4282   3.959   3.574   0.388  0.8805 -0.3346  0.1055
  280TMC3     O 4283   3.991   3.692   0.373  0.3945  0.2801 -0.4545
  280TMC3     H 4284   3.873   3.323   0.493  0.6416 -0.3144  1.0140
  280TMC3    H1 4285   3.886   3.746   0.572  0.9955  2.0889  2.6156
  280TMC3    H2 4286   3.714   3.480   0.853 -0.6861 -1.1026 -0.6141
  280TMC3    C7 4287   3.722   3.734   0.780  0.0474 -0.2320 -0.5771
  280TMC3    C8 4288   3.727   3.261   0.699 -0.1907 -0.2256  1.0230
  280TMC3    O1 4289   3.743   3.756   0.899  0.4561 -0.3298 -0.0222
  280TMC3    O2 4290   3.698   3.233   0.816  0.1827  0.2161  0.1075
  281TMC3    C1 4291   2.897   3.657  13.608  0.2724  0.5667 -0.4473
  281TMC3    C2 4292   3.035   3.646  13.596 -0.8548 -0.0284  0.0544
  281TMC3    C3 4293   3.077   3.537  13.525  0.3650 -0.7735 -0.0499
  281TMC3    C4 4294   2.809   3.570  13.550  0.1592  0.2853  0.3007
  281TMC3    C5 4295   2.857   3.463  13.487  0.6243  0.7871 -0.2248
  281TMC3    C6 4296   2.990   3.448  13.473  0.4044  0.7207 -0.5826
  281TMC3     C 4297   2.841   3.776  13.671  0.6920 -0.0839  0.0464
  281TMC3     O 4298   2.724   3.763  13.712 -0.2273 -0.0935  0.5639
  281TMC3     H 4299   3.105   3.709  13.649 -0.1261 -0.4204 -0.4352
  281TMC3    H1 4300   2.703   3.577  13.572  0.0289 -1.4788  0.2244
  281TMC3    H2 4301   3.029   3.361  13.421 -0.4720  0.0481 -0.1212
  281TMC3    C7 4302   2.762   3.356  13.464  0.6590 -0.0943 -0.1623
  281TMC3    C8 4303   3.217   3.503  13.493 -0.6901  0.9109 -0.0523
  281TMC3    O1 4304   2.666   3.390  13.400 -0.3659  0.3890  0.3967
  281TMC3    O2 4305   3.235   3.383  13.479  0.3579 -0.1814  0.0010
  282MPD2     C 4306   0.238   0.645  15.209  0.4170  0.3967  0.0739
  282MPD2    C1 4307   0.110   0.646  15.250 -0.2471  0.5117  0.3846
  282MPD2    C2 4308   0.012   0.638  15.149  0.0614 -0.5939  1.1540
  282MPD2    C3 4309   0.057   0.630  15.011  0.8676 -0.2257 -0.4588
  282MPD2    C4 4310   0.194   0.625  14.980  0.1112  0.1931  0.1736
  282MPD2    C5 4311   0.281   0.634  15.082  0.3567  0.6983  0.4152
  282MPD2     H 4312   4.644   0.626  15.182 -0.8608  3.4833 -0.2485
  282MPD2    H1 4313   0.230   0.605  14.880 -1.0614 -1.2061  0.0312
  282MPD2    H2 4314   0.323   0.645  15.276  0.8912  1.6005 -0.5274
  282MPD2    H3 4315   0.387   0.613  15.070  0.2004  1.8053 -3.0629
  282MPD2     N 4316   4.697   0.614  14.916 -0.0588  0.0253  0.8304
  282MPD2    H5 4317   4.601   0.597  14.941 -0.2745 -1.0735 -0.7234
  282MPD2    N1 4318   0.060   0.681  15.373 -0.1132 -0.0265  0.0277
  282MPD2    H7 4319   4.697   0.670  15.396  0.7191  0.6478  3.9247
  283TMC3    C1 4320   0.065   0.768  15.591  0.9622 -0.2283  0.5101
  283TMC3    C2 4321   0.094   0.887  15.644 -0.5630  0.1980 -0.2257
  283TMC3    C3 4322   0.040   0.911  15.768 -0.4741  0.2204  0.6008
  283TMC3    C4 4323   4.724   0.669  15.648  1.1080 -0.0750  0.0305
  283TMC3    C5 4324   4.674   0.701  15.774 -0.3726  0.0658  0.4334
  283TMC3    C6 4325   4.695   0.822  15.831 -0.1824 -0.0697 -0.4525
  283TMC3     C 4326   0.135   0.737  15.471  0.0443 -0.1946  0.7098
  283TMC3     O 4327   0.257   0.751  15.472  0.9772  0.0855  0.1455
  283TMC3     H 4328   0.135   0.961  15.577 -1.2129 -0.4361 -1.3219
  283TMC3    H1 4329   4.713   0.578  15.589  0.0266  0.5872 -0.7742
  283TMC3    H2 4330   4.654   0.844  15.929 -0.0780  0.4050 -0.5183
  283TMC3    C7 4331   4.616   0.599  15.867  0.9487  0.5042  0.4029
  283TMC3    C8 4332   0.069   1.028  15.843 -0.6999  0.2806 -0.1739
  283TMC3    O1 4333   4.609   0.641  15.981  0.4412  0.1063  0.2713
  283TMC3    O2 4334   0.054   1.023  15.967  0.1327  0.9554  0.2468
  284MPD2     C 4335   2.829   4.419  12.160 -0.0354 -0.4607  0.5008
  284MPD2    C1 4336   2.844   4.368  12.029  0.0672  0.2497  0.1231
  284MPD2    C2 4337   2.801   4.242  12.000  0.3851 -0.2581 -0.0387
  284MPD2    C3 4338   2.746   4.159  12.099  0.5682 -0.1449  0.0145
  284MPD2    C4 4339   2.725   4.213  12.226 -0.1721 -0.0625  0.0022
  284MPD2    C5 4340   2.768   4.339  12.258 -0.2622 -0.5519  0.4277
  284MPD2     H 4341   2.806   4.204  11.899 -1.9105  0.2526 -0.3375
  284MPD2    H1 4342   2.676   4.153  12.302  0.0001  1.5584  1.3905
  284MPD2    H2 4343   2.865   4.516  12.194  0.6054 -0.3072 -0.6213
  284MPD2    H3 4344   2.767   4.377  12.359  2.6129  0.4937  0.0617
  284MPD2     N 4345   2.719   4.023  12.063 -0.3078  0.0316 -0.4347
  284MPD2    H5 4346   2.692   3.961  12.138  1.6017 -0.1554  0.1158
  284MPD2    N1 4347   2.895   4.455  11.926 -0.2976  0.1725 -0.6968
  284MPD2    H7 4348   2.919   4.403  11.842  1.8952  0.5307 -0.2750
  285TMC3    C1 4349   2.983   4.644  11.813  0.0031 -0.3739  0.6526
  285TMC3    C2 4350   3.004   4.567  11.707 -0.2604  0.0209  0.2506
  285TMC3    C3 4351   3.036   4.625  11.587 -0.7165 -0.2690  0.1047
  285TMC3    C4 4352   2.998   0.044  11.803 -0.9303 -0.4137  0.4701
  285TMC3    C5 4353   3.041   0.099  11.687 -0.0634 -0.0397  1.2106
  285TMC3    C6 4354   3.055   0.025  11.573  0.1771 -0.1566  0.1760
  285TMC3     C 4355   2.939   4.583  11.933 -0.1923  0.6792  0.8606
  285TMC3     O 4356   2.936   4.669  12.023 -0.7235 -0.0865  0.6514
  285TMC3     H 4357   3.008   4.459  11.710  1.1833  0.0812  0.9428
  285TMC3    H1 4358   2.981   0.104  11.892  0.6273  0.6136  0.0785
  285TMC3    H2 4359   3.064   0.075  11.477 -0.8261  0.9536  0.6595
  285TMC3    C7 4360   3.081   0.241  11.678  0.7397  0.0972  0.1519
  285TMC3    C8 4361   3.106   4.537  11.493  0.4002 -0.0630 -0.6747
  285TMC3    O1 4362   3.094   0.297  11.569  0.0176 -0.0236 -0.3466
  285TMC3    O2 4363   3.037   4.444  11.451  0.2663 -0.7006  0.4639
  286MPD2     C 4364   3.534   3.559   1.462  0.4572  0.2507  0.4021
  286MPD2    C1 4365   3.428   3.483   1.418  0.4946 -0.0785 -0.3406
  286MPD2    C2 4366   3.431   3.345   1.422  0.0494  0.1683  0.3257
  286MPD2    C3 4367   3.545   3.281   1.474  0.7673  0.4658 -0.2785
  286MPD2    C4 4368   3.650   3.360   1.511  0.4264  0.2821 -0.1917
  286MPD2    C5 4369   3.646   3.497   1.504  0.0883 -0.4642  0.0764
  286MPD2     H 4370   3.345   3.296   1.380  2.0461 -1.2116 -2.1598
  286MPD2    H1 4371   3.739   3.316   1.555 -1.2574 -2.9030  0.0452
  286MPD2    H2 4372   3.526   3.667   1.457 -0.0165  0.0910 -2.2151
  286MPD2    H3 4373   3.731   3.555   1.538  0.4504 -2.0346  1.8563
  286MPD2     N 4374   3.559   3.142   1.484 -0.3322 -0.6560  0.1169
  286MPD2    H5 4375   3.643   3.117   1.534 -0.4942  1.9308  1.6889
  286MPD2    N1 4376   3.316   3.533   1.345  0.0403 -0.4030 -0.1787
  286MPD2    H7 4377   3.251   3.466   1.304  0.5550 -1.9994  1.6139
  287TMC3    C1 4378   3.550   2.918   1.418  0.0527  0.3821  0.3268
  287TMC3    C2 4379   3.540   2.846   1.304 -0.7895 -0.0092  1.0283
  287TMC3    C3 4380   3.614   2.736   1.281 -0.1967  1.2243 -0.4217
  287TMC3    C4 4381   3.647   2.891   1.511 -0.7157  0.1158 -0.7828
  287TMC3    C5 4382   3.727   2.782   1.480 -0.9246 -0.6872 -0.4747
  287TMC3    C6 4383   3.715   2.698   1.366  0.1863 -0.6682 -0.4987
  287TMC3     C 4384   3.484   3.048   1.411  1.0885 -0.2498  0.4412
  287TMC3     O 4385   3.392   3.070   1.335 -0.5138  0.1987 -0.3199
  287TMC3     H 4386   3.469   2.884   1.232  0.1541 -0.3800 -0.1104
  287TMC3    H1 4387   3.649   2.939   1.608 -1.5580 -0.6702 -0.3677
  287TMC3    H2 4388   3.775   2.609   1.355  0.1299 -0.7409 -0.2126
  287TMC3    C7 4389   3.816   2.745   1.589 -0.3024  0.8781 -0.0068
  287TMC3    C8 4390   3.653   2.726   1.143  0.1622 -0.0928  0.8846
  287TMC3    O1 4391   3.888   2.831   1.641  0.3859 -0.1702  0.6924
  287TMC3    O2 4392   3.601   2.804   1.066 -0.7579 -0.8546  0.2977
  288TMC3    C1 4393   0.555   3.399  14.241  1.1201 -0.3936  0.2301
  288TMC3    C2 4394   0.460   3.410  14.342 -0.1947 -0.4482  0.2861
  288TMC3    C3 4395   0.346   3.483  14.308  0.2132 -0.1126 -0.0739
  288TMC3    C4 4396   0.541   3.452  14.113  0.0895  0.4613 -0.3411
  288TMC3    C5 4397   0.437   3.530  14.091 -0.2671 -0.0603 -0.0797
  288TMC3    C6 4398   0.335   3.537  14.185  0.4438  0.2973 -0.3165
  288TMC3     C 4399   0.678   3.331  14.276  0.3114 -0.4848 -0.2183
  288TMC3     O 4400   0.721   3.338  14.389 -0.1226  0.1226 -0.2496
  288TMC3     H 4401   0.467   3.377  14.445 -2.7509 -2.1657 -0.1012
  288TMC3    H1 4402   0.629   3.457  14.051  1.6194  2.2619  1.9613
  288TMC3    H2 4403   0.243   3.582  14.148  0.8691 -0.8347 -2.7449
  288TMC3    C7 4404   0.413   3.597  13.969  0.2685 -0.1279 -1.0312
  288TMC3    C8 4405   0.227   3.487  14.397  0.6223 -0.4624  0.0580
  288TMC3    O1 4406   0.318   3.673  13.964  0.1907  0.0372  0.2715
  288TMC3    O2 4407   0.148   3.577  14.368 -0.3047 -0.0226  0.4973
  289MPD2     C 4408   0.325   2.299  15.228  0.4979  0.3646 -0.2597
  289MPD2    C1 4409   0.357   2.367  15.112 -0.5682 -0.3706 -0.3155
  289MPD2    C2 4410   0.293   2.344  14.993  0.0628 -0.1659 -0.5641
  289MPD2    C3 4411   0.188   2.259  14.978 -0.3480 -0.3200  0.5740
  289MPD2    C4 4412   0.150   2.189  15.091 -0.6389  0.4017 -0.0728
  289MPD2    C5 4413   0.224   2.207  15.213 -0.3630 -0.4775  0.3011
  289MPD2     H 4414   0.310   2.399  14.901 -0.1497 -0.3458 -0.7122
  289MPD2    H1 4415   0.065   2.123  15.099  0.1331 -0.4311  1.1456
  289MPD2    H2 4416   0.365   2.325  15.326  2.8969 -1.7335 -0.6678
  289MPD2    H3 4417   0.196   2.145  15.298 -0.0363 -3.3459 -1.7298
  289MPD2     N 4418   0.102   2.245  14.863  0.1248 -0.3025  0.7406
  289MPD2    H5 4419   0.020   2.187  14.871 -0.6829  0.8313  0.6968
  289MPD2    N1 4420   0.452   2.473  15.114  0.1063 -0.5306 -0.2969
  289MPD2    H7 4421   0.476   2.522  15.200 -2.2454  1.1504 -0.5778
  290TMC3    C1 4422   0.004   2.313  14.665 -0.0175  0.6308 -0.3680
  290TMC3    C2 4423   4.723   2.423  14.584  0.1359  0.3140 -0.2035
  290TMC3    C3 4424   4.644   2.412  14.474 -0.6012 -0.0199 -0.1645
  290TMC3    C4 4425   4.681   2.195  14.637  0.7823  0.1935  0.1044
  290TMC3    C5 4426   4.595   2.197  14.534 -0.4995 -0.3289 -0.7439
  290TMC3    C6 4427   4.586   2.294  14.437  0.3554  0.1316 -0.0157
  290TMC3     C 4428   0.118   2.311  14.746  0.0315 -0.4870  0.0567
  290TMC3     O 4429   0.216   2.376  14.709  0.4470 -0.0383  0.0972
  290TMC3     H 4430   0.066   2.498  14.589  0.1816  0.2095  0.8120
  290TMC3    H1 4431   4.707   2.101  14.684 -1.2184 -0.3409  0.1509
  290TMC3    H2 4432   4.533   2.274  14.345 -0.7024  0.0252  0.6273
  290TMC3    C7 4433   4.511   2.078  14.505 -0.3724 -0.5221  0.1890
  290TMC3    C8 4434   4.641   2.509  14.375  0.4566 -1.1678  0.1801
  290TMC3    O1 4435   4.475   2.066  14.390 -0.3928  0.4567  0.4688
  290TMC3    O2 4436   4.635   2.463  14.261  0.1982 -0.0508  0.0384
  291MPD2     C 4437   0.084   1.729   1.012 -0.1173 -1.3879  0.1983
  291MPD2    C1 4438   0.006   1.725   0.899  0.1641 -0.1139 -0.3629
  291MPD2    C2 4439   0.057   1.746   0.772  0.0107  0.4497 -0.3121
  291MPD2    C3 4440   0.195   1.774   0.753 -0.5649  0.4147 -0.2033
  291MPD2    C4 4441   0.274   1.790   0.859 -0.2488  0.3654 -0.1676
  291MPD2    C5 4442   0.216   1.772   0.987 -0.9551  0.6091 -0.0358
  291MPD2     H 4443   4.728   1.732   0.686 -0.6449  0.8466  0.1151
  291MPD2    H1 4444   0.377   1.824   0.857  0.5224 -2.0414 -0.4589
  291MPD2    H2 4445   0.055   1.712   1.115 -1.4133  4.2984  0.7392
  291MPD2    H3 4446   0.278   1.797   1.072 -1.3616 -1.7218  0.9278
  291MPD2     N 4447   0.256   1.781   0.620  0.0634 -0.3982 -0.0655
  291MPD2    H5 4448   0.345   1.829   0.611 -2.2151  3.6447 -0.8292
  291MPD2    N1 4449   4.599   1.697   0.902 -0.0686  0.3986 -0.2534
  291MPD2    H7 4450   4.555   1.696   0.811  0.8824  0.1127 -0.7168
  292TMC3    C1 4451   4.377   1.659   0.996 -0.3003  0.3518  0.3513
  292TMC3    C2 4452   4.296   1.698   1.096 -0.1143  0.7101 -0.3395
  292TMC3    C3 4453   4.165   1.680   1.083  0.0038 -0.0826  0.0280
  292TMC3    C4 4454   4.327   1.632   0.872 -0.7046  0.2535  0.5529
  292TMC3    C5 4455   4.196   1.631   0.860 -0.0646 -0.6581 -0.1018
  292TMC3    C6 4456   4.109   1.652   0.960  0.4137  1.0283  0.0989
  292TMC3     C 4457   4.526   1.677   1.015  0.7396  0.6667 -0.3311
  292TMC3     O 4458   4.554   1.698   1.132 -0.3994  0.0637  0.2962
  292TMC3     H 4459   4.329   1.729   1.194 -2.1139 -0.1855  0.6183
  292TMC3    H1 4460   4.394   1.616   0.788 -1.5133  1.0746 -0.2586
  292TMC3    H2 4461   4.002   1.639   0.946  0.7601  1.5453 -3.0411
  292TMC3    C7 4462   4.144   1.575   0.733 -0.5608 -0.0202  0.0282
  292TMC3    C8 4463   4.090   1.731   1.192  0.4119 -0.1354  0.6934
  292TMC3    O1 4464   4.217   1.501   0.666 -0.5404  0.2554  0.6695
  292TMC3    O2 4465   4.136   1.828   1.249  1.1115  0.7018  0.0787
  293MPD2     C 4466   1.376   3.603  12.377  0.1273  0.1770 -0.7870
  293MPD2    C1 4467   1.304   3.511  12.441  0.6602 -0.1866 -0.0651
  293MPD2    C2 4468   1.310   3.494  12.579  0.4199  0.2705  0.3523
  293MPD2    C3 4469   1.396   3.574  12.652  0.2423  0.0236 -0.7194
  293MPD2    C4 4470   1.487   3.655  12.582  0.1429 -0.5156  0.4347
  293MPD2    C5 4471   1.466   3.679  12.448 -0.0368  0.6254  1.0327
  293MPD2     H 4472   1.245   3.422  12.627 -0.1748  1.4196  1.2686
  293MPD2    H1 4473   1.572   3.706  12.626 -1.2259  1.5903  0.6557
  293MPD2    H2 4474   1.360   3.623  12.272 -3.5961  0.0238 -0.2535
  293MPD2    H3 4475   1.543   3.731  12.393 -0.6844  0.3533 -0.1407
  293MPD2     N 4476   1.408   3.554  12.794  0.0458  0.2349  0.0859
  293MPD2    H5 4477   1.345   3.481  12.827  2.1607 -1.7243 -0.2727
  293MPD2    N1 4478   1.225   3.437  12.353 -0.1255  0.3969  0.5777
  293MPD2    H7 4479   1.226   3.462  12.254 -0.1042  0.2604  0.5423
  294TMC3    C1 4480   1.084   3.282  12.245  0.8768 -0.1418  0.1385
  294TMC3    C2 4481   1.043   3.145  12.247  0.4667  0.1984 -0.1094
  294TMC3    C3 4482   1.044   3.070  12.133  0.3627  0.8731  0.0005
  294TMC3    C4 4483   1.111   3.347  12.126 -0.3323 -0.4810 -0.2355
  294TMC3    C5 4484   1.106   3.269  12.019 -0.6680 -0.0417  0.9377
  294TMC3    C6 4485   1.079   3.135  12.016 -0.5476  0.3745 -0.4509
  294TMC3     C 4486   1.149   3.323  12.374 -0.3022 -0.0054 -0.4301
  294TMC3     O 4487   1.143   3.242  12.466  0.0802  0.3247 -0.0168
  294TMC3     H 4488   1.033   3.088  12.338 -2.1560 -0.7602 -1.0173
  294TMC3    H1 4489   1.131   3.453  12.115  1.1165 -0.7560 -0.2006
  294TMC3    H2 4490   1.074   3.080  11.922  0.1526 -0.5137  0.0329
  294TMC3    C7 4491   1.115   3.333  11.888  0.3812  0.1883 -0.2488
  294TMC3    C8 4492   1.013   2.929  12.130 -0.5105 -0.9541  0.7300
  294TMC3    O1 4493   1.056   3.437  11.866  0.0019  0.2659  0.0257
  294TMC3    O2 4494   0.941   2.888  12.219 -0.3358 -0.7082 -0.7490
  295MPD2     C 4495   2.888   2.545   0.812  0.5726 -0.0067  0.4813
  295MPD2    C1 4496   2.821   2.459   0.730  0.3826  1.5096  0.1268
  295MPD2    C2 4497   2.836   2.323   0.745  0.1528  0.3538  0.5464
  295MPD2    C3 4498   2.919   2.280   0.847  0.1930 -0.3135 -0.4770
  295MPD2    C4 4499   2.977   2.362   0.933 -0.0909  0.0287  0.1304
  295MPD2    C5 4500   2.962   2.496   0.919  0.5724 -0.1095  0.0097
  295MPD2     H 4501   2.773   2.252   0.691  1.7360  0.6322 -1.6556
  295MPD2    H1 4502   3.039   2.331   1.016 -0.6247  1.8555  1.2108
  295MPD2    H2 4503   2.885   2.652   0.798  2.5345 -0.2058 -1.4455
  295MPD2    H3 4504   3.013   2.567   0.984  0.4644 -0.7280  0.7702
  295MPD2     N 4505   2.928   2.141   0.883 -0.3609  0.1908 -0.3759
  295MPD2    H5 4506   2.978   2.129   0.971 -2.4545 -0.0645  0.7761
  295MPD2    N1 4507   2.733   2.509   0.628 -0.1537 -0.3713  0.2115
  295MPD2    H7 4508   2.696   2.442   0.561  1.7101  0.5473 -1.7265
  296TMC3    C1 4509   2.874   1.913   0.904 -0.4072  0.0261 -1.1556
  296TMC3    C2 4510   2.822   1.929   1.030  0.0812 -0.3325  0.2543
  296TMC3    C3 4511   2.796   1.816   1.099 -0.5379 -0.3114 -0.4381
  296TMC3    C4 4512   2.877   1.790   0.848  0.6491  0.1281 -0.5848
  296TMC3    C5 4513   2.851   1.683   0.923 -0.3740  0.3002  0.2934
  296TMC3    C6 4514   2.814   1.690   1.055  0.4173  0.6290  0.0778
  296TMC3     C 4515   2.879   2.028   0.821 -0.5241 -0.2449  0.6241
  296TMC3     O 4516   2.819   2.012   0.720 -0.3012 -1.0077 -0.4026
  296TMC3     H 4517   2.806   2.028   1.069  1.4635 -0.1378  0.3082
  296TMC3    H1 4518   2.893   1.777   0.741  2.3855 -1.7565 -0.0875
  296TMC3    H2 4519   2.833   1.609   1.125  2.0766  1.2958  0.3800
  296TMC3    C7 4520   2.801   1.571   0.853  0.2672 -0.4222 -0.3503
  296TMC3    C8 4521   2.744   1.827   1.229  0.7312 -0.1393  0.5212
  296TMC3    O1 4522   2.835   1.549   0.736 -0.2497  0.3113  0.4775
  296TMC3    O2 4523   2.758   1.731   1.305  0.0558  0.2524  0.0921
  297MPD2     C 4524   3.992   4.127  16.719 -0.1483 -0.9562 -0.6209
  297MPD2    C1 4525   3.983   4.192  16.599 -0.1118  0.3954 -0.0706
  297MPD2    C2 4526   4.078   4.291  16.581  0.3698  0.4048 -0.0769
  297MPD2    C3 4527   4.159   4.346  16.674 -0.6254 -0.5921  0.7669
  297MPD2    C4 4528   4.164   4.279  16.794 -0.3504 -0.3963 -0.7821
  297MPD2    C5 4529   4.084   4.171  16.814 -0.4713 -0.0769 -0.3137
  297MPD2     H 4530   4.089   4.331  16.481 -0.8184 -0.7455 -0.6542
  297MPD2    H1 4531   4.240   4.298  16.869 -0.9165  1.5928 -0.7247
  297MPD2    H2 4532   3.933   4.042  16.752 -1.5381 -0.0257 -0.7124
  297MPD2    H3 4533   4.098   4.108  16.901  1.1312 -1.0836 -1.2920
  297MPD2     N 4534   4.251   4.448  16.638  0.3377 -0.2728  0.0132
  297MPD2    H5 4535   4.249   4.471  16.539  0.7865  0.5262  0.1951
  297MPD2    N1 4536   3.893   4.161  16.492 -0.3578 -0.1852 -0.2490
  297MPD2    H7 4537   3.907   4.202  16.400 -1.4702  0.6707 -0.0328
  298TMC3    C1 4538   3.678   4.126  16.421  0.8211  0.0532  0.5045
  298TMC3    C2 4539   3.710   4.151  16.291  0.2059  0.7899 -0.1402
  298TMC3    C3 4540   3.614   4.211  16.216 -0.2818 -0.3266  0.0056
  298TMC3    C4 4541   3.561   4.179  16.481 -0.1837  0.5488  0.2089
  298TMC3    C5 4542   3.480   4.263  16.406  0.2282 -0.4104  0.6772
  298TMC3    C6 4543   3.507   4.277  16.275 -0.0725 -0.6016  0.2135
  298TMC3     C 4544   3.785   4.082  16.512  0.9345  0.9316  0.1188
  298TMC3     O 4545   3.751   4.015  16.608  0.2210 -0.0209  0.1305
  298TMC3     H 4546   3.806   4.120  16.250  0.0051 -1.2573  0.9494
  298TMC3    H1 4547   3.534   4.161  16.584  1.0947  0.3542  0.5089
  298TMC3    H2 4548   3.440   4.327  16.206 -0.4251  1.3691  1.9894
  298TMC3    C7 4549   3.415   4.374  16.477 -0.1401 -0.2006  0.3119
  298TMC3    C8 4550   3.637   4.245  16.076 -0.0730 -0.2260 -0.2442
  298TMC3    O1 4551   3.401   4.367  16.598 -0.1260 -0.0866 -0.0295
  298TMC3    O2 4552   3.537   4.277  16.011  0.2641  0.5040 -0.5698
  299MPD2     C 4553   4.681   4.258  10.175  0.2121  0.7920 -0.3195
  299MPD2    C1 4554   4.651   4.181  10.287  0.3475  0.3580  0.3920
  299MPD2    C2 4555   4.534   4.107  10.290  0.6115 -0.4068 -0.3195
  299MPD2    C3 4556   4.448   4.106  10.184  0.2470  0.0330  0.0454
  299MPD2    C4 4557   4.484   4.176  10.070  0.4227 -0.2165 -0.0262
  299MPD2    C5 4558   4.595   4.255  10.068  0.8808 -0.4572 -0.6471
  299MPD2     H 4559   4.513   4.036  10.369 -1.3420 -0.4965 -0.9009
  299MPD2    H1 4560   4.419   4.177   9.983 -1.9041 -0.6177  1.7114
  299MPD2    H2 4561   0.033   4.322  10.173  1.0277 -0.2864  0.6624
  299MPD2    H3 4562   4.613   4.318   9.982  2.0859 -0.6759 -0.5592
  299MPD2     N 4563   4.328   4.034  10.173  0.3383 -0.2060  0.3513
  299MPD2    H5 4564   4.282   4.049  10.083 -0.0426  1.5156  0.8378
  299MPD2    N1 4565   0.009   4.186  10.395  0.0009  0.2104  0.5823
  299MPD2    H7 4566   0.086   4.249  10.376  0.2404 -0.1810  0.2488
  300TMC3    C1 4567   4.152   3.905  10.248 -0.7080 -0.7996  0.3849
  300TMC3    C2 4568   4.061   3.997  10.205 -0.0476 -0.5235 -1.4379
  300TMC3    C3 4569   3.931   3.966  10.226 -0.4036 -0.1289 -0.0106
  300TMC3    C4 4570   4.112   3.783  10.300 -0.9777  0.4176 -0.7907
  300TMC3    C5 4571   3.984   3.750  10.316  0.0457  0.0527 -0.0570
  300TMC3    C6 4572   3.892   3.846  10.281 -0.2485  0.2579 -1.2724
  300TMC3     C 4573   4.291   3.938  10.260 -0.0559 -0.2944 -1.0559
  300TMC3     O 4574   4.362   3.877  10.335 -0.9641  0.1010 -0.1392
  300TMC3     H 4575   4.099   4.090  10.165 -0.0346  0.3068  0.5139
  300TMC3    H1 4576   4.185   3.714  10.341 -1.2571  1.2859  1.2006
  300TMC3    H2 4577   3.789   3.816  10.297  0.6034 -1.5043  1.0310
  300TMC3    C7 4578   3.957   3.662  10.433  0.1976  0.2347 -0.5971
  300TMC3    C8 4579   3.839   4.082  10.213 -0.1814 -0.5493  0.0098
  300TMC3    O1 4580   4.035   3.567  10.446 -0.2176  0.2108  0.2524
  300TMC3    O2 4581   3.721   4.050  10.186 -0.1666  0.6019 -0.1699
  301MPD2     C 4582   2.046   0.219   0.916  0.1580  0.3673 -0.5163
  301MPD2    C1 4583   1.913   0.235   0.891  0.4174  0.5094  0.2471
  301MPD2    C2 4584   1.833   0.122   0.885 -0.0372  0.3759  0.6598
  301MPD2    C3 4585   1.874   4.734   0.929 -0.1432 -0.6032 -0.3144
  301MPD2    C4 4586   2.006   4.719   0.946  0.2143  0.4726  0.5357
  301MPD2    C5 4587   2.098   0.089   0.937  0.2564 -0.4227  0.2228
  301MPD2     H 4588   1.731   0.138   0.852  0.3812  1.4675 -0.0980
  301MPD2    H1 4589   2.047   4.621   0.967 -1.5720 -0.3501  0.1789
  301MPD2    H2 4590   2.115   0.301   0.929 -1.5985  1.9375 -1.1128
  301MPD2    H3 4591   2.204   0.075   0.955  0.3410  2.1201  1.6865
  301MPD2     N 4592   1.781   4.627   0.941 -0.0587  0.1697  0.3318
  301MPD2    H5 4593   1.816   4.534   0.963  1.4403  1.1507  2.0365
  301MPD2    N1 4594   1.845   0.360   0.882  0.5996 -0.4680 -0.1359
  301MPD2    H7 4595   1.743   0.355   0.882  0.4340  2.9498 -0.8622
  302TMC3    C1 4596   1.586   4.504   0.956  0.5714  0.2995  0.3425
  302TMC3    C2 4597   1.654   4.386   0.976  0.2789 -1.3347 -0.3624
  302TMC3    C3 4598   1.588   4.260   0.981 -0.5297  0.3412 -0.1811
  302TMC3    C4 4599   1.453   4.509   0.974 -0.1000  0.4912 -0.1616
  302TMC3    C5 4600   1.391   4.387   0.996 -0.6963 -0.7794 -0.2540
  302TMC3    C6 4601   1.450   4.265   0.998  0.5428 -1.8942  0.3245
  302TMC3     C 4602   1.639   4.631   0.923  0.1429  0.3718  0.0097
  302TMC3     O 4603   1.566   4.726   0.899  0.1233  0.0264 -0.3225
  302TMC3     H 4604   1.758   4.380   0.946 -0.0994  0.0289 -1.9804
  302TMC3    H1 4605   1.393   4.599   0.973 -0.3539  0.3027 -1.1877
  302TMC3    H2 4606   1.388   4.176   1.003 -0.3064 -1.3738 -1.1921
  302TMC3    C7 4607   1.246   4.391   0.989 -0.0845  1.0823 -0.3902
  302TMC3    C8 4608   1.661   4.140   1.001 -0.0129  0.1027 -0.3863
  302TMC3    O1 4609   1.198   4.287   0.948  0.0644 -0.3967  0.5806
  302TMC3    O2 4610   1.780   4.141   0.970  0.1977  0.2139  0.1392
  303MPD2     C 4611   2.383   4.411  10.117 -0.4764  0.3550  0.1301
  303MPD2    C1 4612   2.299   4.331  10.190 -1.0904  0.3792  0.8686
  303MPD2    C2 4613   2.163   4.361  10.196  0.1346 -0.1139 -0.2664
  303MPD2    C3 4614   2.110   4.467  10.123  0.3377  0.7668  0.3629
  303MPD2    C4 4615   2.193   4.546  10.049 -0.1985  0.2007  0.1589
  303MPD2    C5 4616   2.323   4.515  10.053 -0.4306 -0.2710  0.0621
  303MPD2     H 4617   2.097   4.296  10.252  0.8537  0.8298  1.6849
  303MPD2    H1 4618   2.154   4.634  10.000 -1.9146 -0.8709 -0.4049
  303MPD2    H2 4619   2.491   4.401  10.115 -0.3306  1.9476 -0.2402
  303MPD2    H3 4620   2.398   4.576  10.004  0.4120 -0.3938  1.1871
  303MPD2     N 4621   1.971   4.491  10.127  0.0918 -0.5311  0.0449
  303MPD2    H5 4622   1.932   4.570  10.078 -1.0303 -1.5331 -0.6654
  303MPD2    N1 4623   2.356   4.217  10.252 -0.3376 -0.2558  0.2062
  303MPD2    H7 4624   2.450   4.189  10.227 -1.1976 -3.0662  0.1509
  304TMC3    C1 4625   2.355   3.997  10.351 -0.3434 -0.2702  0.1775
  304TMC3    C2 4626   2.332   3.921  10.465  0.1664 -0.3981 -0.1401
  304TMC3    C3 4627   2.348   3.783  10.454  0.2052  0.7749 -0.4940
  304TMC3    C4 4628   2.389   3.933  10.235  0.0923  0.4729  0.8899
  304TMC3    C5 4629   2.397   3.793  10.219 -0.4627  0.2365  0.3142
  304TMC3    C6 4630   2.380   3.723  10.340  1.0323  0.1403  0.3078
  304TMC3     C 4631   2.286   4.126  10.328 -0.0847 -0.1666 -0.8823
  304TMC3     O 4632   2.179   4.140  10.388 -0.9188  0.0308 -0.3659
  304TMC3     H 4633   2.307   3.960  10.563  1.3029  0.4256 -0.1763
  304TMC3    H1 4634   2.382   3.994  10.147  3.0367  0.4255  0.6110
  304TMC3    H2 4635   2.399   3.616  10.341  0.8271  0.0487 -3.1884
  304TMC3    C7 4636   2.310   3.748  10.118 -0.1428 -0.1285 -0.1549
  304TMC3    C8 4637   2.259   3.702  10.532  0.4759  0.2513  0.1021
  304TMC3    O1 4638   2.302   3.805  10.007 -0.2685 -0.1637  0.1084
  304TMC3    O2 4639   2.191   3.625  10.466 -0.3223  0.0115 -0.1735
  305MPD2     C 4640   0.038   0.974  13.939 -0.9750 -0.3745  0.0301
  305MPD2    C1 4641   0.011   0.841  13.953 -0.2955  0.6877  0.2386
  305MPD2    C2 4642   0.015   0.761  13.836 -0.5437 -0.3902  0.4818
  305MPD2    C3 4643   0.061   0.821  13.719 -0.1827 -0.3930 -0.6958
  305MPD2    C4 4644   0.112   0.954  13.720  0.7810 -0.1395  0.1645
  305MPD2    C5 4645   0.081   1.033  13.827 -0.4266 -0.2041 -0.6633
  305MPD2     H 4646   0.004   0.654  13.840  0.7664 -0.5701 -0.9197
  305MPD2    H1 4647   0.140   1.011  13.632 -0.3213 -0.5116 -0.4269
  305MPD2    H2 4648   0.037   1.041  14.025 -1.1143  0.1913 -0.4164
  305MPD2    H3 4649   0.086   1.141  13.832 -1.1384 -0.1141 -1.9194
  305MPD2     N 4650   0.068   0.750  13.596  0.1495 -0.1388  0.7028
  305MPD2    H5 4651   0.111   0.799  13.518 -0.8244  0.1740  0.3642
  305MPD2    N1 4652   4.729   0.795  14.087 -0.2355  0.0300  0.5655
  305MPD2    H7 4653   0.003   0.858  14.166 -1.9493 -0.2138  0.9492
  306TMC3    C1 4654   0.053   0.669  14.258 -0.3466 -0.7125 -0.8269
  306TMC3    C2 4655   0.179   0.621  14.263 -0.4343  0.2378 -0.0095
  306TMC3    C3 4656   0.256   0.659  14.371 -0.6556 -0.4016  0.2097
  306TMC3    C4 4657   0.009   0.756  14.356  0.2275 -0.0750  0.4303
  306TMC3    C5 4658   0.086   0.774  14.468  0.5973  0.0206  0.2633
  306TMC3    C6 4659   0.214   0.730  14.478 -0.1695 -1.2775 -0.2338
  306TMC3     C 4660   0.009   0.663  14.128 -0.4344  0.5090  0.2379
  306TMC3     O 4661   0.022   0.556  14.071 -0.0317  0.0108 -0.4651
  306TMC3     H 4662   0.220   0.590  14.167  0.8077  1.0740  0.2409
  306TMC3    H1 4663   4.644   0.799  14.354  0.3992  0.3077  0.0118
  306TMC3    H2 4664   0.274   0.744  14.567 -0.5915 -1.4353  0.0773
  306TMC3    C7 4665   0.026   0.847  14.576 -0.1747  0.1398  0.9489
  306TMC3    C8 4666   0.391   0.645  14.336  0.6042 -0.2344 -0.1703
  306TMC3    O1 4667   4.644   0.849  14.561 -0.0962 -0.1981  0.1157
  306TMC3    O2 4668   0.424   0.629  14.217 -0.3837  0.2690  0.5109
  307MPD2     C 4669   2.911   3.906   0.107  0.2909 -0.4099  1.4988
  307MPD2    C1 4670   2.824   4.014   0.122  0.0587 -0.1154 -0.2034
  307MPD2    C2 4671   2.734   4.021   0.224 -0.4907 -0.2761 -0.4232
  307MPD2    C3 4672   2.720   3.916   0.304 -0.0046 -0.3038  0.5690
  307MPD2    C4 4673   2.796   3.804   0.286  0.3475 -0.2877 -0.0454
  307MPD2    C5 4674   2.893   3.803   0.187  0.0464  0.0394 -0.0335
  307MPD2     H 4675   2.668   4.107   0.228 -1.1210 -0.7238 -1.1880
  307MPD2    H1 4676   2.781   3.720   0.351 -1.0092 -0.1832 -0.2338
  307MPD2    H2 4677   2.992   3.905   0.035 -0.1176  1.8784  1.0137
  307MPD2    H3 4678   2.965   3.723   0.175  0.3780  0.6054 -1.8852
  307MPD2     N 4679   2.616   3.927   0.395  0.7637  0.6739  0.0276
  307MPD2    H5 4680   2.576   4.019   0.405 -1.8805 -0.4312 -0.5195
  307MPD2    N1 4681   2.835   4.130   0.040 -0.1909 -0.0529  0.3724
  307MPD2    H7 4682   2.778   4.211   0.058 -1.2364 -0.6174 -0.4298
  308TMC3    C1 4683   2.250   3.780   0.654  0.4182 -1.1663  1.0226
  308TMC3    C2 4684   2.233   3.897   0.723 -0.2308 -0.5527  1.0832
  308TMC3    C3 4685   2.319   3.999   0.693  0.7212  0.0041 -0.7443
  308TMC3    C4 4686   2.350   3.763   0.565  0.0279  0.1892  0.6210
  308TMC3    C5 4687   2.435   3.863   0.533 -0.4807 -0.0961 -0.0386
  308TMC3    C6 4688   2.427   3.979   0.603  0.5202 -0.2869 -0.3121
  308TMC3     C 4689   2.151   3.680   0.670  0.5183 -0.4630 -0.5298
  308TMC3     O 4690   2.168   3.563   0.628  0.1764 -0.1512  0.5207
  308TMC3     H 4691   2.156   3.907   0.798  0.3573 -0.4729  1.6732
  308TMC3    H1 4692   2.347   3.672   0.506  0.4937  0.5622  0.0206
  308TMC3    H2 4693   2.501   4.057   0.586 -1.0313  1.4316  0.8199
  308TMC3    C7 4694   2.546   3.822   0.449  0.4015  0.2321 -0.0821
  308TMC3    C8 4695   2.317   4.105   0.789  0.3413 -0.0685 -0.3848
  308TMC3    O1 4696   2.564   3.701   0.427  0.8371  0.0878 -0.0638
  308TMC3    O2 4697   2.222   4.110   0.868  0.4098 -0.6366 -0.4559
  309MPD2     C 4698   1.697   4.358  17.448  0.5769  0.2653 -0.0518
  309MPD2    C1 4699   1.610   4.268  17.397  0.4365 -0.0912  0.0293
  309MPD2    C2 4700   1.493   4.252  17.458 -0.1006  0.0766  0.0052
  309MPD2    C3 4701   1.456   4.318  17.568  0.1688 -0.6575 -0.7087
  309MPD2    C4 4702   1.544   4.396  17.624  0.2306  0.2751 -0.4842
  309MPD2    C5 4703   1.666   4.418  17.567 -0.1128  0.8139  0.2621
  309MPD2     H 4704   1.425   4.182  17.409  0.9472  1.1099 -2.8945
  309MPD2    H1 4705   1.527   4.452  17.716 -0.1713  0.6841 -0.8027
  309MPD2    H2 4706   1.793   4.378  17.401  0.4518  0.6705 -0.1297
  309MPD2    H3 4707   1.730   4.485  17.623  1.5982  0.9702 -1.9037
  309MPD2     N 4708   1.327   4.329  17.626  0.0228  0.6556 -0.3258
  309MPD2    H5 4709   1.320   4.378  17.714  0.9839 -1.3793  0.8771
  309MPD2    N1 4710   1.650   4.191  17.287  0.3915 -0.0389  0.2076
  309MPD2    H7 4711   1.585   4.117  17.264  0.7506 -0.1836 -0.3504
  310TMC3    C1 4712   1.777   4.104  17.112 -1.0773 -0.3834  0.9686
  310TMC3    C2 4713   1.740   4.146  16.983  0.2630  0.1853 -0.1935
  310TMC3    C3 4714   1.827   4.100  16.888  0.4516  0.4778  0.5610
  310TMC3    C4 4715   1.871   4.009  17.140 -0.1138  0.0230 -0.8180
  310TMC3    C5 4716   1.934   3.955  17.033  0.1120 -0.1471 -0.7667
  310TMC3    C6 4717   1.915   4.002  16.906 -0.1692 -0.4326 -0.5070
  310TMC3     C 4718   1.759   4.211  17.204 -0.5974  0.3937 -0.9135
  310TMC3     O 4719   1.828   4.309  17.197  0.2723 -0.0743 -0.6194
  310TMC3     H 4720   1.683   4.237  16.969 -0.8228 -0.5494 -0.6206
  310TMC3    H1 4721   1.877   3.972  17.242 -0.0517 -1.4683 -1.3526
  310TMC3    H2 4722   1.971   3.952  16.828 -0.4403 -0.6692 -0.5511
  310TMC3    C7 4723   2.041   3.862  17.055  0.9195 -0.5225 -0.9086
  310TMC3    C8 4724   1.822   4.156  16.753 -0.0841 -0.2133 -0.0069
  310TMC3    O1 4725   2.079   3.797  16.956  0.0513  0.4270  0.3724
  310TMC3    O2 4726   1.712   4.188  16.711  0.0880 -0.3516 -0.7668
  311MPD2     C 4727   3.971   0.200  12.944 -0.7822  0.2545 -0.0934
  311MPD2    C1 4728   3.930   0.322  12.896  0.2801 -0.7030 -0.3495
  311MPD2    C2 4729   3.799   0.357  12.902  0.5356  0.1898 -0.2385
  311MPD2    C3 4730   3.702   0.271  12.944  0.2669 -0.0870 -0.4511
  311MPD2    C4 4731   3.742   0.142  12.973  0.5412 -0.3854 -1.3970
  311MPD2    C5 4732   3.875   0.109  12.968 -0.8848 -0.1739  0.4695
  311MPD2     H 4733   3.771   0.454  12.862  2.7091  2.2310  3.2073
  311MPD2    H1 4734   3.678   0.066  13.015  1.3005 -1.9656 -3.1284
  311MPD2    H2 4735   4.072   0.165  12.962 -0.4735  0.4469 -1.3920
  311MPD2    H3 4736   3.899   0.006  12.992 -2.1440 -0.9328 -1.5024
  311MPD2     N 4737   3.574   0.323  12.948 -0.9888  0.0874 -0.3087
  311MPD2    H5 4738   3.571   0.424  12.938 -1.2757 -0.1156 -2.4053
  311MPD2    N1 4739   4.030   0.417  12.857  0.1866 -0.4545 -0.2648
  311MPD2    H7 4740   3.995   0.501  12.812  1.2627 -1.0458 -2.2127
  312TMC3    C1 4741   3.354   0.331  13.010 -0.1393  0.0878  0.1609
  312TMC3    C2 4742   3.232   0.279  12.992  0.1029  0.0674 -0.0214
  312TMC3    C3 4743   3.129   0.341  13.069  0.1028  0.3093  0.2470
  312TMC3    C4 4744   3.384   0.427  13.103 -0.4042 -0.6634  0.0938
  312TMC3    C5 4745   3.284   0.487  13.175  0.1623  0.5896  0.7331
  312TMC3    C6 4746   3.150   0.446  13.154 -0.9616  0.0473  0.0684
  312TMC3     C 4747   3.456   0.254  12.956  0.0912  0.1386  0.3564
  312TMC3     O 4748   3.428   0.136  12.926  0.1624  0.1570 -0.3686
  312TMC3     H 4749   3.215   0.203  12.917 -0.4210  1.7007 -1.5662
  312TMC3    H1 4750   3.485   0.456  13.128 -1.5402  3.0483  0.3586
  312TMC3    H2 4751   3.067   0.488  13.210 -0.9159 -0.2358  0.3475
  312TMC3    C7 4752   3.317   0.591  13.272  0.4857 -0.8805  0.4528
  312TMC3    C8 4753   2.998   0.295  13.026  0.0567 -0.3877 -0.1688
  312TMC3    O1 4754   3.257   0.695  13.271  0.1631  0.4127 -0.1004
  312TMC3    O2 4755   2.985   0.202  12.947 -0.3259 -0.2041  0.6451
  313MPD2     C 4756   3.039   4.602  11.131  0.3833  0.2098 -0.9948
  313MPD2    C1 4757   3.043   4.700  11.042  0.4024  0.5643 -0.3027
  313MPD2    C2 4758   3.091   4.673  10.916 -0.0201 -0.9136  0.4510
  313MPD2    C3 4759   3.132   4.551  10.870 -0.1489 -0.5358 -0.4398
  313MPD2    C4 4760   3.151   4.460  10.968 -0.0775  0.1883  0.2878
  313MPD2    C5 4761   3.101   4.483  11.093 -0.1059 -0.2582  0.4672
  313MPD2     H 4762   3.099   0.021  10.847 -0.7251 -1.2231 -0.0119
  313MPD2    H1 4763   3.204   4.370  10.939 -0.9665 -0.4799  0.7447
  313MPD2    H2 4764   3.019   4.607  11.238 -0.8892  0.0280 -1.2191
  313MPD2    H3 4765   3.107   4.406  11.169  0.4461  1.1345  1.8271
  313MPD2     N 4766   3.168   4.540  10.733  0.3923  0.4188  0.2797
  313MPD2    H5 4767   3.181   4.625  10.680  0.5984 -0.5886 -1.2669
  313MPD2    N1 4768   3.007   0.094  11.072 -0.1557  0.1299  0.2413
  313MPD2    H7 4769   3.042   0.171  11.015 -1.8894 -0.1199 -1.1605
  314TMC3    C1 4770   2.915   0.266  11.185  0.5646 -0.9751  0.6445
  314TMC3    C2 4771   3.001   0.336  11.255 -0.5290  0.5236  0.5373
  314TMC3    C3 4772   3.043   0.458  11.201  0.6638  0.6090 -0.0510
  314TMC3    C4 4773   2.853   0.310  11.076  0.9415  0.1563  0.2508
  314TMC3    C5 4774   2.892   0.429  11.024  0.7424  0.2032  0.2469
  314TMC3    C6 4775   2.994   0.507  11.085  0.1284  0.3244 -0.6198
  314TMC3     C 4776   2.950   0.131  11.184 -0.0608  0.2066  0.5655
  314TMC3     O 4777   2.928   0.071  11.291  0.2061  0.4917 -0.0096
  314TMC3     H 4778   3.062   0.287  11.329 -0.0191 -1.0000 -0.9007
  314TMC3    H1 4779   2.779   0.248  11.027  0.6696  0.7844 -0.1449
  314TMC3    H2 4780   3.024   0.604  11.048  0.0663  0.6225  0.1157
  314TMC3    C7 4781   2.837   0.468  10.901 -0.1290 -1.0156  0.1785
  314TMC3    C8 4782   3.186   0.494  11.227 -0.2059  0.5714  0.1124
  314TMC3    O1 4783   2.712   0.450  10.886  0.1419  0.1422  0.3325
  314TMC3    O2 4784   3.236   0.566  11.142 -0.4317  0.0762  0.0566
  315MPD2     C 4785   3.142   3.642  17.592 -0.0515  0.5738 -0.4382
  315MPD2    C1 4786   3.190   3.643  17.719  0.4946  0.7267 -1.0453
  315MPD2    C2 4787   3.254   3.757   0.018 -0.6012  0.2693  0.0369
  315MPD2    C3 4788   3.264   3.874  17.682  0.1629 -0.4308 -0.2852
  315MPD2    C4 4789   3.206   3.877  17.558  0.0377  0.6404  0.1710
  315MPD2    C5 4790   3.135   3.762  17.519  0.1715  0.4250 -0.3207
  315MPD2     H 4791   3.298   3.750   0.117 -2.0886  1.0038  0.7548
  315MPD2    H1 4792   3.203   3.970  17.502 -1.9879 -0.4317 -1.4924
  315MPD2    H2 4793   3.092   3.559  17.545  0.6101  1.0348 -1.9425
  315MPD2    H3 4794   3.077   3.749  17.429  1.1813  0.6795 -1.0184
  315MPD2     N 4795   3.324   3.983   0.006  0.6552 -0.2862 -0.3262
  315MPD2    H5 4796   3.366   3.968   0.097  1.8460  2.5457 -0.3969
  315MPD2    N1 4797   3.169   3.552   0.083 -0.0771 -0.5066  0.4962
  315MPD2    H7 4798   3.211   3.553   0.175  0.0393 -1.1687  0.4533
  316TMC3    C1 4799   3.320   4.217   0.055 -0.2660  0.4721  0.2824
  316TMC3    C2 4800   3.333   4.176   0.186  0.3557 -0.4490 -0.0090
  316TMC3    C3 4801   3.318   4.284   0.277 -0.0930  0.0759  0.2999
  316TMC3    C4 4802   3.316   4.346   0.011 -0.0148 -0.3557  0.1801
  316TMC3    C5 4803   3.316   4.441   0.104 -0.0559  0.0231  0.2173
  316TMC3    C6 4804   3.305   4.413   0.241  0.3825 -0.1119  0.2760
  316TMC3     C 4805   3.326   4.111  17.696  0.3827  0.1462 -0.1852
  316TMC3     O 4806   3.311   4.147  17.578 -0.4928 -0.3571 -0.5263
  316TMC3     H 4807   3.346   4.075   0.223 -0.8652 -0.7576 -0.4244
  316TMC3    H1 4808   3.318   4.369  17.645 -0.4541 -0.0590  0.2391
  316TMC3    H2 4809   3.283   4.491   0.313 -1.7025 -1.7791  1.4290
  316TMC3    C7 4810   3.303   4.583   0.072  0.4390 -1.0549 -0.1365
  316TMC3    C8 4811   3.352   4.259   0.417 -0.7843 -0.2832  0.6729
  316TMC3    O1 4812   3.296   4.660   0.168 -0.9779 -0.1939 -0.5019
  316TMC3    O2 4813   3.330   4.359   0.491 -0.3970 -0.2398 -0.4232
  317MPD2     C 4814   0.377   2.501  12.692  0.4108  0.1158  0.0482
  317MPD2    C1 4815   0.396   2.367  12.660  0.0141 -0.4431 -0.2045
  317MPD2    C2 4816   0.442   2.283  12.755  0.2879  0.1078 -0.5853
  317MPD2    C3 4817   0.473   2.328  12.882  1.0112  0.1984  0.3776
  317MPD2    C4 4818   0.446   2.452  12.922  0.5021  0.2093  0.3378
  317MPD2    C5 4819   0.399   2.544  12.823 -0.2274 -0.2251  0.5659
  317MPD2     H 4820   0.449   2.177  12.733  0.7027 -0.0874  0.5033
  317MPD2    H1 4821   0.474   2.486  13.021  0.0147 -0.6352  0.7637
  317MPD2    H2 4822   0.361   2.575  12.615  1.7642 -0.0097 -0.3559
  317MPD2    H3 4823   0.393   2.648  12.852  0.8861  0.2618 -0.9403
  317MPD2     N 4824   0.528   2.228  12.968 -0.3606 -0.1790 -0.2175
  317MPD2    H5 4825   0.541   2.138  12.923  0.3030 -0.5790  0.7736
  317MPD2    N1 4826   0.373   2.310  12.531 -0.1783 -0.1661  0.0705
  317MPD2    H7 4827   0.419   2.222  12.510  1.6107  0.3635  1.7226
  318TMC3    C1 4828   0.603   2.115  13.145  0.3560 -0.4981 -0.5881
  318TMC3    C2 4829   0.528   1.998  13.134  0.4078 -0.5592 -0.2396
  318TMC3    C3 4830   0.579   1.892  13.193 -0.7066 -0.2013 -0.7695
  318TMC3    C4 4831   0.709   2.127  13.226 -0.5305  0.5980  0.0519
  318TMC3    C5 4832   0.752   2.018  13.293  0.2903  1.0085  0.3824
  318TMC3    C6 4833   0.692   1.896  13.274 -0.1861  0.4377 -0.6394
  318TMC3     C 4834   0.551   2.239  13.099  0.4544 -0.5105  0.3066
  318TMC3     O 4835   0.536   2.340  13.169 -0.0230 -0.4925 -0.1602
  318TMC3     H 4836   0.464   1.992  13.046 -0.1623  0.0493  0.1386
  318TMC3    H1 4837   0.766   2.219  13.224  1.3350 -0.5559  0.3141
  318TMC3    H2 4838   0.734   1.800  13.301 -0.7230  0.5236  0.4942
  318TMC3    C7 4839   0.864   2.036  13.381  0.0455 -0.6846  0.3472
  318TMC3    C8 4840   0.519   1.763  13.153  1.0053  0.1236  0.0642
  318TMC3    O1 4841   0.888   2.154  13.409 -0.4342  0.4589 -0.0036
  318TMC3    O2 4842   0.580   1.663  13.161 -0.1995 -0.4802 -0.5324
  319MPD2     C 4843   0.913   3.868  17.157 -0.1654 -0.2577  0.6926
  319MPD2    C1 4844   0.928   3.730  17.166 -0.5432 -0.6937  0.1958
  319MPD2    C2 4845   0.879   3.657  17.055  0.1086 -0.0070  1.5136
  319MPD2    C3 4846   0.827   3.714  16.943 -0.5048 -0.3935  0.3691
  319MPD2    C4 4847   0.826   3.850  16.930 -0.1357  0.2517  0.5317
  319MPD2    C5 4848   0.865   3.921  17.044  0.0909  0.1210 -0.2885
  319MPD2     H 4849   0.879   3.552  17.081  2.5266 -0.7876 -1.7440
  319MPD2    H1 4850   0.789   3.901  16.842 -0.3738 -0.8855 -0.0254
  319MPD2    H2 4851   0.940   3.940  17.233 -1.6018  2.1513 -1.0728
  319MPD2    H3 4852   0.855   4.029  17.049  0.7970  0.2574 -1.8051
  319MPD2     N 4853   0.778   3.642  16.830  0.9942 -0.1377  0.0767
  319MPD2    H5 4854   0.736   3.702  16.760  3.9047  0.1532 -1.4185
  319MPD2    N1 4855   0.978   3.665  17.277 -0.3717 -0.0113 -0.9917
  319MPD2    H7 4856   1.009   3.571  17.255  1.0653 -0.2877  2.2456
  320TMC3    C1 4857   0.695   3.452  16.700 -0.1913 -0.0342  0.3078
  320TMC3    C2 4858   0.660   3.532  16.589 -0.3283 -0.4607 -0.3641
  320TMC3    C3 4859   0.589   3.476  16.492 -0.7070 -0.0446 -0.1470
  320TMC3    C4 4860   0.675   3.318  16.703 -0.6264  0.4362  0.2982
  320TMC3    C5 4861   0.610   3.268  16.594 -0.1872  0.9552  0.0654
  320TMC3    C6 4862   0.563   3.344  16.487  0.1250 -0.4731 -0.4675
  320TMC3     C 4863   0.775   3.507  16.816  0.5086  0.8052  0.0578
  320TMC3     O 4864   0.797   3.426  16.903  0.0743  0.0058  0.1279
  320TMC3     H 4865   0.683   3.638  16.587  3.1995 -1.1675  1.7795
  320TMC3    H1 4866   0.701   3.253  16.786  1.5199 -0.5104 -1.1055
  320TMC3    H2 4867   0.508   3.312  16.399 -1.2291 -1.7986  0.8684
  320TMC3    C7 4868   0.569   3.128  16.582 -0.2016  1.0578  0.6220
  320TMC3    C8 4869   0.540   3.564  16.385  0.0531  0.1493 -0.2114
  320TMC3    O1 4870   0.523   3.098  16.472 -0.8900  0.0880 -0.3164
  320TMC3    O2 4871   0.601   3.672  16.365  0.0819  0.1315  0.5168
  321TMC3    C1 4872   1.102   3.646  17.477 -0.0439  0.0601  1.2455
  321TMC3    C2 4873   1.100   3.514  17.464  0.0543 -0.4780  0.0619
  321TMC3    C3 4874   1.164   3.438  17.554 -0.5655  0.0926  0.1014
  321TMC3    C4 4875   1.174   3.712  17.573 -0.0894  0.6487  0.3379
  321TMC3    C5 4876   1.232   3.633  17.671 -0.2625  1.2179  0.1088
  321TMC3    C6 4877   1.214   3.497  17.672  0.1391  0.2531  0.1985
  321TMC3     C 4878   1.018   3.728  17.390  0.0407 -0.0019  0.3786
  321TMC3     O 4879   0.996   3.846  17.426 -0.3049 -0.2115 -0.1069
  321TMC3     H 4880   1.063   3.460  17.377  0.2809 -0.2287 -0.1859
  321TMC3    H1 4881   1.160   3.817  17.593 -0.0647  0.5370  0.9412
  321TMC3    H2 4882   1.248   3.430   0.012 -0.8455 -1.0256 -0.4498
  321TMC3    C7 4883   1.369   3.658  17.697  0.5588  0.3038  1.6053
  321TMC3    C8 4884   1.244   3.331  17.502  0.8698  0.0341  0.0672
  321TMC3    O1 4885   1.436   3.560  17.712  0.2587  0.1994 -0.0595
  321TMC3    O2 4886   1.201   3.281  17.400  0.0798 -0.5481 -0.0519
  322MPD2     C 4887   0.285   0.231  13.469  0.0807  0.1051  0.8156
  322MPD2    C1 4888   0.293   0.183  13.600  0.3766 -0.0116 -0.1461
  322MPD2    C2 4889   0.278   0.049  13.628 -0.2149  0.8635  0.0158
  322MPD2    C3 4890   0.267   4.693  13.522  0.0049 -0.3198 -0.2682
  322MPD2    C4 4891   0.260   0.006  13.392 -0.7975 -0.7184 -0.4580
  322MPD2    C5 4892   0.272   0.142  13.367 -0.0372 -0.7595 -0.0589
  322MPD2     H 4893   0.291   0.005  13.727 -0.6849 -1.6338 -1.0358
  322MPD2    H1 4894   0.241   4.675  13.308  0.8925 -2.6425  0.6709
  322MPD2    H2 4895   0.284   0.339  13.472  1.8625  0.1364 -0.2398
  322MPD2    H3 4896   0.259   0.183  13.267  0.1197  0.3096  0.3549
  322MPD2     N 4897   0.270   4.551  13.551  0.0289  0.0295 -0.3680
  322MPD2    H5 4898   0.276   4.541  13.652 -2.4478  0.0270 -0.2232
  322MPD2    N1 4899   0.329   0.280  13.697 -0.0343  0.0121 -0.1220
  322MPD2    H7 4900   0.363   0.369  13.662  0.3673 -0.7748 -1.7533
  323TMC3    C1 4901   0.404   0.342  13.904 -1.0428  0.2474 -0.1526
  323TMC3    C2 4902   0.529   0.361  13.861  0.2215 -0.2785 -0.9040
  323TMC3    C3 4903   0.625   0.376  13.958  0.4912 -0.4829  0.3547
  323TMC3    C4 4904   0.366   0.347  14.034 -0.1011  0.2162  0.0800
  323TMC3    C5 4905   0.458   0.360  14.131 -0.1797  0.1857  0.5926
  323TMC3    C6 4906   0.596   0.373  14.094  0.0080 -0.9502 -0.6496
  323TMC3     C 4907   0.322   0.254  13.831 -0.1699 -0.0081  0.5107
  323TMC3     O 4908   0.262   0.162  13.888 -0.0578 -0.3468 -0.5197
  323TMC3     H 4909   0.549   0.329  13.760  0.1693 -0.6793 -0.7878
  323TMC3    H1 4910   0.262   0.340  14.062  0.5437  0.0454  2.4294
  323TMC3    H2 4911   0.676   0.382  14.167 -0.2575  0.4992 -0.5314
  323TMC3    C7 4912   0.418   0.299  14.258  0.1808 -0.3311 -0.3060
  323TMC3    C8 4913   0.769   0.369  13.922 -0.0084  0.5258  0.7688
  323TMC3    O1 4914   0.316   0.231  14.263 -0.3376 -0.3048  0.0513
  323TMC3    O2 4915   0.851   0.361  14.011 -0.1758  0.8211  0.0587
  324MPD2     C 4916   1.181   1.582  14.621  0.9940  0.2271 -0.6418
  324MPD2    C1 4917   1.232   1.510  14.512  0.0825  0.1640 -0.1734
  324MPD2    C2 4918   1.139   1.463  14.416 -0.6301 -0.2471 -0.5159
  324MPD2    C3 4919   1.005   1.482  14.426  0.0247 -0.3505  0.3186
  324MPD2    C4 4920   0.959   1.557  14.531 -0.3765 -0.6915 -0.4725
  324MPD2    C5 4921   1.046   1.604  14.630 -0.5438 -0.6882 -0.0177
  324MPD2     H 4922   1.177   1.407  14.331 -0.1482  1.1689 -1.2421
  324MPD2    H1 4923   0.856   1.590  14.531 -1.0194 -2.7265 -0.2203
  324MPD2    H2 4924   1.241   1.624  14.701  0.4484 -0.2784  0.0329
  324MPD2    H3 4925   1.019   1.672  14.710  0.5765  3.0843 -2.8825
  324MPD2     N 4926   0.918   1.431  14.325 -0.1091  0.4372 -0.1041
  324MPD2    H5 4927   0.824   1.469  14.326 -0.0470  0.5294  2.6446
  324MPD2    N1 4928   1.368   1.479  14.491  0.4840 -0.2999  0.0337
  324MPD2    H7 4929   1.389   1.429  14.405  0.0900 -1.3687  0.5576
  325TMC3    C1 4930   0.842   1.304  14.142 -0.6489 -0.1131  0.2754
  325TMC3    C2 4931   0.844   1.190  14.073 -0.1668  0.0712  0.0662
  325TMC3    C3 4932   0.747   1.177  13.973  0.0725  0.1021  0.1430
  325TMC3    C4 4933   0.753   1.407  14.113 -0.0637  0.5417 -0.0326
  325TMC3    C5 4934   0.660   1.388  14.017  0.0444  0.3627 -0.4071
  325TMC3    C6 4935   0.657   1.274  13.942  0.5724 -0.2666  0.2667
  325TMC3     C 4936   0.943   1.326  14.244  0.2379 -0.5954  0.4240
  325TMC3     O 4937   1.051   1.266  14.225 -0.2711  0.4872 -0.5139
  325TMC3     H 4938   0.902   1.106  14.109  0.6970  0.5579 -0.1642
  325TMC3    H1 4939   0.763   1.506  14.157  0.8301 -1.0355  3.3056
  325TMC3    H2 4940   0.591   1.259  13.857 -0.1111  0.2436  0.7029
  325TMC3    C7 4941   0.586   1.505  13.968 -0.0533  0.1498  0.1787
  325TMC3    C8 4942   0.740   1.068  13.890  0.0442 -0.0363 -0.5370
  325TMC3    O1 4943   0.560   1.495  13.850 -0.5852  0.1809 -0.0288
  325TMC3    O2 4944   0.840   0.995  13.882 -0.8704  0.0938  0.3984
  326MPD2     C 4945   3.074   2.501  10.962  0.2671  0.2609  0.3132
  326MPD2    C1 4946   3.172   2.540  10.872 -0.2393 -0.0518  0.1799
  326MPD2    C2 4947   3.303   2.569  10.912 -0.2333  0.0257 -0.7284
  326MPD2    C3 4948   3.334   2.542  11.047 -0.0929 -0.4165 -0.0370
  326MPD2    C4 4949   3.234   2.502  11.135  1.2573 -0.1947  0.2180
  326MPD2    C5 4950   3.106   2.473  11.092  0.2768  0.2424  0.3883
  326MPD2     H 4951   3.374   2.613  10.843  1.0697  0.6239  0.9759
  326MPD2    H1 4952   3.263   2.486  11.238 -0.8905 -2.6155  0.4399
  326MPD2    H2 4953   2.970   2.499  10.932  0.4096 -0.9118 -0.1187
  326MPD2    H3 4954   3.030   2.447  11.164  0.6368 -1.2733  0.2196
  326MPD2     N 4955   3.460   2.570  11.102  0.8499 -0.1865 -0.5091
  326MPD2    H5 4956   3.477   2.559  11.202 -0.0221 -1.3116 -0.4904
  326MPD2    N1 4957   3.145   2.549  10.733 -0.3460  0.1018  0.2388
  326MPD2    H7 4958   3.230   2.565  10.680  0.8472 -1.3606  1.6845
  327TMC3    C1 4959   3.041   2.551  10.520 -0.3161 -0.0200  0.2993
  327TMC3    C2 4960   2.988   2.671  10.485  0.7494 -0.1579  0.5022
  327TMC3    C3 4961   3.048   2.746  10.385 -0.4321  0.2384 -0.0995
  327TMC3    C4 4962   3.150   2.505  10.456 -0.2314  0.7551  0.1152
  327TMC3    C5 4963   3.208   2.586  10.363  0.8585 -0.8550 -0.3464
  327TMC3    C6 4964   3.158   2.703  10.314 -1.1505 -0.5907 -0.3101
  327TMC3     C 4965   3.025   2.531  10.666 -0.8143  0.1221  0.0194
  327TMC3     O 4966   2.915   2.527  10.716 -0.2171 -0.0951 -0.1096
  327TMC3     H 4967   2.915   2.716  10.551 -0.6497 -1.8590  0.1228
  327TMC3    H1 4968   3.185   2.410  10.494  2.5921  1.9939  0.6202
  327TMC3    H2 4969   3.220   2.757  10.244 -0.3130 -3.4974 -1.8232
  327TMC3    C7 4970   3.350   2.567  10.340  0.3964  0.3190 -0.2076
  327TMC3    C8 4971   3.045   2.883  10.414 -0.6225  0.4369  0.2031
  327TMC3    O1 4972   3.406   2.648  10.267  0.0168  0.4414 -0.1270
  327TMC3    O2 4973   3.143   2.943  10.373  0.0406  0.1932 -0.4905
  328MPD2     C 4974   0.596   2.054  17.243 -0.1560  0.0384 -0.0476
  328MPD2    C1 4975   0.488   2.023  17.160 -0.4922 -0.8109  0.3785
  328MPD2    C2 4976   0.392   2.118  17.134 -0.0373 -0.3325  0.0430
  328MPD2    C3 4977   0.395   2.241  17.191  0.4152  0.7495 -0.1367
  328MPD2    C4 4978   0.503   2.275  17.272 -0.6581 -0.2131 -0.1964
  328MPD2    C5 4979   0.607   2.179  17.301  0.0794 -0.7234 -0.0721
  328MPD2     H 4980   0.318   2.087  17.062 -0.2038  1.1450 -0.4152
  328MPD2    H1 4981   0.507   2.361  17.338  1.3558  0.7275 -1.5329
  328MPD2    H2 4982   0.675   1.988  17.277  1.6089  2.0788 -0.2093
  328MPD2    H3 4983   0.691   2.190  17.369  0.7710 -0.1382 -1.0084
  328MPD2     N 4984   0.299   2.343  17.161  0.1909 -0.0658  0.5069
  328MPD2    H5 4985   0.313   2.436  17.200  0.7805  0.4906 -1.0247
  328MPD2    N1 4986   0.486   1.894  17.105  0.2369 -0.2288 -0.0436
  328MPD2    H7 4987   0.550   1.830  17.152 -0.7271 -1.2208 -0.0807
  329TMC3    C1 4988   0.390   1.711  16.982 -0.3095  0.7249 -0.5252
  329TMC3    C2 4989   0.410   1.632  17.089 -0.0206  0.2432  0.4197
  329TMC3    C3 4990   0.386   1.500  17.074 -0.7230 -0.1800  0.2509
  329TMC3    C4 4991   0.350   1.654  16.866 -0.3936  0.6318 -0.3295
  329TMC3    C5 4992   0.337   1.519  16.850 -1.0044  0.0593  0.4584
  329TMC3    C6 4993   0.355   1.436  16.957 -0.1684  1.1807 -0.1152
  329TMC3     C 4994   0.403   1.853  16.996 -0.3645 -0.5195  0.4022
  329TMC3     O 4995   0.337   1.920  16.915  0.0567 -0.2365  0.1175
  329TMC3     H 4996   0.439   1.670  17.186 -0.3307  2.6213 -0.4296
  329TMC3    H1 4997   0.349   1.713  16.775  0.7678 -0.2743 -0.9250
  329TMC3    H2 4998   0.351   1.329  16.945  3.1190  1.1245 -0.6561
  329TMC3    C7 4999   0.267   1.462  16.737  0.9275  0.3182  0.3616
  329TMC3    C8 5000   0.380   1.419  17.197 -0.0900  0.1114  0.0873
  329TMC3    O1 5001   0.266   1.338  16.742 -0.4903 -0.1402 -0.1735
  329TMC3    O2 5002   0.351   1.305  17.176  0.1926  0.0909  0.3687
  330TMC3    C1 5003   2.778   2.276   9.316  0.0405  0.4032 -0.1907
  330TMC3    C2 5004   2.717   2.163   9.259 -0.3239  0.2480  0.6728
  330TMC3    C3 5005   2.777   2.040   9.291 -0.2019  0.3097  0.1869
  330TMC3    C4 5006   2.878   2.263   9.405 -0.2350 -0.4078 -0.6529
  330TMC3    C5 5007   2.919   2.137   9.437 -0.0088  0.7748  0.4365
  330TMC3    C6 5008   2.871   2.022   9.382  0.6801  0.0126  0.0780
  330TMC3     C 5009   2.709   2.402   9.320  0.2476  0.1359 -0.4602
  330TMC3     O 5010   2.755   2.494   9.394 -0.0278 -0.3459  0.3316
  330TMC3     H 5011   2.641   2.181   9.184 -0.0117  1.3253  0.6178
  330TMC3    H1 5012   2.915   2.354   9.451 -0.5695 -0.8131  0.4298
  330TMC3    H2 5013   2.918   1.925   9.387  0.1227 -0.2097  1.0329
  330TMC3    C7 5014   3.044   2.132   9.501 -0.1063  0.1759 -0.5646
  330TMC3    C8 5015   2.671   1.938   9.287 -0.9349  0.1340 -0.5584
  330TMC3    O1 5016   3.073   2.231   9.573  0.2824 -0.0369  0.4176
  330TMC3    O2 5017   2.568   1.968   9.227 -0.3162  0.5366 -0.2541
  331MPD2     C 5018   1.932   0.758  12.928 -0.0994 -0.3440  0.9318
  331MPD2    C1 5019   1.861   0.734  12.805  0.4552  0.6503 -0.2922
  331MPD2    C2 5020   1.755   0.642  12.797 -0.0221  0.5422 -0.0054
  331MPD2    C3 5021   1.712   0.579  12.913 -0.4851 -0.4443 -0.8353
  331MPD2    C4 5022   1.785   0.598  13.027  0.1354 -0.3639 -0.5022
  331MPD2    C5 5023   1.892   0.683  13.037 -0.3657  0.8335  0.0996
  331MPD2     H 5024   1.698   0.627  12.706  2.1262 -0.0368 -1.2559
  331MPD2    H1 5025   1.754   0.551  13.120  0.4732 -0.7681 -0.5947
  331MPD2    H2 5026   2.022   0.816  12.942 -0.9177  1.1253  0.1004
  331MPD2    H3 5027   1.955   0.676  13.125 -1.7576 -0.5370  0.9823
  331MPD2     N 5028   1.594   0.498  12.906  0.2556 -0.9644 -0.1260
  331MPD2    H5 5029   1.543   0.490  12.818 -2.0612  0.8969  1.0678
  331MPD2    N1 5030   1.905   0.809  12.695 -0.4872 -0.1761  0.2213
  331MPD2    H7 5031   1.982   0.874  12.708  0.0753 -0.4231 -1.8237
  332TMC3    C1 5032   1.419   0.351  12.947 -0.0288 -0.3459  0.5091
  332TMC3    C2 5033   1.348   0.406  12.845 -0.5384  0.0959  0.0762
  332TMC3    C3 5034   1.267   0.326  12.771  0.9926 -0.3005 -0.2003
  332TMC3    C4 5035   1.410   0.220  12.973  1.1828  0.2801 -0.8342
  332TMC3    C5 5036   1.323   0.143  12.911 -1.0995  0.5044  0.3493
  332TMC3    C6 5037   1.252   0.194  12.808 -0.1305  0.6439  0.0426
  332TMC3     C 5038   1.543   0.413  12.996  0.2514 -0.7251  0.3330
  332TMC3     O 5039   1.597   0.366  13.092  0.5352 -0.2122 -0.7461
  332TMC3     H 5040   1.342   0.514  12.837 -1.1695  0.0910  0.5209
  332TMC3    H1 5041   1.473   0.180  13.051 -1.3997  1.5512  1.9076
  332TMC3    H2 5042   1.209   0.126  12.735  1.4514  0.3940 -0.6346
  332TMC3    C7 5043   1.346   0.003  12.916  0.9769 -0.8583 -0.8578
  332TMC3    C8 5044   1.210   0.376  12.648  0.4051 -0.7368  0.1703
  332TMC3    O1 5045   1.260   4.662  12.876  0.6890 -0.4161  0.3599
  332TMC3    O2 5046   1.247   0.490  12.623 -0.2166  0.3302 -0.1467
  333MPD2     C 5047   1.576   1.144  11.179 -0.3732 -0.2949  0.3989
  333MPD2    C1 5048   1.573   1.063  11.066  0.6128  0.6107  0.3927
  333MPD2    C2 5049   1.529   0.936  11.070 -0.0870  0.8446 -0.7466
  333MPD2    C3 5050   1.514   0.878  11.195  0.8966  0.3976  1.0206
  333MPD2    C4 5051   1.515   0.964  11.312  0.0945  0.1400  0.4542
  333MPD2    C5 5052   1.548   1.095  11.307  0.7787 -0.4641  1.0556
  333MPD2     H 5053   1.515   0.870  10.986 -0.0205 -0.9850  0.6938
  333MPD2    H1 5054   1.494   0.921  11.410  3.0886 -0.4064  0.8588
  333MPD2    H2 5055   1.592   1.251  11.167  2.0191 -0.7020 -0.1037
  333MPD2    H3 5056   1.536   1.159  11.394 -0.2412  0.5021  0.1959
  333MPD2     N 5057   1.493   0.741  11.193 -0.6506  0.1258 -0.6170
  333MPD2    H5 5058   1.505   0.699  11.102  1.2948  0.1415 -0.3648
  333MPD2    N1 5059   1.610   1.129  10.944 -0.0368  0.0155 -0.4153
  333MPD2    H7 5060   1.641   1.226  10.950  0.6202 -0.1273 -1.4749
  334TMC3    C1 5061   1.681   1.152  10.723 -0.1373  0.2055 -0.4195
  334TMC3    C2 5062   1.752   1.077  10.640  0.1530 -0.2840  0.0955
  334TMC3    C3 5063   1.878   1.127  10.595  0.8249  0.3987 -0.5697
  334TMC3    C4 5064   1.717   1.282  10.762  0.4374 -0.4726 -0.2121
  334TMC3    C5 5065   1.831   1.337  10.697  0.0176  0.2361 -1.1420
  334TMC3    C6 5066   1.916   1.255  10.619  0.9690  0.3923  0.8824
  334TMC3     C 5067   1.612   1.068  10.819 -1.4880 -0.2895 -0.1088
  334TMC3     O 5068   1.568   0.960  10.779  0.4821  0.4481 -0.6846
  334TMC3     H 5069   1.737   0.971  10.624  0.4674 -0.4858  1.0939
  334TMC3    H1 5070   1.663   1.341  10.835  0.8032 -1.2342  0.6672
  334TMC3    H2 5071   2.009   1.298  10.581 -1.3209  1.6762 -3.2807
  334TMC3    C7 5072   1.868   1.473  10.722  0.0082 -0.3843 -0.2716
  334TMC3    C8 5073   1.981   1.023  10.578  0.2918  0.1968 -0.1007
  334TMC3    O1 5074   1.990   1.491  10.726 -0.4879 -0.4250  0.2666
  334TMC3    O2 5075   1.945   0.908  10.558  0.1080  0.3058 -0.1373
  335TMC3    C1 5076   1.261   2.122   0.003 -0.0161  0.3824 -0.7269
  335TMC3    C2 5077   1.197   2.095  17.628 -0.5905 -0.0430  0.4089
  335TMC3    C3 5078   1.256   2.136  17.511  0.5493 -0.3026 -0.2233
  335TMC3    C4 5079   1.374   2.199   0.002  0.3678 -0.3452 -1.2265
  335TMC3    C5 5080   1.422   2.245  17.621 -0.2552  0.1472  0.3748
  335TMC3    C6 5081   1.361   2.220  17.504  0.6388  0.8929  0.4199
  335TMC3     C 5082   1.260   2.019   0.102 -0.0511  0.1928  0.6207
  335TMC3     O 5083   1.202   1.915   0.071  0.1441 -0.0435 -0.2972
  335TMC3     H 5084   1.108   2.034  17.642 -1.0664  0.6070  0.2058
  335TMC3    H1 5085   1.426   2.206   0.097  0.7435 -0.8455 -1.3966
  335TMC3    H2 5086   1.408   2.254  17.413  0.2131  2.4429  0.7888
  335TMC3    C7 5087   1.516   2.351  17.611  0.5330  0.2251  0.0805
  335TMC3    C8 5088   1.195   2.110  17.384 -0.0659  0.0593 -0.0771
  335TMC3    O1 5089   1.571   2.367  17.504 -0.5683  0.2390  0.3263
  335TMC3    O2 5090   1.226   2.182  17.290 -0.0991 -0.3240 -0.5084
  336MPD2     C 5091   0.295   0.103  16.148  0.3871 -0.7515  0.1267
  336MPD2    C1 5092   0.394   0.118  16.057 -0.1939 -0.1349  0.8790
  336MPD2    C2 5093   0.509   0.046  16.059  0.1331 -0.4682  0.2953
  336MPD2    C3 5094   0.515   4.694  16.163 -0.6406  0.3130 -0.6242
  336MPD2    C4 5095   0.422   4.682  16.262 -0.4880 -0.4304 -0.2958
  336MPD2    C5 5096   0.309   0.024  16.258 -0.5292  0.4128 -0.3594
  336MPD2     H 5097   0.594   0.053  15.992  0.8595  0.7579  1.3561
  336MPD2    H1 5098   0.428   4.613  16.345  0.0340 -0.7666 -0.6069
  336MPD2    H2 5099   0.208   0.168  16.139  0.2213 -0.7499  1.7959
  336MPD2    H3 5100   0.233   0.007  16.333  0.9067 -1.0756  0.7611
  336MPD2     N 5101   0.638   4.626  16.187  0.6652 -0.0514 -0.1065
  336MPD2    H5 5102   0.641   4.577  16.276 -1.0782 -0.7231 -0.4079
  336MPD2    N1 5103   0.367   0.224  15.961 -0.1350  0.2342  0.6749
  336MPD2    H7 5104   0.270   0.254  15.951 -0.1464  0.9236  2.8480
  337TMC3    C1 5105   0.427   0.372  15.798 -0.0965  0.4390  0.1380
  337TMC3    C2 5106   0.304   0.341  15.741  0.0796 -0.1962  0.0557
  337TMC3    C3 5107   0.271   0.392  15.622  0.3704 -0.0995 -0.1069
  337TMC3    C4 5108   0.524   0.440  15.729  0.4648  0.6596 -0.0478
  337TMC3    C5 5109   0.484   0.497  15.608 -0.7998  0.1743 -1.6565
  337TMC3    C6 5110   0.356   0.476  15.554 -0.0979 -0.6577 -0.4306
  337TMC3     C 5111   0.471   0.280  15.892 -0.8427 -0.4730  0.5881
  337TMC3     O 5112   0.590   0.258  15.898  0.4058  0.7166 -0.0222
  337TMC3     H 5113   0.229   0.269  15.771 -1.1263  0.8344 -0.4618
  337TMC3    H1 5114   0.627   0.448  15.763  0.3411  0.3594  0.3810
  337TMC3    H2 5115   0.328   0.522  15.460 -0.7321  0.7510  0.4459
  337TMC3    C7 5116   0.590   0.562  15.526 -0.1382 -0.7027 -0.6845
  337TMC3    C8 5117   0.137   0.358  15.571  0.1756  0.5453  0.3996
  337TMC3    O1 5118   0.704   0.527  15.547  0.1090 -0.3254  0.6804
  337TMC3    O2 5119   0.043   0.328  15.646 -0.6828 -0.2893 -0.9146
  338MPD2     C 5120   0.692   3.635   0.943  0.2957 -0.0549  0.5788
  338MPD2    C1 5121   0.739   3.761   0.930  0.1646 -0.4134  0.3090
  338MPD2    C2 5122   0.652   3.866   0.937 -0.0160 -0.1535  0.2548
  338MPD2    C3 5123   0.514   3.844   0.968  0.2821 -0.2941 -0.5087
  338MPD2    C4 5124   0.470   3.715   0.995 -0.4029 -0.4092  0.1430
  338MPD2    C5 5125   0.565   3.613   0.983 -0.3709 -0.6824 -0.2122
  338MPD2     H 5126   0.687   3.968   0.928 -2.4311  0.4263 -2.6663
  338MPD2    H1 5127   0.370   3.686   1.024 -0.8109 -0.0206 -0.8678
  338MPD2    H2 5128   0.756   3.554   0.909  1.1244  0.2940  1.3227
  338MPD2    H3 5129   0.538   3.509   0.981  1.3065 -1.0993 -1.9680
  338MPD2     N 5130   0.429   3.960   0.976  0.1808  0.2884  0.0851
  338MPD2    H5 5131   0.476   4.049   0.961  0.3569  0.3768  1.1700
  338MPD2    N1 5132   0.877   3.791   0.912  0.7684 -0.0567 -0.1195
  338MPD2    H7 5133   0.901   3.888   0.894  0.4757 -0.0050 -0.2348
  339TMC3    C1 5134   0.241   4.095   1.007 -0.4400 -0.1192 -0.3991
  339TMC3    C2 5135   0.155   4.128   1.114 -0.2679  0.2968  0.2475
  339TMC3    C3 5136   0.117   4.257   1.137  0.2594  0.2651  0.0984
  339TMC3    C4 5137   0.287   4.196   0.928 -0.6958  0.7644 -0.0623
  339TMC3    C5 5138   0.235   4.323   0.942 -0.1630 -0.3960  0.2569
  339TMC3    C6 5139   0.152   4.355   1.051 -0.5520 -0.1729  0.3977
  339TMC3     C 5140   0.297   3.960   1.003 -0.1740  0.2328  0.3278
  339TMC3     O 5141   0.212   3.872   1.040  0.4486  0.5360 -0.0539
  339TMC3     H 5142   0.126   4.053   1.187  1.0686 -0.2174  0.2401
  339TMC3    H1 5143   0.369   4.177   0.859  1.1410  0.0969  2.3270
  339TMC3    H2 5144   0.119   4.456   1.071 -0.0807 -0.3866  2.2574
  339TMC3    C7 5145   0.295   4.433   0.874  0.4971  0.4960 -0.4559
  339TMC3    C8 5146   0.106   4.296   1.281 -0.0767  0.4164 -0.1990
  339TMC3    O1 5147   0.286   4.539   0.937 -0.3183  0.4787 -1.1297
  339TMC3    O2 5148   0.170   4.392   1.322 -0.0278  0.6156  0.4951
  340MPD2     C 5149   1.109   2.776   9.562  0.4468 -0.5665  0.6318
  340MPD2    C1 5150   1.114   2.672   9.647  0.5745 -0.3588  0.2009
  340MPD2    C2 5151   1.079   2.698   9.783 -0.4532  0.8334 -0.4625
  340MPD2    C3 5152   1.060   2.830   9.830  0.7334  0.4175  0.3723
  340MPD2    C4 5153   1.057   2.930   9.738 -0.6277  0.3602 -0.6875
  340MPD2    C5 5154   1.081   2.905   9.604  0.1179 -0.0582 -0.1258
  340MPD2     H 5155   1.066   2.614   9.850 -1.2270  0.6518 -0.8470
  340MPD2    H1 5156   1.051   3.034   9.768 -0.0510  0.7978 -2.1108
  340MPD2    H2 5157   1.135   2.761   9.458  0.7416 -0.4402  0.6867
  340MPD2    H3 5158   1.075   2.985   9.531  0.2031  0.2773  0.2367
  340MPD2     N 5159   1.036   2.865   9.966  0.0209 -0.4825  0.4421
  340MPD2    H5 5160   1.025   2.963   9.990  0.0421 -0.1739 -0.7649
  340MPD2    N1 5161   1.156   2.549   9.596  0.6458 -0.1348  0.0516
  340MPD2    H7 5162   1.205   2.548   9.507  0.6877  1.1190  0.0596
  341TMC3    C1 5163   1.230   2.317   9.591  0.3699  0.2217  0.6781
  341TMC3    C2 5164   1.218   2.189   9.631 -0.5319 -0.1247  0.9831
  341TMC3    C3 5165   1.310   2.106   9.578 -0.1827  0.1918 -0.8190
  341TMC3    C4 5166   1.326   2.367   9.510  0.3210 -0.0633  0.1095
  341TMC3    C5 5167   1.424   2.274   9.468 -0.2265 -0.1211  0.0689
  341TMC3    C6 5168   1.410   2.145   9.500  0.2643  0.4342 -0.2595
  341TMC3     C 5169   1.141   2.420   9.653 -0.5391  0.2015  0.3990
  341TMC3     O 5170   1.071   2.379   9.746 -1.1631  0.3404 -0.3987
  341TMC3     H 5171   1.138   2.156   9.696 -1.0011 -0.7477  0.0760
  341TMC3    H1 5172   1.357   2.471   9.514  2.2911 -0.5923 -1.6176
  341TMC3    H2 5173   1.499   2.085   9.490  0.5305  0.5091  1.6365
  341TMC3    C7 5174   1.562   2.323   9.446 -0.4597 -0.5288 -0.5612
  341TMC3    C8 5175   1.263   1.969   9.576  0.1614  0.2326 -0.0463
  341TMC3    O1 5176   1.656   2.244   9.448  0.1930 -0.4443 -0.5569
  341TMC3    O2 5177   1.192   1.932   9.673 -0.5783  1.2699 -0.3330
  342MPD2     C 5178   3.845   0.404   0.317 -0.0802  0.5464  0.2230
  342MPD2    C1 5179   3.908   0.427   0.192 -0.6835  0.5172  0.0135
  342MPD2    C2 5180   3.915   0.560   0.150  0.0349 -0.6634  0.1837
  342MPD2    C3 5181   3.876   0.662   0.236  0.0058  0.1067 -0.3370
  342MPD2    C4 5182   3.815   0.634   0.352 -0.2992 -0.5482  0.3030
  342MPD2    C5 5183   3.795   0.503   0.392 -0.4866  0.1476 -0.4691
  342MPD2     H 5184   3.970   0.569   0.058 -1.2945 -0.9535 -0.6377
  342MPD2    H1 5185   3.791   0.716   0.418  0.2162  0.0303 -0.2260
  342MPD2    H2 5186   3.846   0.306   0.362 -0.9063  0.0526 -0.8048
  342MPD2    H3 5187   3.736   0.471   0.477 -0.9732  1.0058 -0.4850
  342MPD2     N 5188   3.900   0.800   0.199 -0.0467  0.2389  0.1769
  342MPD2    H5 5189   3.867   0.875   0.259 -1.5402 -0.3121  0.0499
  342MPD2    N1 5190   3.984   0.332   0.116 -0.8136 -0.6237  0.0058
  342MPD2    H7 5191   4.059   0.372   0.061 -0.8439 -2.1756 -1.1924
  343TMC3    C1 5192   4.058   0.106   0.060 -0.2046 -0.5115 -0.5919
  343TMC3    C2 5193   4.163   0.160  17.723 -0.0787 -0.2163 -0.0092
  343TMC3    C3 5194   4.244   0.078  17.653  0.3731 -0.4290 -0.3615
  343TMC3    C4 5195   4.028   4.710   0.058  0.0474  0.3899  0.5173
  343TMC3    C5 5196   4.112   4.631  17.737 -0.9718  0.2584  0.7238
  343TMC3    C6 5197   4.220   4.679  17.664 -0.1133 -0.2202  1.0437
  343TMC3     C 5198   3.980   0.198   0.143 -0.3915 -0.1852  0.0208
  343TMC3     O 5199   3.898   0.142   0.216  0.1895  0.1266  0.5158
  343TMC3     H 5200   4.188   0.265  17.736  0.0574 -0.1218 -1.0666
  343TMC3    H1 5201   3.948   4.664   0.115  0.0551 -1.1983 -0.7848
  343TMC3    H2 5202   4.292   4.609  17.625 -0.8190  0.3125 -1.2356
  343TMC3    C7 5203   4.077   4.494  17.716 -0.3645  0.0066 -0.0584
  343TMC3    C8 5204   4.383   0.117  17.634  0.0926  0.4020  0.9425
  343TMC3    O1 5205   4.085   4.454  17.599  0.2147 -0.0495 -0.1808
  343TMC3    O2 5206   4.431   0.210  17.698  0.2517  0.8119  0.0197
  344MPD2     C 5207   0.613   4.507  10.685 -0.0072  0.2861 -0.6370
  344MPD2    C1 5208   0.503   4.536  10.611  0.1246 -0.8479  0.7391
  344MPD2    C2 5209   0.499   4.656  10.541  0.7038  0.1259  0.4214
  344MPD2    C3 5210   0.596   0.012  10.552 -0.6294 -0.1548  0.2953
  344MPD2    C4 5211   0.708   4.709  10.616  0.9092 -0.1736  1.6871
  344MPD2    C5 5212   0.718   4.597  10.689  0.3183 -0.6896 -0.5139
  344MPD2     H 5213   0.411   4.685  10.484  1.6722 -0.0062 -1.1622
  344MPD2    H1 5214   0.793   0.040  10.607  1.3388 -0.6624  2.2130
  344MPD2    H2 5215   0.616   4.415  10.742 -1.1209 -0.3638 -1.6289
  344MPD2    H3 5216   0.811   4.588  10.744 -0.9886 -1.8773  1.5038
  344MPD2     N 5217   0.580   0.148  10.510 -0.4067  0.1199 -0.4436
  344MPD2    H5 5218   0.646   0.223  10.530  0.9303 -0.9259 -0.9235
  344MPD2    N1 5219   0.386   4.459  10.615 -0.0739 -0.3489  0.3133
  344MPD2    H7 5220   0.306   4.496  10.564 -1.4301 -0.6095  2.2747
  345TMC3    C1 5221   0.508   0.325  10.376 -0.9011  0.2676  0.5298
  345TMC3    C2 5222   0.501   0.422  10.473  0.4743  0.6285 -0.3129
  345TMC3    C3 5223   0.503   0.555  10.438 -0.0199 -0.3012  0.3998
  345TMC3    C4 5224   0.513   0.358  10.242  0.0495  0.6424  0.1718
  345TMC3    C5 5225   0.523   0.490  10.207 -0.9735 -0.0518 -0.1020
  345TMC3    C6 5226   0.524   0.588  10.304 -0.5599  0.0537  0.0906
  345TMC3     C 5227   0.482   0.188  10.417  0.3455 -0.3025  0.8790
  345TMC3     O 5228   0.407   0.125  10.344 -0.2516  0.2420 -0.2260
  345TMC3     H 5229   0.488   0.394  10.577  0.9677 -0.3698 -0.5232
  345TMC3    H1 5230   0.518   0.279  10.167 -0.3331 -0.6179  1.4640
  345TMC3    H2 5231   0.557   0.687  10.276  0.2489 -0.1094  0.4796
  345TMC3    C7 5232   0.557   0.520  10.063 -0.9422  0.5880  0.4438
  345TMC3    C8 5233   0.494   0.655  10.542 -0.1601 -0.3150  0.2719
  345TMC3    O1 5234   0.581   0.421   9.995  0.1934  0.1369  0.2192
  345TMC3    O2 5235   0.479   0.616  10.655  0.1715  0.2453 -0.1016
  346MPD2     C 5236   0.273   1.277  14.080 -0.0903 -0.4776  0.1121
  346MPD2    C1 5237   0.218   1.374  13.991  0.1874 -0.0725  0.0064
  346MPD2    C2 5238   0.143   1.480  14.043 -0.3190 -0.4462 -0.4758
  346MPD2    C3 5239   0.113   1.482  14.178  0.2270  0.0626  0.0267
  346MPD2    C4 5240   0.179   1.397  14.262  0.8482 -0.7688  0.5688
  346MPD2    C5 5241   0.247   1.292  14.215 -0.3149 -0.1275 -0.0314
  346MPD2     H 5242   0.098   1.558  13.982 -1.0744  0.4633  1.2590
  346MPD2    H1 5243   0.172   1.408  14.370  3.1692 -1.6383  0.7886
  346MPD2    H2 5244   0.335   1.195  14.046  1.8033  1.6470 -1.5994
  346MPD2    H3 5245   0.290   1.212  14.274 -1.4666  0.8341  2.1129
  346MPD2     N 5246   0.038   1.587  14.231 -0.1463 -0.1163 -0.4792
  346MPD2    H5 5247   0.018   1.672  14.180  1.2078  1.8547  2.2423
  346MPD2    N1 5248   0.233   1.372  13.853 -0.1746 -0.2959  0.1162
  346MPD2    H7 5249   0.190   1.446  13.799  1.2092 -0.1663 -0.7814
  347TMC3    C1 5250   4.728   1.700  14.429 -0.4300 -0.3935  0.1525
  347TMC3    C2 5251   0.021   1.819  14.370  0.3116 -0.4564 -0.0906
  347TMC3    C3 5252   0.118   1.907  14.428 -0.6149 -0.3596 -0.1318
  347TMC3    C4 5253   0.033   1.679  14.559  0.4109 -0.7200 -0.2807
  347TMC3    C5 5254   0.100   1.781  14.627 -0.7777 -0.3391  0.4443
  347TMC3    C6 5255   0.141   1.893  14.559 -0.0111 -0.4077  0.5427
  347TMC3     C 5256   4.713   1.578  14.350  0.5750  0.1547 -0.4792
  347TMC3     O 5257   4.694   1.480  14.418 -0.1843  0.2341  0.1205
  347TMC3     H 5258   4.727   1.823  14.266  0.7437  1.5401 -0.1165
  347TMC3    H1 5259   4.731   1.594  14.614 -1.6464  0.4774  0.1891
  347TMC3    H2 5260   0.211   1.959  14.609 -0.7118  0.5441  0.2891
  347TMC3    C7 5261   0.105   1.776  14.769  0.2762  0.5791 -0.3348
  347TMC3    C8 5262   0.238   1.918  14.350 -0.4696 -0.1837  0.8844
  347TMC3    O1 5263   0.008   1.729  14.828 -0.3820 -0.0951 -0.0231
  347TMC3    O2 5264   0.336   1.867  14.407  0.1996  0.4632 -0.6017
  348MPD2     C 5265   3.399   1.146  12.301  0.6704  0.2877 -0.0830
  348MPD2    C1 5266   3.510   1.229  12.273  0.2615  0.4823 -0.5566
  348MPD2    C2 5267   3.509   1.328  12.178  0.4008 -0.1371 -0.4922
  348MPD2    C3 5268   3.393   1.340  12.104  0.2320 -0.4652 -0.5653
  348MPD2    C4 5269   3.281   1.264  12.130 -0.1007 -0.3029 -0.0762
  348MPD2    C5 5270   3.284   1.163  12.225  0.0038  0.5602 -0.5608
  348MPD2     H 5271   3.595   1.394  12.173 -0.4120  0.9210 -0.6832
  348MPD2    H1 5272   3.185   1.276  12.081 -0.5764  0.8832  1.1405
  348MPD2    H2 5273   3.390   1.065  12.373 -0.0572  0.0957 -0.3880
  348MPD2    H3 5274   3.190   1.123  12.261 -1.1764  0.8830 -3.2657
  348MPD2     N 5275   3.391   1.445  12.006 -0.6213 -0.4760 -0.2439
  348MPD2    H5 5276   3.472   1.506  12.004 -1.7248  1.0123  0.0430
  348MPD2    N1 5277   3.627   1.230  12.351  0.1697  0.0086  0.1617
  348MPD2    H7 5278   3.701   1.292  12.320  0.5209 -0.1880  0.6250
  349TMC3    C1 5279   3.808   1.115  12.438  0.7999  0.3841  0.0814
  349TMC3    C2 5280   3.832   0.978  12.459  0.7350 -0.2648  0.4297
  349TMC3    C3 5281   3.920   0.922  12.379  0.0783 -0.2551 -0.3293
  349TMC3    C4 5282   3.861   1.180  12.328  0.4410  0.3528 -0.9918
  349TMC3    C5 5283   3.923   1.097  12.233  0.4128  0.7678  0.1477
  349TMC3    C6 5284   3.955   0.966  12.254  0.0902  0.3004 -0.3706
  349TMC3     C 5285   3.666   1.131  12.437  0.0560  0.2280 -0.4254
  349TMC3     O 5286   3.599   1.041  12.485 -0.5926 -0.2490 -0.1946
  349TMC3     H 5287   3.807   0.934  12.555  2.8099 -1.1538  0.5541
  349TMC3    H1 5288   3.867   1.288  12.315 -1.9100  0.7224  0.9831
  349TMC3    H2 5289   4.004   0.909  12.176  0.6750 -0.0007  0.2185
  349TMC3    C7 5290   3.853   1.108  12.108  0.3134 -0.2914 -0.2061
  349TMC3    C8 5291   3.956   0.786  12.401  1.1994  0.5037  0.0536
  349TMC3    O1 5292   3.813   1.001  12.065 -0.3689  0.4620 -0.1382
  349TMC3    O2 5293   3.910   0.738  12.502 -0.4317  0.4349  0.5672
  350MPD2     C 5294   2.906   0.076   9.835 -0.1285  0.4413  0.2716
  350MPD2    C1 5295   2.978   4.694   9.803 -0.7211  0.8420  0.6483
  350MPD2    C2 5296   3.071   4.643   9.887  0.7172 -0.6250 -0.0954
  350MPD2    C3 5297   3.074   4.690  10.019  0.2625 -0.3138 -0.1460
  350MPD2    C4 5298   2.997   0.067  10.055  0.0652  0.2108  0.9148
  350MPD2    C5 5299   2.919   0.134   9.961  0.1535 -0.4033 -0.4218
  350MPD2     H 5300   3.127   4.557   9.849  0.2508 -1.1727  0.4521
  350MPD2    H1 5301   2.993   0.110  10.155 -1.0102  0.6168  0.7004
  350MPD2    H2 5302   2.825   0.117   9.776  0.1930 -0.3434 -0.7172
  350MPD2    H3 5303   2.858   0.220   9.985  1.9896 -0.0072  2.7305
  350MPD2     N 5304   3.142   4.608  10.115 -0.1701  0.5577 -0.3589
  350MPD2    H5 5305   3.183   4.526  10.072  2.5795  1.1551  1.0973
  350MPD2    N1 5306   2.961   4.627   9.680  0.0693  0.3247 -0.9679
  350MPD2    H7 5307   2.997   4.533   9.662  3.1472  1.0284  1.5942
  351TMC3    C1 5308   2.873   4.576   9.469 -0.8490  0.1031  0.4653
  351TMC3    C2 5309   2.883   4.439   9.493 -0.1367  0.6074 -0.2629
  351TMC3    C3 5310   2.848   4.353   9.391  0.4528 -0.3174 -1.3394
  351TMC3    C4 5311   2.820   4.623   9.354 -0.5746 -0.3095 -0.3894
  351TMC3    C5 5312   2.789   4.532   9.256  0.6322  0.3445  0.0605
  351TMC3    C6 5313   2.800   4.397   9.271 -0.1673 -0.4181  0.6257
  351TMC3     C 5314   2.877   4.667   9.580 -0.0501  0.4734 -0.4192
  351TMC3     O 5315   2.813   0.035   9.573  0.3526  0.8101  0.1589
  351TMC3     H 5316   2.904   4.410   9.595  0.6635 -2.0936 -1.2137
  351TMC3    H1 5317   2.802   4.729   9.335  1.7642  0.0151 -0.7905
  351TMC3    H2 5318   2.766   4.329   9.194 -0.8711  0.4234  0.1908
  351TMC3    C7 5319   2.786   4.580   9.119  0.7093 -0.1750 -0.0069
  351TMC3    C8 5320   2.865   4.210   9.415  0.2081  0.2312  0.2874
  351TMC3    O1 5321   2.826   4.503   9.034 -0.1877 -0.3504 -0.3953
  351TMC3    O2 5322   2.827   4.135   9.325 -0.2930  0.1269  0.0774
  352MPD2     C 5323   2.103   1.334   0.677 -0.4528 -0.0476 -0.0103
  352MPD2    C1 5324   1.979   1.344   0.728 -1.0340 -0.1067 -0.0652
  352MPD2    C2 5325   1.914   1.230   0.779  0.5401  1.0267  0.0194
  352MPD2    C3 5326   1.968   1.105   0.758  0.6636 -0.9695  0.2341
  352MPD2    C4 5327   2.095   1.098   0.702 -0.6397  0.2522 -0.1294
  352MPD2    C5 5328   2.159   1.211   0.667 -0.1193  0.8468 -0.5985
  352MPD2     H 5329   1.817   1.237   0.827  0.9873 -1.2544  1.2683
  352MPD2    H1 5330   2.152   1.006   0.690 -0.7878  0.5890 -3.3963
  352MPD2    H2 5331   2.160   1.416   0.635  1.3921 -0.8411  0.9356
  352MPD2    H3 5332   2.257   1.200   0.623 -0.3338  1.4350 -1.2193
  352MPD2     N 5333   1.911   0.980   0.803  0.4806 -0.0752 -0.1679
  352MPD2    H5 5334   1.967   0.897   0.790 -0.8218 -1.1771  1.2652
  352MPD2    N1 5335   1.921   1.480   0.739  0.1332 -0.7243  0.3450
  352MPD2    H7 5336   1.985   1.557   0.724  0.4725 -1.1619 -0.4443
  353TMC3    C1 5337   1.740   0.822   0.884  0.1415 -0.1051  0.0574
  353TMC3    C2 5338   1.830   0.722   0.871 -0.2066 -0.1385  0.3880
  353TMC3    C3 5339   1.800   0.590   0.897 -0.2303 -0.5514 -0.7810
  353TMC3    C4 5340   1.606   0.794   0.891 -0.2269  0.6058 -0.6460
  353TMC3    C5 5341   1.567   0.661   0.914  0.2774 -0.7266  0.2607
  353TMC3    C6 5342   1.666   0.565   0.919  0.1253 -0.3360 -0.5474
  353TMC3     C 5343   1.783   0.962   0.848  0.3923  0.8077  0.3303
  353TMC3     O 5344   1.695   1.047   0.853  0.0591 -0.5143  0.5753
  353TMC3     H 5345   1.938   0.732   0.867 -0.4287  1.8944 -0.4590
  353TMC3    H1 5346   1.527   0.869   0.884  0.0589  1.1858  2.2413
  353TMC3    H2 5347   1.645   0.467   0.959  1.9955 -1.3166 -1.9503
  353TMC3    C7 5348   1.442   0.625   0.977 -0.5935 -0.1100  0.3273
  353TMC3    C8 5349   1.904   0.486   0.888  0.0623 -0.4376 -0.0935
  353TMC3    O1 5350   1.396   0.511   0.955 -0.0341  0.1012 -0.3876
  353TMC3    O2 5351   2.024   0.506   0.894 -0.7562  0.5241 -0.5255
  354TMC3    C1 5352   2.867   2.188  13.317 -0.6453  0.5561  0.3869
  354TMC3    C2 5353   2.877   2.313  13.375 -0.1574 -0.1419 -0.4309
  354TMC3    C3 5354   2.936   2.418  13.307 -0.3617  0.2632 -0.7993
  354TMC3    C4 5355   2.918   2.163  13.189 -0.0861 -0.3822 -0.0263
  354TMC3    C5 5356   2.978   2.270  13.129 -0.1133  0.8256  0.2445
  354TMC3    C6 5357   2.992   2.391  13.185 -0.8810  0.2275  0.2876
  354TMC3     C 5358   2.866   2.080  13.409 -0.5740 -0.9229 -0.4953
  354TMC3     O 5359   2.920   2.097  13.518  0.5783  0.4738 -0.0851
  354TMC3     H 5360   2.835   2.317  13.475  0.2210 -0.7732 -0.2476
  354TMC3    H1 5361   2.927   2.067  13.140 -1.5471 -0.9357  0.7741
  354TMC3    H2 5362   3.025   2.476  13.127 -3.6918  0.7774 -0.5211
  354TMC3    C7 5363   3.086   2.240  13.043 -0.5970 -0.1596 -0.3996
  354TMC3    C8 5364   2.929   2.555  13.359  0.0600 -0.0575  0.3823
  354TMC3    O1 5365   3.065   2.162  12.955  0.2396  0.1233 -0.5488
  354TMC3    O2 5366   2.873   2.573  13.467 -0.1050  0.4998  0.3505
  355MPD2     C 5367   3.009   3.081  11.647 -0.6246 -0.3521  0.9556
  355MPD2    C1 5368   3.098   3.138  11.561 -0.5592 -0.2703 -0.3207
  355MPD2    C2 5369   3.225   3.175  11.605 -0.3357  0.1132 -0.5077
  355MPD2    C3 5370   3.258   3.172  11.739  0.1688  0.2382  0.7165
  355MPD2    C4 5371   3.162   3.136  11.833 -0.0542  0.6971 -0.3133
  355MPD2    C5 5372   3.043   3.082  11.781 -0.8783  0.2326  0.1662
  355MPD2     H 5373   3.297   3.200  11.528  0.3373  0.6393  0.2924
  355MPD2    H1 5374   3.175   3.133  11.940  0.0766  1.7107 -0.2911
  355MPD2    H2 5375   2.913   3.046  11.611  0.6887 -0.2817 -2.5801
  355MPD2    H3 5376   2.983   3.028  11.852 -1.0013 -0.6204 -0.5819
  355MPD2     N 5377   3.383   3.211  11.786  0.2266  0.5798 -0.0794
  355MPD2    H5 5378   3.393   3.242  11.882 -1.0310 -1.4424  0.7114
  355MPD2    N1 5379   3.057   3.148  11.426 -0.0480 -0.3968  0.2579
  355MPD2    H7 5380   2.976   3.095  11.396  0.1270 -0.2899 -0.3911
  356TMC3    C1 5381   3.591   3.314  11.749 -0.0820  0.5734  0.1737
  356TMC3    C2 5382   3.646   3.391  11.654  0.0006  0.0704  0.3881
  356TMC3    C3 5383   3.692   3.516  11.694  0.1388 -0.0698 -0.3117
  356TMC3    C4 5384   3.579   3.351  11.879  1.0355  0.4250 -0.2368
  356TMC3    C5 5385   3.638   3.470  11.919  0.8552 -0.3046  0.3283
  356TMC3    C6 5386   3.695   3.556  11.823 -0.5454 -0.3174 -0.1008
  356TMC3     C 5387   3.488   3.230  11.696 -0.2582  0.1152 -0.0404
  356TMC3     O 5388   3.507   3.178  11.589  0.0203  0.0257 -0.3279
  356TMC3     H 5389   3.633   3.372  11.549  0.1229  0.3341  0.3246
  356TMC3    H1 5390   3.530   3.290  11.953 -0.6200  0.8479 -0.9906
  356TMC3    H2 5391   3.732   3.654  11.850 -2.2198  0.2476  0.1987
  356TMC3    C7 5392   3.643   3.495  12.058  0.4376 -0.1975  0.1882
  356TMC3    C8 5393   3.703   3.610  11.585 -0.2567 -1.0337 -0.2509
  356TMC3    O1 5394   3.643   3.397  12.133  0.1852 -0.1647  0.3754
  356TMC3    O2 5395   3.625   3.589  11.498  0.1739  0.1212  0.1197
  357MPD2     C 5396   3.194   2.977   0.704 -0.2015  0.1103  0.1544
  357MPD2    C1 5397   3.149   2.899   0.807  0.0534  0.4603  0.0616
  357MPD2    C2 5398   3.023   2.923   0.859 -0.1395 -0.0625 -0.2473
  357MPD2    C3 5399   2.949   3.032   0.809 -0.2714  0.3643 -0.4410
  357MPD2    C4 5400   3.004   3.109   0.709  0.3278 -0.0099 -0.4933
  357MPD2    C5 5401   3.123   3.075   0.651  0.6520 -0.6645 -0.2779
  357MPD2     H 5402   2.992   2.863   0.944 -0.2302 -2.2639 -1.8385
  357MPD2    H1 5403   2.941   3.185   0.666 -0.8359 -1.7683 -1.8881
  357MPD2    H2 5404   3.283   2.945   0.650 -0.1216 -3.2783  2.2831
  357MPD2    H3 5405   3.148   3.123   0.557  0.7217  0.8408  0.5066
  357MPD2     N 5406   2.817   3.057   0.849  0.2672 -0.0103  0.0809
  357MPD2    H5 5407   2.765   3.119   0.788 -1.1952 -1.0461  0.2647
  357MPD2    N1 5408   3.236   2.802   0.859 -0.0719  0.7653 -0.1671
  357MPD2    H7 5409   3.319   2.791   0.800  2.7770 -1.9763  4.3599
  358TMC3    C1 5410   3.314   2.611   0.969 -0.4535 -0.4854 -0.4227
  358TMC3    C2 5411   3.334   2.556   0.845  0.3268  0.2996  0.0465
  358TMC3    C3 5412   3.368   2.420   0.842  0.2624 -0.0837 -0.2907
  358TMC3    C4 5413   3.295   2.536   1.080 -0.5340  0.5025 -0.5304
  358TMC3    C5 5414   3.327   2.399   1.070 -0.3318 -0.1637 -0.6710
  358TMC3    C6 5415   3.364   2.338   0.953  1.0730 -1.0975  0.2477
  358TMC3     C 5416   3.222   2.719   0.969  0.7455  0.4267 -0.4277
  358TMC3     O 5417   3.145   2.731   1.062 -0.3576  0.2359 -0.0635
  358TMC3     H 5418   3.332   2.614   0.754  0.7940 -1.5581 -1.1571
  358TMC3    H1 5419   3.293   2.587   1.175  0.8002  0.2140 -0.3392
  358TMC3    H2 5420   3.415   2.242   0.955  1.0238 -1.1068  0.9792
  358TMC3    C7 5421   3.340   2.321   1.194 -0.2903  0.6042  0.0683
  358TMC3    C8 5422   3.352   2.362   0.708 -0.4159  1.4113  0.3345
  358TMC3    O1 5423   3.420   2.228   1.194  0.2565  0.0562 -0.1744
  358TMC3    O2 5424   3.387   2.430   0.615 -0.2352 -0.0270 -0.2717
  359MPD2     C 5425   3.410   1.666  12.368  0.6636 -0.2614  0.0239
  359MPD2    C1 5426   3.330   1.733  12.277  0.0407  0.2696 -0.2031
  359MPD2    C2 5427   3.205   1.687  12.241  0.8565 -0.6059 -0.6528
  359MPD2    C3 5428   3.163   1.555  12.286  1.3390  0.4258 -0.6184
  359MPD2    C4 5429   3.250   1.491  12.372  0.3335 -0.7420 -0.2552
  359MPD2    C5 5430   3.366   1.547  12.419 -0.3161  0.5191  0.1578
  359MPD2     H 5431   3.142   1.742  12.172  0.8351  0.9033  0.5898
  359MPD2    H1 5432   3.215   1.404  12.426  0.3166 -0.2907  0.4560
  359MPD2    H2 5433   3.497   1.708  12.417  0.7040 -1.0737  0.6421
  359MPD2    H3 5434   3.428   1.496  12.492 -1.1510  2.6051  2.3111
  359MPD2     N 5435   3.043   1.491  12.239 -0.2960  0.0499 -0.1408
  359MPD2    H5 5436   3.023   1.400  12.280  1.4391  0.5259  1.7644
  359MPD2    N1 5437   3.370   1.861  12.232 -0.0299  0.4892 -0.1302
  359MPD2    H7 5438   3.290   1.913  12.199 -0.4043  1.0451  1.6351
  360TMC3    C1 5439   3.501   2.030  12.151 -0.0633  0.1701 -0.3293
  360TMC3    C2 5440   3.611   2.109  12.169 -0.4400  0.0520 -0.1194
  360TMC3    C3 5441   3.603   2.234  12.111  0.1711 -0.5195 -0.6182
  360TMC3    C4 5442   3.406   2.057  12.057  0.0201 -0.2673 -0.0277
  360TMC3    C5 5443   3.408   2.175  11.990  0.0990 -0.1840  0.3549
  360TMC3    C6 5444   3.505   2.271  12.025  0.2298 -0.4699  0.6184
  360TMC3     C 5445   3.497   1.911  12.228  0.9270  0.1216 -0.5571
  360TMC3     O 5446   3.596   1.842  12.252 -0.8986 -0.7575  0.0480
  360TMC3     H 5447   3.669   2.081  12.256 -0.6662 -0.0468  0.0017
  360TMC3    H1 5448   3.338   1.982  12.018  1.4462 -1.1157 -0.9017
  360TMC3    H2 5449   3.512   2.357  11.959 -1.1068  0.0548  1.1506
  360TMC3    C7 5450   3.388   2.170  11.843 -1.0144 -0.1192 -0.2134
  360TMC3    C8 5451   3.728   2.313  12.096  0.0217 -0.3830 -0.4631
  360TMC3    O1 5452   3.467   2.230  11.771 -0.5500 -0.2325  0.2003
  360TMC3    O2 5453   3.710   2.434  12.090  0.5981 -0.8109  0.0673
  361MPD2     C 5454   4.691   0.736  16.972 -0.1741 -0.0832  0.8773
  361MPD2    C1 5455   0.014   0.837  17.047 -0.2781  0.3620  0.4466
  361MPD2    C2 5456   0.149   0.827  17.072 -0.3134  0.1714  0.1805
  361MPD2    C3 5457   0.226   0.721  17.025  0.0550 -0.4777 -0.2794
  361MPD2    C4 5458   0.166   0.622  16.947 -0.1735  0.3639 -0.3347
  361MPD2    C5 5459   0.035   0.635  16.920  0.0955  0.0537  0.3588
  361MPD2     H 5460   0.190   0.906  17.133  0.8080  0.5827 -1.1030
  361MPD2    H1 5461   0.223   0.540  16.904 -0.3138 -0.0283  0.2343
  361MPD2    H2 5462   4.584   0.732  16.955  0.5085 -2.3578 -2.8669
  361MPD2    H3 5463   4.710   0.558  16.874  0.3624 -0.0600  0.1943
  361MPD2     N 5464   0.359   0.695  17.068 -0.0492 -0.5552 -0.1466
  361MPD2    H5 5465   0.393   0.601  17.053  2.2885  0.3780 -0.6910
  361MPD2    N1 5466   4.674   0.940  17.102 -0.5654  0.5187 -0.5260
  361MPD2    H7 5467   4.726   1.024  17.125  0.1423 -0.5302  1.6345
  362TMC3    C1 5468   4.475   1.048  17.180 -0.2350 -0.5934 -0.1825
  362TMC3    C2 5469   4.365   1.029  17.253 -0.2499  0.3967 -0.0492
  362TMC3    C3 5470   4.299   1.136  17.300 -0.3938 -0.3829 -0.3460
  362TMC3    C4 5471   4.517   1.171  17.134 -0.0959  0.2350 -0.0381
  362TMC3    C5 5472   4.437   1.277  17.176 -0.9980 -0.6056  0.0143
  362TMC3    C6 5473   4.322   1.266  17.250  0.0717  0.6793 -0.4185
  362TMC3     C 5474   4.542   0.926  17.138  0.4678 -0.1551  0.2203
  362TMC3     O 5475   4.478   0.820  17.138 -0.3750  0.6219 -0.2683
  362TMC3     H 5476   4.338   0.931  17.291  0.9103 -0.1525 -0.6184
  362TMC3    H1 5477   4.604   1.181  17.071  1.7773  2.2356  2.8669
  362TMC3    H2 5478   4.257   1.353  17.262 -2.1783 -0.9646 -0.6184
  362TMC3    C7 5479   4.448   1.386  17.091 -0.6809  0.4369 -0.4394
  362TMC3    C8 5480   4.179   1.110  17.387  0.1440 -0.2173  0.2710
  362TMC3    O1 5481   4.349   1.455  17.056  0.4674 -0.1330 -0.8663
  362TMC3    O2 5482   4.151   0.991  17.405 -0.3806  0.5377 -0.3661
  363TMC3    C1 5483   3.218   2.690   8.962 -0.6101  0.7834 -0.1886
  363TMC3    C2 5484   3.290   2.682   9.078 -0.5542  0.0024  0.2976
  363TMC3    C3 5485   3.294   2.802   9.141 -0.4767  0.1079  0.2482
  363TMC3    C4 5486   3.171   2.800   8.902 -0.0986  0.2528 -0.5257
  363TMC3    C5 5487   3.184   2.913   8.971  0.3251 -0.4617 -0.2454
  363TMC3    C6 5488   3.232   2.919   9.099  0.9785  0.1253  0.2906
  363TMC3     C 5489   3.212   2.563   8.886 -0.3640 -0.6315 -0.1039
  363TMC3     O 5490   3.304   2.486   8.901  0.0779  0.1664  0.2736
  363TMC3     H 5491   3.322   2.583   9.108  3.4980  0.2824 -3.1053
  363TMC3    H1 5492   3.144   2.793   8.798  0.3564  0.2051 -0.6393
  363TMC3    H2 5493   3.228   3.009   9.161  1.5228 -0.0842  0.6344
  363TMC3    C7 5494   3.160   3.033   8.895 -0.0239  0.8753 -0.1154
  363TMC3    C8 5495   3.385   2.826   9.258 -0.6088 -0.0621  0.5301
  363TMC3    O1 5496   3.109   3.015   8.785  0.4909  0.2782  0.4076
  363TMC3    O2 5497   3.354   2.921   9.330 -0.1777  0.4121 -0.0162
  364MPD2     C 5498   2.836   3.302  10.600 -0.7040  0.0595  0.5152
  364MPD2    C1 5499   2.965   3.284  10.549  0.0047  0.5195  0.2829
  364MPD2    C2 5500   2.994   3.155  10.504  0.5466 -0.1145 -0.2717
  364MPD2    C3 5501   2.901   3.056  10.506 -0.2708  0.1486  0.1715
  364MPD2    C4 5502   2.775   3.077  10.552  0.0277 -0.2363 -0.7432
  364MPD2    C5 5503   2.746   3.197  10.605 -0.3302 -0.1787  0.0564
  364MPD2     H 5504   3.094   3.128  10.474  1.2096  0.1163  1.6863
  364MPD2    H1 5505   2.704   2.996  10.561 -0.2663  0.1895  0.7278
  364MPD2    H2 5506   2.805   3.390  10.656  0.8636  0.5944  0.5244
  364MPD2    H3 5507   2.654   3.207  10.662  1.1443 -0.7701  2.5444
  364MPD2     N 5508   2.929   2.924  10.459  0.3875 -0.4445  0.7598
  364MPD2    H5 5509   2.849   2.862  10.453 -0.5615  0.6762  1.8552
  364MPD2    N1 5510   3.053   3.391  10.554 -0.5693 -0.0256 -0.5663
  364MPD2    H7 5511   3.026   3.475  10.604 -1.0749  1.3241 -3.1025
  365TMC3    C1 5512   3.207   3.532  10.456 -0.3575  0.8728  0.1265
  365TMC3    C2 5513   3.207   3.564  10.321  0.2289 -0.2185 -0.0094
  365TMC3    C3 5514   3.208   3.693  10.292  0.4660 -0.4678  0.4079
  365TMC3    C4 5515   3.187   3.631  10.551  0.5838 -0.2658 -0.2599
  365TMC3    C5 5516   3.197   3.760  10.515  0.6179  0.2395  0.3538
  365TMC3    C6 5517   3.218   3.794  10.381 -0.5335  0.2745  0.5049
  365TMC3     C 5518   3.172   3.394  10.480 -0.3295  0.4696  0.6149
  365TMC3     O 5519   3.201   3.316  10.387  0.0786 -0.1221 -0.2119
  365TMC3     H 5520   3.225   3.493  10.240 -0.5026 -1.1556  0.6530
  365TMC3    H1 5521   3.165   3.603  10.654  0.1162 -2.6097 -0.9817
  365TMC3    H2 5522   3.212   3.898  10.351  0.1629 -0.9814 -3.9737
  365TMC3    C7 5523   3.190   3.862  10.614  0.0092 -0.0468  0.0910
  365TMC3    C8 5524   3.107   3.718  10.194  0.6549  0.4783 -0.2734
  365TMC3    O1 5525   3.240   3.968  10.575 -0.0062 -0.1170  0.0800
  365TMC3    O2 5526   3.111   3.827  10.130  0.3697  0.0230  0.2984
  366MPD2     C 5527   0.193   4.457  15.598  0.0921  0.1641 -0.4220
  366MPD2    C1 5528   0.326   4.424  15.571 -0.1742 -0.2497 -0.1603
  366MPD2    C2 5529   0.364   4.294  15.549 -0.0956 -0.2718 -0.2077
  366MPD2    C3 5530   0.270   4.198  15.553  0.0023  0.0460 -0.0684
  366MPD2    C4 5531   0.134   4.232  15.578  0.1236  0.0576 -0.4364
  366MPD2    C5 5532   0.098   4.359  15.599 -0.4833  0.4755 -0.4827
  366MPD2     H 5533   0.470   4.272  15.540 -0.1579 -0.2368 -1.0030
  366MPD2    H1 5534   0.056   4.157  15.588 -0.1661  0.5382  0.8562
  366MPD2    H2 5535   0.159   4.558  15.619  0.3059  0.3092 -0.7798
  366MPD2    H3 5536   4.725   4.372  15.608 -0.4397  0.3800  0.1463
  366MPD2     N 5537   0.322   4.068  15.544 -0.1117  0.1780 -0.3063
  366MPD2    H5 5538   0.423   4.063  15.550 -0.2189 -2.2900 -0.5695
  366MPD2    N1 5539   0.428   4.523  15.570  0.7640 -0.5379 -0.3101
  366MPD2    H7 5540   0.514   4.512  15.517  0.6185 -0.1452 -0.6286
  367TMC3    C1 5541   0.539   4.726  15.588  0.6677  0.4593 -0.3043
  367TMC3    C2 5542   0.632   0.039  15.672  0.0856  0.7382  0.5706
  367TMC3    C3 5543   0.749   0.085  15.613 -0.1579  0.5565 -0.4468
  367TMC3    C4 5544   0.564   4.724  15.452 -0.0481 -0.1169  0.7588
  367TMC3    C5 5545   0.668   0.055  15.398 -0.0416  0.2219 -0.1753
  367TMC3    C6 5546   0.774   0.095  15.479  0.6282  0.0099 -0.2594
  367TMC3     C 5547   0.424   4.642  15.632  0.2665  0.0864 -0.3534
  367TMC3     O 5548   0.356   4.686  15.725 -0.3763  0.2136 -0.3250
  367TMC3     H 5549   0.619   0.028  15.779 -1.1933  0.6887  0.4080
  367TMC3    H1 5550   0.487   4.688  15.385  0.6149 -1.2717  0.6285
  367TMC3    H2 5551   0.866   0.130  15.434  0.4144  0.9640  0.0278
  367TMC3    C7 5552   0.654   0.073  15.256  0.2368 -0.1421  0.0860
  367TMC3    C8 5553   0.865   0.092  15.692 -0.4825 -0.0681 -0.5171
  367TMC3    O1 5554   0.568   0.008  15.198  0.0266  0.0526 -0.0673
  367TMC3    O2 5555   0.973   0.080  15.643 -0.2757  0.0657  0.5090
  368MPD2     C 5556   2.050   0.906  13.328 -0.1382 -0.2018 -0.1997
  368MPD2    C1 5557   2.071   0.999  13.230  0.1099 -0.3290 -0.4490
  368MPD2    C2 5558   2.197   0.989  13.161  0.3395 -0.0600  1.3922
  368MPD2    C3 5559   2.302   0.914  13.207  0.7740  0.4073  0.1223
  368MPD2    C4 5560   2.282   0.842  13.319 -1.0401  0.4631 -0.0709
  368MPD2    C5 5561   2.160   0.830  13.370 -0.2391 -0.7035  0.1467
  368MPD2     H 5562   2.211   1.044  13.068 -0.2246 -2.5441 -0.1568
  368MPD2    H1 5563   2.372   0.804  13.366 -0.6550  0.6507 -0.6535
  368MPD2    H2 5564   1.960   0.903  13.389  0.8766 -1.1520  1.2379
  368MPD2    H3 5565   2.151   0.772  13.461 -1.8174 -3.0072 -1.4921
  368MPD2     N 5566   2.430   0.925  13.147 -0.2681 -0.2511 -0.9148
  368MPD2    H5 5567   2.497   0.857  13.183  0.3221  0.7093 -0.1976
  368MPD2    N1 5568   1.967   1.077  13.183 -0.1353  0.8630 -0.2411
  368MPD2    H7 5569   1.874   1.046  13.209  0.7220 -0.6186  1.0845
  369TMC3    C1 5570   1.878   1.215  13.022 -0.4815 -0.2074 -0.2772
  369TMC3    C2 5571   1.903   1.283  12.909  0.1264 -0.0338 -0.5256
  369TMC3    C3 5572   1.824   1.281  12.803 -0.1036 -0.0377 -0.6416
  369TMC3    C4 5573   1.770   1.132  13.022  0.0591  0.2689  0.4690
  369TMC3    C5 5574   1.684   1.132  12.911  0.3049  0.1313  0.6836
  369TMC3    C6 5575   1.714   1.211  12.796  0.5492 -0.1963 -0.3357
  369TMC3     C 5576   1.992   1.185  13.096  0.2057 -0.4715 -0.1442
  369TMC3     O 5577   2.099   1.241  13.065  0.2970 -0.1583  0.4362
  369TMC3     H 5578   1.986   1.354  12.913 -1.4696  1.8921 -1.6257
  369TMC3    H1 5579   1.737   1.093  13.117 -1.3029  0.4731  0.0714
  369TMC3    H2 5580   1.662   1.211  12.700  1.4602 -1.3618 -0.8260
  369TMC3    C7 5581   1.579   1.030  12.922  0.4830 -0.2896  0.2355
  369TMC3    C8 5582   1.879   1.335  12.687 -0.3591  0.4971  0.3928
  369TMC3    O1 5583   1.591   0.956  13.019 -0.3642 -0.8413 -0.1942
  369TMC3    O2 5584   1.826   1.422  12.618  0.5878  0.2677  0.2768
  370TMC3    C1 5585   1.367   1.873  16.497  0.9947 -0.6183  0.2215
  370TMC3    C2 5586   1.301   1.769  16.566  0.1639  0.6653 -0.7098
  370TMC3    C3 5587   1.269   1.650  16.508  0.1807  0.4468  0.5567
  370TMC3    C4 5588   1.394   1.849  16.358  0.4147 -0.4107  0.1546
  370TMC3    C5 5589   1.359   1.732  16.308 -0.5618  0.1346  0.7818
  370TMC3    C6 5590   1.294   1.624  16.375  0.1474 -0.2313  0.4905
  370TMC3     C 5591   1.446   1.968  16.574 -0.1486  0.1601 -0.0204
  370TMC3     O 5592   1.481   1.940  16.687 -0.5040 -0.5946 -0.0751
  370TMC3     H 5593   1.309   1.783  16.673  0.5153 -1.1696 -0.4963
  370TMC3    H1 5594   1.453   1.914  16.295 -0.1959  0.7476  0.7838
  370TMC3    H2 5595   1.259   1.532  16.330 -0.9470 -1.0435  2.9783
  370TMC3    C7 5596   1.407   1.697  16.172  0.0725 -0.3056  0.7481
  370TMC3    C8 5597   1.214   1.543  16.586 -0.0415  0.2482 -0.1500
  370TMC3    O1 5598   1.431   1.784  16.087 -0.0533  0.2498 -0.0697
  370TMC3    O2 5599   1.221   1.432  16.542  0.0157 -0.6900  0.8025
  371TMC3    C1 5600   2.630   0.241  15.466 -0.0331  0.3796  0.8234
  371TMC3    C2 5601   2.508   0.202  15.525 -0.2140 -0.0409 -0.1199
  371TMC3    C3 5602   2.423   0.306  15.551  0.6484  0.2257  0.5285
  371TMC3    C4 5603   2.660   0.369  15.427  0.2202  0.1422 -0.4419
  371TMC3    C5 5604   2.560   0.456  15.434  0.0651 -0.0863  0.4295
  371TMC3    C6 5605   2.450   0.429  15.505 -0.3972 -0.0695 -0.4320
  371TMC3     C 5606   2.743   0.153  15.455  0.3421  0.5225  0.1952
  371TMC3     O 5607   2.843   0.180  15.393  0.2938 -0.0616 -0.2715
  371TMC3     H 5608   2.489   0.105  15.569  2.4763 -0.2858  0.5214
  371TMC3    H1 5609   2.757   0.394  15.384  0.4926 -3.1390 -1.7110
  371TMC3    H2 5610   2.372   0.504  15.508  1.2175  1.5519  0.8887
  371TMC3    C7 5611   2.562   0.575  15.356  0.0568  0.0400  0.3366
  371TMC3    C8 5612   2.284   0.270  15.569  0.3243 -0.7789 -0.0624
  371TMC3    O1 5613   2.458   0.638  15.358 -0.4390 -0.0354 -0.4402
  371TMC3    O2 5614   2.251   0.154  15.547 -0.7707  0.0287 -0.1377
  372MPD2     C 5615   2.760   1.234  13.332  0.3929 -0.2030 -0.0873
  372MPD2    C1 5616   2.853   1.146  13.394  0.3000 -0.2377 -0.7544
  372MPD2    C2 5617   2.806   1.045  13.472 -0.4411  0.3537  0.3857
  372MPD2    C3 5618   2.668   1.031  13.487 -0.4760 -0.0057 -0.5649
  372MPD2    C4 5619   2.583   1.117  13.421  0.3081 -0.4813  0.1510
  372MPD2    C5 5620   2.627   1.222  13.349  0.9147  0.6545 -0.5136
  372MPD2     H 5621   2.870   0.977  13.528  1.5611  2.2282  0.3994
  372MPD2    H1 5622   2.476   1.112  13.434  0.0089  1.4984 -1.7591
  372MPD2    H2 5623   2.792   1.324  13.282  1.1111 -0.9868 -1.0392
  372MPD2    H3 5624   2.557   1.295  13.309 -1.0182 -0.4599  0.8188
  372MPD2     N 5625   2.625   0.928  13.576 -0.3431  0.4049 -0.2245
  372MPD2    H5 5626   2.694   0.858  13.601 -1.0084 -0.3262 -0.4542
  372MPD2    N1 5627   2.990   1.157  13.376  0.1714 -0.2147 -0.1923
  372MPD2    H7 5628   3.054   1.092  13.419 -1.0030 -1.0629  0.2594
  373TMC3    C1 5629   2.453   0.779  13.671  0.1381  0.0886 -0.2719
  373TMC3    C2 5630   2.320   0.760  13.680  0.4654  0.4954 -0.4609
  373TMC3    C3 5631   2.273   0.630  13.683  0.1390 -0.6262  0.1415
  373TMC3    C4 5632   2.542   0.671  13.663  0.6619 -0.1599  0.6016
  373TMC3    C5 5633   2.490   0.543  13.668  0.1281 -0.0903 -0.0242
  373TMC3    C6 5634   2.358   0.520  13.684 -0.1811  0.0063 -0.3925
  373TMC3     C 5635   2.495   0.912  13.615 -0.3419 -0.1697 -0.4483
  373TMC3     O 5636   2.420   1.009  13.633  0.1316  0.0311  0.2293
  373TMC3     H 5637   2.251   0.841  13.700 -2.3611 -2.1472  0.3281
  373TMC3    H1 5638   2.649   0.681  13.644  0.7060  1.5469  1.7505
  373TMC3    H2 5639   2.322   0.420  13.708  0.7510 -0.5548 -1.3084
  373TMC3    C7 5640   2.584   0.431  13.689 -0.1457  0.9131 -0.2609
  373TMC3    C8 5641   2.137   0.613  13.721  0.1686 -0.3693  0.4864
  373TMC3    O1 5642   2.561   0.321  13.651  0.0385  0.0680 -0.2047
  373TMC3    O2 5643   2.085   0.537  13.640 -0.1451 -0.2091  0.4654
  374TMC3    C1 5644   2.501   1.659   9.981 -0.4726  0.3222 -0.5476
  374TMC3    C2 5645   2.628   1.705  10.002 -0.0633  0.7703  0.2941
  374TMC3    C3 5646   2.672   1.795   9.910 -0.2161 -0.4304 -0.7327
  374TMC3    C4 5647   2.412   1.712   9.889 -0.3539  0.4303 -0.0051
  374TMC3    C5 5648   2.466   1.801   9.797  0.1222 -0.4900  0.1605
  374TMC3    C6 5649   2.598   1.840   9.800 -0.5665  0.0793 -0.1654
  374TMC3     C 5650   2.443   1.562  10.067  0.9167  0.2759  0.3815
  374TMC3     O 5651   2.319   1.559  10.066  0.2357  0.6137  0.0775
  374TMC3     H 5652   2.670   1.689  10.100 -1.2481  1.5507  0.9330
  374TMC3    H1 5653   2.306   1.696   9.898 -0.5864  3.3831  2.6672
  374TMC3    H2 5654   2.648   1.902   9.727  3.8722 -1.7751  1.3256
  374TMC3    C7 5655   2.369   1.880   9.722 -0.4181 -0.1837  0.1666
  374TMC3    C8 5656   2.808   1.837   9.918  0.3010  0.2816  0.0336
  374TMC3    O1 5657   2.252   1.861   9.735 -0.2567  0.1876 -0.6826
  374TMC3    O2 5658   2.853   1.926   9.857  0.5693  0.3129  0.0628
  375MPD2     C 5659   2.787   2.289  17.584 -0.1979  0.6004  0.8558
  375MPD2    C1 5660   2.702   2.291  17.476  0.5351 -0.6320  0.1450
  375MPD2    C2 5661   2.741   2.232  17.357  0.5099 -0.1756  0.3395
  375MPD2    C3 5662   2.871   2.184  17.343  0.0530  0.2165  0.7658
  375MPD2    C4 5663   2.951   2.174  17.452 -0.8625 -0.8487  0.0048
  375MPD2    C5 5664   2.906   2.236  17.568  0.6004 -0.1604 -0.4695
  375MPD2     H 5665   2.667   2.219  17.278  1.2258 -0.4003 -0.3019
  375MPD2    H1 5666   3.047   2.125  17.444 -0.9935 -0.8839 -1.3540
  375MPD2    H2 5667   2.764   2.342  17.675  0.8220 -0.4526  1.7423
  375MPD2    H3 5668   2.972   2.225  17.653  1.1162  0.5505 -0.7777
  375MPD2     N 5669   2.918   2.132  17.220  0.0956 -0.0247  0.1111
  375MPD2    H5 5670   2.989   2.059  17.226  1.8911  1.8474  1.4609
  375MPD2    N1 5671   2.572   2.355  17.484  0.3411 -0.0024  1.2526
  375MPD2    H7 5672   2.504   2.336  17.411 -0.3633  1.1514  1.6182
  376TMC3    C1 5673   2.918   2.071  16.993  0.3145  0.6283 -0.5070
  376TMC3    C2 5674   3.034   2.003  17.005  0.0901 -0.4193 -0.2736
  376TMC3    C3 5675   3.060   1.907  16.918  0.4022  0.0426 -0.6267
  376TMC3    C4 5676   2.817   2.041  16.906 -0.5479  0.6380  0.2350
  376TMC3    C5 5677   2.837   1.940  16.821 -0.3274 -0.2603  0.9938
  376TMC3    C6 5678   2.959   1.880  16.824  0.0900  1.1100 -0.2054
  376TMC3     C 5679   2.874   2.166  17.091 -0.4814  0.7412  0.1605
  376TMC3     O 5680   2.785   2.239  17.053  0.3253  0.5696 -0.2396
  376TMC3     H 5681   3.112   2.044  17.068  1.3316 -1.6147 -1.0217
  376TMC3    H1 5682   2.718   2.087  16.902 -0.7362  0.1334 -0.8270
  376TMC3    H2 5683   2.984   1.806  16.749 -0.4093  1.0141 -0.2781
  376TMC3    C7 5684   2.757   1.920  16.698  0.3099  0.0891 -0.4132
  376TMC3    C8 5685   3.195   1.875  16.889 -0.1735 -0.2703  0.4945
  376TMC3    O1 5686   2.682   2.014  16.683  0.2471  0.3048  0.1448
  376TMC3    O2 5687   3.292   1.936  16.939 -0.2884  0.2151  0.2316
  377MPD2     C 5688   1.541   1.491  12.766 -0.0449 -0.5122  0.2799
  377MPD2    C1 5689   1.438   1.464  12.677 -0.6663  0.7639  0.9378
  377MPD2    C2 5690   1.324   1.396  12.717  0.3667 -0.7185 -0.3323
  377MPD2    C3 5691   1.310   1.357  12.852  0.5631 -0.4411  0.2591
  377MPD2    C4 5692   1.412   1.393  12.942  0.3581  0.3798 -0.4506
  377MPD2    C5 5693   1.524   1.461  12.894  0.5149  0.2692 -0.1136
  377MPD2     H 5694   1.254   1.368  12.640  0.1462 -0.0444 -0.3813
  377MPD2    H1 5695   1.395   1.372  13.047  1.1527  1.4480 -0.1127
  377MPD2    H2 5696   1.630   1.543  12.733  0.3044 -0.4540  1.3278
  377MPD2    H3 5697   1.601   1.481  12.967  0.6587  0.9602 -0.4537
  377MPD2     N 5698   1.212   1.267  12.907  0.2020  0.3046  0.8039
  377MPD2    H5 5699   1.229   1.236  13.003 -0.5472 -2.8129 -0.0705
  377MPD2    N1 5700   1.469   1.511  12.552 -0.2698 -0.1964 -0.4076
  377MPD2    H7 5701   1.563   1.544  12.531  0.9377 -1.3364  3.2871
  378TMC3    C1 5702   1.456   1.707  12.138  0.2857 -0.6463 -0.7030
  378TMC3    C2 5703   1.388   1.668  12.251 -0.1121 -0.0947 -0.0256
  378TMC3    C3 5704   1.459   1.591  12.340 -1.0588 -0.0184  0.0493
  378TMC3    C4 5705   1.588   1.683  12.121 -0.1883 -0.0765 -0.4234
  378TMC3    C5 5706   1.663   1.607  12.210  0.0513  1.0025 -0.1994
  378TMC3    C6 5707   1.595   1.560  12.322  0.2033 -0.3149 -0.1751
  378TMC3     C 5708   1.370   1.754  12.034 -0.4567  0.8137  0.1447
  378TMC3     O 5709   1.251   1.753  12.061 -0.4506  0.0485  0.0694
  378TMC3     H 5710   1.283   1.686  12.271  0.0525  1.3916 -0.5235
  378TMC3    H1 5711   1.627   1.717  12.025 -0.0154 -1.4100 -0.8244
  378TMC3    H2 5712   1.652   1.499  12.391 -0.2857 -1.0819 -0.4616
  378TMC3    C7 5713   1.781   1.537  12.161 -0.1925 -0.9696 -0.2137
  378TMC3    C8 5714   1.378   1.545  12.450 -0.3137  0.8811 -0.5838
  378TMC3    O1 5715   1.778   1.424  12.212 -0.1465 -0.2614 -0.1882
  378TMC3    O2 5716   1.258   1.564  12.455 -0.3444 -0.1649  0.2932
  379MPD2     C 5717   2.052   4.450  16.408 -0.2580 -0.6102 -0.3161
  379MPD2    C1 5718   1.922   4.423  16.425  0.6175  0.0687 -0.7847
  379MPD2    C2 5719   1.884   4.335  16.525 -0.0592  0.2718 -0.4580
  379MPD2    C3 5720   1.982   4.281  16.604 -0.0644 -0.5964 -0.3968
  379MPD2    C4 5721   2.115   4.303  16.582 -0.5378  0.3546 -0.2527
  379MPD2    C5 5722   2.147   4.397  16.486  0.4040 -0.1581  0.0564
  379MPD2     H 5723   1.786   4.289  16.533  0.0011 -0.0024 -1.3130
  379MPD2    H1 5724   2.195   4.253  16.635  0.7241 -1.7258 -4.1397
  379MPD2    H2 5725   2.079   4.526  16.335  1.8571 -0.3635  0.7308
  379MPD2    H3 5726   2.251   4.424  16.472  0.4369  0.3223  1.2673
  379MPD2     N 5727   1.958   4.190  16.713 -0.6539  0.2835 -0.1350
  379MPD2    H5 5728   2.038   4.165  16.771  0.0252  0.3488 -1.0391
  379MPD2    N1 5729   1.824   4.484  16.346  0.9807  0.0103  0.6377
  379MPD2    H7 5730   1.853   4.524  16.257  1.6647  0.1159  0.9076
  380TMC3    C1 5731   1.619   4.509  16.235 -0.0615 -0.8525 -0.1583
  380TMC3    C2 5732   1.679   4.520  16.114 -0.0843 -0.5079  0.3398
  380TMC3    C3 5733   1.602   4.570  16.012 -0.1800  0.5074 -0.4245
  380TMC3    C4 5734   1.491   4.547  16.253  0.7433  0.2751 -0.2485
  380TMC3    C5 5735   1.415   4.595  16.140  0.6979 -0.3414 -0.3243
  380TMC3    C6 5736   1.472   4.616  16.020 -0.6823 -0.1075  0.2048
  380TMC3     C 5737   1.690   4.465  16.354  0.3853 -0.1894 -0.4486
  380TMC3     O 5738   1.623   4.453  16.458  0.3334 -0.6435 -0.0628
  380TMC3     H 5739   1.764   4.456  16.094  1.0813  1.0841  0.2366
  380TMC3    H1 5740   1.443   4.527  16.348 -2.6445 -0.4837 -2.1086
  380TMC3    H2 5741   1.433   4.685  15.946 -1.3762 -1.1552 -0.3979
  380TMC3    C7 5742   1.296   4.665  16.178  0.2944 -0.3113 -0.3413
  380TMC3    C8 5743   1.655   4.594  15.876  0.1169  1.0250  0.0616
  380TMC3    O1 5744   1.275   4.692  16.294 -0.5209 -0.1641  0.2943
  380TMC3    O2 5745   1.578   4.645  15.792  0.3874 -0.9891  0.2421
  381TMC3    C1 5746   1.243   0.810  16.311  0.2531 -0.1144  0.6127
  381TMC3    C2 5747   1.343   0.905  16.302  0.9619 -0.8458 -0.3200
  381TMC3    C3 5748   1.338   0.999  16.404 -0.3218 -0.4152  0.3166
  381TMC3    C4 5749   1.150   0.800  16.415  0.5025 -0.3746  0.5487
  381TMC3    C5 5750   1.156   0.902  16.512 -0.2394 -0.0864  0.4709
  381TMC3    C6 5751   1.245   1.006  16.501  0.3074 -0.0161  0.1131
  381TMC3     C 5752   1.227   0.709  16.205  0.3906  0.3470  0.8968
  381TMC3     O 5753   1.163   0.610  16.236  0.3596  0.0100  0.8962
  381TMC3     H 5754   1.411   0.917  16.219  2.3603  0.3676  1.0151
  381TMC3    H1 5755   1.081   0.717  16.420  0.7253 -0.4259  3.0131
  381TMC3    H2 5756   1.242   1.088  16.572  0.0439  1.1113 -1.2065
  381TMC3    C7 5757   1.137   0.840  16.639  0.4252  0.0067 -0.0663
  381TMC3    C8 5758   1.442   1.104  16.397  0.2410 -0.3353  0.3341
  381TMC3    O1 5759   1.200   0.736  16.652  0.5513  0.2602  0.0277
  381TMC3    O2 5760   1.511   1.101  16.299  0.3934  0.7195  0.2240
  382MPD2     C 5761   0.416   3.706  17.200  0.0799 -0.1316 -0.3318
  382MPD2    C1 5762   0.398   3.710  17.336 -0.0703 -0.4400 -0.6191
  382MPD2    C2 5763   0.410   3.592  17.406  0.4682  0.4866 -0.0474
  382MPD2    C3 5764   0.409   3.466  17.339  0.6429 -0.1205 -0.1056
  382MPD2    C4 5765   0.419   3.469  17.198  0.0182 -0.5870  1.0013
  382MPD2    C5 5766   0.426   3.590  17.128 -0.4591  0.2423  0.0377
  382MPD2     H 5767   0.401   3.590  17.514 -1.6356  1.5605 -0.2080
  382MPD2    H1 5768   0.422   3.377  17.142  0.3418  0.6858 -1.0806
  382MPD2    H2 5769   0.418   3.795  17.139  3.6808 -0.9686 -1.4482
  382MPD2    H3 5770   0.417   3.596  17.021 -1.5257  2.3796  0.2325
  382MPD2     N 5771   0.411   3.338  17.399 -0.4528 -0.1593  0.2669
  382MPD2    H5 5772   0.417   3.257  17.338 -2.0216 -0.1591  0.1036
  382MPD2    N1 5773   0.376   3.824  17.411 -0.0299 -0.2169  0.4453
  382MPD2    H7 5774   0.351   3.797  17.506  0.0802 -0.9661  0.2587
  383TMC3    C1 5775   0.396   3.186  17.573  0.1782  0.6825  0.2055
  383TMC3    C2 5776   0.317   3.105  17.501  0.7338  0.8407 -0.9147
  383TMC3    C3 5777   0.317   2.971  17.525  0.8473 -0.4409  0.4696
  383TMC3    C4 5778   0.479   3.148  17.676  0.0048  0.3266  0.5818
  383TMC3    C5 5779   0.465   3.013  17.701  0.2473 -0.8746 -0.0239
  383TMC3    C6 5780   0.388   2.924  17.629 -0.2774  0.6789 -0.6686
  383TMC3     C 5781   0.406   3.320  17.535  0.3063 -0.7808  0.7017
  383TMC3     O 5782   0.398   3.392  17.629  0.4907 -0.4219  0.4940
  383TMC3     H 5783   0.242   3.144  17.434 -2.0301 -0.5163  1.4037
  383TMC3    H1 5784   0.538   3.217  17.735  1.3915  1.1842 -1.8001
  383TMC3    H2 5785   0.378   2.822  17.664 -1.3466  0.7387 -0.8110
  383TMC3    C7 5786   0.556   2.950   0.058 -0.5965  0.4305 -0.8484
  383TMC3    C8 5787   0.197   2.897  17.480 -0.2334 -0.1661  0.5400
  383TMC3    O1 5788   0.570   2.826   0.055  0.1736  0.3184 -0.3089
  383TMC3    O2 5789   0.092   2.960  17.477 -0.4436 -0.0250  0.1938
  384MPD2     C 5790   1.626   4.578  12.022  0.4285 -0.2487  0.6756
  384MPD2    C1 5791   1.654   4.492  12.126 -0.1828 -0.2561 -0.3862
  384MPD2    C2 5792   1.778   4.429  12.136 -0.2620  0.7358 -0.0683
  384MPD2    C3 5793   1.867   4.435  12.042  0.2220  0.3245  0.1742
  384MPD2    C4 5794   1.837   4.512  11.937 -0.1130 -0.1110  0.1670
  384MPD2    C5 5795   1.718   4.581  11.925 -0.4579 -0.3421 -0.1994
  384MPD2     H 5796   1.816   4.381  12.225  0.3692 -2.4995 -2.0993
  384MPD2    H1 5797   1.906   4.523  11.854 -0.6295  0.4131 -0.1862
  384MPD2    H2 5798   1.541   4.646  12.025 -0.0580 -0.9326  2.3543
  384MPD2    H3 5799   1.720   4.649  11.841  0.5757 -1.2737 -0.9232
  384MPD2     N 5800   1.998   4.391  12.074 -0.4534  0.6719  0.2834
  384MPD2    H5 5801   2.015   4.361  12.169  0.2520 -1.2723 -0.4527
  384MPD2    N1 5802   1.566   4.481  12.231 -0.6511  0.4922  0.3041
  384MPD2    H7 5803   1.588   4.430  12.316 -0.6931  0.5306  0.3380
  385TMC3    C1 5804   2.217   4.323  12.047  0.1708 -0.1892  0.0810
  385TMC3    C2 5805   2.249   4.194  12.007 -0.2272  0.2339 -0.1683
  385TMC3    C3 5806   2.299   4.110  12.106  0.1992  0.5018 -0.7775
  385TMC3    C4 5807   2.216   4.357  12.177  0.3644  0.0279 -0.6206
  385TMC3    C5 5808   2.250   4.264  12.273 -0.3191  0.9395 -0.4790
  385TMC3    C6 5809   2.296   4.141  12.241 -0.0528  0.0276 -1.2170
  385TMC3     C 5810   2.097   4.375  11.985  0.6326 -0.5187 -0.0019
  385TMC3     O 5811   2.096   4.388  11.864 -0.4665  0.4918 -0.3152
  385TMC3     H 5812   2.240   4.168  11.902 -1.5617 -0.1640  0.0480
  385TMC3    H1 5813   2.179   4.451  12.216  2.4957 -0.2883  2.1672
  385TMC3    H2 5814   2.344   4.075  12.313 -0.4842  0.0337 -0.9216
  385TMC3    C7 5815   2.131   4.244  12.359 -0.0391 -0.4909  0.3139
  385TMC3    C8 5816   2.291   3.970  12.076 -0.5835  0.3859  0.6446
  385TMC3    O1 5817   2.050   4.337  12.368 -0.4302 -0.4994  0.2112
  385TMC3    O2 5818   2.258   3.893  12.167 -0.2871  0.0963  0.0576
  386TMC3    C1 5819   2.878   1.384  11.485 -0.4392  0.1764 -0.0469
  386TMC3    C2 5820   2.897   1.446  11.366  0.0015  0.5525 -0.0795
  386TMC3    C3 5821   2.957   1.573  11.360 -0.0412 -0.3413  0.1222
  386TMC3    C4 5822   2.882   1.443  11.609 -0.2790  0.1617 -0.1199
  386TMC3    C5 5823   2.915   1.572  11.600 -0.5033  0.0277  0.3783
  386TMC3    C6 5824   2.962   1.636  11.485  0.6661 -0.4157 -0.2161
  386TMC3     C 5825   2.811   1.256  11.483 -0.2477  0.0750  0.1580
  386TMC3     O 5826   2.757   1.227  11.371 -0.5393 -0.3211 -0.1799
  386TMC3     H 5827   2.875   1.392  11.275  0.5440  1.1741 -0.5800
  386TMC3    H1 5828   2.870   1.397  11.707 -1.0431 -1.6727 -1.0787
  386TMC3    H2 5829   3.006   1.734  11.495  0.4337  0.0348 -3.8796
  386TMC3    C7 5830   2.822   1.654  11.672 -0.0885 -0.0278 -0.2591
  386TMC3    C8 5831   2.920   1.669  11.257 -0.4339  0.3122  0.2489
  386TMC3    O1 5832   2.783   1.616  11.778  0.1314 -0.4848 -0.0605
  386TMC3    O2 5833   2.856   1.761  11.295 -0.0957 -0.5438 -0.5053
  387MPD2     C 5834   4.662   1.969   9.469  0.6299  0.2069  0.0044
  387MPD2    C1 5835   0.007   1.975   9.584  0.1103 -0.2693  0.1555
  387MPD2    C2 5836   0.082   1.863   9.614 -0.0428 -0.2935 -0.2266
  387MPD2    C3 5837   0.072   1.747   9.540 -0.0029  0.0421  0.2765
  387MPD2    C4 5838   4.731   1.738   9.428 -0.6322  0.3656  0.3066
  387MPD2    C5 5839   4.663   1.855   9.395 -0.3018  0.1006 -0.3202
  387MPD2     H 5840   0.140   1.854   9.704  0.4156  0.5403 -0.4324
  387MPD2    H1 5841   4.709   1.654   9.364 -1.8306  0.2574  0.8704
  387MPD2    H2 5842   4.598   2.049   9.436  2.2108  1.6350  0.3753
  387MPD2    H3 5843   4.608   1.855   9.301 -0.0253  1.6290 -0.4903
  387MPD2     N 5844   0.146   1.641   9.595  0.8837 -0.6016 -0.4476
  387MPD2    H5 5845   0.204   1.657   9.677  0.2891 -0.2744 -0.0892
  387MPD2    N1 5846   4.733   2.074   9.683 -0.3062  0.0520 -0.3070
  387MPD2    H7 5847   0.055   2.050   9.764 -3.9586 -0.2488  2.1881
  388TMC3    C1 5848   4.628   2.211   9.826 -0.6043  0.1665 -0.0315
  388TMC3    C2 5849   4.588   2.339   9.854  0.4060  0.8252 -0.7929
  388TMC3    C3 5850   4.593   2.386   9.985  0.8593  0.0919 -0.0928
  388TMC3    C4 5851   4.690   2.132   9.924 -1.3052  0.8901  0.4628
  388TMC3    C5 5852   4.695   2.186  10.053  0.2014 -0.4800  0.1292
  388TMC3    C6 5853   4.653   2.314  10.085 -0.0566 -0.0878  0.5476
  388TMC3     C 5854   4.638   2.169   9.684 -0.2722  0.3866  0.4403
  388TMC3     O 5855   4.578   2.230   9.595  0.0176 -0.1828  0.5300
  388TMC3     H 5856   4.540   2.407   9.784 -1.9083 -1.8060 -1.7689
  388TMC3    H1 5857   4.704   2.026   9.904  0.3190  1.3272 -0.7545
  388TMC3    H2 5858   4.660   2.342  10.189  0.6989  0.6619  0.2895
  388TMC3    C7 5859   4.727   2.095  10.160 -0.3784 -0.4343  0.2930
  388TMC3    C8 5860   4.507   2.502  10.015  0.5521  0.0717  0.7511
  388TMC3    O1 5861   4.694   2.121  10.273 -0.3346  0.2622  0.1253
  388TMC3    O2 5862   4.405   2.522   9.950 -0.5382 -0.4050  0.2609
  389MPD2     C 5863   4.040   0.170  11.428 -0.8530 -0.1463 -0.1109
  389MPD2    C1 5864   4.009   0.044  11.374 -0.1332  0.3263 -0.0035
  389MPD2    C2 5865   3.940   4.690  11.453 -0.0329  0.0149 -0.3267
  389MPD2    C3 5866   3.906   4.717  11.585 -0.1658  0.4036  0.1964
  389MPD2    C4 5867   3.940   0.108  11.634  0.2265  0.1859  0.5690
  389MPD2    C5 5868   4.009   0.193  11.551 -0.4298 -0.6525 -0.1037
  389MPD2     H 5869   3.915   4.590  11.420  0.2952 -0.7801  1.8188
  389MPD2    H1 5870   3.919   0.150  11.731  0.7866 -0.1094  0.8153
  389MPD2    H2 5871   4.085   0.246  11.365  0.6023 -0.6688  0.3083
  389MPD2    H3 5872   4.034   0.290  11.591  0.3387 -0.7765 -0.2749
  389MPD2     N 5873   3.825   4.634  11.668 -0.2049  0.2141 -0.2741
  389MPD2    H5 5874   3.813   4.661  11.765  1.1624  0.3930 -0.1550
  389MPD2    N1 5875   4.049   0.016  11.236  0.6256  0.5901  0.0962
  389MPD2    H7 5876   4.098   0.090  11.187  0.8743 -0.1887 -0.8364
  390TMC3    C1 5877   3.692   4.446  11.723  0.0884  0.1015  0.4024
  390TMC3    C2 5878   3.712   4.313  11.726 -0.2500  0.2377 -0.6054
  390TMC3    C3 5879   3.657   4.233  11.824 -0.5552  0.4753 -0.2761
  390TMC3    C4 5880   3.615   4.516  11.808  0.1499  0.0734  0.0190
  390TMC3    C5 5881   3.541   4.431  11.889  0.1687  0.2155 -0.5715
  390TMC3    C6 5882   3.562   4.297  11.899 -0.1078  0.3052  0.1818
  390TMC3     C 5883   3.772   4.516  11.618  0.1517  0.7250  0.5998
  390TMC3     O 5884   3.791   4.446  11.519 -0.2453 -0.8894 -0.4028
  390TMC3     H 5885   3.785   4.259  11.667  1.3108  0.2607  1.2899
  390TMC3    H1 5886   3.596   4.622  11.794 -1.1465 -0.1393  0.1493
  390TMC3    H2 5887   3.511   4.239  11.975  1.4007  0.0485  0.9892
  390TMC3    C7 5888   3.404   4.463  11.869 -0.5071 -0.0399 -0.6714
  390TMC3    C8 5889   3.634   4.100  11.784 -0.6454 -0.4270  0.6151
  390TMC3    O1 5890   3.371   4.548  11.790 -0.2028  0.3077  0.3916
  390TMC3    O2 5891   3.639   4.070  11.663  0.2799 -0.7018  0.0486
  391MPD2     C 5892   3.152   1.260  11.348  0.0612  0.5680  0.0763
  391MPD2    C1 5893   3.221   1.374  11.344 -0.2784  0.7169  0.7942
  391MPD2    C2 5894   3.246   1.426  11.217  0.5154 -0.0327 -0.1873
  391MPD2    C3 5895   3.202   1.362  11.102 -0.3487 -0.6922 -0.0768
  391MPD2    C4 5896   3.118   1.248  11.114  0.2371 -0.0681  0.0686
  391MPD2    C5 5897   3.097   1.199  11.242  0.3609  0.7299 -0.4993
  391MPD2     H 5898   3.322   1.504  11.218 -0.9395  1.2950  4.7809
  391MPD2    H1 5899   3.074   1.213  11.022  0.0904 -2.0848  0.8986
  391MPD2    H2 5900   3.134   1.225  11.449  1.9388 -0.1969  0.1490
  391MPD2    H3 5901   3.049   1.106  11.269 -0.0431  0.2881 -2.7404
  391MPD2     N 5902   3.240   1.409  10.979 -0.0648  0.0844  0.5074
  391MPD2    H5 5903   3.332   1.450  10.968  0.0806  0.5528  3.4035
  391MPD2    N1 5904   3.240   1.445  11.460 -0.1017 -0.2771  0.0556
  391MPD2    H7 5905   3.239   1.394  11.548  0.5482 -1.7272 -0.7807
  392TMC3    C1 5906   3.242   1.426  10.734  0.2460 -0.3490  1.0180
  392TMC3    C2 5907   3.159   1.479  10.639 -0.2202  0.1616 -0.9383
  392TMC3    C3 5908   3.221   1.529  10.530  0.2509 -0.0458 -0.7058
  392TMC3    C4 5909   3.378   1.423  10.729  0.1193  0.3991  0.2357
  392TMC3    C5 5910   3.444   1.469  10.610 -0.0259  0.2273  0.0692
  392TMC3    C6 5911   3.361   1.538  10.521 -0.6179  0.3704 -0.0952
  392TMC3     C 5912   3.172   1.388  10.861 -0.7582  0.5779  0.0136
  392TMC3     O 5913   3.054   1.369  10.853 -0.2631  0.3683 -0.3142
  392TMC3     H 5914   3.051   1.464  10.642 -0.3325  0.9234 -1.3363
  392TMC3    H1 5915   3.433   1.366  10.803 -1.6004  0.9476  1.9611
  392TMC3    H2 5916   3.408   1.581  10.434 -0.2209 -0.0784 -0.1018
  392TMC3    C7 5917   3.574   1.520  10.638  0.3175 -0.4048 -0.7222
  392TMC3    C8 5918   3.145   1.578  10.417  0.2970  0.0990 -0.3777
  392TMC3    O1 5919   3.598   1.543  10.757 -0.1239 -0.6126  0.7567
  392TMC3    O2 5920   3.030   1.546  10.407 -0.1517 -0.3791  0.1908
  393TMC3    C1 5921   2.450   4.310  10.938  0.8405  0.1956  0.6248
  393TMC3    C2 5922   2.345   4.267  11.020  0.4457  0.9381  0.1022
  393TMC3    C3 5923   2.334   4.135  11.032 -0.0198 -0.0312  0.2995
  393TMC3    C4 5924   2.534   4.227  10.868  0.2416 -0.6310  0.4469
  393TMC3    C5 5925   2.524   4.090  10.895  0.0182 -0.0749  0.1386
  393TMC3    C6 5926   2.421   4.045  10.976  0.2640  0.0483 -0.3638
  393TMC3     C 5927   2.446   4.447  10.911 -0.3962  0.2369 -0.3621
  393TMC3     O 5928   2.340   4.500  10.888  0.3042  0.4671 -0.3752
  393TMC3     H 5929   2.295   4.337  11.086 -0.4031  0.0964  0.3455
  393TMC3    H1 5930   2.597   4.268  10.791 -0.9650 -0.8414 -0.6496
  393TMC3    H2 5931   2.424   3.939  11.000 -1.3829  0.6105  2.3553
  393TMC3    C7 5932   2.573   4.008  10.786  0.2857  0.8432  0.7503
  393TMC3    C8 5933   2.244   4.081  11.130  0.5807  0.2259 -0.0842
  393TMC3    O1 5934   2.506   3.919  10.739 -0.3200  0.2286  0.9237
  393TMC3    O2 5935   2.256   3.969  11.166  0.1528 -0.4952 -0.2579
  394TMC3    C1 5936   4.036   4.672  11.020  0.1562 -0.7285  0.4519
  394TMC3    C2 5937   3.928   4.637  10.934  0.5422 -0.2803  0.3110
  394TMC3    C3 5938   3.952   4.616  10.803  0.4316  0.1756  0.0779
  394TMC3    C4 5939   4.155   4.717  10.967 -0.0972  0.3673 -1.5395
  394TMC3    C5 5940   4.169   4.689  10.834  0.0908  1.1178 -0.1624
  394TMC3    C6 5941   4.076   4.632  10.748 -0.2078 -0.5603 -0.5867
  394TMC3     C 5942   3.998   4.652  11.160  0.0124  0.0102  0.2162
  394TMC3     O 5943   3.906   4.575  11.182  0.5116 -0.0570  0.7383
  394TMC3     H 5944   3.838   4.591  10.974 -0.8222  1.7646 -0.4127
  394TMC3    H1 5945   4.243   0.006  11.026  0.4360  0.4596 -2.3745
  394TMC3    H2 5946   4.095   4.614  10.643 -0.4051  0.6427 -0.8241
  394TMC3    C7 5947   4.298   4.711  10.770  0.1008  0.2316 -0.2712
  394TMC3    C8 5948   3.840   4.586  10.723  0.0334  0.1561 -0.5554
  394TMC3    O1 5949   4.364   0.076  10.798 -0.1778  0.8236 -0.1954
  394TMC3    O2 5950   3.728   4.630  10.754 -0.0748 -0.3792 -0.5169
  395TMC3    C1 5951   4.003   1.890  15.194 -0.1873  0.4388 -0.2285
  395TMC3    C2 5952   3.988   1.787  15.103  1.1129 -0.1207  0.3335
  395TMC3    C3 5953   4.061   1.790  14.993  1.1947 -0.6331  0.0754
  395TMC3    C4 5954   4.096   1.991  15.173 -0.1158 -0.0242 -0.0170
  395TMC3    C5 5955   4.162   1.990  15.055  0.3881  0.0435 -0.1034
  395TMC3    C6 5956   4.149   1.892  14.967  0.2365 -0.4074 -0.4248
  395TMC3     C 5957   3.930   1.887  15.323 -0.3495 -0.2323  0.1040
  395TMC3     O 5958   3.915   1.984  15.395 -0.0689 -0.3077 -0.1243
  395TMC3     H 5959   3.903   1.720  15.114  1.0688  0.1212  1.5543
  395TMC3    H1 5960   4.113   2.069  15.247 -2.7695  0.4867  0.0366
  395TMC3    H2 5961   4.193   1.878  14.869  2.4230 -1.0671  0.6584
  395TMC3    C7 5962   4.219   2.111  15.008 -0.7831 -0.0385 -0.1404
  395TMC3    C8 5963   4.060   1.661  14.930  0.2749 -0.2414 -0.2188
  395TMC3    O1 5964   4.241   2.203  15.083 -0.1936  0.6011  0.2828
  395TMC3    O2 5965   4.032   1.572  15.013  0.3674 -0.1000 -0.5737
  396MPD2     C 5966   3.346   2.814  17.133  0.9706 -0.2838  0.6720
  396MPD2    C1 5967   3.432   2.879  17.221 -0.8306 -0.3515 -0.2261
  396MPD2    C2 5968   3.481   3.003  17.195  0.1593  0.1706  0.0343
  396MPD2    C3 5969   3.444   3.064  17.075 -0.5072 -0.1726 -0.1822
  396MPD2    C4 5970   3.365   2.998  16.986  0.4258 -0.5378 -0.1582
  396MPD2    C5 5971   3.318   2.873  17.010 -0.2388 -0.0705  0.3928
  396MPD2     H 5972   3.555   3.053  17.257 -2.0705  2.5781  0.7372
  396MPD2    H1 5973   3.343   3.044  16.891  0.4434 -0.4054 -0.0982
  396MPD2    H2 5974   3.304   2.717  17.156  0.0931 -0.2066 -0.6122
  396MPD2    H3 5975   3.263   2.820  16.933 -3.2875 -0.1155  2.5884
  396MPD2     N 5976   3.515   3.179  17.047 -0.1869  0.2566  0.3411
  396MPD2    H5 5977   3.574   3.221  17.118  0.9406 -0.6587 -0.0603
  396MPD2    N1 5978   3.462   2.808  17.343  0.2359 -0.1487 -0.1273
  396MPD2    H7 5979   3.430   2.712  17.350  1.1552 -0.2361  3.1827
  397TMC3    C1 5980   3.575   2.751  17.536 -0.0083  0.0732  0.1226
  397TMC3    C2 5981   3.709   2.743  17.575 -0.5859 -0.5442 -0.8546
  397TMC3    C3 5982   3.766   2.615  17.576 -0.4302  0.6708 -0.1219
  397TMC3    C4 5983   3.493   2.638  17.533 -0.7558 -0.2028 -0.5723
  397TMC3    C5 5984   3.552   2.523  17.566  0.4169 -0.0304 -0.5752
  397TMC3    C6 5985   3.685   2.508  17.581 -0.2469  0.4185  0.3098
  397TMC3     C 5986   3.549   2.854  17.434  0.6449  0.9497  0.2690
  397TMC3     O 5987   3.623   2.947  17.433 -0.3337  0.4595  0.4690
  397TMC3     H 5988   3.776   2.828  17.573 -0.0580 -0.9456  0.0506
  397TMC3    H1 5989   3.385   2.642  17.523 -0.6317 -1.2799 -2.2774
  397TMC3    H2 5990   3.727   2.410  17.599  1.8825  1.4868  1.2388
  397TMC3    C7 5991   3.466   2.406  17.583 -0.2532 -0.1707 -0.1184
  397TMC3    C8 5992   3.907   2.592  17.615 -0.2508 -0.3758 -0.3932
  397TMC3    O1 5993   3.358   2.411  17.520 -0.0959  0.0124 -0.2555
  397TMC3    O2 5994   3.919   2.500  17.694 -0.4132  0.3055 -0.5286
  398MPD2     C 5995   1.657   0.030   0.465  0.1450 -0.3368  0.5757
  398MPD2    C1 5996   1.750   4.669   0.456  0.6816 -0.0121 -0.0557
  398MPD2    C2 5997   1.885   4.709   0.458 -0.1653  0.0562  0.0031
  398MPD2    C3 5998   1.923   0.103   0.491  0.1418 -0.0203  0.2240
  398MPD2    C4 5999   1.824   0.202   0.504 -0.5804 -0.2186  0.1447
  398MPD2    C5 6000   1.694   0.163   0.492 -0.3275  0.0778 -0.1715
  398MPD2     H 6001   1.959   4.630   0.458  0.7415  0.9002 -1.1597
  398MPD2    H1 6002   1.854   0.305   0.520  0.4795 -0.4440 -0.3658
  398MPD2    H2 6003   1.551   0.011   0.462 -0.1505  1.4770 -0.3589
  398MPD2    H3 6004   1.621   0.243   0.499  1.2272  1.4148  0.6725
  398MPD2     N 6005   2.062   0.124   0.513  0.2080  0.0457 -0.3097
  398MPD2    H5 6006   2.122   0.050   0.478 -0.9724  0.1722 -2.5965
  398MPD2    N1 6007   1.725   4.534   0.419  0.8100  0.4293 -0.0342
  398MPD2    H7 6008   1.798   4.464   0.421  0.2019 -0.1258  3.1465
  399TMC3    C1 6009   1.609   4.341   0.346  0.2226 -0.5003  0.0341
  399TMC3    C2 6010   1.722   4.256   0.361 -0.0161  0.0572 -0.2838
  399TMC3    C3 6011   1.708   4.123   0.341 -0.0753 -0.1930 -0.3826
  399TMC3    C4 6012   1.491   4.283   0.312 -0.7626  0.0586 -0.2616
  399TMC3    C5 6013   1.482   4.147   0.295 -0.4403 -0.1222  0.4653
  399TMC3    C6 6014   1.588   4.064   0.311 -0.4088  0.3283  0.0518
  399TMC3     C 6015   1.602   4.485   0.379  0.1925 -0.4386  0.0190
  399TMC3     O 6016   1.499   4.547   0.365 -0.1044  0.2361  0.4631
  399TMC3     H 6017   1.819   4.283   0.401  0.2797  1.0749 -1.6660
  399TMC3    H1 6018   1.407   4.350   0.301  0.8594  2.5781  2.7318
  399TMC3    H2 6019   1.574   3.969   0.261 -0.7472  0.3321  0.1419
  399TMC3    C7 6020   1.353   4.084   0.275 -0.8952 -0.2197 -0.4930
  399TMC3    C8 6021   1.822   4.038   0.315  0.1314 -0.0156 -0.1177
  399TMC3    O1 6022   1.277   4.151   0.207 -0.3680  0.7478 -0.0725
  399TMC3    O2 6023   1.923   4.104   0.289  0.0204  0.1405 -0.2923
  400TMC3    C1 6024   0.098   2.433  17.065 -0.5094  0.4647 -0.1957
  400TMC3    C2 6025   4.710   2.406  17.010 -0.4254 -0.5780 -0.7172
  400TMC3    C3 6026   4.625   2.509  17.000 -0.6200  0.8816  0.2736
  400TMC3    C4 6027   0.142   2.560  17.089  0.2071  0.2514 -0.0296
  400TMC3    C5 6028   0.045   2.658  17.081  0.0822  0.2368  0.1290
  400TMC3    C6 6029   4.653   2.639  17.034 -0.1663 -0.5145  0.5533
  400TMC3     C 6030   0.188   2.325  17.083 -0.4025  0.0192  0.3313
  400TMC3     O 6031   0.140   2.220  17.046  0.0024  0.6807 -0.2044
  400TMC3     H 6032   4.678   2.309  16.972 -1.3501 -1.1220  1.4234
  400TMC3    H1 6033   0.242   2.592  17.116  0.7659  0.6762 -2.5901
  400TMC3    H2 6034   4.586   2.722  17.017  0.0884 -0.5075 -0.4463
  400TMC3    C7 6035   0.087   2.796  17.082 -0.5083  0.1031 -0.1256
  400TMC3    C8 6036   4.501   2.498  16.921  0.1531  0.8790  0.4568
  400TMC3    O1 6037   0.205   2.824  17.063 -0.4302 -0.1378 -0.0471
  400TMC3    O2 6038   4.454   2.608  16.890 -0.1295 -0.0815 -0.3044
  401MPD2     C 6039   2.860   1.172   1.171 -0.8445 -0.6537  0.3937
  401MPD2    C1 6040   2.956   1.081   1.223 -0.3433 -0.1494  0.3203
  401MPD2    C2 6041   2.945   0.946   1.203 -0.3539  0.1650  1.2097
  401MPD2    C3 6042   2.833   0.899   1.131 -0.1557 -0.3674 -0.3808
  401MPD2    C4 6043   2.740   0.987   1.085 -0.2045  0.7704 -0.1449
  401MPD2    C5 6044   2.749   1.120   1.105 -1.1016  0.4843 -0.4452
  401MPD2     H 6045   3.026   0.878   1.225 -1.2992 -1.6311 -0.8380
  401MPD2    H1 6046   2.658   0.950   1.025 -0.4902  1.1767 -0.0086
  401MPD2    H2 6047   2.861   1.280   1.179 -1.1134 -0.5927 -0.3601
  401MPD2    H3 6048   2.669   1.187   1.074 -1.7770  0.2699  0.8231
  401MPD2     N 6049   2.836   0.759   1.097 -0.2213  0.7828  0.2003
  401MPD2    H5 6050   2.919   0.705   1.121  0.1613  1.0918 -0.4572
  401MPD2    N1 6051   3.068   1.114   1.301  0.4328  0.1153  0.1191
  401MPD2    H7 6052   3.120   1.034   1.335 -1.4810 -1.2625 -0.1637
  402TMC3    C1 6053   2.766   0.560   0.992  0.0547  0.7568  0.1395
  402TMC3    C2 6054   2.794   0.507   1.116  0.4847  0.7449 -0.0086
  402TMC3    C3 6055   2.865   0.392   1.116  0.2705 -0.0730 -0.2119
  402TMC3    C4 6056   2.792   0.500   0.872 -0.3143 -0.1569 -0.0146
  402TMC3    C5 6057   2.857   0.381   0.879  0.4848 -0.3112  0.0955
  402TMC3    C6 6058   2.893   0.325   1.000  0.0939  0.3211  0.6620
  402TMC3     C 6059   2.762   0.703   0.986 -0.2208  0.0057 -0.9495
  402TMC3     O 6060   2.709   0.753   0.888 -0.3756  0.1210  0.1281
  402TMC3     H 6061   2.767   0.562   1.205  0.1462 -0.9110  0.9123
  402TMC3    H1 6062   2.786   0.559   0.781  1.1199 -0.3205 -0.2079
  402TMC3    H2 6063   2.951   0.236   1.019  0.5255  0.1222 -1.5050
  402TMC3    C7 6064   2.967   0.369   0.784 -0.3737  0.5514 -0.0115
  402TMC3    C8 6065   2.968   0.379   1.220  0.2309 -0.1263 -0.3774
  402TMC3    O1 6066   2.942   0.420   0.676 -0.4408 -0.1169  0.1223
  402TMC3    O2 6067   3.070   0.320   1.175 -0.2939  0.2918  0.1057
  403MPD2     C 6068   2.017   3.724  13.257 -0.1052  0.4252 -0.4808
  403MPD2    C1 6069   1.916   3.679  13.339 -0.7244 -0.8015  0.5597
  403MPD2    C2 6070   1.938   3.667  13.476  0.0553 -0.2871  0.0597
  403MPD2    C3 6071   2.060   3.705  13.529  0.5817  0.2887  0.1704
  403MPD2    C4 6072   2.164   3.745  13.445 -0.1822  0.0008  0.1670
  403MPD2    C5 6073   2.144   3.747  13.308  0.0916 -0.4203 -0.2043
  403MPD2     H 6074   1.861   3.623  13.539  0.6024 -1.9042 -0.3969
  403MPD2    H1 6075   2.259   3.765  13.493  0.5051 -1.0325 -0.7569
  403MPD2    H2 6076   2.007   3.733  13.150 -0.6367  1.7809 -0.3187
  403MPD2    H3 6077   2.228   3.763  13.242  1.5915 -1.4808  1.4482
  403MPD2     N 6078   2.081   3.696  13.671  0.1116 -0.2352 -0.4969
  403MPD2    H5 6079   2.178   3.701  13.700 -0.4548  1.1542  1.1559
  403MPD2    N1 6080   1.789   3.643  13.274  0.0813  0.1720 -0.2381
  403MPD2    H7 6081   1.791   3.661  13.174  0.2441 -0.3883 -0.3378
  404TMC3    C1 6082   1.569   3.568  13.242  0.3415 -0.0566  0.2533
  404TMC3    C2 6083   1.461   3.497  13.285 -0.2504 -0.1600 -0.3232
  404TMC3    C3 6084   1.363   3.467  13.195  0.8113  0.2184  0.3676
  404TMC3    C4 6085   1.575   3.607  13.111 -0.1125 -0.2072  0.8351
  404TMC3    C5 6086   1.474   3.584  13.024 -0.0914 -0.0407 -0.3219
  404TMC3    C6 6087   1.376   3.504  13.062  0.0391 -0.1774 -0.3435
  404TMC3     C 6088   1.681   3.586  13.332 -0.6280  0.2660  0.7629
  404TMC3     O 6089   1.676   3.552  13.450  0.0885 -0.0915 -0.5753
  404TMC3     H 6090   1.458   3.480  13.393  0.3038  1.3024 -0.0832
  404TMC3    H1 6091   1.651   3.677  13.078 -0.9595 -0.4103 -1.5408
  404TMC3    H2 6092   1.296   3.471  12.997  0.4817 -0.5628 -0.6887
  404TMC3    C7 6093   1.492   3.623  12.883 -0.3235 -0.0889 -0.2003
  404TMC3    C8 6094   1.237   3.410  13.243 -0.4057  0.0876 -0.2668
  404TMC3    O1 6095   1.579   3.712  12.866 -0.4968 -0.1685  0.1833
  404TMC3    O2 6096   1.161   3.354  13.166  0.0367  0.3939  0.6144
  405MPD2     C 6097   2.016   0.713  14.886 -0.5982 -0.0060 -0.1309
  405MPD2    C1 6098   2.130   0.643  14.850 -1.0648 -0.9708 -0.4033
  405MPD2    C2 6099   2.139   0.596  14.716 -1.0120 -0.1710 -0.1752
  405MPD2    C3 6100   2.042   0.627  14.622 -0.0871 -0.0449 -0.5112
  405MPD2    C4 6101   1.933   0.700  14.666 -0.2188  0.1220  0.8971
  405MPD2    C5 6102   1.926   0.739  14.796 -0.5090 -1.2689  0.1866
  405MPD2     H 6103   2.219   0.528  14.691 -0.2068  0.0728  1.7228
  405MPD2    H1 6104   1.842   0.724  14.613 -0.1723 -0.0985  0.7158
  405MPD2    H2 6105   2.007   0.761  14.983 -0.1094  1.3024 -0.7291
  405MPD2    H3 6106   1.841   0.795  14.835  0.5717  2.2237 -2.4555
  405MPD2     N 6107   2.071   0.589  14.489  0.1316  0.3229  0.5295
  405MPD2    H5 6108   2.155   0.531  14.485 -0.2084 -0.1679  0.4007
  405MPD2    N1 6109   2.240   0.629  14.933  0.3770 -0.7109  0.0553
  405MPD2    H7 6110   2.229   0.645  15.033 -1.3242  0.6181 -0.3274
  406TMC3    C1 6111   2.074   0.430  14.056  0.2197  0.0811 -0.3085
  406TMC3    C2 6112   2.214   0.417  14.059  0.5866  0.6223 -0.5540
  406TMC3    C3 6113   2.278   0.491  14.161 -0.2765 -0.6729  0.5505
  406TMC3    C4 6114   2.002   0.510  14.149  0.5396  0.1730 -0.1486
  406TMC3    C5 6115   2.073   0.574  14.249  0.6005 -0.4556  0.1762
  406TMC3    C6 6116   2.208   0.558  14.258 -0.2934  0.1778 -0.0952
  406TMC3     C 6117   2.006   0.361  13.952 -0.0626 -0.0902  0.3972
  406TMC3     O 6118   2.082   0.330  13.862 -0.6120  0.2352 -0.5733
  406TMC3     H 6119   2.271   0.368  13.981 -0.1094  1.0048 -1.2967
  406TMC3    H1 6120   1.895   0.515  14.163  0.0745  1.3933 -4.2268
  406TMC3    H2 6121   2.250   0.601  14.349  0.8257 -0.2208 -0.4233
  406TMC3    C7 6122   2.002   0.609  14.375 -0.3708  0.8610 -0.3907
  406TMC3    C8 6123   2.418   0.458  14.177 -0.5411 -0.0029 -0.2949
  406TMC3    O1 6124   1.893   0.658  14.363  0.0441  0.6893 -0.0939
  406TMC3    O2 6125   2.488   0.415  14.088  0.1560 -0.3668 -0.1348
  407MPD2     C 6126   4.625   1.029   9.359  1.0606 -0.0544  0.0044
  407MPD2    C1 6127   4.690   1.148   9.391  0.1837 -0.0099 -0.5158
  407MPD2    C2 6128   4.658   1.220   9.509 -0.7129  0.5690 -0.5631
  407MPD2    C3 6129   4.571   1.167   9.604 -0.4863  0.1808 -0.2224
  407MPD2    C4 6130   4.513   1.048   9.573  0.1279  0.5039  0.0485
  407MPD2    C5 6131   4.541   0.976   9.457  0.0839  0.1159 -0.1784
  407MPD2     H 6132   4.706   1.316   9.520 -1.1811  0.7007  0.3028
  407MPD2    H1 6133   4.452   1.004   9.652 -0.2496  0.5991 -0.1928
  407MPD2    H2 6134   4.628   0.983   9.261  0.4433  2.7730 -1.3259
  407MPD2    H3 6135   4.488   0.883   9.440  1.5312 -1.0200  1.5801
  407MPD2     N 6136   4.543   1.232   9.729 -0.3877 -0.4824  0.9723
  407MPD2    H5 6137   4.484   1.186   9.797 -0.1684  0.3576  1.7284
  407MPD2    N1 6138   0.046   1.218   9.310  0.2402 -0.5809  0.5395
  407MPD2    H7 6139   0.071   1.308   9.350 -0.9684  0.7184 -1.5823
  408TMC3    C1 6140   0.205   1.262   9.148 -0.6378 -0.3909 -0.3969
  408TMC3    C2 6141   0.327   1.228   9.197  0.5373  0.1867  0.5469
  408TMC3    C3 6142   0.408   1.332   9.229  0.0249 -0.0287  0.3229
  408TMC3    C4 6143   0.163   1.389   9.139 -0.2761  0.0715  0.4090
  408TMC3    C5 6144   0.248   1.488   9.188  0.0023  0.2683  0.4689
  408TMC3    C6 6145   0.376   1.466   9.228 -0.1072 -0.0607  0.0376
  408TMC3     C 6146   0.103   1.172   9.195 -0.4720  0.4317 -0.5442
  408TMC3     O 6147   0.100   1.065   9.138 -0.3702 -0.5702  0.0381
  408TMC3     H 6148   0.358   1.125   9.194  1.9950  0.5892  1.8087
  408TMC3    H1 6149   0.057   1.413   9.136 -0.8195 -2.2562  0.4765
  408TMC3    H2 6150   0.428   1.545   9.281  0.0316  1.3710 -2.2608
  408TMC3    C7 6151   0.200   1.628   9.182  0.3041 -0.5280  0.2966
  408TMC3    C8 6152   0.548   1.300   9.222 -0.2458 -0.1757  0.2623
  408TMC3    O1 6153   0.274   1.709   9.236  0.1677 -0.3911  0.5018
  408TMC3    O2 6154   0.575   1.183   9.206 -0.3247 -0.0334  0.3409
  409MPD2     C 6155   3.600   2.159  17.407 -0.8836 -0.4842  0.2971
  409MPD2    C1 6156   3.722   2.138  17.465  0.2589 -0.3096  0.8685
  409MPD2    C2 6157   3.832   2.216  17.434 -0.1273  0.6055  0.6181
  409MPD2    C3 6158   3.813   2.326  17.350  1.1904 -0.0155 -0.1412
  409MPD2    C4 6159   3.697   2.339  17.279  0.1066  0.5952  0.0236
  409MPD2    C5 6160   3.595   2.257  17.309  0.0668 -0.0353 -1.3961
  409MPD2     H 6161   3.930   2.195  17.476  0.2464 -0.4867 -0.8095
  409MPD2    H1 6162   3.676   2.426  17.217  1.8348 -0.0419 -1.4245
  409MPD2    H2 6163   3.507   2.111  17.437 -1.5411 -1.2366 -2.9843
  409MPD2    H3 6164   3.494   2.265  17.269  0.5805 -0.1373 -2.7354
  409MPD2     N 6165   3.913   2.418  17.306  0.1300  0.3888 -0.5291
  409MPD2    H5 6166   3.885   2.494  17.245 -0.4714  1.2089  0.7447
  409MPD2    N1 6167   3.740   2.034  17.558 -0.1048 -0.2807 -0.3759
  409MPD2    H7 6168   3.838   2.030  17.585  0.4290 -0.3570 -2.3116
  410TMC3    C1 6169   4.122   2.522  17.282  0.5954 -0.2188  0.0012
  410TMC3    C2 6170   4.232   2.570  17.342  0.0639  0.1446  0.1721
  410TMC3    C3 6171   4.308   2.656  17.270 -0.9174  0.2264  0.1513
  410TMC3    C4 6172   4.088   2.550  17.151 -0.6057  0.3378  0.0818
  410TMC3    C5 6173   4.159   2.646  17.085 -0.4648  0.2762 -0.3703
  410TMC3    C6 6174   4.270   2.699  17.145 -0.7056 -0.7056  0.3821
  410TMC3     C 6175   4.042   2.422  17.351 -0.9988 -0.6850 -0.1711
  410TMC3     O 6176   4.093   2.354  17.443  0.5837 -0.1728  0.2388
  410TMC3     H 6177   4.258   2.527  17.438 -0.4254 -1.1493 -0.2751
  410TMC3    H1 6178   4.010   2.496  17.099 -1.5741  3.7558 -2.0190
  410TMC3    H2 6179   4.333   2.773  17.096 -1.0121  0.2493  1.4304
  410TMC3    C7 6180   4.107   2.688  16.955  0.3767 -0.3489  0.1538
  410TMC3    C8 6181   4.434   2.701  17.315  0.0739  1.3089 -0.1716
  410TMC3    O1 6182   4.004   2.629  16.923 -0.2715 -0.3931 -0.2910
  410TMC3    O2 6183   4.482   2.803  17.267 -0.2187  0.2835 -0.2915
  411MPD2     C 6184   3.929   2.634  14.562  0.4638 -0.8322  0.1677
  411MPD2    C1 6185   3.984   2.598  14.686 -0.1140  0.2876 -1.0598
  411MPD2    C2 6186   3.935   2.479  14.749  0.3911  0.7338  0.5136
  411MPD2    C3 6187   3.836   2.407  14.684 -0.0403  0.3361  0.0300
  411MPD2    C4 6188   3.803   2.442  14.552  1.5338  0.2147 -0.8512
  411MPD2    C5 6189   3.845   2.555  14.498 -0.4723  0.0390 -0.9890
  411MPD2     H 6190   3.967   2.449  14.848  1.3086 -0.0456 -0.0207
  411MPD2    H1 6191   3.737   2.384  14.490  0.3215 -0.1047  0.7256
  411MPD2    H2 6192   3.971   2.720  14.510  1.7714 -0.3351  2.0762
  411MPD2    H3 6193   3.805   2.593  14.405 -0.9466  4.6517  1.1008
  411MPD2     N 6194   3.775   2.289  14.744 -0.8433 -0.0000  0.2204
  411MPD2    H5 6195   3.705   2.238  14.690  2.3963 -1.9700 -2.0881
  411MPD2    N1 6196   4.062   2.689  14.753  0.4259 -0.2628 -0.7382
  411MPD2    H7 6197   4.090   2.776  14.707 -0.1219 -0.3752 -1.2996
  412TMC3    C1 6198   3.732   2.108  14.898 -0.2256 -0.2060 -0.3717
  412TMC3    C2 6199   3.601   2.136  14.895  0.0687 -0.3862  0.1669
  412TMC3    C3 6200   3.518   2.030  14.877 -0.4395  0.0097 -0.0777
  412TMC3    C4 6201   3.784   1.996  14.841  0.3742  0.4899  0.0744
  412TMC3    C5 6202   3.701   1.897  14.808 -0.8788  1.0616 -1.0101
  412TMC3    C6 6203   3.562   1.906  14.842  0.7909  0.5575  0.7019
  412TMC3     C 6204   3.814   2.226  14.864  0.0637  0.5498 -0.3335
  412TMC3     O 6205   3.913   2.247  14.930 -0.2686  0.1263 -0.9770
  412TMC3     H 6206   3.577   2.231  14.941 -0.7385 -0.6239  0.2280
  412TMC3    H1 6207   3.891   1.983  14.835  0.3105  0.4620 -0.9635
  412TMC3    H2 6208   3.503   1.816  14.838 -0.2740  1.2484  0.9862
  412TMC3    C7 6209   3.720   1.838  14.680  1.1349 -0.4915 -0.1891
  412TMC3    C8 6210   3.400   2.049  14.797 -0.2589  0.8043 -0.6292
  412TMC3    O1 6211   3.833   1.842  14.641  0.3757 -0.2312  0.3411
  412TMC3    O2 6212   3.363   1.958  14.723  0.2910  0.4836 -0.4082
  413MPD2     C 6213   0.988   1.517  15.404 -0.8635 -0.2583  0.3988
  413MPD2    C1 6214   0.946   1.438  15.301  0.0384  0.0427 -0.4571
  413MPD2    C2 6215   1.042   1.388  15.210  0.0645 -0.1277 -0.0882
  413MPD2    C3 6216   1.173   1.433  15.218  1.0510  0.1270  0.0084
  413MPD2    C4 6217   1.203   1.523  15.316 -0.8928  0.0340  0.6600
  413MPD2    C5 6218   1.110   1.563  15.406 -0.4058 -0.2667  0.3447
  413MPD2     H 6219   1.004   1.328  15.128 -1.3209 -0.5311  0.8481
  413MPD2    H1 6220   1.299   1.572  15.321 -0.5713 -0.7895  2.6234
  413MPD2    H2 6221   0.918   1.549  15.480 -0.1695  0.3385  0.7832
  413MPD2    H3 6222   1.137   1.640  15.477  0.1941 -0.4735  0.3367
  413MPD2     N 6223   1.267   1.377  15.133 -1.0580 -0.2095  0.2288
  413MPD2    H5 6224   1.229   1.325  15.054  2.2331  1.6198 -2.5849
  413MPD2    N1 6225   0.817   1.384  15.315 -0.3606 -0.3588  0.1097
  413MPD2    H7 6226   0.761   1.411  15.395 -0.1349  0.0069  0.1427
  414TMC3    C1 6227   1.460   1.285  15.054  0.1360 -0.6659 -0.4355
  414TMC3    C2 6228   1.520   1.170  15.105 -0.3907  0.5067  0.5664
  414TMC3    C3 6229   1.531   1.058  15.033  0.2306 -0.0397 -0.2245
  414TMC3    C4 6230   1.389   1.276  14.937 -0.2145 -0.2867 -0.3844
  414TMC3    C5 6231   1.407   1.160  14.860 -0.6464  0.1361 -0.2211
  414TMC3    C6 6232   1.463   1.045  14.911 -0.0475  0.0737 -0.2846
  414TMC3     C 6233   1.400   1.363  15.163 -0.0236 -0.2415 -0.3657
  414TMC3     O 6234   1.464   1.398  15.263 -0.3185  0.2048  0.0001
  414TMC3     H 6235   1.560   1.188  15.204 -0.1611 -2.0376  0.9458
  414TMC3    H1 6236   1.352   1.367  14.892 -2.0822 -0.6916  0.3346
  414TMC3    H2 6237   1.481   0.958  14.848  0.6257  0.1550 -0.2107
  414TMC3    C7 6238   1.337   1.181  14.737 -0.3867 -0.6359 -0.8238
  414TMC3    C8 6239   1.618   0.946  15.073  0.0156  0.6633  0.0065
  414TMC3    O1 6240   1.226   1.224  14.755 -0.7117  0.2718  0.1892
  414TMC3    O2 6241   1.650   0.863  14.988  0.7142  0.4517 -0.1272
  415TMC3    C1 6242   1.744   4.477  10.177 -0.2608  0.7805 -0.2621
  415TMC3    C2 6243   1.726   4.608  10.143 -0.2057  0.5801 -0.2685
  415TMC3    C3 6244   1.592   4.658  10.132 -0.5767  0.1983 -0.4352
  415TMC3    C4 6245   1.641   4.392  10.175 -0.0743  0.8947  0.4487
  415TMC3    C5 6246   1.515   4.439  10.153 -0.5410 -0.3284  0.1793
  415TMC3    C6 6247   1.483   4.569  10.138  0.1596  0.6042 -0.7225
  415TMC3     C 6248   1.879   4.419  10.197  0.1360 -0.7692 -0.7473
  415TMC3     O 6249   1.879   4.328  10.277  0.3420  0.2754 -0.4735
  415TMC3     H 6250   1.804   4.683  10.135 -0.1679  0.4438 -1.1931
  415TMC3    H1 6251   1.665   4.290  10.204  0.7717  0.3642 -2.0389
  415TMC3    H2 6252   1.388   4.617  10.117 -0.4191 -0.8694 -1.4394
  415TMC3    C7 6253   1.400   4.351  10.175 -0.3729  0.2160  0.5700
  415TMC3    C8 6254   1.565   0.065  10.116  0.0804  0.3649  0.7049
  415TMC3    O1 6255   1.293   4.405  10.171  0.2977  0.0503  0.2278
  415TMC3    O2 6256   1.470   0.110  10.177 -0.0376 -0.3584 -0.0755
  416MPD2     C 6257   4.030   2.630  11.540  0.9742 -0.7486  0.3598
  416MPD2    C1 6258   3.895   2.628  11.552  0.4575  0.6758 -0.2084
  416MPD2    C2 6259   3.818   2.540  11.481  0.3929  0.0285 -0.8397
  416MPD2    C3 6260   3.876   2.451  11.398 -1.0794  0.0436  0.5085
  416MPD2    C4 6261   4.013   2.442  11.394 -0.8003 -0.0471  0.0615
  416MPD2    C5 6262   4.089   2.528  11.467  0.0836  0.7012  0.4450
  416MPD2     H 6263   3.711   2.551  11.493  0.2183 -0.4245 -2.0265
  416MPD2    H1 6264   4.069   2.384  11.321 -1.2260 -1.3300  0.7501
  416MPD2    H2 6265   4.089   2.714  11.576  0.3894  0.0133 -0.4494
  416MPD2    H3 6266   4.196   2.536  11.451 -0.1525 -1.0352 -2.0965
  416MPD2     N 6267   3.792   2.358  11.337  0.1389  0.3714 -0.6749
  416MPD2    H5 6268   3.692   2.359  11.354  0.5390  1.5487  1.6494
  416MPD2    N1 6269   3.828   2.729  11.623 -0.0742  0.3136  0.4311
  416MPD2    H7 6270   3.726   2.731  11.623 -0.0671  0.9820  1.0766
  417TMC3    C1 6271   3.761   2.900  11.750  0.6101 -0.2957 -0.2488
  417TMC3    C2 6272   3.740   2.921  11.881 -0.5564  0.0383 -0.4899
  417TMC3    C3 6273   3.611   2.941  11.925 -0.4024 -0.9900 -0.0638
  417TMC3    C4 6274   3.658   2.908  11.664  0.3989  0.6436  0.7201
  417TMC3    C5 6275   3.535   2.901  11.707  0.4942  0.6621  0.6002
  417TMC3    C6 6276   3.506   2.915  11.838 -0.1391  0.6271 -0.1091
  417TMC3     C 6277   3.875   2.826  11.704  0.7541 -0.6340  0.3742
  417TMC3     O 6278   3.980   2.835  11.770  0.6032 -0.6879 -0.3954
  417TMC3     H 6279   3.831   2.916  11.939  0.0257 -1.8212 -1.5701
  417TMC3    H1 6280   3.670   2.902  11.556 -0.2186 -1.4910  0.7704
  417TMC3    H2 6281   3.405   2.920  11.877  0.5977 -1.7795  2.0962
  417TMC3    C7 6282   3.437   2.858  11.609  1.0712  0.5571  0.1272
  417TMC3    C8 6283   3.580   2.957  12.065 -0.2621 -0.4238 -0.1014
  417TMC3    O1 6284   3.478   2.820  11.500 -0.2353  0.2587 -0.4746
  417TMC3    O2 6285   3.464   2.954  12.110  0.4250 -0.1440  0.4297
  418TMC3    C1 6286   2.454   0.263   0.418  0.6451 -0.0063  0.5690
  418TMC3    C2 6287   2.329   0.309   0.453  0.0004  0.4853 -0.1194
  418TMC3    C3 6288   2.259   0.236   0.542  0.0089 -0.0796  0.4581
  418TMC3    C4 6289   2.512   0.149   0.473 -0.2248 -0.6319  0.1931
  418TMC3    C5 6290   2.446   0.099   0.585  0.5565  0.1839 -0.6221
  418TMC3    C6 6291   2.317   0.134   0.611 -0.5240 -0.1202  0.1785
  418TMC3     C 6292   2.508   0.320   0.298 -0.1999  0.4535  0.2852
  418TMC3     O 6293   2.458   0.419   0.250 -0.0360 -0.2632 -0.1424
  418TMC3     H 6294   2.275   0.393   0.413 -1.1537 -1.2652 -2.2477
  418TMC3    H1 6295   2.608   0.108   0.446  1.1062  3.1900 -0.9549
  418TMC3    H2 6296   2.255   0.072   0.674 -1.5155  2.6600  1.9421
  418TMC3    C7 6297   2.496   4.708   0.632 -0.6988  0.3050  0.2037
  418TMC3    C8 6298   2.116   0.241   0.553 -0.0113  0.2901 -0.6362
  418TMC3    O1 6299   2.532   4.628   0.551  0.6044 -0.3169 -0.0772
  418TMC3    O2 6300   2.062   0.351   0.564  0.6387 -0.0349  0.0765
  419MPD2     C 6301   1.438   1.992  12.317 -0.1081  0.5162 -0.0805
  419MPD2    C1 6302   1.366   2.095  12.257 -0.0530 -0.0382  0.4092
  419MPD2    C2 6303   1.259   2.151  12.323 -0.3845 -0.0376 -0.0121
  419MPD2    C3 6304   1.220   2.115  12.449  0.4639  0.2971 -0.1832
  419MPD2    C4 6305   1.296   2.016  12.504 -0.6612  0.5201  0.2543
  419MPD2    C5 6306   1.399   1.950  12.440 -0.2223 -0.5860 -0.5503
  419MPD2     H 6307   1.202   2.234  12.283 -1.4536 -0.7775 -0.0113
  419MPD2    H1 6308   1.271   1.978  12.602  0.2006 -0.7992 -0.0306
  419MPD2    H2 6309   1.521   1.944  12.267 -0.0403 -1.0145  1.5328
  419MPD2    H3 6310   1.446   1.866  12.490 -1.0774 -1.3211 -0.9830
  419MPD2     N 6311   1.116   2.184  12.506 -0.5004 -0.6679 -0.5121
  419MPD2    H5 6312   1.069   2.268  12.473  0.9758 -0.0703 -1.0645
  419MPD2    N1 6313   1.392   2.158  12.131 -0.3468 -0.3616  0.1895
  419MPD2    H7 6314   1.340   2.236  12.094  0.0023 -1.4469 -2.5895
  420TMC3    C1 6315   0.955   2.245  12.656 -0.3201  0.7571  0.2738
  420TMC3    C2 6316   0.867   2.287  12.563  0.1578  0.2770  0.2492
  420TMC3    C3 6317   0.777   2.386  12.592  0.0683  0.1837 -0.1293
  420TMC3    C4 6318   0.952   2.303  12.778  0.4985 -0.0651  0.2018
  420TMC3    C5 6319   0.854   2.394  12.803  0.0866  0.1594 -0.0626
  420TMC3    C6 6320   0.764   2.443  12.715  0.0573 -0.9935 -0.3682
  420TMC3     C 6321   1.060   2.153  12.628  0.4619  0.2382  0.4785
  420TMC3     O 6322   1.106   2.089  12.728  0.0066 -0.4841 -0.0474
  420TMC3     H 6323   0.868   2.228  12.472  2.3119  0.7443 -0.0246
  420TMC3    H1 6324   1.018   2.265  12.855 -1.2829  0.3126  1.9240
  420TMC3    H2 6325   0.678   2.503  12.740  1.4689  1.5732 -1.6307
  420TMC3    C7 6326   0.840   2.423  12.944 -0.2962  0.4817  0.3879
  420TMC3    C8 6327   0.709   2.431  12.473 -0.2172 -0.2258  0.3819
  420TMC3    O1 6328   0.879   2.338  13.022  0.6258 -0.0988  0.3513
  420TMC3    O2 6329   0.742   2.380  12.368 -0.6027 -0.0645 -0.9781
  421TMC3    C1 6330   2.045   3.711  13.896 -0.3416  0.7928  0.7602
  421TMC3    C2 6331   1.992   3.800  13.981  0.2473 -0.2769 -0.2028
  421TMC3    C3 6332   2.072   3.855  14.078 -0.2149 -0.2098  0.9341
  421TMC3    C4 6333   2.166   3.655  13.921 -0.5618  0.3323 -0.2143
  421TMC3    C5 6334   2.235   3.701  14.033 -0.5436 -0.4889 -0.4064
  421TMC3    C6 6335   2.193   3.805  14.108 -0.3826  0.5078  0.0219
  421TMC3     C 6336   1.983   3.701  13.761 -0.3036 -0.2462  0.0929
  421TMC3     O 6337   1.868   3.744  13.745 -0.1281 -0.1622  0.1596
  421TMC3     H 6338   1.892   3.836  13.957  0.4862 -0.4430 -1.4315
  421TMC3    H1 6339   2.215   3.583  13.856  0.6570 -0.1415  1.2140
  421TMC3    H2 6340   2.265   3.846  14.179 -1.3889 -0.6982  1.7446
  421TMC3    C7 6341   2.366   3.639  14.078  0.7289 -0.1786  0.0697
  421TMC3    C8 6342   2.051   3.992  14.134  0.1417 -0.4628 -0.0044
  421TMC3    O1 6343   2.424   3.694  14.169  0.3079  0.2508  0.6731
  421TMC3    O2 6344   2.151   4.043  14.181  0.3876  0.4647  0.4141
  422TMC3    C1 6345   4.434   0.593  12.717 -1.3228 -1.1058 -0.3511
  422TMC3    C2 6346   4.382   0.712  12.763  0.3195  0.0407  0.5244
  422TMC3    C3 6347   4.261   0.724  12.829  0.4690  0.2713  0.9157
  422TMC3    C4 6348   4.354   0.488  12.752  0.2419 -0.2603 -0.4969
  422TMC3    C5 6349   4.230   0.507  12.812  0.5328 -0.2097 -0.5162
  422TMC3    C6 6350   4.181   0.624  12.859  0.6136 -0.5680  0.3151
  422TMC3     C 6351   4.518   0.598  12.595 -0.0046  0.9119 -0.3639
  422TMC3     O 6352   4.550   0.712  12.569 -0.2438 -0.4168 -0.7596
  422TMC3     H 6353   4.433   0.806  12.743 -0.3635  0.6051  1.4258
  422TMC3    H1 6354   4.376   0.387  12.718  1.3259 -0.4553  0.7914
  422TMC3    H2 6355   4.088   0.637  12.914  0.5884  3.4544 -0.6752
  422TMC3    C7 6356   4.164   0.390  12.851  0.3547 -0.4960  0.3719
  422TMC3    C8 6357   4.238   0.866  12.858  0.5681  0.3607 -0.4102
  422TMC3    O1 6358   4.223   0.286  12.857  0.0645  0.0053 -0.3212
  422TMC3    O2 6359   4.328   0.935  12.901 -0.1991  0.6351 -0.1181
  423MPD2     C 6360   1.684   1.945   0.230  0.1271  0.3656 -0.5263
  423MPD2    C1 6361   1.673   1.830   0.300  0.4719  0.5867 -0.7670
  423MPD2    C2 6362   1.606   1.728   0.247 -0.3288 -0.8193  0.9221
  423MPD2    C3 6363   1.539   1.737   0.123 -0.1561  0.3522 -0.2481
  423MPD2    C4 6364   1.544   1.860   0.055 -0.3759 -0.2945 -0.3453
  423MPD2    C5 6365   1.617   1.959   0.112 -0.5810  0.2689 -0.1481
  423MPD2     H 6366   1.611   1.630   0.294  2.7654 -0.6926  0.8404
  423MPD2    H1 6367   1.489   1.881  17.703  0.5633  0.4645 -0.7373
  423MPD2    H2 6368   1.717   2.041   0.268 -0.0888  1.0196 -1.9868
  423MPD2    H3 6369   1.620   2.054   0.060 -0.4093 -0.0201 -0.6698
  423MPD2     N 6370   1.461   1.632   0.074  0.0236 -0.2143  0.2412
  423MPD2    H5 6371   1.413   1.654  17.727  0.7600 -0.9849 -0.3668
  423MPD2    N1 6372   1.730   1.815   0.431  0.2178 -0.6335 -0.2927
  423MPD2    H7 6373   1.734   1.720   0.466 -1.8422  0.0722  1.8267
  424TMC3    C1 6374   1.778   1.870   0.650  0.0731  0.7080  0.1018
  424TMC3    C2 6375   1.827   1.741   0.668  0.0727 -0.4136 -0.0274
  424TMC3    C3 6376   1.800   1.675   0.784 -0.1827  0.1390 -0.5349
  424TMC3    C4 6377   1.719   1.938   0.747  0.0982  0.4627 -0.3203
  424TMC3    C5 6378   1.679   1.859   0.848  0.3264  0.1038 -0.8722
  424TMC3    C6 6379   1.717   1.735   0.878  0.5602 -0.0708  0.2600
  424TMC3     C 6380   1.758   1.917   0.517 -1.0184  0.4722 -0.1777
  424TMC3     O 6381   1.755   2.039   0.501 -0.2505 -0.1316  0.1770
  424TMC3     H 6382   1.884   1.681   0.598 -1.2001 -0.3926 -1.1054
  424TMC3    H1 6383   1.684   2.037   0.724  1.3378  0.5653 -1.7650
  424TMC3    H2 6384   1.689   1.681   0.968  0.2402  1.6186  1.1780
  424TMC3    C7 6385   1.605   1.935   0.948 -0.0862  0.6158  0.2410
  424TMC3    C8 6386   1.798   1.524   0.790 -0.4840 -0.5345 -0.0255
  424TMC3    O1 6387   1.539   2.032   0.917 -0.2172  0.1765 -0.3727
  424TMC3    O2 6388   1.705   1.461   0.838 -0.2616 -0.1541 -0.2918
  425MPD2     C 6389   0.027   1.133  17.557 -0.0864 -0.2591 -0.0233
  425MPD2    C1 6390   4.681   1.018  17.524 -0.3116  0.1930  0.6012
  425MPD2    C2 6391   4.549   1.009  17.566 -0.8686  0.5420  0.8813
  425MPD2    C3 6392   4.490   1.117  17.633  0.3008 -0.6337 -0.3838
  425MPD2    C4 6393   4.568   1.231  17.653 -0.1894 -0.1025 -0.4279
  425MPD2    C5 6394   4.703   1.238  17.620  0.0907  0.3323 -0.5501
  425MPD2     H 6395   4.486   0.922  17.550 -1.6037  0.6542  3.0419
  425MPD2    H1 6396   4.530   1.320  17.702  1.1700 -0.6008  1.5224
  425MPD2    H2 6397   0.126   1.142  17.513 -0.4803  0.9295 -0.6918
  425MPD2    H3 6398   0.025   1.326  17.648 -1.0727  0.1705  2.3932
  425MPD2     N 6399   4.365   1.095  17.685  0.3202  0.0971 -0.5901
  425MPD2    H5 6400   4.325   1.003  17.673 -1.1633  0.4520  1.6179
  425MPD2    N1 6401   0.014   0.911  17.463  0.1678  0.1463  0.1188
  425MPD2    H7 6402   0.112   0.935  17.451 -0.6728  1.8174 -3.6147
  426TMC3    C1 6403   0.081   0.694  17.367  0.1657 -0.0945 -0.0652
  426TMC3    C2 6404   0.031   0.580  17.298  0.8774 -0.4283 -0.2793
  426TMC3    C3 6405   0.108   0.468  17.305 -0.4358 -0.2435 -0.1465
  426TMC3    C4 6406   0.188   0.683  17.451 -0.9872 -0.3826  0.3569
  426TMC3    C5 6407   0.266   0.567  17.452 -0.4521 -0.3158 -0.1449
  426TMC3    C6 6408   0.231   0.465  17.366  0.4648  0.2267 -0.0445
  426TMC3     C 6409   4.708   0.780  17.430 -0.7647  0.0463 -0.6516
  426TMC3     O 6410   4.600   0.733  17.458 -0.4328  0.3918 -0.1702
  426TMC3     H 6411   4.669   0.597  17.253 -0.2106 -1.3344  1.6996
  426TMC3    H1 6412   0.203   0.748  17.537 -0.6180  3.4343 -2.5849
  426TMC3    H2 6413   0.285   0.370  17.364  0.9858  0.5030  0.9944
  426TMC3    C7 6414   0.295   0.511  17.580  0.0787 -0.0714  0.3712
  426TMC3    C8 6415   0.070   0.352  17.223 -0.2151 -0.3983  0.8982
  426TMC3    O1 6416   0.390   0.433  17.595  0.4457 -0.9464 -0.2825
  426TMC3    O2 6417   0.158   0.288  17.169 -0.0225  0.0706  0.5830
  427MPD2     C 6418   3.563   2.914  15.174  0.5465 -0.2230  0.5833
  427MPD2    C1 6419   3.547   2.920  15.309  0.0419 -0.5492  0.4688
  427MPD2    C2 6420   3.424   2.965  15.360  0.0214 -0.4337 -0.4122
  427MPD2    C3 6421   3.327   3.015  15.275 -0.1140 -0.1663  0.2195
  427MPD2    C4 6422   3.359   3.031  15.140  0.6861  0.6066 -0.5911
  427MPD2    C5 6423   3.467   2.965  15.093 -0.2415 -0.0518  0.4871
  427MPD2     H 6424   3.396   2.960  15.465 -0.0672  0.3788 -0.3925
  427MPD2    H1 6425   3.287   3.067  15.068  1.0079  0.1597 -1.1303
  427MPD2    H2 6426   3.647   2.877  15.117  0.0051  0.3222 -0.5851
  427MPD2    H3 6427   3.470   2.954  14.985 -1.3636  1.3475  0.3036
  427MPD2     N 6428   3.194   3.036  15.308  0.3451 -0.1610 -0.4542
  427MPD2    H5 6429   3.139   3.067  15.227 -0.0847 -0.3281 -0.2271
  427MPD2    N1 6430   3.651   2.874  15.392  0.1673  0.4042 -0.4209
  427MPD2    H7 6431   3.634   2.882  15.492  0.8436 -0.2417 -0.2487
  428TMC3    C1 6432   3.858   2.807  15.467 -0.5261 -1.1508 -1.3053
  428TMC3    C2 6433   3.803   2.747  15.575 -0.5621 -0.1194  0.5290
  428TMC3    C3 6434   3.886   2.672  15.657 -0.3373  0.2013 -0.3984
  428TMC3    C4 6435   3.993   2.805  15.438 -0.1042 -0.1806  0.1262
  428TMC3    C5 6436   4.072   2.742  15.526  0.6017  0.0480 -0.0082
  428TMC3    C6 6437   4.019   2.667  15.629  0.0725  0.0926 -0.2722
  428TMC3     C 6438   3.775   2.840  15.356 -0.5460 -0.5525 -0.2208
  428TMC3     O 6439   3.821   2.830  15.244 -0.4657 -0.1047 -1.1690
  428TMC3     H 6440   3.698   2.722  15.574 -0.2430 -1.4391 -0.8996
  428TMC3    H1 6441   4.027   2.875  15.363 -0.8558  1.4865  1.3466
  428TMC3    H2 6442   4.082   2.597  15.683 -0.2519  1.8614  2.3876
  428TMC3    C7 6443   4.179   2.819  15.583 -0.0400 -0.2484  0.4635
  428TMC3    C8 6444   3.836   2.596  15.765 -0.2822  0.1498 -0.8805
  428TMC3    O1 6445   4.191   2.787  15.701  0.2565 -0.1065  0.4458
  428TMC3    O2 6446   3.905   2.509  15.815 -0.6339 -0.2301  0.4637
  429MPD2     C 6447   3.796   2.907   0.143 -0.0253  0.7547  0.5572
  429MPD2    C1 6448   3.939   2.916   0.159  0.2090 -0.1290 -0.0457
  429MPD2    C2 6449   4.008   3.012   0.090  0.6947  0.0390  0.2827
  429MPD2    C3 6450   3.940   3.079  17.727  0.3139  0.6382  0.8760
  429MPD2    C4 6451   3.809   3.066  17.701 -0.4289 -0.2999  0.4869
  429MPD2    C5 6452   3.735   2.983   0.045 -0.2604  0.5805  0.5357
  429MPD2     H 6453   4.111   3.035   0.113  0.5278 -2.4092  3.4914
  429MPD2    H1 6454   3.760   3.124  17.624  1.2854  0.3478 -0.1097
  429MPD2    H2 6455   3.740   2.834   0.198 -0.9656 -0.5119 -2.0659
  429MPD2    H3 6456   3.630   2.965   0.027 -0.0047 -1.3568  0.9783
  429MPD2     N 6457   4.025   3.161  17.644 -0.1514 -0.2539  0.0083
  429MPD2    H5 6458   4.123   3.172  17.667 -0.1257 -1.5910  0.5030
  429MPD2    N1 6459   3.995   2.840   0.271  0.4652 -0.7688  0.2823
  429MPD2    H7 6460   3.936   2.764   0.303 -0.1617 -0.8344 -1.0619
  430TMC3    C1 6461   4.090   3.272  17.438 -0.3590  0.0533  0.1522
  430TMC3    C2 6462   4.052   3.347  17.329  0.7716  0.1294 -0.0749
  430TMC3    C3 6463   4.143   3.418  17.262 -0.0768  0.2868  0.6627
  430TMC3    C4 6464   4.221   3.263  17.482 -0.5130  0.2356  1.5196
  430TMC3    C5 6465   4.312   3.324  17.391  0.2483  0.6419 -0.0694
  430TMC3    C6 6466   4.281   3.411  17.290  0.0306  0.6179 -0.0066
  430TMC3     C 6467   3.983   3.234  17.531  0.2671 -0.4536 -0.0913
  430TMC3     O 6468   3.865   3.273  17.512 -0.0307  0.0392 -0.2184
  430TMC3     H 6469   3.949   3.361  17.298  0.9386  2.8685  0.5586
  430TMC3    H1 6470   4.246   3.188  17.557 -0.1964 -2.6407 -1.4435
  430TMC3    H2 6471   4.353   3.462  17.227  0.6257 -0.7118 -0.3876
  430TMC3    C7 6472   4.435   3.250  17.379 -0.3973 -0.0191  0.3571
  430TMC3    C8 6473   4.102   3.470  17.137 -0.1115  0.3102  0.6684
  430TMC3    O1 6474   4.425   3.144  17.429 -0.2173  0.2975 -0.3527
  430TMC3    O2 6475   4.015   3.416  17.068 -0.2661  0.1131 -0.0485
  431MPD2     C 6476   0.878   2.693  12.011 -0.3822  0.5235  0.5887
  431MPD2    C1 6477   1.007   2.735  11.977  0.4244  1.0316 -0.0416
  431MPD2    C2 6478   1.086   2.649  11.900  0.5313 -0.8634  0.1403
  431MPD2    C3 6479   1.042   2.516  11.890 -0.8349  0.4407  0.0772
  431MPD2    C4 6480   0.917   2.478  11.936  0.1626 -0.0629  0.5419
  431MPD2    C5 6481   0.833   2.568  11.986  0.1907 -0.1549  0.4260
  431MPD2     H 6482   1.184   2.678  11.864  0.2837  0.0689  0.2180
  431MPD2    H1 6483   0.888   2.374  11.931  0.3357 -0.0525 -0.6885
  431MPD2    H2 6484   0.819   2.773  12.053 -1.8149  0.2424 -0.8734
  431MPD2    H3 6485   0.737   2.535  12.027 -0.6079 -0.4390 -1.7026
  431MPD2     N 6486   1.126   2.413  11.837  0.6677 -0.0489  0.4089
  431MPD2    H5 6487   1.087   2.320  11.847 -2.2589  0.8063 -2.6950
  431MPD2    N1 6488   1.058   2.862  12.018 -0.3959 -0.2379  0.0362
  431MPD2    H7 6489   1.135   2.903  11.967 -2.0275  0.8725 -1.5696
  432TMC3    C1 6490   1.338   2.322  11.772  0.3180 -0.0986 -0.0127
  432TMC3    C2 6491   1.441   2.327  11.686  0.5309 -0.0695 -0.0472
  432TMC3    C3 6492   1.558   2.263  11.715  0.6387 -0.5143  0.0055
  432TMC3    C4 6493   1.350   2.254  11.887 -0.1661  0.0082  0.3028
  432TMC3    C5 6494   1.472   2.202  11.923  0.2941 -0.1873 -0.2403
  432TMC3    C6 6495   1.574   2.201  11.833  0.4392 -0.0181 -0.4249
  432TMC3     C 6496   1.252   2.433  11.774 -0.7001 -0.2101 -0.3436
  432TMC3     O 6497   1.302   2.541  11.741  0.2999  0.3300 -0.5751
  432TMC3     H 6498   1.434   2.395  11.602  0.2808 -0.1501 -0.0928
  432TMC3    H1 6499   1.259   2.242  11.946 -0.9529  3.3011 -0.2782
  432TMC3    H2 6500   1.665   2.145  11.852  0.6567  1.7321  3.7664
  432TMC3    C7 6501   1.491   2.127  12.045  0.2963 -0.8379  0.7288
  432TMC3    C8 6502   1.666   2.327  11.653 -0.1220 -0.0598 -0.3898
  432TMC3    O1 6503   1.581   2.049  12.061  0.0813 -0.6437  0.4055
  432TMC3    O2 6504   1.658   2.330  11.528  0.9536 -0.3354 -0.2888
  433MPD2     C 6505   4.527   1.831  10.932 -0.0381 -0.0306 -0.5055
  433MPD2    C1 6506   4.418   1.777  10.993 -0.3993 -0.1773  0.8075
  433MPD2    C2 6507   4.408   1.793  11.128 -0.3974 -0.6004  0.6896
  433MPD2    C3 6508   4.495   1.862  11.199  0.2363  0.0078 -0.4892
  433MPD2    C4 6509   4.608   1.909  11.136  0.2743 -0.5254 -0.0132
  433MPD2    C5 6510   4.623   1.895  11.003 -0.7371 -0.7105 -0.1332
  433MPD2     H 6511   4.335   1.735  11.184  0.8416 -0.1571  2.7459
  433MPD2    H1 6512   4.682   1.969  11.187  1.3590 -2.4426  0.6996
  433MPD2    H2 6513   4.542   1.822  10.825 -0.6798 -1.7977 -0.4554
  433MPD2    H3 6514   4.700   1.944  10.943 -0.1480 -0.5457  0.7608
  433MPD2     N 6515   4.466   1.877  11.340 -0.1050 -0.7826 -0.2171
  433MPD2    H5 6516   4.376   1.838  11.367 -1.3624  2.5803  0.5141
  433MPD2    N1 6517   4.334   1.698  10.906  0.1987  0.0814 -0.2564
  433MPD2    H7 6518   4.356   1.694  10.807  0.8569 -1.9644 -0.0328
  434TMC3    C1 6519   4.173   1.527  10.849  0.1903  0.4688  0.0163
  434TMC3    C2 6520   4.106   1.417  10.895 -0.2573 -0.0647 -0.5079
  434TMC3    C3 6521   4.112   1.306  10.819  0.1865 -0.7993 -0.1813
  434TMC3    C4 6522   4.226   1.533  10.721 -0.3655  0.5192 -0.5125
  434TMC3    C5 6523   4.203   1.425  10.642 -0.3187 -0.2853 -0.6378
  434TMC3    C6 6524   4.155   1.309  10.692  0.2998 -0.1032 -0.5478
  434TMC3     C 6525   4.235   1.613  10.951 -0.4386  0.5549 -0.1391
  434TMC3     O 6526   4.180   1.606  11.061 -0.0442  0.4706  0.2613
  434TMC3     H 6527   4.068   1.421  10.996  1.5175  0.0528  0.1651
  434TMC3    H1 6528   4.275   1.623  10.686 -1.8925  1.8749  0.8666
  434TMC3    H2 6529   4.159   1.222  10.628 -0.9767 -1.2531  0.9598
  434TMC3    C7 6530   4.239   1.442  10.505 -0.4201  0.1810 -0.2391
  434TMC3    C8 6531   4.122   1.191  10.903 -0.8323  1.1199  0.3321
  434TMC3    O1 6532   4.291   1.550  10.472 -0.1467 -0.4114 -0.3020
  434TMC3    O2 6533   4.121   1.208  11.024  0.2475  0.1031  0.2462
  435MPD2     C 6534   1.594   1.923  15.667 -0.5570 -0.0506  0.0750
  435MPD2    C1 6535   1.588   1.914  15.804 -0.2082 -0.0150  0.5296
  435MPD2    C2 6536   1.690   1.850  15.874  0.1293 -0.3350 -0.0700
  435MPD2    C3 6537   1.785   1.776  15.813  0.5378 -0.2096 -0.6392
  435MPD2    C4 6538   1.793   1.784  15.672  0.4259  0.0240  0.6952
  435MPD2    C5 6539   1.699   1.853  15.603 -0.4067  0.1489 -0.2645
  435MPD2     H 6540   1.675   1.853  15.982  1.2845 -0.4046  0.0967
  435MPD2    H1 6541   1.861   1.723  15.613 -0.6720 -1.6873  1.1874
  435MPD2    H2 6542   1.517   1.972  15.608  1.2037  1.1365 -1.2447
  435MPD2    H3 6543   1.702   1.846  15.495  0.8412  1.5166 -0.3170
  435MPD2     N 6544   1.863   1.681  15.887  0.7350 -0.1443  0.6499
  435MPD2    H5 6545   1.839   1.675  15.985  1.8091 -0.0906  0.9250
  435MPD2    N1 6546   1.482   1.970  15.868  0.0223  0.0902  0.5023
  435MPD2    H7 6547   1.481   1.941  15.966 -0.3072  2.7613  1.2863
  436TMC3    C1 6548   1.156   2.079  16.119 -0.0208  0.4332  0.0325
  436TMC3    C2 6549   1.272   2.050  16.046  0.2947  0.8316  0.8091
  436TMC3    C3 6550   1.252   2.025  15.914 -0.2388  0.3975 -0.0648
  436TMC3    C4 6551   1.031   2.097  16.068 -0.1159 -0.3465  0.1471
  436TMC3    C5 6552   1.021   2.076  15.934  0.1635  0.7197 -0.3386
  436TMC3    C6 6553   1.134   2.048  15.865  0.2226  0.4575  0.0268
  436TMC3     C 6554   1.185   2.129  16.255  0.4013  0.2094 -0.1154
  436TMC3     O 6555   1.303   2.142  16.288 -0.2939 -0.3933 -0.3360
  436TMC3     H 6556   1.364   2.041  16.102  0.3530  0.7242  0.6961
  436TMC3    H1 6557   0.944   2.125  16.126  0.3923  0.2571  0.6071
  436TMC3    H2 6558   1.117   2.029  15.760  0.8974  0.8114 -0.1455
  436TMC3    C7 6559   0.888   2.076  15.871 -0.3662  0.9857 -0.4500
  436TMC3    C8 6560   1.359   2.014  15.814 -0.0420  0.7959  0.1835
  436TMC3    O1 6561   0.799   2.071  15.954  0.0578  0.2593  0.1626
  436TMC3    O2 6562   1.331   2.047  15.698  0.0100 -0.7409 -0.1284
  437TMC3    C1 6563   1.037   3.082  11.418  0.7080  0.2752 -0.3749
  437TMC3    C2 6564   1.083   3.122  11.296  0.1490 -0.1016 -0.2627
  437TMC3    C3 6565   1.019   3.222  11.235 -0.3711  0.2561 -0.1057
  437TMC3    C4 6566   0.919   3.126  11.483 -0.6227  0.1433  0.8097
  437TMC3    C5 6567   0.842   3.211  11.406 -0.3129  0.5685  0.3224
  437TMC3    C6 6568   0.887   3.256  11.283 -0.0688 -0.3688 -0.1061
  437TMC3     C 6569   1.094   2.960  11.471  0.0398  0.2111 -0.3057
  437TMC3     O 6570   1.080   2.949  11.591  0.1395  0.2789 -0.6304
  437TMC3     H 6571   1.178   3.084  11.262  0.2468 -0.4238  0.3719
  437TMC3    H1 6572   0.881   3.075  11.571  0.3623  0.5077  1.4481
  437TMC3    H2 6573   0.837   3.335  11.228 -2.3397 -0.6789  1.5370
  437TMC3    C7 6574   0.716   3.253  11.462 -0.2915  0.0756 -0.5278
  437TMC3    C8 6575   1.073   3.250  11.095  0.1377 -0.3580  0.3821
  437TMC3    O1 6576   0.638   3.301  11.379 -0.2459  0.0302  0.1103
  437TMC3    O2 6577   1.183   3.200  11.067  0.2639  0.0971  0.7822
  438MPD2     C 6578   2.563   0.051  16.891  0.6613 -0.9021 -0.4999
  438MPD2    C1 6579   2.640   4.702  16.971  0.2417  0.1378  0.2573
  438MPD2    C2 6580   2.618   4.696  17.107 -1.0373  0.2558  0.5200
  438MPD2    C3 6581   2.509   0.027  17.160 -0.0858 -0.2730  0.5317
  438MPD2    C4 6582   2.428   0.109  17.076  0.6052 -0.0644 -0.2555
  438MPD2    C5 6583   2.457   0.109  16.944  0.0381 -0.7197 -0.0475
  438MPD2     H 6584   2.676   4.627  17.167  1.6458  2.8717  0.9510
  438MPD2    H1 6585   2.342   0.159  17.119  1.3717  0.4763  0.6439
  438MPD2    H2 6586   2.579   0.046  16.784  2.7888 -2.6256 -0.0927
  438MPD2    H3 6587   2.379   0.151  16.881  0.5850  1.5612  0.7993
  438MPD2     N 6588   2.488   0.016  17.303 -0.3942  0.3462 -0.0647
  438MPD2    H5 6589   2.400   0.049  17.340 -1.0720 -0.1796 -1.2030
  438MPD2    N1 6590   2.736   4.607  16.920 -0.4572 -0.1108 -0.2172
  438MPD2    H7 6591   2.782   4.546  16.987 -0.9906  0.3193  0.5335
  439TMC3    C1 6592   2.860   4.480  16.761  0.1296  0.3368 -0.0299
  439TMC3    C2 6593   2.906   4.462  16.638  0.3522 -0.1261  0.1982
  439TMC3    C3 6594   3.005   4.374  16.617 -0.0817  0.3857  0.1699
  439TMC3    C4 6595   2.885   4.385  16.860 -0.0137  0.1264 -0.9480
  439TMC3    C5 6596   2.988   4.301  16.839 -0.2826  0.4893  0.3070
  439TMC3    C6 6597   3.055   4.301  16.717  0.4455  0.2258  0.2627
  439TMC3     C 6598   2.771   4.594  16.787 -0.2360  0.0655  0.4886
  439TMC3     O 6599   2.736   4.670  16.697 -0.1511  0.7355 -0.2836
  439TMC3     H 6600   2.863   4.525  16.561 -3.1292 -0.2482  2.0662
  439TMC3    H1 6601   2.836   4.387  16.957  3.2501 -3.7599  0.7980
  439TMC3    H2 6602   3.133   4.228  16.699  0.1495  0.6695 -2.8024
  439TMC3    C7 6603   2.973   4.170  16.906  0.9863  0.2029 -0.4794
  439TMC3    C8 6604   3.036   4.338  16.478  0.8118  0.1797 -0.3094
  439TMC3    O1 6605   2.858   4.147  16.952  0.0450  0.1759  0.2106
  439TMC3    O2 6606   3.099   4.236  16.472  0.2355  1.0639 -0.1841
  440MPD2     C 6607   1.625   0.535  14.547 -0.0230 -0.0348  0.4394
  440MPD2    C1 6608   1.559   0.562  14.671 -0.7244  0.1103  0.2200
  440MPD2    C2 6609   1.616   0.503  14.782 -0.5853  0.0067 -0.3498
  440MPD2    C3 6610   1.718   0.413  14.774  0.3649  0.0086 -0.2876
  440MPD2    C4 6611   1.761   0.374  14.655  0.6912  0.4461  0.7673
  440MPD2    C5 6612   1.725   0.438  14.540 -0.1247 -0.4933 -0.7724
  440MPD2     H 6613   1.578   0.530  14.880 -0.1971 -0.9209  0.0608
  440MPD2    H1 6614   1.842   0.303  14.644  0.0832  0.1686 -1.9906
  440MPD2    H2 6615   1.604   0.582  14.451  0.2199  1.3997  1.0847
  440MPD2    H3 6616   1.776   0.414  14.447 -0.2748  0.1782 -1.0273
  440MPD2     N 6617   1.767   0.340  14.883  0.1966  0.2281  0.3049
  440MPD2    H5 6618   1.832   0.266  14.859  0.9800 -0.1100  3.4609
  440MPD2    N1 6619   1.445   0.641  14.695 -0.7511  0.3332  0.2288
  440MPD2    H7 6620   1.414   0.660  14.789  0.4601 -1.4338  0.9817
  441TMC3    C1 6621   1.840   0.277  15.089  0.0659  0.1062 -0.6745
  441TMC3    C2 6622   1.954   0.356  15.083  0.5045  0.0854 -0.1040
  441TMC3    C3 6623   2.029   0.346  15.202 -1.4292 -0.3517  0.1184
  441TMC3    C4 6624   1.800   0.191  15.186 -0.1023 -0.0952  0.1768
  441TMC3    C5 6625   1.893   0.165  15.280 -0.3944  0.2612  0.4993
  441TMC3    C6 6626   2.004   0.246  15.293 -0.3962  0.8549  0.0424
  441TMC3     C 6627   1.727   0.342  15.012  0.1021  0.2438 -0.4503
  441TMC3     O 6628   1.635   0.398  15.071 -0.1988 -0.0844  0.0751
  441TMC3     H 6629   1.975   0.425  15.002 -0.7490  0.8272  0.2026
  441TMC3    H1 6630   1.709   0.133  15.196  0.3350 -0.8738 -0.3367
  441TMC3    H2 6631   2.063   0.256  15.384 -1.3867  0.6645  0.7044
  441TMC3    C7 6632   1.850   0.084  15.395  0.0044  0.5775 -0.3723
  441TMC3    C8 6633   2.058   0.487  15.254 -0.8851 -0.4591 -0.3784
  441TMC3    O1 6634   1.732   0.057  15.417 -0.3440 -0.4920 -0.4516
  441TMC3    O2 6635   2.134   0.498  15.352  0.1288 -0.3828 -0.4422
  442MPD2     C 6636   4.516   0.742  16.651  0.3895 -0.3215  0.2424
  442MPD2    C1 6637   4.431   0.673  16.736  0.0988  0.0286 -0.2595
  442MPD2    C2 6638   4.431   0.537  16.731 -0.3545  1.0475  1.3467
  442MPD2    C3 6639   4.525   0.473  16.647  0.1330  0.2013 -0.7766
  442MPD2    C4 6640   4.614   0.538  16.561  0.0260  0.1976  0.0098
  442MPD2    C5 6641   4.606   0.678  16.561 -0.8681  0.4076  0.3589
  442MPD2     H 6642   4.375   0.484  16.806 -0.6129  2.3871  2.0961
  442MPD2    H1 6643   4.683   0.479  16.502 -2.1530  0.7987 -3.1700
  442MPD2    H2 6644   4.521   0.850  16.654 -0.1137 -0.3546  2.2245
  442MPD2    H3 6645   4.667   0.742  16.498 -0.8006 -0.1266 -0.1162
  442MPD2     N 6646   4.532   0.334  16.632 -0.4360  0.3630 -0.0371
  442MPD2    H5 6647   4.609   0.301  16.574  0.6923  0.6745  1.2919
  442MPD2    N1 6648   4.348   0.733  16.828  0.1024  0.0920  0.1774
  442MPD2    H7 6649   4.290   0.669  16.882  0.1709 -1.0523 -1.0959
  443TMC3    C1 6650   4.228   0.887  16.958  0.6209 -0.6512  1.4636
  443TMC3    C2 6651   4.146   0.997  16.941  0.5357 -0.2698  0.1653
  443TMC3    C3 6652   4.012   0.988  16.962 -0.5217 -0.1856  0.3983
  443TMC3    C4 6653   4.173   0.781  17.027  0.5068  0.4606  0.0413
  443TMC3    C5 6654   4.044   0.792  17.074 -0.4825 -0.3542  0.2417
  443TMC3    C6 6655   3.950   0.887  17.039 -0.0459  0.4984  0.2709
  443TMC3     C 6656   4.334   0.866  16.857 -0.2751  0.5273  0.0837
  443TMC3     O 6657   4.403   0.958  16.818  0.1362 -0.3006  0.5694
  443TMC3     H 6658   4.185   1.073  16.875 -0.7780 -0.2264 -0.5586
  443TMC3    H1 6659   4.236   0.696  17.048  1.6367  1.7600  1.9036
  443TMC3    H2 6660   3.845   0.872  17.065 -0.4585  1.4456 -0.9055
  443TMC3    C7 6661   4.009   0.713  17.188  0.4591 -0.0996 -0.0918
  443TMC3    C8 6662   3.929   1.100  16.923 -0.3852  0.1172  0.2171
  443TMC3    O1 6663   4.073   0.609  17.202  0.5443  0.5961 -0.2693
  443TMC3    O2 6664   3.853   1.144  17.010 -0.0598  0.3267 -0.1376
  444MPD2     C 6665   4.668   0.150  17.551 -0.8384 -0.7024 -0.7337
  444MPD2    C1 6666   4.586   0.059  17.493 -0.1877 -0.6792  0.4562
  444MPD2    C2 6667   4.634   4.707  17.392  0.2120 -0.5354  0.0804
  444MPD2    C3 6668   0.032   4.705  17.363  0.1210  0.5441 -0.0646
  444MPD2    C4 6669   0.117   0.049  17.438  0.0584 -0.0417 -0.1743
  444MPD2    C5 6670   0.067   0.139  17.527  0.4226  0.0913 -0.1185
  444MPD2     H 6671   4.562   4.633  17.358  0.2005  0.3426 -1.7890
  444MPD2    H1 6672   0.225   0.040  17.439 -0.0582 -1.4568  0.3306
  444MPD2    H2 6673   4.642   0.234  17.614 -0.0422  0.2980 -1.7349
  444MPD2    H3 6674   0.133   0.214  17.569 -1.0023  1.4367 -0.2906
  444MPD2     N 6675   0.081   4.608  17.276 -0.5600  0.0006  0.1369
  444MPD2    H5 6676   0.019   4.532  17.248 -0.0348 -0.4461  0.1952
  444MPD2    N1 6677   4.448   0.044  17.534  0.6552 -0.1122  0.4799
  444MPD2    H7 6678   4.389   4.717  17.479  0.5735 -0.9645  1.5343
  445TMC3    C1 6679   0.240   4.480  17.160 -0.5826 -0.2425 -0.4226
  445TMC3    C2 6680   0.180   4.360  17.166  0.2144  0.0314  0.3959
  445TMC3    C3 6681   0.235   4.246  17.106  0.1069  0.4606  0.3640
  445TMC3    C4 6682   0.338   4.499  17.065  0.0822  0.3116  0.3290
  445TMC3    C5 6683   0.384   4.390  16.998 -0.6103 -0.1059  0.6719
  445TMC3    C6 6684   0.335   4.264  17.014  0.1568  0.3549  0.0064
  445TMC3     C 6685   0.212   4.602  17.238 -0.6237 -0.6092  0.1554
  445TMC3     O 6686   0.301   4.688  17.246  0.5786  0.3038  0.0106
  445TMC3     H 6687   0.110   4.333  17.244  0.4453 -0.1084  0.5533
  445TMC3    H1 6688   0.362   4.603  17.049  0.1228  0.3858  0.8824
  445TMC3    H2 6689   0.375   4.191  16.944  0.1594  0.4039 -0.0433
  445TMC3    C7 6690   0.503   4.409  16.909 -0.4579  0.5127 -0.4813
  445TMC3    C8 6691   0.148   4.130  17.105  0.6596  0.2357  0.3423
  445TMC3    O1 6692   0.496   4.509  16.839  0.2032 -0.4440  0.0945
  445TMC3    O2 6693   0.042   4.130  17.169 -0.7079 -0.7387  0.2039
  446MPD2     C 6694   4.103   1.278  11.499 -0.6835 -0.0528  0.5106
  446MPD2    C1 6695   4.100   1.289  11.361  0.2681 -0.1895 -0.2379
  446MPD2    C2 6696   4.193   1.358  11.287 -0.6078  0.0474 -0.2247
  446MPD2    C3 6697   4.301   1.408  11.346 -0.4507  0.4953  0.2711
  446MPD2    C4 6698   4.308   1.411  11.481  0.2993  0.0003 -0.0866
  446MPD2    C5 6699   4.203   1.356  11.552 -0.3862 -0.2130 -0.0602
  446MPD2     H 6700   4.196   1.369  11.179 -1.5425 -0.8905 -0.3423
  446MPD2    H1 6701   4.380   1.463  11.544  1.4708 -0.0324 -1.4073
  446MPD2    H2 6702   4.033   1.233  11.568 -0.6920 -1.4706 -0.4290
  446MPD2    H3 6703   4.197   1.368  11.659 -2.7811  0.0172 -0.2228
  446MPD2     N 6704   4.407   1.459  11.273 -0.4316  0.6920  0.1278
  446MPD2    H5 6705   4.386   1.450  11.174  0.6975 -0.8307  0.0332
  446MPD2    N1 6706   3.997   1.227  11.288 -0.4135 -0.2688 -0.1848
  446MPD2    H7 6707   4.004   1.232  11.187  1.0755  1.5642  0.0236
  447TMC3    C1 6708   4.627   1.522  11.210  0.5501 -0.1630 -0.1516
  447TMC3    C2 6709   4.583   1.517  11.078 -0.3410 -0.3256 -0.3918
  447TMC3    C3 6710   4.670   1.565  10.986  0.6503 -0.0871 -0.5365
  447TMC3    C4 6711   0.015   1.571  11.247 -0.1014 -0.1842 -0.1935
  447TMC3    C5 6712   0.104   1.607  11.152 -0.1699  0.0087  0.1448
  447TMC3    C6 6713   0.062   1.604  11.013  0.0764  0.2071  0.6989
  447TMC3     C 6714   4.531   1.499  11.311 -0.0886  0.2343  0.3383
  447TMC3     O 6715   4.583   1.515  11.424 -0.2982 -0.0373 -0.0149
  447TMC3     H 6716   4.483   1.492  11.043 -0.9464 -0.4068  1.4093
  447TMC3    H1 6717   0.049   1.578  11.350  0.7628  1.2649 -0.5846
  447TMC3    H2 6718   0.129   1.638  10.935 -1.0078  0.0372 -0.2931
  447TMC3    C7 6719   0.254   1.586  11.187 -0.0407 -0.3155  0.3361
  447TMC3    C8 6720   4.644   1.537  10.847 -0.3739 -0.2794 -0.1292
  447TMC3    O1 6721   0.311   1.541  11.089  0.1227  0.2988 -0.1907
  447TMC3    O2 6722   4.699   1.612  10.770  0.1281 -0.4031  0.0462
  448TMC3    C1 6723   2.483   1.188  17.175  0.0375 -0.2635 -0.0805
  448TMC3    C2 6724   2.479   1.067  17.121 -0.7668 -0.3689  0.3471
  448TMC3    C3 6725   2.492   0.956  17.205  0.2207 -0.4222  0.9238
  448TMC3    C4 6726   2.513   1.201  17.306  0.6966 -0.2112 -0.2322
  448TMC3    C5 6727   2.532   1.091  17.383 -0.1534  0.7860  0.2855
  448TMC3    C6 6728   2.515   0.963  17.337 -0.2295  0.8174 -0.3258
  448TMC3     C 6729   2.441   1.312  17.111 -0.2802 -0.7559 -0.1684
  448TMC3     O 6730   2.432   1.413  17.176  0.3139  0.5878 -0.4460
  448TMC3     H 6731   2.477   1.050  17.013 -1.6979  2.3929 -0.0594
  448TMC3    H1 6732   2.519   1.297  17.356  0.4327 -1.5692  2.3978
  448TMC3    H2 6733   2.508   0.871  17.395 -0.4015  0.1372 -1.4182
  448TMC3    C7 6734   2.608   1.110  17.503 -0.6628  0.0673  0.2377
  448TMC3    C8 6735   2.534   0.826  17.140  0.2977  0.1468 -0.4619
  448TMC3    O1 6736   2.669   1.217  17.511 -0.0733  0.2334  0.2535
  448TMC3    O2 6737   2.594   0.745  17.209  0.0001  0.2664 -0.0130
  449MPD2     C 6738   4.273   3.951  14.093  0.4903  0.0292 -0.9026
  449MPD2    C1 6739   4.199   4.064  14.085  0.3791  0.1124 -0.5349
  449MPD2    C2 6740   4.067   4.065  14.115 -0.2856 -0.6208 -0.7195
  449MPD2    C3 6741   4.006   3.944  14.151  0.0002  0.2645 -0.3310
  449MPD2    C4 6742   4.083   3.832  14.175  0.6252 -0.0534 -0.2111
  449MPD2    C5 6743   4.213   3.836  14.136 -0.1788 -0.8386 -0.1006
  449MPD2     H 6744   3.996   4.147  14.107  0.1804 -0.2004 -0.5807
  449MPD2    H1 6745   4.043   3.733  14.196 -0.3980  0.6090  0.9077
  449MPD2    H2 6746   4.380   3.949  14.077  0.6336 -0.3224  0.1090
  449MPD2    H3 6747   4.273   3.746  14.139  1.6778  0.4955  2.0436
  449MPD2     N 6748   3.868   3.952  14.174 -0.5408 -0.5712 -0.1559
  449MPD2    H5 6749   3.824   4.038  14.142 -2.0828 -1.2221  0.2312
  449MPD2    N1 6750   4.247   4.196  14.052  0.4676 -0.0449  0.2405
  449MPD2    H7 6751   4.180   4.272  14.052  2.8982  2.0862  0.3020
  450TMC3    C1 6752   4.378   4.379  14.036 -0.0680  0.1648  0.2082
  450TMC3    C2 6753   4.422   4.414  13.914 -0.2491 -0.6742  0.4541
  450TMC3    C3 6754   4.365   4.532  13.861  0.5914 -0.2562  0.7581
  450TMC3    C4 6755   4.277   4.451  14.098  0.0489  0.0075  0.2289
  450TMC3    C5 6756   4.208   4.546  14.025 -0.0450  0.3506  0.3198
  450TMC3    C6 6757   4.254   4.596  13.910 -0.3140 -0.0619  0.5128
  450TMC3     C 6758   4.374   4.229  14.050  0.3825  0.0961  0.1892
  450TMC3     O 6759   4.471   4.162  14.023  0.1310 -0.3137 -0.5240
  450TMC3     H 6760   4.507   4.366  13.867 -0.7390 -0.1908 -0.9543
  450TMC3    H1 6761   4.250   4.428  14.200 -3.1756  0.4037 -0.5466
  450TMC3    H2 6762   4.211   4.676  13.852  0.0813 -2.4676 -3.1316
  450TMC3    C7 6763   4.070   4.511  14.034  0.4203  0.4588 -0.1711
  450TMC3    C8 6764   4.437   4.594  13.754 -0.5488  0.5086  0.3704
  450TMC3    O1 6765   4.051   4.388  14.039 -0.3465 -0.0201 -0.0525
  450TMC3    O2 6766   4.422   4.717  13.754 -0.1327  0.8834 -0.0578
  451MPD2     C 6767   1.174   3.007   0.997 -0.1908 -0.6533  0.2891
  451MPD2    C1 6768   1.090   3.062   0.906 -0.2741 -0.0820 -0.0539
  451MPD2    C2 6769   1.118   3.061   0.769 -0.2941 -0.1859  0.3576
  451MPD2    C3 6770   1.238   3.003   0.727  0.0531 -0.0849 -0.9331
  451MPD2    C4 6771   1.316   2.944   0.819  0.8293 -0.3502 -0.2719
  451MPD2    C5 6772   1.286   2.945   0.952  0.5363 -0.1241 -0.5000
  451MPD2     H 6773   1.055   3.105   0.692  0.3854  0.0808 -0.0495
  451MPD2    H1 6774   1.408   2.894   0.787  0.5468 -1.0339 -0.0217
  451MPD2    H2 6775   1.143   3.006   1.101  2.1402 -0.9101  0.9700
  451MPD2    H3 6776   1.347   2.892   1.025  1.4738 -0.6985 -1.7010
  451MPD2     N 6777   1.268   2.982   0.588  0.1963  0.1598 -0.2040
  451MPD2    H5 6778   1.323   2.900   0.567 -0.1517 -0.7654  2.5155
  451MPD2    N1 6779   0.960   3.092   0.948 -0.3536 -0.3437 -0.0111
  451MPD2    H7 6780   0.942   3.045   1.036 -1.2033 -1.3923 -0.7377
  452TMC3    C1 6781   1.213   2.994   0.358 -0.3506  0.0992 -0.3428
  452TMC3    C2 6782   1.163   2.869   0.362 -0.3017  0.2560 -0.4179
  452TMC3    C3 6783   1.103   2.818   0.248  0.2999 -1.0239 -0.0740
  452TMC3    C4 6784   1.194   3.071   0.247 -0.1645  0.5010 -0.0937
  452TMC3    C5 6785   1.119   3.024   0.137  1.4187 -0.1370 -0.9057
  452TMC3    C6 6786   1.072   2.895   0.139 -0.4291  0.4489 -1.1750
  452TMC3     C 6787   1.206   3.058   0.484 -0.2217  0.6050 -0.4962
  452TMC3     O 6788   1.136   3.159   0.495 -0.0750  0.8033 -0.5355
  452TMC3     H 6789   1.170   2.817   0.456 -2.2824 -1.0258 -0.9727
  452TMC3    H1 6790   1.241   3.169   0.249  0.5829  0.1422 -0.3081
  452TMC3    H2 6791   1.019   2.847   0.057 -1.1498 -0.9557  0.1032
  452TMC3    C7 6792   1.037   3.124   0.070  0.1199 -0.3516 -0.1125
  452TMC3    C8 6793   1.084   2.671   0.251  0.7205 -0.4520 -0.2228
  452TMC3    O1 6794   1.064   3.239   0.102 -0.4752  0.1630 -0.5783
  452TMC3    O2 6795   1.003   2.625   0.172 -0.3812  0.0959 -0.2660
  453TMC3    C1 6796   1.389   0.257  12.001  0.8278  0.6290 -0.2434
  453TMC3    C2 6797   1.367   0.125  11.960 -0.0252 -0.1929  0.0809
  453TMC3    C3 6798   1.400   0.091  11.829  0.3152  0.6520  0.0618
  453TMC3    C4 6799   1.460   0.344  11.925 -0.3276 -0.4163 -1.0732
  453TMC3    C5 6800   1.503   0.301  11.799  0.2303 -1.0631  0.2010
  453TMC3    C6 6801   1.468   0.181  11.748  0.0838 -0.1661  0.2726
  453TMC3     C 6802   1.426   0.269  12.143  0.1080  0.6243  0.5996
  453TMC3     O 6803   1.512   0.355  12.168 -0.0028 -0.1491  0.1259
  453TMC3     H 6804   1.317   0.052  12.023  0.7751 -0.1730  0.7432
  453TMC3    H1 6805   1.473   0.441  11.970  0.8620 -0.9947 -0.1753
  453TMC3    H2 6806   1.501   0.147  11.650 -0.1450  3.6795 -1.1305
  453TMC3    C7 6807   1.599   0.376  11.730 -0.3790  0.4971  0.1101
  453TMC3    C8 6808   1.405   4.687  11.791 -0.1909 -0.3536 -0.7515
  453TMC3    O1 6809   1.614   0.353  11.612  0.5296 -0.3182 -0.2000
  453TMC3    O2 6810   1.498   4.656  11.716 -0.1137  0.2306 -0.3952
  454MPD2     C 6811   0.671   4.198  16.315 -0.2346  0.3444  0.0685
  454MPD2    C1 6812   0.556   4.275  16.275 -0.0007 -0.3747  0.0492
  454MPD2    C2 6813   0.467   4.316  16.366  0.1628  0.2171 -0.2651
  454MPD2    C3 6814   0.474   4.275  16.497  0.2558 -0.2862 -0.2644
  454MPD2    C4 6815   0.590   4.210  16.540 -0.7696 -0.0088 -0.1894
  454MPD2    C5 6816   0.684   4.172  16.447  0.3026  0.4798  0.3966
  454MPD2     H 6817   0.375   4.362  16.334  1.0710  2.3568  0.2453
  454MPD2    H1 6818   0.603   4.195  16.647 -0.5074 -0.5532 -0.2991
  454MPD2    H2 6819   0.748   4.157  16.250  1.0521  0.3040  1.6352
  454MPD2    H3 6820   0.782   4.140  16.482  0.0689 -0.2323  0.3964
  454MPD2     N 6821   0.375   4.306  16.592 -0.0743 -0.0188 -0.1726
  454MPD2    H5 6822   0.364   4.247  16.674  2.9982 -0.9722 -0.4509
  454MPD2    N1 6823   0.523   4.309  16.144 -0.1726  0.3738 -0.0385
  454MPD2    H7 6824   0.430   4.346  16.128  0.0763  1.3482  0.7683
  455TMC3    C1 6825   0.196   4.417  16.691 -0.3502 -0.7122  0.1126
  455TMC3    C2 6826   0.176   4.531  16.757  0.1567  0.2517  0.1406
  455TMC3    C3 6827   0.063   4.526  16.841 -0.1269  1.1822  0.8053
  455TMC3    C4 6828   0.114   4.314  16.679  0.4370  0.1879 -0.2672
  455TMC3    C5 6829   0.005   4.319  16.757  0.1046 -0.5352 -0.0031
  455TMC3    C6 6830   4.717   4.414  16.850 -0.2303  1.1325 -0.3096
  455TMC3     C 6831   0.307   4.424  16.602 -0.9169  0.4063  0.2084
  455TMC3     O 6832   0.331   4.529  16.549  0.0927 -0.0526  0.3686
  455TMC3     H 6833   0.233   4.622  16.744 -1.5852  1.2725 -0.3855
  455TMC3    H1 6834   0.141   4.233  16.611 -0.3771 -0.0963 -0.2536
  455TMC3    H2 6835   4.629   4.418  16.913 -0.0883  0.4798 -0.0766
  455TMC3    C7 6836   4.628   4.244  16.714 -0.0409 -0.2777  0.2393
  455TMC3    C8 6837   0.042   4.643  16.924  0.3376 -0.2353  0.7845
  455TMC3    O1 6838   4.547   4.216  16.800 -0.3946  0.5900  0.4360
  455TMC3    O2 6839   0.130   4.723  16.944 -0.2617  0.3864  0.3407
  456MPD2     C 6840   3.311   4.695  16.326  0.2177 -0.3114  0.5026
  456MPD2    C1 6841   3.308   4.593  16.424 -0.5450  0.3181 -0.3966
  456MPD2    C2 6842   3.245   4.613  16.548  0.6642  0.2965 -0.9378
  456MPD2    C3 6843   3.201   0.002  16.574  1.1457  0.2786 -0.2539
  456MPD2    C4 6844   3.195   0.100  16.471  0.2080  0.5359  0.0377
  456MPD2    C5 6845   3.250   0.079  16.349 -0.4127  0.3170 -0.0950
  456MPD2     H 6846   3.251   4.535  16.623 -0.0031  0.3531 -0.8329
  456MPD2    H1 6847   3.159   0.200  16.496  0.1388  0.9997 -1.9161
  456MPD2    H2 6848   3.352   4.690  16.226 -0.6006  0.0788  0.1420
  456MPD2    H3 6849   3.250   0.161  16.278  1.2064  0.8221  0.4764
  456MPD2     N 6850   3.152   0.024  16.706 -0.9369  0.3341  0.8032
  456MPD2    H5 6851   3.173   4.682  16.769 -1.5614  0.9347  1.7458
  456MPD2    N1 6852   3.362   4.468  16.388  0.7621 -0.0559  0.1566
  456MPD2    H7 6853   3.383   4.446  16.291  0.5555  2.0776 -0.3608
  457TMC3    C1 6854   3.013   0.130  16.871 -0.8578 -0.5849  0.3895
  457TMC3    C2 6855   2.912   0.221  16.884 -0.6267 -0.0210 -0.4962
  457TMC3    C3 6856   2.861   0.234  17.013 -0.2669 -0.5712  0.3250
  457TMC3    C4 6857   3.056   0.051  16.977 -0.7202 -0.3762 -0.0207
  457TMC3    C5 6858   3.005   0.073  17.102 -0.2463 -0.2209  0.2320
  457TMC3    C6 6859   2.903   0.161  17.120  0.1345 -0.7336 -0.1042
  457TMC3     C 6860   3.087   0.135  16.748  0.2454  1.0133  0.9297
  457TMC3     O 6861   3.068   0.240  16.685  0.0863 -0.0276 -0.2218
  457TMC3     H 6862   2.889   0.291  16.805 -0.7842 -1.8162 -2.0319
  457TMC3    H1 6863   3.126   4.704  16.969  0.1388  0.2877  0.7056
  457TMC3    H2 6864   2.854   0.168  17.216  2.8363  0.6385  1.1571
  457TMC3    C7 6865   3.066   0.033  17.220 -0.0528 -0.5035 -0.1388
  457TMC3    C8 6866   2.767   0.342  17.023 -0.4263 -0.0557  0.8440
  457TMC3    O1 6867   3.113   4.656  17.228 -0.0306  0.2748 -0.1497
  457TMC3    O2 6868   2.770   0.410  17.123 -0.1818 -0.7039 -0.1923
  458MPD2     C 6869   0.476   3.453  11.874  0.0839 -0.0376  0.6827
  458MPD2    C1 6870   0.596   3.397  11.914 -0.4431 -0.0118 -0.7024
  458MPD2    C2 6871   0.678   3.336  11.822 -0.1337 -0.1985  0.5373
  458MPD2    C3 6872   0.640   3.331  11.691  0.0967  0.4140  0.3104
  458MPD2    C4 6873   0.520   3.383  11.649 -0.7287  0.6869 -0.3468
  458MPD2    C5 6874   0.436   3.450  11.736 -0.5460  0.0208  0.5525
  458MPD2     H 6875   0.772   3.292  11.852 -0.3780 -0.4693  0.8964
  458MPD2    H1 6876   0.501   3.379  11.542 -0.8822  2.1340 -0.3759
  458MPD2    H2 6877   0.428   3.514  11.950 -1.5173  0.9292 -1.1154
  458MPD2    H3 6878   0.339   3.490  11.708  0.8632  3.0351 -0.1000
  458MPD2     N 6879   0.722   3.257  11.602 -0.7444 -0.8050 -0.4221
  458MPD2    H5 6880   0.806   3.225  11.650 -1.6613 -0.7311  1.2440
  458MPD2    N1 6881   0.640   3.422  12.045 -0.6773  0.2344  0.7028
  458MPD2    H7 6882   0.578   3.478  12.103 -0.9948  0.4895  0.1188
  459TMC3    C1 6883   0.735   3.410  12.240  0.2537 -0.2911  0.3484
  459TMC3    C2 6884   0.760   3.544  12.250  0.3766 -0.8651  0.1507
  459TMC3    C3 6885   0.809   3.592  12.373  0.4295 -0.5083 -0.0035
  459TMC3    C4 6886   0.737   3.335  12.353  0.5103  0.5892 -0.0205
  459TMC3    C5 6887   0.767   3.392  12.474  0.5104  0.3844 -0.3579
  459TMC3    C6 6888   0.813   3.516  12.481 -0.2813  0.7351  1.2318
  459TMC3     C 6889   0.731   3.350  12.112 -0.5486  0.9876 -0.2417
  459TMC3     O 6890   0.775   3.234  12.100  0.4502 -0.2017  0.0639
  459TMC3     H 6891   0.768   3.598  12.157 -0.8427  0.0800  0.6017
  459TMC3    H1 6892   0.721   3.228  12.349 -1.6933  0.8718  1.0737
  459TMC3    H2 6893   0.852   3.556  12.574 -2.0077  1.5411  1.6107
  459TMC3    C7 6894   0.759   3.311  12.594 -0.1159  0.0399  0.2984
  459TMC3    C8 6895   0.862   3.726  12.371  0.4022 -0.5520  0.9585
  459TMC3    O1 6896   0.795   3.192  12.593 -0.6289 -0.2074  0.8222
  459TMC3    O2 6897   0.951   3.759  12.444 -0.6936 -0.1431  0.0148
  460MPD2     C 6898   4.522   1.223  10.708  0.0747 -0.0911  0.6740
  460MPD2    C1 6899   4.575   1.351  10.699  0.1424  0.4965  0.6889
  460MPD2    C2 6900   4.599   1.411  10.578 -0.9759  0.4305  0.6296
  460MPD2    C3 6901   4.571   1.340  10.465 -0.0332 -0.0302 -0.3058
  460MPD2    C4 6902   4.528   1.211  10.470  0.3945  0.6160  0.8513
  460MPD2    C5 6903   4.503   1.154  10.591 -0.1116 -0.0353  0.2681
  460MPD2     H 6904   4.634   1.513  10.573 -2.7984  1.1716  2.8820
  460MPD2    H1 6905   4.506   1.147  10.386 -0.6893  2.2470 -0.1121
  460MPD2    H2 6906   4.485   1.181  10.800  1.1405 -2.4923  0.0079
  460MPD2    H3 6907   4.455   1.057  10.599  0.1082 -0.0772  1.0317
  460MPD2     N 6908   4.600   1.402  10.336  0.6199  0.4241  0.0718
  460MPD2    H5 6909   4.592   1.503  10.329  0.0224  0.3844  0.1142
  460MPD2    N1 6910   4.584   1.416  10.824  0.1693 -0.0406 -0.4485
  460MPD2    H7 6911   4.572   1.362  10.909  1.3230 -1.8161 -1.4349
  461TMC3    C1 6912   4.603   1.410  10.096  0.6159 -0.6145 -0.3176
  461TMC3    C2 6913   4.580   1.334   9.983  0.2768  0.5987  0.0397
  461TMC3    C3 6914   4.529   1.407   9.880  0.2172 -0.4434  0.1522
  461TMC3    C4 6915   4.571   1.545  10.113 -0.0014  0.0220  0.0090
  461TMC3    C5 6916   4.538   1.610   9.994  0.0839 -0.7352 -0.6614
  461TMC3    C6 6917   4.519   1.543   9.880 -0.1919 -0.1928 -0.7044
  461TMC3     C 6918   4.619   1.329  10.218 -0.2004  0.4485  0.9591
  461TMC3     O 6919   4.667   1.218  10.203  0.6432 -0.0706  0.0144
  461TMC3     H 6920   4.620   1.233   9.976  0.9426  0.8588  0.1392
  461TMC3    H1 6921   4.595   1.599  10.204 -1.7502  0.6465  0.1082
  461TMC3    H2 6922   4.505   1.598   9.788 -2.4310  1.8983  0.8903
  461TMC3    C7 6923   4.528   1.758   9.974  0.1342 -0.2868  0.0963
  461TMC3    C8 6924   4.555   1.360   9.744  0.0513  0.0280 -0.1592
  461TMC3    O1 6925   4.563   1.802   9.867  0.4786  0.1835  0.3151
  461TMC3    O2 6926   4.591   1.447   9.665  0.0627  0.2071  0.0654
  462TMC3    C1 6927   0.388   1.959   0.295  0.3945 -0.4481  0.0602
  462TMC3    C2 6928   0.388   1.885   0.185 -0.1516  0.4451  0.0756
  462TMC3    C3 6929   0.313   1.770   0.175  0.2451  0.3540 -0.6331
  462TMC3    C4 6930   0.320   1.919   0.404 -0.5238  0.3876 -0.4233
  462TMC3    C5 6931   0.251   1.801   0.389  0.4036 -0.6618 -0.1738
  462TMC3    C6 6932   0.232   1.726   0.273 -0.1545 -0.6213 -0.5659
  462TMC3     C 6933   0.473   2.074   0.283  0.4059  0.4166 -0.5217
  462TMC3     O 6934   0.518   2.107   0.169  0.8952  0.5412  0.5415
  462TMC3     H 6935   0.453   1.919   0.106 -1.4657 -0.7993 -1.5296
  462TMC3    H1 6936   0.309   1.988   0.487 -0.4775 -1.2313  0.9296
  462TMC3    H2 6937   0.193   1.626   0.266 -2.3403  0.1824  0.2075
  462TMC3    C7 6938   0.185   1.751   0.506 -0.7954  0.1203 -0.0781
  462TMC3    C8 6939   0.328   1.702   0.049 -0.5262 -0.3766 -0.3046
  462TMC3    O1 6940   0.096   1.668   0.488  0.0037 -0.3135 -0.2277
  462TMC3    O2 6941   0.348   1.771  17.693  0.5331  0.5000  0.1311
  463MPD2     C 6942   1.656   0.494   1.285  0.3510  0.7109  0.0992
  463MPD2    C1 6943   1.587   0.612   1.305 -0.4325 -1.0314  0.0168
  463MPD2    C2 6944   1.658   0.729   1.276  0.0451 -0.4141 -0.0447
  463MPD2    C3 6945   1.789   0.726   1.231 -0.4114 -0.4815  0.4107
  463MPD2    C4 6946   1.852   0.606   1.217 -0.4168  0.2425  0.1814
  463MPD2    C5 6947   1.785   0.486   1.240  0.0663 -1.0406  1.0104
  463MPD2     H 6948   1.597   0.816   1.295  1.1954  0.1930  0.8686
  463MPD2    H1 6949   1.945   0.592   1.163 -0.1171  1.3292  0.4171
  463MPD2    H2 6950   1.607   0.399   1.302 -1.6324  2.1007  2.1103
  463MPD2    H3 6951   1.839   0.395   1.218  0.6193 -0.4105 -0.2426
  463MPD2     N 6952   1.866   0.844   1.213 -0.7828 -0.0875 -0.4229
  463MPD2    H5 6953   1.964   0.828   1.191 -0.3987  1.4740  0.0962
  463MPD2    N1 6954   1.454   0.624   1.360 -0.4124  0.5857 -0.0532
  463MPD2    H7 6955   1.428   0.717   1.392 -0.9030  0.4982 -0.2027
  464TMC3    C1 6956   1.249   0.523   1.462  1.0544  0.6403 -0.2342
  464TMC3    C2 6957   1.220   0.647   1.514 -0.0541  0.6594  0.1988
  464TMC3    C3 6958   1.091   0.670   1.560 -0.4879  0.1653  0.3891
  464TMC3    C4 6959   1.155   0.422   1.459  0.0934 -0.1855 -0.1949
  464TMC3    C5 6960   1.032   0.446   1.510  0.3758 -1.0857 -0.0091
  464TMC3    C6 6961   0.992   0.580   1.539  0.4285  0.0279  0.0339
  464TMC3     C 6962   1.368   0.510   1.373  0.8922  0.1720 -0.5919
  464TMC3     O 6963   1.372   0.399   1.325 -0.7870  0.1602 -0.2865
  464TMC3     H 6964   1.288   0.730   1.529 -2.5910  2.8654 -0.5167
  464TMC3    H1 6965   1.167   0.328   1.407  1.1233 -0.2237  0.1204
  464TMC3    H2 6966   0.893   0.607   1.574  1.3052  2.1815  0.8458
  464TMC3    C7 6967   0.934   0.342   1.510 -0.0348  0.0609  0.6317
  464TMC3    C8 6968   1.054   0.812   1.589  0.1551  0.9845 -0.4831
  464TMC3    O1 6969   0.970   0.225   1.497  0.0961  0.2521 -0.0860
  464TMC3    O2 6970   1.147   0.887   1.597 -0.6240 -0.0265 -0.3943
  465MPD2     C 6971   2.124   0.442  17.232 -0.1017 -0.2402  0.9072
  465MPD2    C1 6972   2.048   0.325  17.241 -0.4233 -0.7719  0.3794
  465MPD2    C2 6973   2.042   0.238  17.137 -0.1344  0.1625 -0.4687
  465MPD2    C3 6974   2.108   0.253  17.019 -0.5618  0.1449  0.0678
  465MPD2    C4 6975   2.197   0.358  17.013  0.3423  0.3426 -0.3161
  465MPD2    C5 6976   2.194   0.452  17.114 -0.2030  0.3117 -0.6512
  465MPD2     H 6977   1.989   0.145  17.151 -1.4162  1.0505  0.6416
  465MPD2    H1 6978   2.255   0.390  16.928  0.3896 -0.0046 -0.4143
  465MPD2    H2 6979   2.130   0.510  17.316 -0.9694 -0.1939  0.9375
  465MPD2    H3 6980   2.270   0.530  17.114  1.5166 -1.3530 -2.2759
  465MPD2     N 6981   2.086   0.161  16.912  0.8131 -0.4132  0.3461
  465MPD2    H5 6982   2.012   0.096  16.936 -1.0983  2.7055  2.9149
  465MPD2    N1 6983   1.974   0.294  17.358  0.4438 -0.2233 -0.1462
  465MPD2    H7 6984   1.939   0.199  17.363  2.4368 -0.8223  2.1720
  466TMC3    C1 6985   1.868   4.674  16.700  0.2263  0.3653 -0.3366
  466TMC3    C2 6986   1.818   4.720  16.579 -0.5198 -0.2051 -0.4030
  466TMC3    C3 6987   1.871   0.103  16.536  0.1795 -0.1863  0.0107
  466TMC3    C4 6988   1.984   4.729  16.751  0.0496  0.1378 -0.9735
  466TMC3    C5 6989   2.045   0.100  16.698  0.4349 -0.9211 -0.0934
  466TMC3    C6 6990   1.984   0.158  16.586 -0.0450 -0.4018  0.6088
  466TMC3     C 6991   1.785   4.595  16.789  0.4589 -0.7716 -0.4151
  466TMC3     O 6992   1.826   4.602  16.906 -0.2838 -0.2539  0.5735
  466TMC3     H 6993   1.716   4.693  16.551  0.4622 -1.5145 -2.7172
  466TMC3    H1 6994   2.039   4.678  16.831  0.4307 -0.2757 -1.4996
  466TMC3    H2 6995   2.019   0.254  16.549 -0.8041 -1.8214 -3.8216
  466TMC3    C7 6996   2.119   0.178  16.787 -0.8884  0.5079 -1.0999
  466TMC3    C8 6997   1.774   0.195  16.487 -0.7627  0.1584 -0.2724
  466TMC3    O1 6998   2.191   0.263  16.740  0.8357  0.2522  0.4817
  466TMC3    O2 6999   1.735   0.166  16.376 -0.4431 -0.7966  0.0963
  467TMC3    C1 7000   2.934   3.030  14.099 -0.0751  0.1041  0.5904
  467TMC3    C2 7001   2.918   2.960  13.983  0.3665 -0.2186 -0.3281
  467TMC3    C3 7002   2.807   2.890  13.974  0.1241 -0.1689  0.1406
  467TMC3    C4 7003   2.835   3.039  14.195 -0.1588  0.1997 -0.0747
  467TMC3    C5 7004   2.724   2.964  14.174  0.0526 -0.6826  0.2955
  467TMC3    C6 7005   2.706   2.881  14.071  0.7103  0.2041  0.0499
  467TMC3     C 7006   3.053   3.113  14.115  0.0297  0.1450  0.0175
  467TMC3     O 7007   3.152   3.079  14.053 -0.3984 -0.0937 -0.3467
  467TMC3     H 7008   2.983   2.977  13.898 -0.2114  1.4327 -0.4398
  467TMC3    H1 7009   2.853   3.093  14.287 -0.4867  0.7297 -0.3257
  467TMC3    H2 7010   2.625   2.813  14.051 -1.4927  3.4566 -2.1689
  467TMC3    C7 7011   2.609   2.998  14.262  0.0454  0.1268  0.2149
  467TMC3    C8 7012   2.780   2.843  13.836 -0.5375 -0.0139  0.3035
  467TMC3    O1 7013   2.638   3.083  14.343  0.0199  0.2075 -0.1906
  467TMC3    O2 7014   2.873   2.816  13.762  0.1135  0.0729 -0.4076
  468MPD2     C 7015   1.767   1.968  10.845 -0.9484  0.0885  0.4520
  468MPD2    C1 7016   1.891   1.899  10.834  0.1475  0.2130 -0.0436
  468MPD2    C2 7017   1.887   1.762  10.811  0.8046  0.0188  0.8967
  468MPD2    C3 7018   1.768   1.696  10.784  0.2967 -0.1227 -0.4223
  468MPD2    C4 7019   1.647   1.766  10.792 -0.3899  0.1352 -0.3451
  468MPD2    C5 7020   1.652   1.896  10.833  0.2404 -0.2172 -0.0911
  468MPD2     H 7021   1.981   1.708  10.819  0.9006 -0.4097 -3.3108
  468MPD2    H1 7022   1.558   1.709  10.769 -0.5773  0.2010  0.2107
  468MPD2    H2 7023   1.749   2.071  10.873 -0.0888  0.6861 -1.2063
  468MPD2    H3 7024   1.560   1.952  10.845 -1.4326 -2.4049 -2.7440
  468MPD2     N 7025   1.764   1.556  10.740  0.1267 -0.2754 -0.3812
  468MPD2    H5 7026   1.670   1.520  10.724  0.0507 -0.8102  1.2756
  468MPD2    N1 7027   2.022   1.953  10.858  0.0556  0.2231  0.3442
  468MPD2    H7 7028   2.101   1.890  10.854  0.5555  0.6643  3.2940
  469TMC3    C1 7029   2.181   2.098  10.946 -0.5398 -1.0230  0.9097
  469TMC3    C2 7030   2.272   2.041  10.857  0.7021  0.0998  0.3914
  469TMC3    C3 7031   2.404   2.053  10.895 -0.3610  0.4800 -0.4923
  469TMC3    C4 7032   2.210   2.142  11.070  0.6629  0.8221 -0.0834
  469TMC3    C5 7033   2.344   2.135  11.100  0.1900  0.1517  0.0263
  469TMC3    C6 7034   2.439   2.104  11.018 -0.4509 -0.7739  0.5261
  469TMC3     C 7035   2.041   2.078  10.916  0.7539  0.1963  0.1324
  469TMC3     O 7036   1.953   2.146  10.973  0.0823 -0.2618 -0.1523
  469TMC3     H 7037   2.254   2.001  10.758  0.9573  0.4730  0.1945
  469TMC3    H1 7038   2.134   2.181  11.137 -0.0696 -1.6571  0.5484
  469TMC3    H2 7039   2.544   2.127  11.033 -0.5166  0.8526 -1.6411
  469TMC3    C7 7040   2.368   2.192  11.234 -0.0057 -0.7237  0.4370
  469TMC3    C8 7041   2.498   1.957  10.836  0.0792 -0.0777  0.3838
  469TMC3    O1 7042   2.275   2.191  11.314  0.2795 -0.1346  0.7210
  469TMC3    O2 7043   2.495   1.943  10.712 -0.2198 -0.5028 -0.1534
  470TMC3    C1 7044   3.974   2.162   1.571 -0.2618 -0.3787  0.5618
  470TMC3    C2 7045   4.047   2.279   1.566 -0.4026 -0.1126 -0.4556
  470TMC3    C3 7046   4.157   2.293   1.640 -0.0769 -0.2990  0.5152
  470TMC3    C4 7047   4.027   2.054   1.637 -0.3861  0.0184 -0.2854
  470TMC3    C5 7048   4.141   2.069   1.711 -0.1695 -0.0562  0.1302
  470TMC3    C6 7049   4.207   2.191   1.717  0.1358 -0.0052 -0.1462
  470TMC3     C 7050   3.850   2.155   1.496  0.6537 -0.3147  0.0075
  470TMC3     O 7051   3.831   2.213   1.392  0.0457 -0.0504  0.0723
  470TMC3     H 7052   4.009   2.358   1.502  1.2891 -1.5898 -3.2854
  470TMC3    H1 7053   3.977   1.958   1.626 -0.8469  0.3405 -1.0486
  470TMC3    H2 7054   4.290   2.206   1.785  0.2499  1.1909 -0.5508
  470TMC3    C7 7055   4.179   1.962   1.807 -0.0924 -0.3216 -0.7200
  470TMC3    C8 7056   4.227   2.421   1.629 -0.1509 -0.4654  1.0774
  470TMC3    O1 7057   4.296   1.952   1.835 -0.7702 -0.0497 -0.0273
  470TMC3    O2 7058   4.169   2.507   1.563 -0.3876 -0.4338  0.0419
  471MPD2     C 7059   4.294   3.805  16.810  0.2631  1.0950 -0.2588
  471MPD2    C1 7060   4.248   3.675  16.803 -0.4504  0.0823  1.0615
  471MPD2    C2 7061   4.195   3.613  16.909  0.9209  0.2437 -0.0447
  471MPD2    C3 7062   4.187   3.678  17.029  0.0046  0.9181  0.7026
  471MPD2    C4 7063   4.223   3.811  17.040  0.3546 -0.5160 -0.5326
  471MPD2    C5 7064   4.274   3.872  16.926 -0.5620 -0.0569 -0.0325
  471MPD2     H 7065   4.170   3.507  16.905  2.2424 -0.0983  0.8011
  471MPD2    H1 7066   4.224   3.865  17.134 -1.8096 -0.3870 -0.5833
  471MPD2    H2 7067   4.350   3.864  16.738 -0.8685  0.8590 -1.3342
  471MPD2    H3 7068   4.310   3.974  16.928 -0.8245  0.0751 -2.3611
  471MPD2     N 7069   4.145   3.605  17.135  0.4775 -0.2048  0.4989
  471MPD2    H5 7070   4.158   3.650  17.225  0.4019  0.1530  0.3339
  471MPD2    N1 7071   4.275   3.591  16.691  0.3006 -0.1925  0.1998
  471MPD2    H7 7072   4.233   3.499  16.689 -2.7014  1.1513  1.8556
  472TMC3    C1 7073   4.375   3.505  16.507  0.9689  0.0455  0.2330
  472TMC3    C2 7074   4.325   3.516  16.383  1.2751  0.2884  0.3727
  472TMC3    C3 7075   4.309   3.399  16.312  0.3049 -0.0563 -0.2362
  472TMC3    C4 7076   4.411   3.387  16.564 -0.4829 -0.0822 -0.7812
  472TMC3    C5 7077   4.399   3.267  16.491 -0.1777  0.0666 -0.3272
  472TMC3    C6 7078   4.336   3.280  16.373 -0.0962 -0.2823  0.4530
  472TMC3     C 7079   4.346   3.623  16.579 -0.9846  0.0293  0.2773
  472TMC3     O 7080   4.382   3.735  16.545  0.1253 -0.2660  0.0625
  472TMC3     H 7081   4.270   3.602  16.346  0.4815 -0.7148 -0.7766
  472TMC3    H1 7082   4.463   3.383  16.659 -0.3759  0.8515 -0.7982
  472TMC3    H2 7083   4.312   3.194  16.312  0.7681 -0.1759 -0.0338
  472TMC3    C7 7084   4.385   3.154  16.576  0.6911  0.7284 -0.3593
  472TMC3    C8 7085   4.174   3.385  16.273 -0.2510 -0.3021 -0.1559
  472TMC3    O1 7086   4.420   3.167  16.692  0.2595  0.6812 -0.1131
  472TMC3    O2 7087   4.143   3.421  16.160  0.4400  0.4442 -0.1651
  473MPD2     C 7088   4.380   0.706  14.198  0.1215  0.7932 -0.7151
  473MPD2    C1 7089   4.404   0.829  14.135 -0.1364  0.3863  0.3639
  473MPD2    C2 7090   4.426   0.941  14.211  0.0796  0.3932 -0.2823
  473MPD2    C3 7091   4.413   0.933  14.350  0.1566  0.4065  0.3305
  473MPD2    C4 7092   4.374   0.812  14.415  0.4910 -0.6424 -0.9202
  473MPD2    C5 7093   4.362   0.701  14.334 -0.4765 -0.1824 -0.4777
  473MPD2     H 7094   4.452   1.040  14.176  0.0324  0.1974 -0.8651
  473MPD2    H1 7095   4.380   0.805  14.523  2.9130 -0.2184 -1.0323
  473MPD2    H2 7096   4.367   0.608  14.154 -0.7805 -0.2665  1.9084
  473MPD2    H3 7097   4.341   0.608  14.385  0.7629  0.6172  1.4976
  473MPD2     N 7098   4.458   1.040  14.430 -0.6431  0.2341  0.1015
  473MPD2    H5 7099   4.502   1.115  14.378 -0.8148  1.8785  2.2941
  473MPD2    N1 7100   4.412   0.837  13.996 -0.0559 -0.0262  0.0495
  473MPD2    H7 7101   4.427   0.930  13.958  0.0505 -0.1087 -0.1142
  474TMC3    C1 7102   4.498   1.160  14.622  0.2042  0.2089 -0.1392
  474TMC3    C2 7103   4.421   1.244  14.691  0.3245  0.2906 -0.7516
  474TMC3    C3 7104   4.466   1.361  14.734 -0.2766  1.1470  0.3531
  474TMC3    C4 7105   4.628   1.178  14.592 -0.0399  0.6189  0.1451
  474TMC3    C5 7106   4.679   1.290  14.650 -0.1811  0.2868 -0.4057
  474TMC3    C6 7107   4.599   1.381  14.724  0.6064  0.2719  0.1953
  474TMC3     C 7108   4.425   1.056  14.563 -0.0722 -0.2089 -0.4085
  474TMC3     O 7109   4.328   1.014  14.629 -0.2722 -0.1329  0.4084
  474TMC3     H 7110   4.320   1.213  14.718 -0.3407  3.8095  0.7828
  474TMC3    H1 7111   4.690   1.104  14.542 -2.4602 -0.0328 -1.9472
  474TMC3    H2 7112   4.643   1.465  14.778  0.4752  0.8483 -0.5880
  474TMC3    C7 7113   0.093   1.293  14.653  0.2357 -0.2883 -0.0501
  474TMC3    C8 7114   4.383   1.433  14.824 -0.0099  0.0289 -0.2489
  474TMC3    O1 7115   0.154   1.248  14.557 -0.1339  0.0144 -0.3860
  474TMC3    O2 7116   4.361   1.380  14.931 -0.3490 -0.0863  0.0518
  475MPD2     C 7117   2.872   3.999  10.365 -0.2536  0.4887  0.6074
  475MPD2    C1 7118   2.922   4.088  10.458 -0.5049 -0.2637 -0.4504
  475MPD2    C2 7119   2.856   4.092  10.577 -0.6724  0.4580 -0.3250
  475MPD2    C3 7120   2.743   4.021  10.610  0.2300  0.1413  0.0911
  475MPD2    C4 7121   2.688   3.937  10.511 -0.0442 -0.8622  0.0960
  475MPD2    C5 7122   2.763   3.925  10.397  0.1784 -0.0662  0.7470
  475MPD2     H 7123   2.897   4.151  10.659 -0.5178  0.7921 -0.6440
  475MPD2    H1 7124   2.594   3.891  10.534 -0.4345  1.0178  2.2573
  475MPD2    H2 7125   2.927   3.983  10.273 -2.3611 -0.8942 -0.4018
  475MPD2    H3 7126   2.733   3.854  10.320 -0.2292 -1.4130  2.1587
  475MPD2     N 7127   2.693   4.055  10.734 -0.5579  1.0829 -0.1224
  475MPD2    H5 7128   2.744   4.114  10.799 -1.1402  1.7079 -0.2361
  475MPD2    N1 7129   3.037   4.162  10.452 -0.1185  0.3304 -0.0804
  475MPD2    H7 7130   3.073   4.213  10.533 -0.1927  0.1921  0.0379
  476TMC3    C1 7131   3.201   4.281  10.355 -0.6222  0.3199  0.0592
  476TMC3    C2 7132   3.191   4.387  10.272 -0.5029 -0.4240  0.3949
  476TMC3    C3 7133   3.188   4.512  10.322 -0.0920 -0.5180  0.9959
  476TMC3    C4 7134   3.234   4.288  10.483  0.3293 -0.2480 -0.1183
  476TMC3    C5 7135   3.228   4.415  10.534 -0.5202  0.1167 -0.1810
  476TMC3    C6 7136   3.209   4.529  10.456  0.9115  0.4119  0.8638
  476TMC3     C 7137   3.107   4.177  10.334 -0.4105  0.3113  0.0302
  476TMC3     O 7138   3.081   4.138  10.222 -0.1771 -0.1413 -0.3802
  476TMC3     H 7139   3.161   4.369  10.169  3.2965  1.8707 -1.1002
  476TMC3    H1 7140   3.248   4.202  10.547  1.6434 -0.8995 -1.3024
  476TMC3    H2 7141   3.211   4.626  10.504 -0.8704  0.2259  1.3027
  476TMC3    C7 7142   3.196   4.416  10.677 -0.3990  0.4801  0.6900
  476TMC3    C8 7143   3.126   4.623  10.248 -0.4963 -0.5323  0.2060
  476TMC3    O1 7144   3.163   4.304  10.717 -0.1104 -0.1751  0.0430
  476TMC3    O2 7145   3.089   4.712  10.317  0.1093  0.3986  0.3086
  477MPD2     C 7146   0.308   0.973  11.666 -0.0203 -0.1909 -0.0297
  477MPD2    C1 7147   0.229   0.859  11.667 -0.5193 -0.1681 -0.5653
  477MPD2    C2 7148   0.283   0.746  11.728 -0.2610 -0.1242  0.3366
  477MPD2    C3 7149   0.409   0.752  11.784 -0.0835 -0.3699 -0.5712
  477MPD2    C4 7150   0.481   0.871  11.782 -0.1121 -0.1491 -0.6174
  477MPD2    C5 7151   0.426   0.978  11.726  0.0276  0.2400  0.5839
  477MPD2     H 7152   0.224   0.659  11.753 -1.9925  0.2430 -2.4941
  477MPD2    H1 7153   0.584   0.871  11.816 -0.3776  0.5343  0.1938
  477MPD2    H2 7154   0.272   1.062  11.615 -0.2033 -0.4311 -0.3190
  477MPD2    H3 7155   0.477   1.073  11.724 -0.9191  0.7567  1.0364
  477MPD2     N 7156   0.457   0.633  11.846  0.0299  0.8353  0.0065
  477MPD2    H5 7157   0.389   0.563  11.873  0.7665  1.1050  2.5033
  477MPD2    N1 7158   0.094   0.870  11.630 -0.2725  0.2323  0.5397
  477MPD2    H7 7159   0.055   0.960  11.604 -0.8126 -0.3682 -0.7624
  478TMC3    C1 7160   4.622   0.811  11.542 -0.3324 -0.5588  0.5521
  478TMC3    C2 7161   4.555   0.906  11.615 -0.0149 -0.3604 -0.2347
  478TMC3    C3 7162   4.415   0.929  11.595  0.2443 -0.3092  0.4155
  478TMC3    C4 7163   4.558   0.746  11.444  0.2525 -0.1665  0.1075
  478TMC3    C5 7164   4.427   0.784  11.422 -0.5144 -0.2550  0.3419
  478TMC3    C6 7165   4.346   0.868  11.497 -0.6051 -0.2412  0.0315
  478TMC3     C 7166   0.014   0.762  11.591 -1.0435 -0.2646 -0.1664
  478TMC3     O 7167   0.056   0.650  11.561 -0.2238 -0.2396  0.4631
  478TMC3     H 7168   4.601   0.938  11.708 -0.4241  0.4809 -0.3217
  478TMC3    H1 7169   4.606   0.665  11.391  0.4000  0.7813 -1.1896
  478TMC3    H2 7170   4.246   0.903  11.473 -1.0654 -0.1237  2.1788
  478TMC3    C7 7171   4.382   0.737  11.297 -0.3295  0.0980  0.1021
  478TMC3    C8 7172   4.344   1.004  11.696 -0.3906 -0.5875 -0.0977
  478TMC3    O1 7173   4.411   0.622  11.258  0.2527  0.4930  0.7667
  478TMC3    O2 7174   4.230   0.960  11.707  0.1246 -0.3690  0.7042
  479MPD2     C 7175   4.327   3.150  15.499 -0.0259  0.9065  0.1436
  479MPD2    C1 7176   4.291   3.041  15.583 -0.4801  0.4729 -0.2537
  479MPD2    C2 7177   4.313   3.054  15.718  0.3397  0.1367 -0.9349
  479MPD2    C3 7178   4.361   3.172  15.772 -0.1699  0.1790 -0.4375
  479MPD2    C4 7179   4.401   3.269  15.683  0.4588 -0.3087 -0.4958
  479MPD2    C5 7180   4.389   3.260  15.548  0.2356  0.5407 -0.0555
  479MPD2     H 7181   4.304   2.961  15.774 -0.1929 -0.9998 -2.9216
  479MPD2    H1 7182   4.449   3.359  15.720 -1.9217  0.6807  0.2241
  479MPD2    H2 7183   4.320   3.138  15.392 -0.7381  0.4948  0.2340
  479MPD2    H3 7184   4.422   3.346  15.491 -0.7927  0.4476 -0.7765
  479MPD2     N 7185   4.378   3.190  15.912 -0.0601 -0.0943  0.2901
  479MPD2    H5 7186   4.443   3.259  15.948  1.3895 -0.5071 -1.5364
  479MPD2    N1 7187   4.223   2.934  15.524  0.8583  0.2306  0.3323
  479MPD2    H7 7188   4.211   2.939  15.423  3.9633 -1.8502 -0.1554
  480TMC3    C1 7189   4.006   2.934  16.063  0.0545 -0.5050 -0.0164
  480TMC3    C2 7190   3.925   2.989  15.970 -0.4632 -0.9112 -0.4931
  480TMC3    C3 7191   3.971   3.089  15.892  0.2994  0.0233 -0.3134
  480TMC3    C4 7192   4.132   2.979  16.075 -0.2380  0.3431  0.2900
  480TMC3    C5 7193   4.181   3.074  15.987  0.7778 -0.1133 -0.1852
  480TMC3    C6 7194   4.095   3.132  15.902 -0.0557  0.2729 -0.2539
  480TMC3     C 7195   3.964   2.840  16.161 -0.1315 -0.1788 -0.0435
  480TMC3     O 7196   4.053   2.775  16.207 -0.0685 -0.0376  0.3729
  480TMC3     H 7197   3.828   2.942  15.960 -0.0615 -1.6383 -0.9288
  480TMC3    H1 7198   4.191   2.939  16.157  0.5613 -1.0146 -0.9509
  480TMC3    H2 7199   4.118   3.210  15.831 -1.0817  0.6961 -0.1189
  480TMC3    C7 7200   4.314   3.125  16.007  0.1921 -0.1396  0.3325
  480TMC3    C8 7201   3.872   3.141  15.797  0.2086  0.3132  0.1980
  480TMC3    O1 7202   4.369   3.095  16.113  0.0748  0.4501 -0.3464
  480TMC3    O2 7203   3.756   3.108  15.814 -0.4817  0.2333 -0.2672
  481MPD2     C 7204   1.140   2.692  14.137  0.2802  0.2961  0.3856
  481MPD2    C1 7205   1.046   2.597  14.156 -0.2725 -0.0496  0.3244
  481MPD2    C2 7206   1.005   2.569  14.287 -0.4420  0.1749 -0.1205
  481MPD2    C3 7207   1.058   2.634  14.393 -0.0435  0.0562 -0.1510
  481MPD2    C4 7208   1.144   2.738  14.377  0.6926  0.0204  0.5876
  481MPD2    C5 7209   1.179   2.772  14.245 -0.3396 -1.5491 -0.0183
  481MPD2     H 7210   0.920   2.504  14.305  0.5214 -0.4655  2.0796
  481MPD2    H1 7211   1.184   2.788  14.465  0.9604 -0.2771  0.6375
  481MPD2    H2 7212   1.177   2.708  14.036  1.3691 -1.2903  0.5325
  481MPD2    H3 7213   1.245   2.854  14.222 -2.4571 -0.0953 -0.9231
  481MPD2     N 7214   1.024   2.599  14.524  0.0611  0.0314 -0.5080
  481MPD2    H5 7215   1.070   2.652  14.597  0.9342 -2.0575  0.4699
  481MPD2    N1 7216   0.997   2.535  14.038 -0.5646 -0.3012  0.4919
  481MPD2    H7 7217   1.047   2.564  13.955 -0.4708  1.1872  1.0622
  482TMC3    C1 7218   0.892   2.403  13.884  0.4631 -0.4178  0.6081
  482TMC3    C2 7219   0.821   2.288  13.855  0.0197  0.9181  0.6207
  482TMC3    C3 7220   0.766   2.280  13.729 -0.0423  0.1837  0.8272
  482TMC3    C4 7221   0.914   2.496  13.787 -0.0495 -0.2157  0.3555
  482TMC3    C5 7222   0.876   2.471  13.655 -0.3439  0.1306  1.0614
  482TMC3    C6 7223   0.800   2.358  13.624  0.0960  0.3340  0.7538
  482TMC3     C 7224   0.902   2.438  14.020  0.1962  0.1782  0.8521
  482TMC3     O 7225   0.843   2.369  14.102  0.0501 -0.2815 -0.2443
  482TMC3     H 7226   0.800   2.218  13.935  0.9664  0.1928  0.2399
  482TMC3    H1 7227   0.973   2.583  13.813  1.0437 -0.9711  0.3825
  482TMC3    H2 7228   0.764   2.342  13.523  2.4410 -1.8182  0.2475
  482TMC3    C7 7229   0.848   2.588  13.574  0.3269  0.5763  0.0103
  482TMC3    C8 7230   0.674   2.169  13.706 -1.0997  0.2186 -0.2416
  482TMC3    O1 7231   0.839   2.699  13.629 -0.2613  0.0482  0.2681
  482TMC3    O2 7232   0.690   2.075  13.787  0.3475  0.0166  0.1812
  483TMC3    C1 7233   3.226   1.240   1.418 -0.5278 -0.7025  0.3261
  483TMC3    C2 7234   3.311   1.345   1.385  0.1235  0.0098 -0.6321
  483TMC3    C3 7235   3.426   1.358   1.460 -0.1105  0.1757  0.4287
  483TMC3    C4 7236   3.261   1.138   1.500  0.3407 -0.0760  0.0575
  483TMC3    C5 7237   3.391   1.137   1.540  0.4359  0.2249  0.7418
  483TMC3    C6 7238   3.464   1.256   1.540  0.5107  0.7646 -0.1763
  483TMC3     C 7239   3.109   1.243   1.338  0.3408  0.2847 -0.4331
  483TMC3     O 7240   3.066   1.355   1.314  0.1178  0.2933 -0.8338
  483TMC3     H 7241   3.275   1.433   1.334  0.4491  0.6794  0.2836
  483TMC3    H1 7242   3.194   1.055   1.518 -0.3563 -0.1057 -2.6029
  483TMC3    H2 7243   3.561   1.251   1.589  0.8513  3.2414 -0.6044
  483TMC3    C7 7244   3.460   1.021   1.580  0.0888  0.3431 -0.6174
  483TMC3    C8 7245   3.523   1.460   1.413 -0.6943 -0.3130 -0.4422
  483TMC3    O1 7246   3.569   1.027   1.632  0.6537  0.2799 -0.0701
  483TMC3    O2 7247   3.500   1.521   1.308 -0.3903  0.0745 -0.1498
  484MPD2     C 7248   0.718   4.032  12.185 -0.1826  0.2790  0.2062
  484MPD2    C1 7249   0.807   3.947  12.262 -0.4535 -0.4936  0.2242
  484MPD2    C2 7250   0.922   4.006  12.298 -0.6153 -0.0969  0.1122
  484MPD2    C3 7251   0.951   4.138  12.267  0.0850 -0.0127 -0.3065
  484MPD2    C4 7252   0.862   4.216  12.200 -0.9956  0.0491  0.0517
  484MPD2    C5 7253   0.742   4.163  12.164 -0.1399  0.0744  0.1340
  484MPD2     H 7254   0.994   3.950  12.357 -1.1383 -0.2686  0.5835
  484MPD2    H1 7255   0.887   4.319  12.175 -0.6172 -0.3096 -1.0530
  484MPD2    H2 7256   0.623   3.986  12.160  0.1071 -0.8356  1.1642
  484MPD2    H3 7257   0.664   4.218  12.113 -0.6171  0.7107  1.5491
  484MPD2     N 7258   1.075   4.199  12.302 -0.1910  0.0853 -0.8651
  484MPD2    H5 7259   1.083   4.297  12.278 -0.1393  0.1900 -0.4254
  484MPD2    N1 7260   0.776   3.811  12.298 -0.3009 -0.0321  0.2491
  484MPD2    H7 7261   0.696   3.770  12.251  1.9391 -1.3918 -2.3276
  485TMC3    C1 7262   1.283   4.248  12.388  0.0520  0.4799  0.0948
  485TMC3    C2 7263   1.376   4.214  12.482 -0.2156  0.4448 -0.1103
  485TMC3    C3 7264   1.468   4.310  12.509  0.2795 -0.2156  0.0660
  485TMC3    C4 7265   1.277   4.376  12.328 -0.6196 -0.6466  0.7694
  485TMC3    C5 7266   1.375   4.464  12.365 -0.1925 -0.0230  0.6406
  485TMC3    C6 7267   1.466   4.436  12.460  0.4865  0.4678 -0.2009
  485TMC3     C 7268   1.186   4.147  12.360  0.1693 -0.0073 -0.3697
  485TMC3     O 7269   1.220   4.032  12.381 -0.2521 -0.2762  0.1263
  485TMC3     H 7270   1.386   4.114  12.522  0.9172  0.6029  0.0195
  485TMC3    H1 7271   1.207   4.397  12.248  0.1042 -0.3225  0.2280
  485TMC3    H2 7272   1.545   4.505  12.488  0.5378  0.7760 -1.0734
  485TMC3    C7 7273   1.430   4.519  12.244 -0.2517  0.3804  0.5278
  485TMC3    C8 7274   1.605   4.267  12.508 -0.3426  0.3371  0.0999
  485TMC3    O1 7275   1.351   4.570  12.163 -0.3714 -0.0775 -0.3237
  485TMC3    O2 7276   1.676   4.348  12.446  0.1218  0.1276 -0.2994
  486MPD2     C 7277   3.669   3.279  13.519 -0.0873 -0.1785  1.0707
  486MPD2    C1 7278   3.654   3.228  13.389  0.2663 -0.7647  0.4614
  486MPD2    C2 7279   3.618   3.302  13.282  0.1007 -0.4779 -0.5205
  486MPD2    C3 7280   3.596   3.438  13.294 -0.0024 -0.2676  0.2748
  486MPD2    C4 7281   3.611   3.493  13.420 -0.5079  0.6640  0.3980
  486MPD2    C5 7282   3.641   3.416  13.528 -0.1817 -0.3064  0.0370
  486MPD2     H 7283   3.606   3.258  13.184  3.6309  0.1416 -1.2560
  486MPD2    H1 7284   3.572   3.594  13.433 -1.5582  0.1945  0.9625
  486MPD2    H2 7285   3.680   3.218  13.608 -0.6932 -0.3515  1.0233
  486MPD2    H3 7286   3.641   3.463  13.626  2.0121 -2.6114  1.1718
  486MPD2     N 7287   3.539   3.503  13.177 -0.1496  0.0840  0.3529
  486MPD2    H5 7288   3.507   3.441  13.103 -1.7200  1.1210  0.1612
  486MPD2    N1 7289   3.674   3.086  13.384 -0.1757 -0.3228  0.4903
  486MPD2    H7 7290   3.706   3.040  13.469  0.4737 -2.0677 -0.6958
  487TMC3    C1 7291   3.707   2.870  13.292 -0.3231  0.0696  0.7933
  487TMC3    C2 7292   3.732   2.791  13.187  0.1668  0.8635 -0.4286
  487TMC3    C3 7293   3.731   2.658  13.191 -0.1386  0.0398 -0.0597
  487TMC3    C4 7294   3.676   2.810  13.412  0.8576 -0.4512  0.4819
  487TMC3    C5 7295   3.685   2.670  13.426  1.1419  0.2140 -0.4731
  487TMC3    C6 7296   3.730   2.600  13.315  0.0927 -0.0253 -0.1688
  487TMC3     C 7297   3.678   3.009  13.265  0.2746  0.2668 -0.0739
  487TMC3     O 7298   3.675   3.047  13.148  0.5497  0.1625  0.6072
  487TMC3     H 7299   3.748   2.839  13.091  1.1350 -0.6715 -1.0386
  487TMC3    H1 7300   3.618   2.855  13.492 -1.3022 -1.2209 -0.6560
  487TMC3    H2 7301   3.675   2.509  13.296 -1.1935  0.5013  1.1126
  487TMC3    C7 7302   3.582   2.597  13.508 -0.7121  0.0886 -0.3409
  487TMC3    C8 7303   3.617   2.619  13.117  0.5021  0.2263 -0.9631
  487TMC3    O1 7304   3.609   2.483  13.536  0.0106  0.2398  0.1218
  487TMC3    O2 7305   3.516   2.689  13.118 -0.6649 -0.0032  0.0251
  488MPD2     C 7306   3.961   4.672  16.754 -0.1010  0.1147 -0.0932
  488MPD2    C1 7307   3.976   0.065  16.813 -0.4164  0.0154  0.4788
  488MPD2    C2 7308   3.950   0.077  16.949 -0.0432 -0.0820  0.0724
  488MPD2    C3 7309   3.914   4.705  17.023 -0.1421 -0.1787  0.2660
  488MPD2    C4 7310   3.901   4.581  16.965 -0.1217  0.4548 -0.4502
  488MPD2    C5 7311   3.931   4.562  16.835 -0.3717 -0.2303  0.4804
  488MPD2     H 7312   3.952   0.176  16.992 -0.4792  0.3142 -0.8121
  488MPD2    H1 7313   3.887   4.487  17.018 -0.4757 -0.4671 -2.1908
  488MPD2    H2 7314   3.975   4.658  16.647  1.4904 -1.3603  0.3169
  488MPD2    H3 7315   3.924   4.462  16.796  0.9644 -0.0713 -0.1612
  488MPD2     N 7316   3.893   4.732  17.162  0.4607  0.0602 -0.5078
  488MPD2    H5 7317   3.894   0.093  17.197 -2.9217  0.2444 -0.9034
  488MPD2    N1 7318   4.023   0.183  16.745  0.4118 -0.2890  0.2611
  488MPD2    H7 7319   4.031   0.269  16.797 -0.7181  2.2172 -3.6657
  489TMC3    C1 7320   3.870   4.686  17.396 -1.1437  0.3365  0.5058
  489TMC3    C2 7321   3.903   0.082  17.411  0.4147  0.0498 -0.0724
  489TMC3    C3 7322   3.841   0.152  17.507  0.3440 -0.2938  1.1646
  489TMC3    C4 7323   3.802   4.627  17.498  0.0836 -0.2053 -0.7357
  489TMC3    C5 7324   3.737   4.699  17.603 -0.7953  0.1998 -0.3358
  489TMC3    C6 7325   3.753   0.106  17.609 -0.3186 -0.2693 -0.4238
  489TMC3     C 7326   3.858   4.638  17.257 -0.5195  0.2520  0.1460
  489TMC3     O 7327   3.830   4.517  17.245 -0.1977 -0.8909  0.2035
  489TMC3     H 7328   3.964   0.139  17.342 -2.5313  0.9728 -1.8951
  489TMC3    H1 7329   3.806   4.519  17.501 -1.3919 -0.1990  0.7286
  489TMC3    H2 7330   3.717   0.162  17.694  1.3814  0.2442 -0.0425
  489TMC3    C7 7331   3.677   4.631  17.712  0.7527  0.4159 -0.4267
  489TMC3    C8 7332   3.883   0.298  17.507  0.2781  0.6455  0.2611
  489TMC3    O1 7333   3.646   4.690   0.077 -0.0006  0.5669  0.1446
  489TMC3    O2 7334   3.992   0.320  17.458  0.4127  0.4323  0.2123
  490MPD2     C 7335   4.527   4.447  17.654  0.1632 -0.5456 -0.2562
  490MPD2    C1 7336   4.456   4.366   0.006  0.4937 -0.3494  0.0801
  490MPD2    C2 7337   4.472   4.402   0.143 -0.6172  0.7205 -0.2183
  490MPD2    C3 7338   4.554   4.504   0.182  0.5709 -0.4101 -0.0276
  490MPD2    C4 7339   4.627   4.576   0.089 -0.2907  0.2053  0.1260
  490MPD2    C5 7340   4.617   4.539  17.701 -0.2021  0.7417  0.1443
  490MPD2     H 7341   4.426   4.333   0.212  2.1265  1.3010  2.1710
  490MPD2    H1 7342   4.697   4.656   0.110 -0.6987  0.4938  0.3844
  490MPD2    H2 7343   4.523   4.432  17.546  1.4039  0.4798 -0.4475
  490MPD2    H3 7344   4.680   4.590  17.629  1.6187 -0.5886  0.7845
  490MPD2     N 7345   4.575   4.538   0.317 -0.3408  0.1658  0.4481
  490MPD2    H5 7346   4.640   4.616   0.326 -2.6637  2.3153 -1.6967
  490MPD2    N1 7347   4.367   4.266  17.705  0.0006  0.0303  0.1644
  490MPD2    H7 7348   4.318   4.203   0.029  1.6157 -0.1383  1.2555
  491TMC3    C1 7349   4.288   4.094  17.576  0.7221  0.8430 -0.5226
  491TMC3    C2 7350   4.324   3.999  17.676  0.2987  0.3458 -0.4226
  491TMC3    C3 7351   4.289   3.870  17.657 -0.5339  0.2270 -0.1791
  491TMC3    C4 7352   4.232   4.046  17.457 -0.2836 -0.4739 -0.3650
  491TMC3    C5 7353   4.206   3.914  17.450  0.4275 -0.2848 -0.7134
  491TMC3    C6 7354   4.237   3.824  17.546  0.4817  0.6561  0.3507
  491TMC3     C 7355   4.337   4.230  17.575 -0.0469  0.3359  0.7963
  491TMC3     O 7356   4.368   4.289  17.474  0.3043 -0.0869  0.6248
  491TMC3     H 7357   4.377   4.016   0.030  0.1020  2.9408 -0.8007
  491TMC3    H1 7358   4.203   4.122  17.385 -1.2060  0.2266  0.7474
  491TMC3    H2 7359   4.238   3.718  17.524 -1.6466  0.1493  2.7353
  491TMC3    C7 7360   4.101   3.871  17.368 -0.4063  0.2149 -0.4899
  491TMC3    C8 7361   4.285   3.779   0.030  0.7757  0.3122 -0.3401
  491TMC3    O1 7362   4.085   3.748  17.379  0.5409  0.6542 -0.3580
  491TMC3    O2 7363   4.283   3.832   0.140  0.1267 -0.0958  0.1698
  492MPD2     C 7364   0.092   4.421  11.266  0.0499 -0.2426  0.0311
  492MPD2    C1 7365   0.045   4.309  11.200  0.3534  0.1412  0.3439
  492MPD2    C2 7366   4.695   4.215  11.259  0.2008  0.5324 -0.6711
  492MPD2    C3 7367   4.652   4.230  11.390  0.1733 -0.4520 -0.3817
  492MPD2    C4 7368   4.696   4.340  11.453  0.1915 -0.4268  0.6949
  492MPD2    C5 7369   0.049   4.434  11.398 -0.0650 -0.3570  0.3481
  492MPD2     H 7370   4.645   4.132  11.211 -0.3308  0.0992  0.6194
  492MPD2    H1 7371   4.662   4.364  11.553  1.9128 -1.0030  1.4243
  492MPD2    H2 7372   0.150   4.503  11.226 -0.0613 -0.2416 -0.1270
  492MPD2    H3 7373   0.077   4.522  11.454 -1.6524 -0.9380  2.0681
  492MPD2     N 7374   4.555   4.156  11.463 -0.4715  0.2225 -0.0152
  492MPD2    H5 7375   4.528   4.189  11.555 -2.2830  1.0790 -0.8572
  492MPD2    N1 7376   0.085   4.292  11.066 -0.4940  0.3306 -0.3770
  492MPD2    H7 7377   0.145   4.365  11.029 -0.2204  0.7500  0.8734
  493TMC3    C1 7378   0.079   4.214  10.840 -0.5286  0.3080 -0.9113
  493TMC3    C2 7379   0.204   4.270  10.816 -0.4660  0.0052 -0.0343
  493TMC3    C3 7380   0.235   4.302  10.690  0.7846 -0.0607  0.8192
  493TMC3    C4 7381   0.010   4.157  10.736 -0.2464  0.1153  0.8484
  493TMC3    C5 7382   0.046   4.204  10.613  0.2389 -0.7952  0.5924
  493TMC3    C6 7383   0.157   4.272  10.587 -0.1780  0.6332 -0.6829
  493TMC3     C 7384   0.041   4.191  10.980 -0.4486  0.3899 -0.2033
  493TMC3     O 7385   4.698   4.096  11.005 -0.7479 -0.2517 -0.3238
  493TMC3     H 7386   0.273   4.300  10.895 -2.6880  0.6513  1.6682
  493TMC3    H1 7387   4.654   4.107  10.764 -0.6467 -0.4359 -1.4146
  493TMC3    H2 7388   0.189   4.304  10.488 -0.4972 -0.1790 -1.0439
  493TMC3    C7 7389   4.721   4.126  10.510  0.4781 -0.6531  0.0790
  493TMC3    C8 7390   0.372   4.344  10.682 -0.5958  0.4144 -0.3221
  493TMC3    O1 7391   4.632   4.053  10.546 -0.6045 -0.0016 -0.7936
  493TMC3    O2 7392   0.455   4.268  10.737  1.1100 -0.2948 -0.0819
  494TMC3    C1 7393   0.801   1.356   0.805  0.6859  0.1164  0.9844
  494TMC3    C2 7394   0.712   1.264   0.844 -0.4606  0.0654  0.0020
  494TMC3    C3 7395   0.630   1.204   0.757  1.0118 -0.3654 -0.6680
  494TMC3    C4 7396   0.814   1.397   0.678  0.1315 -1.2956 -0.3125
  494TMC3    C5 7397   0.742   1.322   0.594  0.1455 -0.1574  0.6588
  494TMC3    C6 7398   0.651   1.227   0.625 -0.6896  0.2865  0.0788
  494TMC3     C 7399   0.893   1.404   0.912 -0.0666  0.1598  0.6421
  494TMC3     O 7400   0.865   1.379   1.025  0.2854  0.4187  0.4387
  494TMC3     H 7401   0.717   1.239   0.949  2.1240  0.2551 -0.0916
  494TMC3    H1 7402   0.873   1.483   0.651 -0.4993 -0.6587  0.3359
  494TMC3    H2 7403   0.607   1.165   0.547  1.8018 -3.4098  1.5644
  494TMC3    C7 7404   0.743   1.349   0.447 -0.1260  0.3183 -0.0427
  494TMC3    C8 7405   0.585   1.075   0.805 -0.3951 -0.1933 -0.2557
  494TMC3    O1 7406   0.649   1.311   0.377  0.3006 -0.2823  0.2311
  494TMC3    O2 7407   0.650   1.027   0.897  0.1103 -0.5857 -0.4322
  495TMC3    C1 7408   4.155   2.809  14.925  0.0082  0.4427 -0.0014
  495TMC3    C2 7409   4.208   2.891  14.830  0.4224 -0.7245  0.7218
  495TMC3    C3 7410   4.208   3.030  14.838 -0.0537  0.5040 -0.5158
  495TMC3    C4 7411   4.097   2.874  15.031  0.5413 -0.5341  0.2925
  495TMC3    C5 7412   4.086   3.008  15.036 -0.0704  0.0838 -0.1159
  495TMC3    C6 7413   4.151   3.091  14.949  0.2019  0.3818 -0.0534
  495TMC3     C 7414   4.085   2.686  14.885  0.6599 -0.1147 -0.9971
  495TMC3     O 7415   4.035   2.618  14.979  0.0158  0.0662  0.1556
  495TMC3     H 7416   4.254   2.848  14.742  1.1819 -1.4645  1.4693
  495TMC3    H1 7417   4.046   2.819  15.109  0.1888  1.3590  1.4078
  495TMC3    H2 7418   4.166   3.196  14.973  1.7135  0.0527  0.4613
  495TMC3    C7 7419   4.065   3.062  15.169 -0.1008 -0.8511  0.0220
  495TMC3    C8 7420   4.132   3.085  14.722  0.1897 -0.0546 -0.1480
  495TMC3    O1 7421   4.155   3.043  15.254 -0.8448  0.2461 -0.1287
  495TMC3    O2 7422   4.052   3.175  14.756  0.6326 -0.4549  0.1122
  496MPD2     C 7423   1.557   2.718  15.768  0.4153 -0.6848 -0.3369
  496MPD2    C1 7424   1.464   2.733  15.669 -0.0528 -0.6416 -0.1385
  496MPD2    C2 7425   1.331   2.760  15.698  0.2619  0.4472 -0.0830
  496MPD2    C3 7426   1.291   2.763  15.834  0.0828  0.6667 -0.3298
  496MPD2    C4 7427   1.383   2.746  15.931  0.1833  0.0403 -0.3660
  496MPD2    C5 7428   1.514   2.729  15.901  0.1885  0.5397 -0.0037
  496MPD2     H 7429   1.259   2.763  15.617  1.1848  0.9813 -0.8761
  496MPD2    H1 7430   1.351   2.746  16.035 -0.6943  1.3747 -0.6387
  496MPD2    H2 7431   1.662   2.698  15.752  0.3056  0.1826 -2.2300
  496MPD2    H3 7432   1.583   2.730  15.985 -1.2075  0.7523  1.1574
  496MPD2     N 7433   1.161   2.795  15.877  0.3932  0.0859 -0.1316
  496MPD2    H5 7434   1.152   2.783  15.978  1.2831  4.5040  0.4754
  496MPD2    N1 7435   1.509   2.706  15.541 -0.1019 -0.2827 -0.4558
  496MPD2    H7 7436   1.609   2.689  15.541  0.2546  1.7225 -1.3616
  497TMC3    C1 7437   0.930   2.808  15.897  0.3093  0.4461 -0.2528
  497TMC3    C2 7438   0.819   2.858  15.841 -0.8711 -0.2220  0.3301
  497TMC3    C3 7439   0.716   2.888  15.930  0.6384  0.3450  0.2065
  497TMC3    C4 7440   0.949   2.778  16.035 -0.2362 -0.0214 -0.0598
  497TMC3    C5 7441   0.843   2.812  16.114 -0.1089 -0.3068  0.2109
  497TMC3    C6 7442   0.721   2.855  16.063 -0.4292 -0.1641  0.2178
  497TMC3     C 7443   1.051   2.819  15.807  0.2816  0.4523 -1.0745
  497TMC3     O 7444   1.035   2.836  15.686  0.5949 -0.7879 -0.0364
  497TMC3     H 7445   0.822   2.888  15.737 -1.5259 -2.2106 -0.2635
  497TMC3    H1 7446   1.029   2.710  16.065  2.6206  4.6625  3.0096
  497TMC3    H2 7447   0.632   2.867  16.123 -1.3119 -2.4431 -0.5956
  497TMC3    C7 7448   0.843   2.785  16.251  0.2591 -0.1597 -0.5670
  497TMC3    C8 7449   0.590   2.931  15.872 -0.1772 -0.4816  0.1878
  497TMC3    O1 7450   0.733   2.750  16.299 -0.1346 -0.1069 -0.3879
  497TMC3    O2 7451   0.584   2.916  15.750 -0.1753 -0.0512 -0.0163
  498MPD2     C 7452   1.760   0.546  10.073  0.0395  0.3290 -0.0024
  498MPD2    C1 7453   1.859   0.454  10.037 -0.2495  0.3316  0.6392
  498MPD2    C2 7454   1.828   0.318  10.042  0.1905 -1.0744 -0.0500
  498MPD2    C3 7455   1.704   0.273  10.061 -0.2457 -0.4547  0.4732
  498MPD2    C4 7456   1.609   0.364  10.092  0.2390  1.0405  0.0954
  498MPD2    C5 7457   1.636   0.498  10.103  0.0596 -0.2676  0.4099
  498MPD2     H 7458   1.914   0.253  10.031 -0.4588 -1.4392 -2.9494
  498MPD2    H1 7459   1.507   0.336  10.114  1.1504 -3.2041 -0.8701
  498MPD2    H2 7460   1.777   0.653  10.075  1.5966  0.0678  0.7970
  498MPD2    H3 7461   1.551   0.561  10.125  2.0864  2.1120  1.4563
  498MPD2     N 7462   1.678   0.128  10.058  0.2607  0.1227 -1.1241
  498MPD2    H5 7463   1.754   0.070  10.022 -0.0163 -1.8946  1.4552
  498MPD2    N1 7464   1.985   0.492   9.992  0.4628  0.8734  0.7283
  498MPD2    H7 7465   2.053   0.417   9.987  1.8802  2.0978  2.0410
  499TMC3    C1 7466   2.158   0.630   9.910  0.0869 -0.3248 -0.4193
  499TMC3    C2 7467   2.250   0.533   9.945  0.7693  0.1505  0.4696
  499TMC3    C3 7468   2.382   0.553   9.922  0.1776 -0.4472  0.2601
  499TMC3    C4 7469   2.196   0.744   9.837 -0.2292  0.5469 -0.0925
  499TMC3    C5 7470   2.330   0.761   9.818  0.4522 -0.4550  0.4608
  499TMC3    C6 7471   2.423   0.668   9.862 -0.6028 -0.1822  0.4562
  499TMC3     C 7472   2.011   0.609   9.932  0.2135 -0.7016  1.2581
  499TMC3     O 7473   1.935   0.699   9.896 -0.1111  0.0889 -0.4798
  499TMC3     H 7474   2.219   0.445  10.001  0.4343  0.7435  1.2160
  499TMC3    H1 7475   2.129   0.825   9.812 -1.5977  0.1891  2.4173
  499TMC3    H2 7476   2.531   0.669   9.849 -0.7118 -1.3092 -0.6512
  499TMC3    C7 7477   2.377   0.876   9.749  0.3576  0.4578  0.0786
  499TMC3    C8 7478   2.477   0.497  10.016  0.4506  0.3385 -0.6383
  499TMC3    O1 7479   2.490   0.915   9.767  0.2654  0.0683  0.6980
  499TMC3    O2 7480   2.562   0.572  10.066 -0.2144 -0.4076 -0.0852
  500MPD2     C 7481   3.911   0.415  10.151  0.2511  0.7037  0.3540
  500MPD2    C1 7482   3.930   0.551  10.134  0.1034  0.3127  0.2506
  500MPD2    C2 7483   3.816   0.628  10.165 -0.9588  0.4071 -0.7064
  500MPD2    C3 7484   3.692   0.580  10.189  0.0310 -0.2605  0.0136
  500MPD2    C4 7485   3.673   0.446  10.192 -0.1033 -0.2534  0.3259
  500MPD2    C5 7486   3.787   0.365  10.175  0.3775  0.2984  0.2906
  500MPD2     H 7487   3.836   0.734  10.158 -0.9895  0.4988  0.6610
  500MPD2    H1 7488   3.575   0.405  10.214 -0.4312  0.0834 -0.4971
  500MPD2    H2 7489   4.000   0.353  10.144 -0.4316 -0.1494 -0.6573
  500MPD2    H3 7490   3.775   0.260  10.195  1.3200 -0.0706 -1.0777
  500MPD2     N 7491   3.583   0.667  10.208  0.0277  0.6732 -0.1264
  500MPD2    H5 7492   3.489   0.628  10.202  1.1434 -1.7185 -2.1702
  500MPD2    N1 7493   4.047   0.622  10.101  0.0465 -0.2919  0.4896
  500MPD2    H7 7494   4.037   0.722  10.086  1.0033 -0.2934 -0.1257
  501TMC3    C1 7495   4.274   0.656  10.039  0.1802  0.5523  0.0591
  501TMC3    C2 7496   4.248   0.776   9.983  0.3452 -0.0982  0.2092
  501TMC3    C3 7497   4.355   0.862   9.985 -0.2389 -0.3033  0.9224
  501TMC3    C4 7498   4.391   0.620  10.097 -0.3356  0.9288 -0.1239
  501TMC3    C5 7499   4.482   0.720  10.116  0.0902  0.3478 -0.0108
  501TMC3    C6 7500   4.474   0.832  10.039 -0.0497  0.3475 -0.9123
  501TMC3     C 7501   4.165   0.565  10.069  0.1830  0.0693 -0.3727
  501TMC3     O 7502   4.203   0.450  10.095  0.1596 -0.5069 -0.3082
  501TMC3     H 7503   4.152   0.810   9.945  0.5932  1.1904  0.7592
  501TMC3    H1 7504   4.390   0.534  10.163 -0.4542 -0.5994 -2.1129
  501TMC3    H2 7505   4.556   0.902  10.049  0.7174 -0.5664 -0.8511
  501TMC3    C7 7506   4.509   0.745  10.258 -0.1099  0.3758  0.2498
  501TMC3    C8 7507   4.321   1.001   9.961 -0.8128  0.7711  0.4614
  501TMC3    O1 7508   4.544   0.860  10.277  0.4089  0.2631 -0.8138
  501TMC3    O2 7509   4.389   1.059   9.879 -0.4041  0.0973  0.2481
  502TMC3    C1 7510   3.627   3.836  15.023 -0.0699  0.1486 -0.1940
  502TMC3    C2 7511   3.592   3.956  14.965 -0.7376 -0.7452 -0.3537
  502TMC3    C3 7512   3.459   3.992  14.961  0.2905 -0.5067  0.2651
  502TMC3    C4 7513   3.530   3.755  15.071  0.8941 -0.0550  0.1719
  502TMC3    C5 7514   3.398   3.785  15.059 -0.3803  0.2008  0.1397
  502TMC3    C6 7515   3.363   3.906  15.005  0.4226  0.7377 -0.6614
  502TMC3     C 7516   3.735   3.845  15.120 -0.2065 -0.1412 -0.9682
  502TMC3     O 7517   3.846   3.883  15.090 -0.5058 -0.0664 -0.0823
  502TMC3     H 7518   3.676   4.017  14.933 -1.2217  0.5175  0.7753
  502TMC3    H1 7519   3.552   3.652  15.100  0.9115  0.1144  0.7686
  502TMC3    H2 7520   3.261   3.942  15.008  0.0915 -0.1880 -0.8097
  502TMC3    C7 7521   3.324   3.750  15.176  0.4600  0.2562  0.6244
  502TMC3    C8 7522   3.436   4.133  14.992 -0.2545  0.3197 -0.7156
  502TMC3    O1 7523   3.392   3.707  15.268 -0.0478 -0.4028  0.1560
  502TMC3    O2 7524   3.542   4.188  15.020 -0.2102 -0.0250  0.7340
  503MPD2     C 7525   0.784   0.114  17.071 -0.0088  0.3346 -0.0167
  503MPD2    C1 7526   0.792   0.162  17.198 -0.2110 -0.4687 -0.1799
  503MPD2    C2 7527   0.825   0.078  17.303 -0.6282 -0.0650 -0.6588
  503MPD2    C3 7528   0.841   4.677  17.279  0.2985  0.0562 -0.2067
  503MPD2    C4 7529   0.832   4.633  17.150  0.2320  0.7641  0.3400
  503MPD2    C5 7530   0.804   4.719  17.047  0.7178 -0.2026  0.0993
  503MPD2     H 7531   0.832   0.124  17.401  2.6245 -2.7792  0.3919
  503MPD2    H1 7532   0.857   4.529  17.132 -2.2056  0.1277  0.6179
  503MPD2    H2 7533   0.776   0.172  16.980  0.6973  1.5136  0.6735
  503MPD2    H3 7534   0.810   4.674  16.948  0.3092 -0.3403  0.1346
  503MPD2     N 7535   0.883   4.582  17.376  0.2034 -0.3823  0.5255
  503MPD2    H5 7536   0.900   4.487  17.345  0.6402 -0.3679  0.7241
  503MPD2    N1 7537   0.745   0.287  17.236  0.4041  0.9058  0.5264
  503MPD2    H7 7538   0.724   0.306  17.334 -0.9509  0.1659  0.3776
  504TMC3    C1 7539   0.929   4.489  17.586  0.1013 -0.3607  0.0534
  504TMC3    C2 7540   0.898   4.485  17.717  0.1568 -0.4883  0.2407
  504TMC3    C3 7541   0.965   4.396   0.055 -0.4242 -0.1772  1.1761
  504TMC3    C4 7542   1.020   4.402  17.533  0.0602 -0.1216  1.0020
  504TMC3    C5 7543   1.085   4.321  17.612 -0.3281 -0.3909  0.1655
  504TMC3    C6 7544   1.062   4.316   0.005  0.0883 -0.0513 -0.0355
  504TMC3     C 7545   0.892   4.603  17.509  0.2862 -1.3332 -0.7443
  504TMC3     O 7546   0.884   4.709  17.568 -0.0316 -0.0045  0.1971
  504TMC3     H 7547   0.810   4.539   0.009  0.2733 -0.1038 -0.1020
  504TMC3    H1 7548   1.047   4.401  17.428  1.3982 -2.3006  1.3566
  504TMC3    H2 7549   1.114   4.255   0.077  0.6469 -1.5427 -1.7016
  504TMC3    C7 7550   1.214   4.279  17.564 -0.2162 -0.0094  0.3887
  504TMC3    C8 7551   0.952   4.431   0.196 -0.2181  0.4746 -0.4956
  504TMC3    O1 7552   1.214   4.210  17.462  0.4477  0.1012 -0.4286
  504TMC3    O2 7553   0.922   4.547   0.220  0.2737  0.6867  0.5721
  505MPD2     C 7554   1.959   3.593  10.926 -0.2734  0.7005 -0.2306
  505MPD2    C1 7555   1.938   3.587  10.791 -0.2094 -0.3012 -0.1057
  505MPD2    C2 7556   2.035   3.641  10.706  0.4877 -0.4972 -0.6055
  505MPD2    C3 7557   2.157   3.685  10.746 -0.1580 -0.3785 -0.0318
  505MPD2    C4 7558   2.174   3.687  10.881  0.8756 -0.1901 -0.2877
  505MPD2    C5 7559   2.079   3.653  10.970  0.2944  0.2281 -0.9375
  505MPD2     H 7560   2.009   3.665  10.604 -0.4597  0.4844 -0.1367
  505MPD2    H1 7561   2.272   3.723  10.910  0.1561  1.0082  0.6737
  505MPD2    H2 7562   1.889   3.552  10.997 -0.3181  1.8120  0.3627
  505MPD2    H3 7563   2.099   3.664  11.076 -0.1970  1.2046 -0.9502
  505MPD2     N 7564   2.262   3.731  10.663 -0.4298  0.4383  0.1396
  505MPD2    H5 7565   2.338   3.788  10.698 -0.9018  0.5661  0.9481
  505MPD2    N1 7566   1.823   3.527  10.739 -0.2767 -0.4143 -0.0790
  505MPD2    H7 7567   1.745   3.507  10.801 -0.8961  2.2690  0.0295
  506TMC3    C1 7568   1.673   3.465  10.565 -0.1791  0.2865 -0.6823
  506TMC3    C2 7569   1.574   3.559  10.600  0.1622 -0.1618 -0.4977
  506TMC3    C3 7570   1.479   3.575  10.500  0.1699 -0.3947 -0.8318
  506TMC3    C4 7571   1.673   3.385  10.456  0.2127  0.6841  0.1208
  506TMC3    C5 7572   1.594   3.419  10.350 -0.0994 -0.2971 -0.7734
  506TMC3    C6 7573   1.503   3.511  10.378  1.5741  0.0612 -0.6452
  506TMC3     C 7574   1.811   3.496  10.607  0.3028  0.1995 -0.0701
  506TMC3     O 7575   1.896   3.475  10.522 -0.4270  0.9087  0.0093
  506TMC3     H 7576   1.578   3.619  10.689 -0.2898 -0.8833  0.0093
  506TMC3    H1 7577   1.758   3.320  10.438 -0.6808 -0.9323  1.6526
  506TMC3    H2 7578   1.453   3.565  10.298 -1.2282  0.1894  1.1878
  506TMC3    C7 7579   1.657   3.433  10.218  0.0053  0.4534 -0.8453
  506TMC3    C8 7580   1.401   3.698  10.499  0.7757 -0.4424 -0.3568
  506TMC3    O1 7581   1.593   3.416  10.110  0.4275  0.1003  0.2526
  506TMC3    O2 7582   1.325   3.711  10.595 -0.5052  0.0078 -0.0542
  507TMC3    C1 7583   2.449   0.304  15.038  0.6416  0.1889  0.5022
  507TMC3    C2 7584   2.574   0.288  14.993  0.7021  0.5404 -0.4510
  507TMC3    C3 7585   2.644   0.401  14.941  0.4531  0.7165 -0.3535
  507TMC3    C4 7586   2.394   0.427  15.046  0.3060 -0.4776 -0.0188
  507TMC3    C5 7587   2.457   0.535  14.993 -0.1729 -0.3689  0.3222
  507TMC3    C6 7588   2.584   0.522  14.941  0.5536  0.4349 -0.0279
  507TMC3     C 7589   2.363   0.193  15.067  0.5205  0.2854 -0.9904
  507TMC3     O 7590   2.272   0.201  15.147  0.2107 -0.4907 -0.6916
  507TMC3     H 7591   2.629   0.195  14.995 -0.8261 -0.3268  1.1944
  507TMC3    H1 7592   2.293   0.441  15.082 -0.8838 -0.6721 -3.2669
  507TMC3    H2 7593   2.646   0.608  14.918  0.6219  0.1478 -0.9012
  507TMC3    C7 7594   2.374   0.605  14.892  0.3020  0.3810 -0.6925
  507TMC3    C8 7595   2.715   0.372  14.820  0.4413  0.5033 -0.2969
  507TMC3    O1 7596   2.417   0.607  14.780 -0.2627  0.6965 -0.0007
  507TMC3    O2 7597   2.788   0.271  14.813 -0.2870 -0.4086 -0.3911
  508MPD2     C 7598   2.722   1.646  16.445  0.1392 -0.3262 -0.2089
  508MPD2    C1 7599   2.714   1.770  16.503 -0.1934 -0.8408 -0.2102
  508MPD2    C2 7600   2.648   1.868  16.430  0.0919 -0.2217  0.3822
  508MPD2    C3 7601   2.602   1.851  16.294  0.4692 -0.2739  0.0086
  508MPD2    C4 7602   2.614   1.725  16.243  0.0510 -0.0122 -0.1764
  508MPD2    C5 7603   2.675   1.622  16.317 -0.2370 -0.0535  0.7640
  508MPD2     H 7604   2.645   1.970  16.468 -2.1912 -0.9163  2.0492
  508MPD2    H1 7605   2.593   1.698  16.139 -1.0545 -2.8074  0.7626
  508MPD2    H2 7606   2.772   1.561  16.489  2.0368  0.0234 -1.6770
  508MPD2    H3 7607   2.689   1.521  16.281 -1.7551  0.7120 -1.9571
  508MPD2     N 7608   2.559   1.960  16.215  0.0870 -0.1046  0.1087
  508MPD2    H5 7609   2.552   2.053  16.254 -1.6307 -0.3488  0.3801
  508MPD2    N1 7610   2.771   1.794  16.636 -0.4550  0.0676  0.7652
  508MPD2    H7 7611   2.827   1.717  16.671  0.8439  0.8848  0.4625
  509TMC3    C1 7612   2.668   2.216  15.859  0.2305  0.2735 -0.4885
  509TMC3    C2 7613   2.763   2.290  15.935  0.3982 -0.7771 -0.6654
  509TMC3    C3 7614   2.775   2.249  16.066 -0.3910 -0.3529  0.0736
  509TMC3    C4 7615   2.601   2.112  15.909 -0.2373  0.7048  0.2299
  509TMC3    C5 7616   2.620   2.083  16.038  0.2611 -0.3727 -0.1295
  509TMC3    C6 7617   2.713   2.142  16.120 -0.5866  0.5814 -0.3919
  509TMC3     C 7618   2.647   2.256  15.724 -0.4889 -0.0628 -0.2713
  509TMC3     O 7619   2.583   2.176  15.653 -0.2802  0.4897 -0.3987
  509TMC3     H 7620   2.832   2.363  15.894  0.5328 -1.2891 -1.3383
  509TMC3    H1 7621   2.531   2.057  15.846 -1.2297  0.6022  1.4070
  509TMC3    H2 7622   2.737   2.096  16.216 -2.0145 -1.0485 -0.8118
  509TMC3    C7 7623   2.561   1.959  16.079 -0.6371 -0.0451  0.4293
  509TMC3    C8 7624   2.893   2.307  16.136 -0.0510  0.0627 -0.5568
  509TMC3    O1 7625   2.529   1.867  16.003 -0.2723 -0.3479  0.1643
  509TMC3    O2 7626   2.949   2.229  16.216  0.5868 -0.7123 -0.0686
  510MPD2     C 7627   0.362   3.710  14.599 -0.3716  0.2533 -0.0163
  510MPD2    C1 7628   0.470   3.637  14.648  0.2057 -0.8319  0.4439
  510MPD2    C2 7629   0.582   3.630  14.568 -0.3162  0.5585 -0.5808
  510MPD2    C3 7630   0.600   3.706  14.448 -0.2163 -0.1847 -0.4256
  510MPD2    C4 7631   0.503   3.792  14.414  0.6810 -1.0080 -0.2725
  510MPD2    C5 7632   0.386   3.787  14.484 -0.2122  0.4954  0.6785
  510MPD2     H 7633   0.662   3.561  14.592  1.7545  2.1795 -2.8734
  510MPD2    H1 7634   0.503   3.857  14.328 -2.3969  0.2662  0.6696
  510MPD2    H2 7635   0.281   3.737  14.666  2.0694 -1.0477  3.4533
  510MPD2    H3 7636   0.304   3.853  14.458  0.2692  1.4499  1.5921
  510MPD2     N 7637   0.716   3.685  14.370 -0.2269 -0.6263  0.2945
  510MPD2    H5 7638   0.794   3.628  14.402 -0.0767 -0.5771  0.0213
  510MPD2    N1 7639   0.440   3.569  14.767 -0.1513  0.3113  0.7133
  510MPD2    H7 7640   0.351   3.597  14.808 -0.4999 -1.3938  1.1404
  511TMC3    C1 7641   0.465   3.418  14.934  0.8777 -0.4716  0.0969
  511TMC3    C2 7642   0.378   3.490  15.004 -0.3645 -0.1520  0.1733
  511TMC3    C3 7643   0.284   3.421  15.075 -0.3122 -0.0263  0.3520
  511TMC3    C4 7644   0.461   3.284  14.922 -0.2537  0.3133 -0.2552
  511TMC3    C5 7645   0.354   3.217  14.980 -0.6801  0.7642 -0.8303
  511TMC3    C6 7646   0.262   3.288  15.053  0.3547  0.0711 -0.2797
  511TMC3     C 7647   0.525   3.473  14.816 -0.1336  0.0083  0.0308
  511TMC3     O 7648   0.631   3.422  14.778 -0.8758  0.6097  0.0320
  511TMC3     H 7649   0.399   3.593  15.029  1.3515 -0.4590  0.0600
  511TMC3    H1 7650   0.535   3.234  14.860  0.2737  1.0527 -0.2255
  511TMC3    H2 7651   0.173   3.233  15.083  0.8811 -1.3710 -1.3585
  511TMC3    C7 7652   0.325   3.084  14.938 -0.1657 -0.3767 -0.7736
  511TMC3    C8 7653   0.218   3.492  15.191 -0.5107  0.5770  0.0301
  511TMC3    O1 7654   0.397   3.039  14.852  1.1872 -0.2715  0.6455
  511TMC3    O2 7655   0.230   3.612  15.200  0.2462  0.0856  0.5400
  512TMC3    C1 7656   0.079   2.760  12.768 -0.3059  0.2663  0.2499
  512TMC3    C2 7657   0.003   2.816  12.865  0.8540 -0.2894  0.1080
  512TMC3    C3 7658   4.642   2.731  12.916 -0.2195  0.3482  1.1598
  512TMC3    C4 7659   0.064   2.633  12.711  0.1668 -0.7976 -0.4137
  512TMC3    C5 7660   4.710   2.554  12.778  0.3432 -1.3154  0.5682
  512TMC3    C6 7661   4.629   2.605  12.876 -0.4670  0.2118 -0.8161
  512TMC3     C 7662   0.181   2.841  12.710 -0.0438  0.4095  0.4935
  512TMC3     O 7663   0.259   2.796  12.628  0.4504 -0.3440 -0.1622
  512TMC3     H 7664   0.032   2.904  12.922 -2.1500 -0.2535  1.6285
  512TMC3    H1 7665   0.127   2.599  12.629  0.3320 -2.4647  0.4079
  512TMC3    H2 7666   4.549   2.544  12.915  1.5596 -2.2687 -0.5724
  512TMC3    C7 7667   4.687   2.421  12.735  0.1793 -0.7261 -0.0562
  512TMC3    C8 7668   4.538   2.800  12.981  0.5993  0.1381  0.6343
  512TMC3    O1 7669   4.623   2.352  12.820  0.3434  0.2787  1.0013
  512TMC3    O2 7670   4.550   2.921  12.981  0.2575  0.1025  0.0982
  513MPD2     C 7671   2.066   2.927  13.349 -0.4095 -0.3589  0.0072
  513MPD2    C1 7672   1.991   2.814  13.355  0.3171  0.9380  0.2915
  513MPD2    C2 7673   1.973   2.756  13.475  0.7243  0.2012  0.3122
  513MPD2    C3 7674   2.044   2.797  13.584 -0.3145 -0.6223  0.5799
  513MPD2    C4 7675   2.111   2.915  13.585  0.2571  0.8346  0.9183
  513MPD2    C5 7676   2.117   2.981  13.462  0.0213 -0.1228 -0.5467
  513MPD2     H 7677   1.911   2.670  13.495 -0.3790  0.6739 -1.0920
  513MPD2    H1 7678   2.163   2.945  13.674  1.1684 -0.7377  0.9021
  513MPD2    H2 7679   2.092   2.989  13.264  2.5951 -1.3935  0.1539
  513MPD2    H3 7680   2.175   3.073  13.457 -0.1439  0.0588  0.9672
  513MPD2     N 7681   2.027   2.715  13.695  0.4370 -0.0463 -0.4666
  513MPD2    H5 7682   1.942   2.659  13.688  0.2675  0.1073  0.3840
  513MPD2    N1 7683   1.926   2.780  13.232 -0.3167  0.9776  0.0071
  513MPD2    H7 7684   1.923   2.849  13.158  1.4024 -0.2346 -1.1757
  514TMC3    C1 7685   1.794   2.639  13.095  0.0535 -0.1354  0.2254
  514TMC3    C2 7686   1.889   2.654  12.999 -0.3964  0.2967 -0.8744
  514TMC3    C3 7687   1.951   2.538  12.952  0.1770 -0.0120  0.9175
  514TMC3    C4 7688   1.729   2.517  13.108 -0.8395  0.2370 -0.5636
  514TMC3    C5 7689   1.775   2.410  13.030  0.5855 -1.0069  0.2866
  514TMC3    C6 7690   1.891   2.417  12.965 -0.3401  0.1702 -0.3591
  514TMC3     C 7691   1.847   2.668  13.228  0.3535  0.6300 -0.1001
  514TMC3     O 7692   1.837   2.571  13.305 -0.1091  0.4670 -0.2169
  514TMC3     H 7693   1.951   2.743  12.999  1.0972 -0.7357  0.9722
  514TMC3    H1 7694   1.657   2.502  13.188  1.9443 -1.6280  1.5863
  514TMC3    H2 7695   1.932   2.338  12.903 -0.4833 -1.5963  1.7724
  514TMC3    C7 7696   1.766   2.282  13.091  0.8232  0.1912  0.5578
  514TMC3    C8 7697   2.073   2.549  12.866 -0.7430  0.3951 -0.0017
  514TMC3    O1 7698   1.791   2.182  13.028 -0.6275 -0.6792  1.0495
  514TMC3    O2 7699   2.135   2.441  12.854  0.3272  0.0643  0.0226
  515MPD2     C 7700   4.627   4.147  14.829  0.1772 -0.3858 -0.6245
  515MPD2    C1 7701   4.566   4.218  14.726  0.1941 -0.2760  0.6090
  515MPD2    C2 7702   4.617   4.339  14.698  0.0986 -0.0779  0.1282
  515MPD2    C3 7703   4.726   4.398  14.768 -0.7501  0.5098  0.7313
  515MPD2    C4 7704   0.050   4.317  14.863  0.3687 -0.1171 -0.2777
  515MPD2    C5 7705   4.727   4.205  14.895 -0.2125  0.3170  0.3241
  515MPD2     H 7706   4.580   4.391  14.610 -1.4426 -0.4087  0.5827
  515MPD2    H1 7707   0.129   4.353  14.928  0.6154 -0.6020 -0.3083
  515MPD2    H2 7708   4.604   4.046  14.859  0.0766 -0.0220  0.5337
  515MPD2    H3 7709   0.037   4.145  14.974 -0.0980  2.3659  1.8387
  515MPD2     N 7710   0.049   4.525  14.743 -0.8076  0.6857 -0.1781
  515MPD2    H5 7711   0.125   4.552  14.806  0.0380  1.4216 -1.5121
  515MPD2    N1 7712   4.466   4.172  14.641  0.4309  0.0036 -0.0309
  515MPD2    H7 7713   4.443   4.224  14.556 -0.4212 -0.0691  0.1583
  516TMC3    C1 7714   4.303   4.041  14.540 -0.0162  0.1999 -0.4973
  516TMC3    C2 7715   4.229   4.151  14.510 -0.4169  0.2219  0.0723
  516TMC3    C3 7716   4.093   4.125  14.478 -0.3840  0.0521 -0.7006
  516TMC3    C4 7717   4.265   3.912  14.523  0.2608  0.0950 -0.0519
  516TMC3    C5 7718   4.126   3.891  14.509 -0.9605  0.0921  0.4113
  516TMC3    C6 7719   4.046   3.998  14.483  0.3755 -0.6046 -0.4975
  516TMC3     C 7720   4.402   4.055  14.649 -0.0894  0.4934  0.4621
  516TMC3     O 7721   4.418   3.959  14.725 -0.3516  0.0765  0.2268
  516TMC3     H 7722   4.263   4.251  14.533 -1.2294  0.4181  0.4091
  516TMC3    H1 7723   4.327   3.835  14.567 -0.6067 -0.1224  0.8093
  516TMC3    H2 7724   3.942   3.976  14.463  0.3541  0.9018 -2.1053
  516TMC3    C7 7725   4.069   3.806  14.610 -0.2117  0.0756 -0.3081
  516TMC3    C8 7726   4.003   4.230  14.492 -0.6702  0.3036 -0.6006
  516TMC3    O1 7727   4.147   3.757  14.693  0.5561 -0.1806  0.0583
  516TMC3    O2 7728   3.890   4.192  14.514  0.0200 -1.0350 -0.1345
  517MPD2     C 7729   3.754   1.493   0.399 -0.2149 -0.0832  0.2810
  517MPD2    C1 7730   3.883   1.436   0.412 -0.3089 -0.6428 -0.1886
  517MPD2    C2 7731   3.978   1.491   0.496 -0.0587 -1.0204 -0.0094
  517MPD2    C3 7732   3.941   1.590   0.584 -0.4024 -0.0486  0.4086
  517MPD2    C4 7733   3.807   1.636   0.569 -0.7538  0.1450  0.7310
  517MPD2    C5 7734   3.722   1.595   0.474  0.7136 -0.4708 -0.1658
  517MPD2     H 7735   4.073   1.440   0.488  0.4861 -0.0858  0.5631
  517MPD2    H1 7736   3.774   1.714   0.636 -2.0069  0.4350 -0.2177
  517MPD2    H2 7737   3.684   1.442   0.335  1.7695  0.0631 -1.9996
  517MPD2    H3 7738   3.621   1.628   0.453  0.9346 -0.2540 -0.8876
  517MPD2     N 7739   4.021   1.629   0.698  0.5794  0.6034 -0.0876
  517MPD2    H5 7740   3.983   1.708   0.748 -2.0615 -0.1863 -0.8455
  517MPD2    N1 7741   3.932   1.339   0.320 -0.2779 -0.7085  0.0961
  517MPD2    H7 7742   4.025   1.299   0.330 -0.1048 -1.0616 -3.2017
  518TMC3    C1 7743   3.941   1.189   0.151 -0.0045 -0.0670  0.4175
  518TMC3    C2 7744   3.902   1.064   0.133  0.3031  0.0426  0.1712
  518TMC3    C3 7745   4.001   0.979   0.080 -0.0131 -0.6236 -0.1191
  518TMC3    C4 7746   4.069   1.229   0.112 -0.2091  0.4747  0.4704
  518TMC3    C5 7747   4.158   1.148   0.051 -0.2270  0.0302  0.1262
  518TMC3    C6 7748   4.123   1.018   0.031  0.5566  0.2740  0.6424
  518TMC3     C 7749   3.854   1.273   0.225 -0.0831 -0.2558  0.7717
  518TMC3     O 7750   3.732   1.252   0.226 -0.0700 -0.1931 -0.7678
  518TMC3     H 7751   3.810   1.031   0.180  0.2167  0.3073  0.1879
  518TMC3    H1 7752   4.086   1.336   0.123 -0.4905  0.3336  2.2707
  518TMC3    H2 7753   4.188   0.939  17.732  1.8992  2.6262 -1.9932
  518TMC3    C7 7754   4.289   1.193   0.009  0.4273 -0.0673  0.9702
  518TMC3    C8 7755   3.969   0.836   0.081 -0.3809  0.1338  0.4775
  518TMC3    O1 7756   4.307   1.313   0.026  0.3452  0.4068  0.1734
  518TMC3    O2 7757   4.035   0.768   0.000 -0.1178  0.1291  0.2581
  519MPD2     C 7758   1.235   4.644  14.256  0.4893 -0.5916  0.5812
  519MPD2    C1 7759   1.164   4.596  14.150  0.1043 -0.0253 -0.1711
  519MPD2    C2 7760   1.189   4.467  14.107  0.4858  0.2410 -0.5129
  519MPD2    C3 7761   1.270   4.378  14.176 -0.0935  0.2901 -0.5474
  519MPD2    C4 7762   1.351   4.436  14.276  0.8983  1.2101  0.2277
  519MPD2    C5 7763   1.337   4.568  14.312  0.2700 -0.1435 -0.8499
  519MPD2     H 7764   1.139   4.428  14.019 -0.1872 -0.6319  0.2577
  519MPD2    H1 7765   1.426   4.382  14.332 -0.6286 -0.4011  0.7274
  519MPD2    H2 7766   1.214   0.011  14.286  0.7195  0.3713 -2.5017
  519MPD2    H3 7767   1.406   4.598  14.391  0.0256  0.9467 -1.0495
  519MPD2     N 7768   1.285   4.244  14.130  0.8810  0.7040 -0.6053
  519MPD2    H5 7769   1.254   4.229  14.035 -1.9375  1.6210  0.1639
  519MPD2    N1 7770   1.055   4.668  14.096  0.2993 -0.3039  0.0164
  519MPD2    H7 7771   1.024   0.023  14.131 -1.4217 -0.2924 -1.5213
  520TMC3    C1 7772   1.372   4.030  14.100  0.4177  0.6445 -0.0932
  520TMC3    C2 7773   1.268   3.990  14.021 -0.3787 -0.0932  0.7427
  520TMC3    C3 7774   1.281   3.876  13.956 -0.2684  0.7131  0.2028
  520TMC3    C4 7775   1.490   3.973  14.108 -0.0095 -0.4698  0.1563
  520TMC3    C5 7776   1.509   3.859  14.031  0.2426 -0.1194 -0.1745
  520TMC3    C6 7777   1.404   3.811  13.960 -0.2925 -0.6820 -0.0641
  520TMC3     C 7778   1.355   4.145  14.185  0.3516 -0.1411  0.0030
  520TMC3     O 7779   1.426   4.149  14.282  0.1544  0.2169  0.9219
  520TMC3     H 7780   1.170   4.035  14.029 -0.2265  0.3179  0.2696
  520TMC3    H1 7781   1.567   4.007  14.176  0.2829  1.7725 -1.3318
  520TMC3    H2 7782   1.414   3.715  13.909  0.7970 -1.8731  2.4055
  520TMC3    C7 7783   1.625   3.781  14.056 -0.1974 -0.1030  0.3114
  520TMC3    C8 7784   1.180   3.817  13.868  0.3207 -0.5029  0.6669
  520TMC3    O1 7785   1.711   3.834  14.130  0.1661 -0.3756 -0.2103
  520TMC3    O2 7786   1.218   3.716  13.812  0.2426 -0.0785  0.3202
  521MPD2     C 7787   1.640   2.563   0.133 -0.1666  1.0826  0.2331
  521MPD2    C1 7788   1.649   2.493   0.019 -0.2628 -0.3073 -0.1669
  521MPD2    C2 7789   1.760   2.513  17.677  0.0810  0.4045 -0.5716
  521MPD2    C3 7790   1.866   2.593  17.720  0.0425 -0.0880 -0.1252
  521MPD2    C4 7791   1.851   2.666   0.101  0.0679 -0.3080 -0.2194
  521MPD2    C5 7792   1.739   2.646   0.175 -0.9019  0.0098 -0.8647
  521MPD2     H 7793   1.779   2.462  17.583 -0.5911 -2.3934  0.8269
  521MPD2    H1 7794   1.921   2.747   0.117  2.5827 -2.3886 -0.5516
  521MPD2    H2 7795   1.554   2.545   0.197 -1.2641  1.7494 -1.0379
  521MPD2    H3 7796   1.733   2.694   0.272  1.9533  0.3049 -0.8629
  521MPD2     N 7797   1.981   2.599  17.641  0.5755  0.2165 -0.5603
  521MPD2    H5 7798   1.975   2.565  17.546  0.1620  2.1344 -1.2211
  521MPD2    N1 7799   1.534   2.411  17.731  0.6342  0.3568 -0.6735
  521MPD2    H7 7800   1.473   2.397   0.072 -1.0167  1.7756 -1.6850
  522TMC3    C1 7801   2.209   2.614  17.594 -0.1786  0.0012  0.1978
  522TMC3    C2 7802   2.324   2.552  17.641 -0.3650  0.5153 -0.3365
  522TMC3    C3 7803   2.411   2.512  17.551  0.1904 -0.4328 -0.0370
  522TMC3    C4 7804   2.185   2.649  17.464  0.9534 -0.3496  0.4143
  522TMC3    C5 7805   2.285   2.617  17.375  0.3443 -0.3047 -0.4336
  522TMC3    C6 7806   2.394   2.546  17.417 -0.1603  0.2622 -0.3256
  522TMC3     C 7807   2.105   2.635  17.687  0.0474  0.0703  0.7608
  522TMC3     O 7808   2.138   2.651   0.065 -0.1924  0.0394  0.0831
  522TMC3     H 7809   2.337   2.520   0.005  1.4153  3.3471  0.3375
  522TMC3    H1 7810   2.104   2.717  17.443 -0.4125 -1.8965  0.6484
  522TMC3    H2 7811   2.476   2.516  17.353 -2.0893  0.3143 -2.8215
  522TMC3    C7 7812   2.267   2.640  17.237  0.2888  0.4214  0.4586
  522TMC3    C8 7813   2.529   2.439  17.585  0.0792  0.3842 -0.6736
  522TMC3    O1 7814   2.366   2.619  17.177  0.1768 -0.0456 -0.4828
  522TMC3    O2 7815   2.587   2.473  17.686  0.0461 -0.1657  0.5962
  523MPD2     C 7816   4.357   2.007  10.194 -0.0823  0.3168 -0.3423
  523MPD2    C1 7817   4.415   1.951  10.077 -0.2810  0.3661 -0.0785
  523MPD2    C2 7818   4.390   2.021   9.961  0.4985 -0.4361 -0.3581
  523MPD2    C3 7819   4.314   2.138   9.958  0.2506  0.4220 -0.4605
  523MPD2    C4 7820   4.279   2.199  10.079  0.3060 -0.0968 -0.2069
  523MPD2    C5 7821   4.306   2.135  10.195 -0.5112  0.3166  0.8098
  523MPD2     H 7822   4.438   1.988   9.869 -0.5445  0.1347 -1.1023
  523MPD2    H1 7823   4.221   2.291  10.074  0.9074  0.2201 -1.5089
  523MPD2    H2 7824   4.364   1.957  10.289  2.3928  1.2939 -0.0281
  523MPD2    H3 7825   4.269   2.181  10.286 -2.1453 -0.0990  0.3424
  523MPD2     N 7826   4.257   2.191   9.835  0.6698  0.5660  0.0122
  523MPD2    H5 7827   4.202   2.275   9.848 -2.5500 -1.4589 -0.3103
  523MPD2    N1 7828   4.470   1.819  10.080  0.0801  0.1509 -0.4454
  523MPD2    H7 7829   4.460   1.762  10.163  2.6679 -1.0407 -0.9631
  524TMC3    C1 7830   4.196   2.209   9.609  0.4144  0.0037 -0.5556
  524TMC3    C2 7831   4.234   2.182   9.485  0.2571  0.4692  0.7615
  524TMC3    C3 7832   4.169   2.250   9.386  0.0794 -0.3718  0.4781
  524TMC3    C4 7833   4.105   2.305   9.645  0.0010  0.8003 -0.0669
  524TMC3    C5 7834   4.042   2.369   9.541  0.2203 -0.0553  0.2990
  524TMC3    C6 7835   4.069   2.344   9.409  0.2716 -0.9509 -0.3523
  524TMC3     C 7836   4.269   2.137   9.709 -0.2629  0.6496 -0.5900
  524TMC3     O 7837   4.328   2.035   9.671  0.6128 -0.2251 -0.3285
  524TMC3     H 7838   4.325   2.127   9.464 -0.5290 -0.9447  1.0532
  524TMC3    H1 7839   4.056   2.317   9.741 -2.9495 -2.0276 -1.2147
  524TMC3    H2 7840   4.024   2.402   9.329 -0.4358 -1.8286 -0.5871
  524TMC3    C7 7841   3.973   2.492   9.570 -0.0329 -0.1194  0.0321
  524TMC3    C8 7842   4.204   2.229   9.249  0.3284  0.0593  0.3606
  524TMC3    O1 7843   3.993   2.555   9.675 -0.4891 -0.1714  0.1507
  524TMC3    O2 7844   4.154   2.308   9.169 -0.2578 -0.0997 -0.8114
  525MPD2     C 7845   2.475   3.716  14.632  0.7983  0.5774  0.0652
  525MPD2    C1 7846   2.592   3.738  14.708 -0.2089 -0.2642  0.1811
  525MPD2    C2 7847   2.683   3.837  14.660  0.2994  0.0375  0.4437
  525MPD2    C3 7848   2.655   3.919  14.550 -1.0624  0.3895 -1.1298
  525MPD2    C4 7849   2.535   3.893  14.486  0.2428  0.4636 -0.4189
  525MPD2    C5 7850   2.451   3.790  14.520 -0.1667  0.4997 -0.0904
  525MPD2     H 7851   2.772   3.849  14.721  1.6218  1.1967 -1.7076
  525MPD2    H1 7852   2.510   3.960  14.405  2.5790  0.9984 -0.7092
  525MPD2    H2 7853   2.394   3.646  14.651 -1.5332  3.6296  1.4758
  525MPD2    H3 7854   2.358   3.785  14.466 -1.2277 -2.3661  1.9679
  525MPD2     N 7855   2.731   4.032  14.514  0.2490  0.2438 -0.6351
  525MPD2    H5 7856   2.691   4.088  14.440 -0.3441 -0.6818 -1.0137
  525MPD2    N1 7857   2.617   3.680  14.833 -0.2652  0.5350  0.3726
  525MPD2    H7 7858   2.696   3.711  14.888 -0.0644 -0.5046  0.6828
  526TMC3    C1 7859   2.572   3.537  15.022 -0.2639 -0.3172  0.4425
  526TMC3    C2 7860   2.480   3.547  15.121 -0.2566  0.0030 -0.5866
  526TMC3    C3 7861   2.525   3.529  15.249  0.4486 -0.5432  0.5630
  526TMC3    C4 7862   2.707   3.514  15.045  0.0760 -0.5092 -0.5559
  526TMC3    C5 7863   2.751   3.511  15.176 -0.7649 -0.3173  0.4160
  526TMC3    C6 7864   2.660   3.513  15.282  0.1760 -0.6361 -0.6043
  526TMC3     C 7865   2.529   3.579  14.888  0.4183  0.3862 -0.2475
  526TMC3     O 7866   2.418   3.553  14.860  0.0897 -0.1451  0.2419
  526TMC3     H 7867   2.377   3.559  15.092 -0.3078 -0.1663 -0.4717
  526TMC3    H1 7868   2.768   3.485  14.961 -0.4298  2.0139 -1.8148
  526TMC3    H2 7869   2.696   3.499  15.383 -0.9206  1.1191  0.0274
  526TMC3    C7 7870   2.884   3.462  15.204 -0.1181 -0.1606 -0.1566
  526TMC3    C8 7871   2.449   3.592  15.345 -1.0939  0.1428 -0.3669
  526TMC3    O1 7872   2.914   3.411  15.315  0.2693  0.2106 -0.0620
  526TMC3    O2 7873   2.499   3.576  15.458 -0.1674  0.0753 -0.3365
  527MPD2     C 7874   1.407   1.984   1.415  0.7758  0.5341  0.3891
  527MPD2    C1 7875   1.338   1.975   1.292 -1.1139  0.6351  0.5221
  527MPD2    C2 7876   1.417   1.956   1.178  0.4245 -0.3559 -0.3704
  527MPD2    C3 7877   1.554   1.940   1.191 -0.0251  0.3402  0.0693
  527MPD2    C4 7878   1.617   1.940   1.316 -0.7884 -0.1404  0.4315
  527MPD2    C5 7879   1.542   1.967   1.422  0.1006  0.4640 -0.3823
  527MPD2     H 7880   1.368   1.935   1.084  0.4244  1.7217 -0.8248
  527MPD2    H1 7881   1.725   1.940   1.328 -0.9514  2.6789  1.7640
  527MPD2    H2 7882   1.351   2.000   1.506 -2.1709  0.7699 -1.4463
  527MPD2    H3 7883   1.584   1.956   1.521  0.8770 -0.6735 -0.8388
  527MPD2     N 7884   1.638   1.909   1.080  0.1481  1.0926  0.4554
  527MPD2    H5 7885   1.731   1.871   1.093  0.5985  2.0578  0.0596
  527MPD2    N1 7886   1.199   1.962   1.270  0.7659  0.3932 -0.5605
  527MPD2    H7 7887   1.166   1.954   1.175  0.1930 -0.2079 -0.3140
  528TMC3    C1 7888   0.983   1.893   1.299 -0.2411  0.0361  0.8126
  528TMC3    C2 7889   0.974   1.879   1.162  0.4563  0.6295 -0.7997
  528TMC3    C3 7890   0.882   1.786   1.115 -0.2474  0.0080 -0.1211
  528TMC3    C4 7891   0.903   1.824   1.390  0.1533 -0.4572 -0.0120
  528TMC3    C5 7892   0.820   1.733   1.337 -0.7181 -0.6622 -0.3475
  528TMC3    C6 7893   0.808   1.715   1.204 -0.5524  0.0308 -0.3323
  528TMC3     C 7894   1.101   1.953   1.364 -0.0900  0.1004  0.1105
  528TMC3     O 7895   1.109   1.949   1.487 -0.0457  0.2525  0.4694
  528TMC3     H 7896   1.014   1.951   1.092 -0.6821 -0.6093 -2.7112
  528TMC3    H1 7897   0.914   1.843   1.496 -1.9295 -2.5846  0.5817
  528TMC3    H2 7898   0.744   1.637   1.166 -0.0777 -1.1974  1.4050
  528TMC3    C7 7899   0.734   1.655   1.427 -1.3962 -0.6463  1.1328
  528TMC3    C8 7900   0.846   1.787   0.967 -0.6749  0.2881  0.3537
  528TMC3    O1 7901   0.693   1.703   1.529  0.3363  0.3138  0.3537
  528TMC3    O2 7902   0.920   1.850   0.886 -0.6631 -0.0107 -0.2149
  529MPD2     C 7903   2.376   0.231   1.199 -0.2655  0.8451 -0.5382
  529MPD2    C1 7904   2.459   0.221   1.091  0.0063  0.1551  0.0458
  529MPD2    C2 7905   2.447   0.300   0.982  0.2999 -0.0178 -0.0059
  529MPD2    C3 7906   2.355   0.399   0.982 -0.8053 -0.0297  0.0152
  529MPD2    C4 7907   2.270   0.411   1.093 -0.7153  0.4190 -0.1359
  529MPD2    C5 7908   2.279   0.322   1.198  0.1105  0.1100  0.4386
  529MPD2     H 7909   2.510   0.280   0.896  0.9128  1.8780  0.0158
  529MPD2    H1 7910   2.192   0.486   1.096 -0.7683  0.3271  1.1393
  529MPD2    H2 7911   2.389   0.168   1.286 -0.6466  1.9981  0.3528
  529MPD2    H3 7912   2.214   0.322   1.285 -1.2402  2.5266 -0.5609
  529MPD2     N 7913   2.326   0.483   0.873  0.2844 -0.5757  0.2702
  529MPD2    H5 7914   2.258   0.556   0.889  0.5395 -0.8611  2.5910
  529MPD2    N1 7915   2.567   0.135   1.101  0.0755 -0.3454 -0.4269
  529MPD2    H7 7916   2.634   0.130   1.025 -1.0429  1.2687 -1.5138
  530TMC3    C1 7917   2.712   4.696   1.165  0.7092  0.0946  0.6569
  530TMC3    C2 7918   2.818   0.030   1.218  0.3283  0.2503  0.6315
  530TMC3    C3 7919   2.940   4.701   1.221 -0.7442 -0.1681 -0.3535
  530TMC3    C4 7920   2.716   4.562   1.140  0.1442 -0.8612  0.1399
  530TMC3    C5 7921   2.842   4.507   1.134 -0.4126 -0.2624 -0.0484
  530TMC3    C6 7922   2.958   4.575   1.174 -0.1255 -0.4437 -0.0566
  530TMC3     C 7923   2.580   0.032   1.191 -0.3775  0.3726  0.2413
  530TMC3     O 7924   2.494   4.701   1.244  0.2540 -0.2200  0.1417
  530TMC3     H 7925   2.791   0.127   1.258  2.3809  1.1134 -0.0375
  530TMC3    H1 7926   2.628   4.514   1.100  0.1387 -1.9340  1.4493
  530TMC3    H2 7927   3.058   4.544   1.147 -0.3533 -0.3948 -0.9433
  530TMC3    C7 7928   2.856   4.386   1.057  0.3156  0.0201  0.2325
  530TMC3    C8 7929   3.028   0.009   1.327  0.2847  0.1444 -0.0902
  530TMC3    O1 7930   2.949   4.363   0.987 -0.8242  0.2504  0.2015
  530TMC3    O2 7931   2.968   0.089   1.400  0.2373  0.3856 -0.3436
  531MPD2     C 7932   1.864   2.044  13.552 -0.1226  0.3430  0.6170
  531MPD2    C1 7933   1.869   2.181  13.562 -0.4137  0.0909 -0.1476
  531MPD2    C2 7934   1.847   2.264  13.452  0.0823  0.6863  0.1917
  531MPD2    C3 7935   1.815   2.209  13.327 -0.2332 -0.2752 -0.7578
  531MPD2    C4 7936   1.803   2.072  13.323 -0.5602 -0.2622 -0.7145
  531MPD2    C5 7937   1.821   1.989  13.435 -0.0410 -0.5108 -0.1490
  531MPD2     H 7938   1.845   2.372  13.462  0.2552  0.9620 -2.7585
  531MPD2    H1 7939   1.766   2.027  13.232 -1.3998 -1.3032  0.1354
  531MPD2    H2 7940   1.878   1.980  13.638 -0.3520 -0.5933 -0.0407
  531MPD2    H3 7941   1.812   1.881  13.431 -2.1532 -0.3141 -0.7854
  531MPD2     N 7942   1.795   2.304  13.225  0.2387 -0.3187 -0.4350
  531MPD2    H5 7943   1.803   2.401  13.253  4.3457  0.2228 -3.5149
  531MPD2    N1 7944   1.897   2.244  13.685  0.1230  0.3069 -0.5290
  531MPD2    H7 7945   1.921   2.182  13.761 -1.6521  1.5568  1.0674
  532TMC3    C1 7946   1.954   2.426  13.836  0.4722  0.0547 -0.1880
  532TMC3    C2 7947   1.947   2.561  13.854 -0.1138 -0.1031  0.6264
  532TMC3    C3 7948   2.046   2.636  13.907  0.1022  0.2871  0.4568
  532TMC3    C4 7949   2.066   2.356  13.875  0.5551  0.1023  0.4237
  532TMC3    C5 7950   2.163   2.429  13.942  0.2751 -0.2511 -0.1450
  532TMC3    C6 7951   2.155   2.566  13.956  0.3400 -0.2943  0.3295
  532TMC3     C 7952   1.892   2.385  13.713  0.1900  0.5057 -0.7940
  532TMC3     O 7953   1.860   2.478  13.639 -0.4852 -0.9993  0.0341
  532TMC3     H 7954   1.853   2.612  13.836  0.1292  0.4647  0.9511
  532TMC3    H1 7955   2.069   2.248  13.870 -0.1783  0.1329 -0.8173
  532TMC3    H2 7956   2.243   2.616  13.995  0.9971 -0.3251 -1.1420
  532TMC3    C7 7957   2.292   2.369  13.976 -0.8226  0.7445  0.6316
  532TMC3    C8 7958   2.098   2.732  13.813  0.2377 -0.3294  0.9240
  532TMC3    O1 7959   2.364   2.423  14.063  0.0142 -0.4897  0.0921
  532TMC3    O2 7960   2.194   2.801  13.843  0.4428  0.3665 -0.2720
  533TMC3    C1 7961   2.896   4.212  14.536 -0.2731  0.7107  0.1066
  533TMC3    C2 7962   3.014   4.254  14.576  0.5901 -0.0286  0.4543
  533TMC3    C3 7963   3.028   4.383  14.605 -0.3809 -0.3872  0.5582
  533TMC3    C4 7964   2.789   4.301  14.515 -0.3839 -0.4341  0.4737
  533TMC3    C5 7965   2.795   4.426  14.572 -0.7118 -0.0996 -0.2343
  533TMC3    C6 7966   2.922   4.473  14.601 -0.2789  0.2531 -0.5743
  533TMC3     C 7967   2.855   4.075  14.568 -0.2261 -0.8014  0.7802
  533TMC3     O 7968   2.932   4.003  14.632  0.2613  0.0749  0.1317
  533TMC3     H 7969   3.098   4.186  14.584  2.1609  1.8243 -0.0558
  533TMC3    H1 7970   2.692   4.261  14.490 -0.2483 -1.7765  2.0477
  533TMC3    H2 7971   2.941   4.576  14.629  1.7886  0.1197 -1.4825
  533TMC3    C7 7972   2.722   4.412  14.698  0.5229  0.9993 -0.7410
  533TMC3    C8 7973   3.153   4.444  14.657  0.5892  0.6083 -0.6345
  533TMC3    O1 7974   2.665   4.308  14.720  0.2377  0.3604 -0.5639
  533TMC3    O2 7975   3.137   4.557  14.699  0.5116 -0.1836 -0.1028
  534MPD2     C 7976   0.692   0.176   1.475 -0.3438  0.8924 -0.8733
  534MPD2    C1 7977   0.692   0.315   1.482 -0.5126 -0.0558  0.6152
  534MPD2    C2 7978   0.563   0.373   1.479 -0.7791 -0.2562  0.0377
  534MPD2    C3 7979   0.449   0.298   1.460  0.4204 -0.0060 -0.3406
  534MPD2    C4 7980   0.459   0.158   1.451 -0.2034  0.1235 -0.1743
  534MPD2    C5 7981   0.581   0.100   1.458 -0.0136 -0.2582 -0.6669
  534MPD2     H 7982   0.560   0.481   1.482 -0.6450 -0.2336 -0.5683
  534MPD2    H1 7983   0.369   0.100   1.434  0.2271 -0.9752  1.2860
  534MPD2    H2 7984   0.777   0.110   1.457  0.3557  1.5573 -0.0443
  534MPD2    H3 7985   0.592   4.729   1.441  1.2982  0.0369 -1.6574
  534MPD2     N 7986   0.318   0.359   1.441  0.5235 -0.5895 -0.1333
  534MPD2    H5 7987   0.244   0.289   1.436  1.1381 -1.2837  0.3870
  534MPD2    N1 7988   0.804   0.394   1.507 -0.0606 -0.5425 -0.4729
  534MPD2    H7 7989   0.778   0.492   1.508  2.5566  0.1280  0.9091
  535TMC3    C1 7990   0.151   0.506   1.386 -0.0127  0.1421 -0.1702
  535TMC3    C2 7991   0.049   0.427   1.426 -0.9572 -0.2193  0.0955
  535TMC3    C3 7992   4.663   0.428   1.360  0.1678 -0.3402  1.2602
  535TMC3    C4 7993   0.133   0.597   1.278  0.2991  0.4260 -0.0857
  535TMC3    C5 7994   0.014   0.590   1.207  0.2091  0.0679  0.1199
  535TMC3    C6 7995   4.651   0.500   1.246  0.4612  0.2751 -0.4385
  535TMC3     C 7996   0.291   0.491   1.427 -0.5882  0.9169 -0.4172
  535TMC3     O 7997   0.364   0.588   1.403 -0.8400 -0.8112 -0.6030
  535TMC3     H 7998   0.056   0.354   1.506 -1.1822 -0.7192 -0.3395
  535TMC3    H1 7999   0.217   0.655   1.243  0.0799  0.1209 -1.1234
  535TMC3    H2 8000   4.551   0.510   1.204  1.7236 -1.1697 -3.7701
  535TMC3    C7 8001   4.713   0.693   1.124  0.0028 -0.6634 -0.7686
  535TMC3    C8 8002   4.536   0.379   1.417 -0.1566  0.5950  0.0941
  535TMC3    O1 8003   4.600   0.694   1.082 -0.5625 -0.5043 -0.0754
  535TMC3    O2 8004   4.444   0.364   1.340 -0.1913 -0.1716 -0.1552
  536MPD2     C 8005   3.998   3.733  16.465 -0.5395  0.0899  0.2863
  536MPD2    C1 8006   3.877   3.658  16.482 -0.1928 -0.7070 -0.7617
  536MPD2    C2 8007   3.776   3.682  16.392  0.1927  0.1606  0.3348
  536MPD2    C3 8008   3.794   3.773  16.292 -0.1409 -0.2263 -0.2859
  536MPD2    C4 8009   3.903   3.852  16.282  0.1880 -0.1106  0.2714
  536MPD2    C5 8010   4.005   3.830  16.368 -0.3991 -0.4101  0.6419
  536MPD2     H 8011   3.687   3.620  16.396 -0.1066  0.7059  2.0848
  536MPD2    H1 8012   3.914   3.925  16.202  1.8852 -0.6480  0.0287
  536MPD2    H2 8013   4.090   3.710  16.517  0.7023  2.6743 -0.7951
  536MPD2    H3 8014   4.094   3.891  16.359  0.2593 -1.2369  1.6246
  536MPD2     N 8015   3.705   3.775  16.183 -0.2847  0.2466 -0.1308
  536MPD2    H5 8016   3.745   3.814  16.099 -0.8602  1.3024  0.0949
  536MPD2    N1 8017   3.872   3.569  16.592  0.4842 -0.5235 -0.3976
  536MPD2    H7 8018   3.948   3.571  16.660 -1.0427  1.6392  1.2619
  537TMC3    C1 8019   3.759   3.443  16.747  0.6762 -0.0478  0.3500
  537TMC3    C2 8020   3.793   3.537  16.841 -0.1278 -0.3446  0.1524
  537TMC3    C3 8021   3.748   3.509  16.967  0.4005  0.1226  0.5765
  537TMC3    C4 8022   3.684   3.331  16.772  0.2661 -0.0457 -0.1589
  537TMC3    C5 8023   3.640   3.311  16.900 -0.2573  0.8673 -0.7611
  537TMC3    C6 8024   3.668   3.401  16.998 -0.6540  0.0753  0.0256
  537TMC3     C 8025   3.759   3.498  16.619  0.4029  0.0603 -0.6474
  537TMC3     O 8026   3.651   3.491  16.557  0.1350 -0.0179  0.1622
  537TMC3     H 8027   3.837   3.631  16.809  0.6701 -0.7168  0.1503
  537TMC3    H1 8028   3.655   3.261  16.694  0.7435 -0.0187 -0.3581
  537TMC3    H2 8029   3.640   3.383  17.101 -3.1513 -1.7162 -0.9891
  537TMC3    C7 8030   3.535   3.220  16.917  0.4782  0.4121 -0.3161
  537TMC3    C8 8031   3.761   3.615  17.060 -0.1265  0.5316 -0.2828
  537TMC3    O1 8032   3.471   3.201  16.814  0.0012 -0.3220  0.1249
  537TMC3    O2 8033   3.753   3.583  17.178 -0.4861  0.6322  0.5067
  538TMC3    C1 8034   0.381   1.885  10.710 -0.1610  0.0403 -0.4849
  538TMC3    C2 8035   0.420   1.843  10.585  0.2620 -0.0643 -0.0962
  538TMC3    C3 8036   0.352   1.898  10.478  0.4931 -0.8037  0.0672
  538TMC3    C4 8037   0.288   1.978  10.728 -0.0439  0.6560 -0.2313
  538TMC3    C5 8038   0.226   2.034  10.615  0.1335 -0.4599  0.5516
  538TMC3    C6 8039   0.252   1.988  10.488 -0.4281 -0.3783  0.0320
  538TMC3     C 8040   0.464   1.872  10.827 -0.1328 -0.4444  0.5997
  538TMC3     O 8041   0.443   1.950  10.920 -0.9011  0.3925  0.3578
  538TMC3     H 8042   0.508   1.782  10.567  0.4137  0.2942 -0.5787
  538TMC3    H1 8043   0.242   2.000  10.824 -0.1330  0.5306 -0.2454
  538TMC3    H2 8044   0.209   2.038  10.402  0.7334  3.0833  1.4227
  538TMC3    C7 8045   0.109   2.109  10.645  0.2402 -0.6871  0.1451
  538TMC3    C8 8046   0.411   1.878  10.352  0.2000  0.2482  0.1497
  538TMC3    O1 8047   0.005   2.050  10.617 -0.0542 -0.6845 -0.3390
  538TMC3    O2 8048   0.489   1.783  10.336  0.1807 -0.3395  0.8075
  539MPD2     C 8049   4.231   1.187  11.886 -0.1521  0.1622  0.4952
  539MPD2    C1 8050   4.358   1.206  11.829 -0.0250  0.3907  0.4326
  539MPD2    C2 8051   4.430   1.325  11.837  0.3964  0.1710 -0.0736
  539MPD2    C3 8052   4.360   1.440  11.885 -0.8795  0.6408  0.3060
  539MPD2    C4 8053   4.236   1.423  11.940  0.0104 -0.2370  0.1393
  539MPD2    C5 8054   4.174   1.303  11.942  0.0705 -0.7041  0.0354
  539MPD2     H 8055   4.532   1.337  11.802  0.6084  2.7917  1.4562
  539MPD2    H1 8056   4.195   1.514  11.981 -0.8571 -0.1225 -0.9785
  539MPD2    H2 8057   4.174   1.095  11.891  4.8691 -3.0880 -2.5253
  539MPD2    H3 8058   4.075   1.296  11.985 -1.0862  0.4070 -2.4278
  539MPD2     N 8059   4.407   1.576  11.880  0.3786  0.1161 -0.3792
  539MPD2    H5 8060   4.344   1.653  11.899 -0.9757 -1.3234  0.9003
  539MPD2    N1 8061   4.417   1.111  11.742 -0.4924  0.1675  0.1110
  539MPD2    H7 8062   4.512   1.124  11.710 -0.8928 -0.4457 -1.3477
  540TMC3    C1 8063   4.504   1.761  11.776  0.0843 -1.0113 -0.8639
  540TMC3    C2 8064   4.551   1.795  11.648 -0.7567 -0.3489  0.4560
  540TMC3    C3 8065   4.481   1.895  11.578 -0.1442  0.2550 -0.2128
  540TMC3    C4 8066   4.396   1.826  11.831 -0.0451  0.0619 -0.3764
  540TMC3    C5 8067   4.332   1.925  11.759 -0.3217 -0.1898  0.1403
  540TMC3    C6 8068   4.366   1.956  11.630  0.6655 -0.7625 -0.1083
  540TMC3     C 8069   4.519   1.620  11.813  0.3347 -0.7139 -0.0472
  540TMC3     O 8070   4.601   1.555  11.748 -0.0017 -0.1524  0.0570
  540TMC3     H 8071   4.634   1.747  11.597  1.7534  2.0206  2.3068
  540TMC3    H1 8072   4.360   1.810  11.932  0.4501 -1.8239 -0.5046
  540TMC3    H2 8073   4.321   2.036  11.572  0.5401 -0.3555  0.5435
  540TMC3    C7 8074   4.233   1.996  11.840 -0.0190 -0.1302  0.0595
  540TMC3    C8 8075   4.535   1.931  11.445  0.5910 -0.7601  0.9041
  540TMC3    O1 8076   4.210   1.960  11.955 -0.4731 -0.4126  0.0084
  540TMC3    O2 8077   4.647   1.979  11.447  0.1156 -0.2045  0.2993
  541MPD2     C 8078   2.958   2.851  13.412 -0.7052 -0.4048  0.1996
  541MPD2    C1 8079   2.999   2.786  13.295 -0.4891  0.4377  0.6906
  541MPD2    C2 8080   3.065   2.858  13.197  0.5269  0.9184  0.0321
  541MPD2    C3 8081   3.091   2.994  13.203  0.1452  0.5202  0.5352
  541MPD2    C4 8082   3.055   3.055  13.319 -0.1649  0.4578 -0.1749
  541MPD2    C5 8083   3.001   2.980  13.423 -0.3232 -0.5971  0.4773
  541MPD2     H 8084   3.088   2.810  13.102 -0.2123  0.1829  0.2246
  541MPD2    H1 8085   3.085   3.159  13.331  0.5975  0.1495  0.6255
  541MPD2    H2 8086   2.910   2.805  13.497 -0.1908 -1.1993  0.0617
  541MPD2    H3 8087   2.985   3.031  13.517 -0.9849 -3.7139  2.0692
  541MPD2     N 8088   3.158   3.072  13.103 -0.7713  0.1816  0.0041
  541MPD2    H5 8089   3.156   3.172  13.121 -0.2684 -0.1177  1.7319
  541MPD2    N1 8090   2.989   2.645  13.275  0.0601 -0.8660 -0.2049
  541MPD2    H7 8091   3.039   2.615  13.191  1.4295  2.4158 -0.5675
  542TMC3    C1 8092   3.247   3.124  12.889 -0.2391 -0.1852  0.1802
  542TMC3    C2 8093   3.319   3.073  12.781 -0.0388  0.9914 -0.5522
  542TMC3    C3 8094   3.279   3.121  12.658  0.5192 -0.1293  0.0518
  542TMC3    C4 8095   3.164   3.230  12.880 -0.1288 -0.4104  0.7416
  542TMC3    C5 8096   3.125   3.275  12.757 -0.4931 -0.0224  0.2527
  542TMC3    C6 8097   3.184   3.225  12.640 -0.5844  0.4152 -0.5830
  542TMC3     C 8098   3.229   3.030  12.991 -0.0457  0.0587  0.5813
  542TMC3     O 8099   3.254   2.915  12.956 -0.0612 -0.2443 -0.1654
  542TMC3     H 8100   3.372   2.978  12.780  1.3663  1.7661  0.6789
  542TMC3    H1 8101   3.115   3.268  12.969 -0.9588  0.1337  0.0559
  542TMC3    H2 8102   3.171   3.267  12.541 -2.6598 -0.4870 -0.6835
  542TMC3    C7 8103   3.021   3.375  12.747 -0.5980 -0.3111  0.5071
  542TMC3    C8 8104   3.366   3.103  12.545  0.1242  0.2088  0.2301
  542TMC3    O1 8105   3.003   3.448  12.844 -0.3902 -0.7826  0.6577
  542TMC3    O2 8106   3.322   3.124  12.432 -0.2403  0.0800 -0.2740
  543TMC3    C1 8107   2.504   4.663  17.522  0.7439  0.6057 -0.9782
  543TMC3    C2 8108   2.529   4.534  17.568  0.5797 -0.3234  0.0099
  543TMC3    C3 8109   2.472   4.492  17.683 -0.4282  0.4352 -0.8405
  543TMC3    C4 8110   2.424   0.015  17.590  0.3978  0.1909  0.5938
  543TMC3    C5 8111   2.370   4.705  17.715 -0.1378  1.1710 -0.2408
  543TMC3    C6 8112   2.394   4.578   0.017  0.9763 -0.4272 -0.4714
  543TMC3     C 8113   2.575   4.702  17.399 -0.2442 -0.5420  0.3327
  543TMC3     O 8114   2.692   4.693  17.386 -0.6152 -0.0127  0.5703
  543TMC3     H 8115   2.595   4.473  17.508 -0.0310  0.1020 -1.0901
  543TMC3    H1 8116   2.432   0.121  17.568  1.1920 -0.0656 -0.3828
  543TMC3    H2 8117   2.353   4.552   0.114  1.8917  2.8242  0.7835
  543TMC3    C7 8118   2.292   0.057   0.060 -0.3088 -0.0954 -0.0079
  543TMC3    C8 8119   2.490   4.358  17.727 -0.5517  0.2259 -0.6627
  543TMC3    O1 8120   2.259   0.006   0.168 -0.6907  0.1673  0.5545
  543TMC3    O2 8121   2.579   4.299  17.667  0.0025 -0.7401  0.0977
  544MPD2     C 8122   2.349   3.936   0.215 -0.7840 -0.1283 -0.1137
  544MPD2    C1 8123   2.425   3.949   0.101  0.0692 -0.1001 -0.1306
  544MPD2    C2 8124   2.440   4.081   0.059  0.0905 -0.4219  1.0443
  544MPD2    C3 8125   2.387   4.190   0.125  1.2857  0.6529  0.0516
  544MPD2    C4 8126   2.306   4.168   0.233  0.0994  0.5307 -0.1237
  544MPD2    C5 8127   2.285   4.044   0.283  0.3744  1.0655 -0.4802
  544MPD2     H 8128   2.494   4.090  17.705 -0.3362 -0.0708  0.8280
  544MPD2    H1 8129   2.257   4.250   0.285  0.5212 -0.3660  1.6964
  544MPD2    H2 8130   2.336   3.839   0.261  1.2473 -0.1043  0.4785
  544MPD2    H3 8131   2.216   4.041   0.366  0.3354  1.8457 -0.4843
  544MPD2     N 8132   2.407   4.323   0.085 -0.2574  0.0180  0.4694
  544MPD2    H5 8133   2.355   4.395   0.134 -0.5632  0.5756 -0.6832
  544MPD2    N1 8134   2.503   3.837   0.054  0.3320  0.0445  0.1790
  544MPD2    H7 8135   2.490   3.747   0.099  0.0452 -0.5120 -1.0217
  545TMC3    C1 8136   2.642   3.697  17.664  0.5392  0.1671 -0.5129
  545TMC3    C2 8137   2.705   3.666  17.546  0.1031  0.5015 -0.7904
  545TMC3    C3 8138   2.771   3.552  17.526  0.7149  0.3663 -0.2109
  545TMC3    C4 8139   2.658   3.618   0.035  0.5533  0.7569 -0.4314
  545TMC3    C5 8140   2.713   3.497   0.003  0.0959  0.3566  0.1479
  545TMC3    C6 8141   2.778   3.460  17.628  0.4256 -0.1964  0.1502
  545TMC3     C 8142   2.584   3.831  17.676  0.2583 -0.5129 -0.3035
  545TMC3     O 8143   2.593   3.908  17.579  0.1032 -0.0270  0.0191
  545TMC3     H 8144   2.693   3.726  17.456  0.3709  0.7607 -0.6510
  545TMC3    H1 8145   2.618   3.639   0.134 -0.1980 -0.9516 -0.3768
  545TMC3    H2 8146   2.834   3.368  17.620  0.1132 -0.4471  0.8328
  545TMC3    C7 8147   2.745   3.407   0.119  0.1332  0.0425  0.5371
  545TMC3    C8 8148   2.802   3.515  17.393 -0.7014  0.0536  0.0499
  545TMC3    O1 8149   2.780   3.464   0.220  0.2495 -0.2352  0.0271
  545TMC3    O2 8150   2.744   3.567  17.298 -0.4547 -0.6239  0.2141
  546MPD2     C 8151   4.019   4.007   0.143  0.5555  0.0172 -0.4424
  546MPD2    C1 8152   3.973   4.061   0.028  0.4164 -0.3675 -0.3065
  546MPD2    C2 8153   4.001   4.194   0.001 -0.9373  0.4490  0.3146
  546MPD2    C3 8154   4.051   4.279   0.102  0.1265 -0.0441 -0.7521
  546MPD2    C4 8155   4.099   4.225   0.220 -0.7080  0.2149  0.5742
  546MPD2    C5 8156   4.077   4.087   0.239 -0.0534 -0.1134  0.2679
  546MPD2     H 8157   3.981   4.237  17.643  1.8379  0.7024 -0.1522
  546MPD2    H1 8158   4.130   4.284   0.306  1.9938  0.1385 -0.3434
  546MPD2    H2 8159   4.022   3.899   0.152 -1.8236  0.0317  0.8396
  546MPD2    H3 8160   4.111   4.048   0.334  0.8879 -1.8202 -0.7834
  546MPD2     N 8161   4.064   4.421   0.094  0.1719 -0.1608  0.1329
  546MPD2    H5 8162   4.089   4.473   0.178  1.3126 -1.7617  0.7846
  546MPD2    N1 8163   3.894   3.972  17.680  0.0903  0.3142 -0.4099
  546MPD2    H7 8164   3.873   3.882  17.723 -1.3896  1.0315  0.3794
  547TMC3    C1 8165   3.747   3.910  17.504  0.6583 -0.4725 -0.0486
  547TMC3    C2 8166   3.677   3.949  17.388  0.1645 -0.6591  0.2384
  547TMC3    C3 8167   3.561   3.886  17.371  0.1623  0.3517  0.9004
  547TMC3    C4 8168   3.695   3.826  17.594 -0.7171  0.7109  0.1271
  547TMC3    C5 8169   3.581   3.761  17.569  0.1158 -0.5589 -0.0838
  547TMC3    C6 8170   3.515   3.790  17.454 -0.2665 -0.3961  0.0652
  547TMC3     C 8171   3.836   4.009  17.555 -0.8723 -0.4301 -0.1221
  547TMC3     O 8172   3.828   4.120  17.509 -0.0602 -0.0264  0.6842
  547TMC3     H 8173   3.707   4.027  17.320 -2.7600 -0.4763 -0.8351
  547TMC3    H1 8174   3.746   3.800  17.686 -0.0984  0.9997 -0.1304
  547TMC3    H2 8175   3.417   3.748  17.436 -0.1779 -0.0863 -1.1060
  547TMC3    C7 8176   3.545   3.639  17.634  1.2515  0.4522 -0.4265
  547TMC3    C8 8177   3.479   3.934  17.261  0.1095  0.0422  0.0155
  547TMC3    O1 8178   3.586   3.614   0.007  0.6601 -0.1575  0.0060
  547TMC3    O2 8179   3.496   4.053  17.229 -0.2093  0.6268  0.0080
  548MPD2     C 8180   3.166   0.029  12.224 -0.1485  0.5287  0.4780
  548MPD2    C1 8181   3.172   4.653  12.309  0.3312 -0.3341 -0.3669
  548MPD2    C2 8182   3.295   4.577  12.305 -0.0606  0.5178  0.5331
  548MPD2    C3 8183   3.404   4.629  12.244 -0.5264  0.2184  0.3652
  548MPD2    C4 8184   3.394   0.007  12.173  0.8378  1.0219  0.1472
  548MPD2    C5 8185   3.277   0.071  12.160 -0.4947  0.7468  0.1401
  548MPD2     H 8186   3.299   4.491  12.371 -2.3961 -0.4690 -0.6015
  548MPD2    H1 8187   3.484   0.040  12.122  1.0090 -0.4235 -0.4673
  548MPD2    H2 8188   3.073   0.083  12.240 -0.6865 -0.5360  0.9337
  548MPD2    H3 8189   3.275   0.165  12.105  0.6998 -0.4216 -1.9122
  548MPD2     N 8190   3.524   4.546  12.249 -0.2484  0.3169  0.8695
  548MPD2    H5 8191   3.505   4.458  12.296 -0.5759  0.8095  1.6476
  548MPD2    N1 8192   3.056   4.620  12.380 -0.2320 -0.4398 -0.0591
  548MPD2    H7 8193   2.969   4.670  12.364  1.2137  2.7116  2.0545
  549TMC3    C1 8194   2.922   4.517  12.541  0.4054  0.2230  0.0036
  549TMC3    C2 8195   2.850   4.626  12.552 -0.3888 -0.0994 -0.0107
  549TMC3    C3 8196   2.731   4.613  12.609  0.0170  0.0417 -0.2347
  549TMC3    C4 8197   2.881   4.396  12.597  0.7699  0.7012 -0.5815
  549TMC3    C5 8198   2.765   4.397  12.669 -1.1685  0.2890 -0.1306
  549TMC3    C6 8199   2.677   4.502  12.670 -0.1339 -0.5477  0.1399
  549TMC3     C 8200   3.045   4.509  12.459  0.1420  0.3113 -0.2324
  549TMC3     O 8201   3.104   4.400  12.457 -0.3986  0.2238  0.0209
  549TMC3     H 8202   2.891   4.725  12.532  1.8489 -1.0019  0.1129
  549TMC3    H1 8203   2.945   4.309  12.591 -0.9612 -0.7692  1.9476
  549TMC3    H2 8204   2.595   4.496  12.740  0.6162 -1.4276  0.9488
  549TMC3    C7 8205   2.718   4.282  12.745 -0.2227 -0.5029  0.0236
  549TMC3    C8 8206   2.640   4.729  12.623  0.2216  0.9175 -0.1858
  549TMC3    O1 8207   2.596   4.272  12.749 -0.2536 -0.8788 -0.2928
  549TMC3    O2 8208   2.549   4.711  12.704 -0.2487 -0.0981 -0.3039
  550TMC3    C1 8209   3.012   2.654  12.359  0.0168  0.1251 -0.9807
  550TMC3    C2 8210   3.014   2.729  12.476  0.1372  0.1309 -0.1660
  550TMC3    C3 8211   3.061   2.856  12.465  0.1641  0.6747 -0.4108
  550TMC3    C4 8212   3.053   2.705  12.237  0.1869  0.4239 -0.1623
  550TMC3    C5 8213   3.079   2.842  12.228  0.0909 -0.2611  0.0604
  550TMC3    C6 8214   3.091   2.915  12.343  0.5096  0.4773 -0.3762
  550TMC3     C 8215   2.909   2.557  12.354  0.6623  0.8486 -0.4118
  550TMC3     O 8216   2.902   2.480  12.445  0.1486 -0.6001  0.4658
  550TMC3     H 8217   2.975   2.682  12.566  0.6933 -2.7249 -1.3955
  550TMC3    H1 8218   3.031   2.653  12.144  0.6541 -1.4148  0.7539
  550TMC3    H2 8219   3.127   3.017  12.344  0.9683  0.2801  4.8449
  550TMC3    C7 8220   2.977   2.901  12.139  0.1102 -0.4146  0.0511
  550TMC3    C8 8221   2.993   2.957  12.549  0.2994 -0.3005  0.6623
  550TMC3    O1 8222   2.892   2.834  12.079 -0.1063  0.3564  0.2617
  550TMC3    O2 8223   2.974   3.068  12.504  0.4640  0.4219  0.1569
  551TMC3    C1 8224   4.695   0.458  13.252  0.3787 -0.0884 -0.0162
  551TMC3    C2 8225   0.070   0.485  13.181  0.2294 -0.4787 -0.0084
  551TMC3    C3 8226   0.162   0.553  13.250 -0.6827 -0.1585  0.5731
  551TMC3    C4 8227   4.655   0.515  13.371  0.1014 -0.4288 -0.8460
  551TMC3    C5 8228   0.016   0.600  13.428  0.2354  0.7566  0.1889
  551TMC3    C6 8229   0.139   0.623  13.370  0.2036  0.2406 -0.0547
  551TMC3     C 8230   4.595   0.369  13.195  0.2135  0.2169 -0.0232
  551TMC3     O 8231   4.589   0.368  13.069  0.1575  0.0274 -0.1788
  551TMC3     H 8232   0.093   0.426  13.094 -0.9053 -1.8058  0.5941
  551TMC3    H1 8233   4.562   0.490  13.420 -1.0684 -1.6120 -3.6624
  551TMC3    H2 8234   0.215   0.675  13.428 -0.1550  2.2260 -1.3840
  551TMC3    C7 8235   4.730   0.635  13.562  0.4022  0.1435  0.4014
  551TMC3    C8 8236   0.279   0.608  13.184 -0.0924  0.4560  0.2761
  551TMC3    O1 8237   4.651   0.568  13.625 -0.1362  0.0577 -0.2658
  551TMC3    O2 8238   0.320   0.708  13.238 -0.8545  0.3885  0.2769
  552MPD2     C 8239   1.909   2.317  14.189 -0.3505  0.4792  0.4678
  552MPD2    C1 8240   2.028   2.253  14.217  0.1401 -0.5574  0.4353
  552MPD2    C2 8241   2.118   2.314  14.296  0.1834  0.1236  0.5572
  552MPD2    C3 8242   2.094   2.433  14.361  0.3182 -0.0757 -0.0912
  552MPD2    C4 8243   1.980   2.507  14.330  0.4115 -0.2635  0.0668
  552MPD2    C5 8244   1.893   2.445  14.238 -1.1115 -0.1330  0.7822
  552MPD2     H 8245   2.216   2.270  14.310  0.2325 -0.5801 -1.8364
  552MPD2    H1 8246   1.955   2.604  14.373  1.5541 -1.3251  3.1203
  552MPD2    H2 8247   1.832   2.274  14.127 -1.3240 -0.0055  2.0231
  552MPD2    H3 8248   1.801   2.493  14.207 -1.0752 -1.5307 -1.5431
  552MPD2     N 8249   2.182   2.486  14.455 -0.1987  0.0335 -0.1107
  552MPD2    H5 8250   2.163   2.574  14.503 -0.5581 -0.8734  1.4346
  552MPD2    N1 8251   2.058   2.120  14.177 -0.0294  0.3746  0.6726
  552MPD2    H7 8252   2.143   2.077  14.212 -0.6021 -0.6524  0.7978
  553TMC3    C1 8253   2.051   1.928  14.058 -0.2815 -0.6042  0.2980
  553TMC3    C2 8254   2.047   1.885  13.928  0.1563  0.1085 -0.0017
  553TMC3    C3 8255   2.160   1.814  13.889 -0.0773 -0.0896  0.6298
  553TMC3    C4 8256   2.152   1.891  14.148 -0.0399 -0.4444  0.8789
  553TMC3    C5 8257   2.262   1.826  14.099  0.0110 -0.4248 -0.0751
  553TMC3    C6 8258   2.266   1.781  13.972  0.1596  0.5513  0.3211
  553TMC3     C 8259   1.990   2.052  14.078 -0.5233  0.1868  0.4250
  553TMC3     O 8260   1.917   2.106  13.992 -0.0398  0.0862 -0.3359
  553TMC3     H 8261   1.973   1.916  13.856  1.0565  1.1102 -0.4952
  553TMC3    H1 8262   2.148   1.919  14.252  1.2594 -1.9360  1.3346
  553TMC3    H2 8263   2.348   1.725  13.929  0.4303  2.7877 -2.0580
  553TMC3    C7 8264   2.376   1.863  14.169 -0.2419 -0.7886 -0.0032
  553TMC3    C8 8265   2.169   1.767  13.753  0.2797 -0.2516 -0.4088
  553TMC3    O1 8266   2.358   1.941  14.265 -0.2257 -0.1734  0.0086
  553TMC3    O2 8267   2.280   1.751  13.700 -0.4016 -0.8865 -0.9768
  554TMC3    C1 8268   3.309   1.578  11.831  0.5998  0.8760 -0.7062
  554TMC3    C2 8269   3.260   1.556  11.706 -0.0942 -0.2192  0.5732
  554TMC3    C3 8270   3.302   1.631  11.600 -0.1680  0.2669 -0.3931
  554TMC3    C4 8271   3.401   1.673  11.851 -0.1143 -0.7716  0.2079
  554TMC3    C5 8272   3.442   1.745  11.739  0.1795 -0.3470  0.2229
  554TMC3    C6 8273   3.397   1.720  11.616 -0.0075  0.6268  0.0552
  554TMC3     C 8274   3.277   1.474  11.926 -0.0987 -0.0610  0.7327
  554TMC3     O 8275   3.180   1.405  11.896 -0.3524 -0.5062  0.6878
  554TMC3     H 8276   3.177   1.492  11.677  0.5923 -1.1203  0.5998
  554TMC3    H1 8277   3.437   1.693  11.951  0.6826  2.3051 -0.6804
  554TMC3    H2 8278   3.412   1.783  11.529  1.0523 -0.2254 -0.3769
  554TMC3    C7 8279   3.549   1.847  11.754  0.8170  0.5224 -0.2582
  554TMC3    C8 8280   3.285   1.577  11.467  0.0454 -0.8174  0.2039
  554TMC3    O1 8281   3.563   1.899  11.864  0.0506  0.0767 -0.2152
  554TMC3    O2 8282   3.290   1.657  11.376  0.3235 -0.1689  0.1874
  555TMC3    C1 8283   2.337   1.419  15.301  0.2570  0.0536  0.2517
  555TMC3    C2 8284   2.364   1.444  15.432  0.0107 -0.1786 -0.4086
  555TMC3    C3 8285   2.463   1.368  15.492 -0.2637  0.3195  0.4830
  555TMC3    C4 8286   2.386   1.317  15.229  0.5509 -0.0005 -0.1924
  555TMC3    C5 8287   2.485   1.249  15.292  0.2632  0.5551  0.7736
  555TMC3    C6 8288   2.520   1.269  15.424 -0.1847 -0.1612  0.4709
  555TMC3     C 8289   2.246   1.512  15.238  0.6708  0.8239  0.1313
  555TMC3     O 8290   2.201   1.597  15.311  0.0785  0.1483  0.6591
  555TMC3     H 8291   2.316   1.527  15.483  2.3072  1.9296 -1.6861
  555TMC3    H1 8292   2.342   1.281  15.136 -1.1091  0.3179  0.4698
  555TMC3    H2 8293   2.591   1.208  15.479  0.4827  0.3994  0.2190
  555TMC3    C7 8294   2.514   1.115  15.238 -0.4260  0.0269 -0.2243
  555TMC3    C8 8295   2.463   1.375  15.633  0.0597  0.0362 -0.1096
  555TMC3    O1 8296   2.435   1.057  15.168  0.6118 -0.1853 -0.2129
  555TMC3    O2 8297   2.360   1.424  15.678  0.0220 -0.3823  0.4983
  556MPD2     C 8298   0.767   3.171  10.466 -0.7306  0.3139 -0.3390
  556MPD2    C1 8299   0.763   3.038  10.492  0.8052  0.3701  0.2109
  556MPD2    C2 8300   0.747   2.946  10.395  0.3412 -0.5105 -0.5616
  556MPD2    C3 8301   0.725   2.992  10.267 -0.1780  0.3360 -0.0657
  556MPD2    C4 8302   0.718   3.127  10.241  0.0478  0.2021 -0.0183
  556MPD2    C5 8303   0.750   3.219  10.337  0.1414 -0.3993 -0.5111
  556MPD2     H 8304   0.760   2.841  10.417  0.4069 -0.6894 -1.4343
  556MPD2    H1 8305   0.694   3.161  10.140  0.4907 -0.5489 -0.3737
  556MPD2    H2 8306   0.792   3.243  10.542  2.6810 -0.3629 -0.8390
  556MPD2    H3 8307   0.761   3.324  10.317 -1.6120  0.2510  1.8763
  556MPD2     N 8308   0.700   2.885  10.177 -0.0703  0.5298  0.0822
  556MPD2    H5 8309   0.713   2.794  10.219 -1.5911 -0.7323 -2.1654
  556MPD2    N1 8310   0.807   2.990  10.616  0.3816  0.0890 -0.2886
  556MPD2    H7 8311   0.838   2.893  10.619 -1.2517 -0.4133  0.1206
  557TMC3    C1 8312   0.652   2.774   9.982  0.0961 -0.3454  0.0522
  557TMC3    C2 8313   0.699   2.772   9.849  0.1927 -0.1244  0.7660
  557TMC3    C3 8314   0.682   2.652   9.789 -0.2394 -0.5772  0.3822
  557TMC3    C4 8315   0.610   2.658  10.042 -0.7774  0.6433  0.3965
  557TMC3    C5 8316   0.597   2.545   9.963 -0.4209  0.1517  0.1967
  557TMC3    C6 8317   0.631   2.538   9.834 -0.4245  0.4218  0.0619
  557TMC3     C 8318   0.666   2.902  10.051  0.7526  0.1222 -0.3779
  557TMC3     O 8319   0.644   3.004   9.985  0.3606  0.4146  0.5197
  557TMC3     H 8320   0.753   2.851   9.800 -0.9841  0.1719 -0.0743
  557TMC3    H1 8321   0.592   2.660  10.149 -1.7683  0.9359  0.2205
  557TMC3    H2 8322   0.622   2.447   9.775  0.1496  0.7359 -0.5108
  557TMC3    C7 8323   0.549   2.420  10.024  1.2389 -0.0152  0.1109
  557TMC3    C8 8324   0.722   2.658   9.651 -0.1477 -0.3950 -0.0805
  557TMC3    O1 8325   0.507   2.431  10.139 -0.1810  0.3907 -0.3567
  557TMC3    O2 8326   0.710   2.767   9.594 -0.2703 -0.1307  0.3470
  558TMC3    C1 8327   3.441   0.856  10.218  0.2480 -0.0123 -0.0530
  558TMC3    C2 8328   3.332   0.787  10.263 -0.2022 -0.1156  0.2917
  558TMC3    C3 8329   3.210   0.851  10.252 -0.0936 -1.0282 -0.0744
  558TMC3    C4 8330   3.426   0.992  10.181 -0.0534 -0.7736  0.3890
  558TMC3    C5 8331   3.298   1.035  10.150 -0.0867 -0.8214  0.3430
  558TMC3    C6 8332   3.185   0.966  10.187  0.4612 -0.5847 -0.1421
  558TMC3     C 8333   3.575   0.804  10.199 -0.4100 -0.6932 -0.4966
  558TMC3     O 8334   3.666   0.885  10.188  0.0175 -0.0551 -0.4120
  558TMC3     H 8335   3.350   0.694  10.316 -0.4088 -0.0611  0.4612
  558TMC3    H1 8336   3.510   1.049  10.142  0.0287 -0.3390  1.2091
  558TMC3    H2 8337   3.089   1.014  10.176  1.0539  0.3230 -1.3716
  558TMC3    C7 8338   3.295   1.167  10.089 -0.5074  0.6190 -0.6134
  558TMC3    C8 8339   3.082   0.784  10.289 -0.0380  0.3731 -0.5997
  558TMC3    O1 8340   3.374   1.254  10.123 -0.1031  0.1249  0.0226
  558TMC3    O2 8341   2.991   0.806  10.213 -0.0415  0.1251 -0.8630
  559MPD2     C 8342   3.392   1.147  10.491  0.4229 -0.0298 -0.5868
  559MPD2    C1 8343   3.316   1.119  10.601  0.5486 -0.5286 -0.2765
  559MPD2    C2 8344   3.386   1.088  10.720 -1.0467 -0.3598 -0.4345
  559MPD2    C3 8345   3.521   1.082  10.724 -0.2206  0.4405 -0.9088
  559MPD2    C4 8346   3.587   1.106  10.609 -0.2880  0.0800  0.4159
  559MPD2    C5 8347   3.529   1.142  10.495  0.0994 -0.2480 -0.0135
  559MPD2     H 8348   3.324   1.067  10.806  1.5803 -0.4418  1.4307
  559MPD2    H1 8349   3.694   1.098  10.600 -0.2061  0.6353  0.9128
  559MPD2    H2 8350   3.347   1.169  10.395 -1.0810  1.8832  0.5440
  559MPD2    H3 8351   3.588   1.165  10.407 -0.4278  0.0303 -0.2965
  559MPD2     N 8352   3.582   1.039  10.841  0.4241  0.4985 -0.1085
  559MPD2    H5 8353   3.521   1.007  10.916 -0.3348  1.4414 -0.3251
  559MPD2    N1 8354   3.177   1.130  10.592  0.3667 -1.1462  0.3070
  559MPD2    H7 8355   3.130   1.093  10.675 -1.9528 -1.3640 -1.1088
  560TMC3    C1 8356   3.766   1.023  11.004 -0.1575  0.0772  0.1858
  560TMC3    C2 8357   3.723   0.899  11.036 -0.2680 -0.5565  0.4321
  560TMC3    C3 8358   3.738   0.854  11.163  0.3631 -0.6005  0.3280
  560TMC3    C4 8359   3.820   1.114  11.095 -0.2719  0.4386  0.7480
  560TMC3    C5 8360   3.824   1.064  11.230 -0.4110 -0.3329 -0.0760
  560TMC3    C6 8361   3.781   0.940  11.262 -0.4807  0.0231  0.0223
  560TMC3     C 8362   3.716   1.068  10.870 -0.3269  0.1615  0.6927
  560TMC3     O 8363   3.786   1.153  10.817 -0.0017  0.9197 -0.4592
  560TMC3     H 8364   3.689   0.828  10.961  1.9573 -0.6929 -0.4566
  560TMC3    H1 8365   3.858   1.212  11.070  2.0559 -1.0235 -1.4918
  560TMC3    H2 8366   3.796   0.898  11.361  1.3729  2.5456  0.8397
  560TMC3    C7 8367   3.911   1.128  11.331  0.4507 -0.0465 -0.0491
  560TMC3    C8 8368   3.646   0.750  11.201  0.5317  0.2639 -0.1248
  560TMC3    O1 8369   3.921   1.076  11.441 -0.0268  0.4566  0.3382
  560TMC3    O2 8370   3.567   0.721  11.118  0.2235  0.1381  0.4750
  561TMC3    C1 8371   1.594   0.338  11.152 -0.4392 -0.4672  0.0480
  561TMC3    C2 8372   1.533   0.245  11.228 -0.0188 -0.0191 -0.1535
  561TMC3    C3 8373   1.443   0.289  11.328 -0.0159 -0.2222 -0.4836
  561TMC3    C4 8374   1.580   0.479  11.164 -0.0603  0.1173  0.9691
  561TMC3    C5 8375   1.497   0.518  11.266  0.2058  0.0006  0.1878
  561TMC3    C6 8376   1.433   0.428  11.348 -0.2424 -0.2340 -0.3004
  561TMC3     C 8377   1.684   0.291  11.050 -0.8893 -0.2341  0.4050
  561TMC3     O 8378   1.677   0.175  11.014 -0.4193  0.0364 -0.4775
  561TMC3     H 8379   1.546   0.140  11.205 -0.1043 -0.1217  0.2762
  561TMC3    H1 8380   1.624   0.542  11.087 -0.9503  0.2979  0.6087
  561TMC3    H2 8381   1.387   0.460  11.441 -1.0311 -2.5323  0.1059
  561TMC3    C7 8382   1.484   0.664  11.297  0.4561  0.0155 -0.5503
  561TMC3    C8 8383   1.380   0.192  11.416 -0.0755 -0.3006 -0.2137
  561TMC3    O1 8384   1.460   0.691  11.414  0.4066  0.1139  0.1843
  561TMC3    O2 8385   1.415   0.079  11.398  1.2119 -0.0689  0.0098
  562TMC3    C1 8386   2.392   1.647  16.632 -0.1984 -0.0354 -0.4100
  562TMC3    C2 8387   2.305   1.752  16.592  0.4856  0.4421 -0.2796
  562TMC3    C3 8388   2.252   1.756  16.468 -0.8473  0.3717  0.2459
  562TMC3    C4 8389   2.412   1.541  16.552 -0.0244 -0.1007  0.4677
  562TMC3    C5 8390   2.352   1.550  16.425 -0.2404 -0.5999  0.2707
  562TMC3    C6 8391   2.271   1.656  16.379  0.2030 -0.0200  0.5051
  562TMC3     C 8392   2.479   1.655  16.743  0.0657  0.0117  0.4536
  562TMC3     O 8393   2.583   1.586  16.741  0.4028  0.5861  0.3606
  562TMC3     H 8394   2.299   1.842  16.653  1.7741  1.2560 -1.3302
  562TMC3    H1 8395   2.471   1.462  16.595 -0.0822  0.3326  1.3339
  562TMC3    H2 8396   2.216   1.648  16.286  0.2064  0.3510  0.4713
  562TMC3    C7 8397   2.324   1.422  16.361 -0.0180 -0.5674 -0.3834
  562TMC3    C8 8398   2.179   1.880  16.439  0.6063  0.6178  0.3157
  562TMC3    O1 8399   2.238   1.426  16.272 -0.9633 -0.4827 -0.1559
  562TMC3    O2 8400   2.129   1.939  16.535 -0.2988  0.4230 -0.2618
  563MPD2     C 8401   4.690   2.818  15.902  0.3697 -0.2433 -0.3460
  563MPD2    C1 8402   4.715   2.833  16.031  0.7110 -0.4965 -0.0937
  563MPD2    C2 8403   0.103   2.789  16.080  0.2573 -0.5260 -0.4782
  563MPD2    C3 8404   0.190   2.716  16.002 -0.0306 -0.2993 -0.3682
  563MPD2    C4 8405   0.145   2.675  15.881 -0.4612  0.1840  0.2085
  563MPD2    C5 8406   0.042   2.742  15.825 -0.3389 -1.0157  0.4248
  563MPD2     H 8407   0.127   2.795  16.186 -2.1428 -1.2854  0.1093
  563MPD2    H1 8408   0.217   2.627  15.815  3.7986  2.2690  3.3108
  563MPD2    H2 8409   4.600   2.865  15.864 -1.0101 -0.3698  2.7504
  563MPD2    H3 8410   0.024   2.728  15.719  5.3756 -1.3353 -0.4957
  563MPD2     N 8411   0.309   2.672  16.065  0.3329 -1.0410 -0.0402
  563MPD2    H5 8412   0.318   2.704  16.161  2.9540 -0.7031 -0.4163
  563MPD2    N1 8413   4.613   2.879  16.114 -0.2284  0.2715  0.9035
  563MPD2    H7 8414   4.519   2.882  16.076  0.7644  2.8567 -1.3412
  564TMC3    C1 8415   4.516   2.879  16.325  0.6459  0.0898  0.2193
  564TMC3    C2 8416   4.411   2.808  16.270 -0.3558  0.1513  0.1370
  564TMC3    C3 8417   4.349   2.716  16.352  0.1056 -0.7083 -1.0219
  564TMC3    C4 8418   4.550   2.866  16.459  0.3931 -0.2844 -0.0275
  564TMC3    C5 8419   4.486   2.767  16.533 -0.1338 -0.1344 -0.2410
  564TMC3    C6 8420   4.384   2.695  16.483 -0.1205  0.4287 -0.2330
  564TMC3     C 8421   4.630   2.923  16.240 -0.1173  0.4696  0.1978
  564TMC3     O 8422   4.730   2.961  16.290 -0.5201  0.5304  0.0973
  564TMC3     H 8423   4.388   2.826  16.165  1.2294  1.1163 -0.0403
  564TMC3    H1 8424   4.653   2.890  16.483  0.8171 -0.8285 -1.3314
  564TMC3    H2 8425   4.331   2.630  16.550  1.8230 -1.3675 -0.4229
  564TMC3    C7 8426   4.578   2.673  16.600  0.3210 -0.7081  0.0057
  564TMC3    C8 8427   4.329   2.585  16.295  0.3728  0.3348 -0.3415
  564TMC3    O1 8428   4.674   2.715  16.658 -0.4197 -0.3326 -0.0084
  564TMC3    O2 8429   4.274   2.498  16.363 -0.3542 -0.2365  0.2832
  565TMC3    C1 8430   1.036   0.033  10.338 -0.5011  0.3716  0.3983
  565TMC3    C2 8431   1.098   4.700  10.441 -0.1868 -0.0173  0.4540
  565TMC3    C3 8432   1.061   4.577  10.477  0.3066 -0.4392  0.4356
  565TMC3    C4 8433   0.931   4.715  10.271 -0.6129 -0.0182 -0.7384
  565TMC3    C5 8434   0.886   4.596  10.319  0.7569  0.5386  0.7260
  565TMC3    C6 8435   0.943   4.527  10.424  0.3587  0.6741 -0.1961
  565TMC3     C 8436   1.091   0.153  10.275 -0.6757  0.1075  0.0385
  565TMC3     O 8437   1.071   0.170  10.153  0.7167 -0.3328  0.0465
  565TMC3     H 8438   1.193   0.011  10.468 -0.3387  0.4488  0.1965
  565TMC3    H1 8439   0.898   0.017  10.175 -0.4413  0.2787 -0.6833
  565TMC3    H2 8440   0.915   4.426  10.450  1.3018  0.2284 -0.9095
  565TMC3    C7 8441   0.763   4.535  10.261 -0.3748  0.1209 -0.2128
  565TMC3    C8 8442   1.134   4.493  10.569  0.1589 -0.4278  0.8297
  565TMC3    O1 8443   0.739   4.571  10.153 -0.2830  0.1096  1.0711
  565TMC3    O2 8444   1.063   4.415  10.634 -0.5044  0.0944 -0.5044
  566MPD2     C 8445   2.219   0.892  14.150 -0.3454 -0.0288 -0.3387
  566MPD2    C1 8446   2.312   0.820  14.066 -0.0409 -0.0576  0.1651
  566MPD2    C2 8447   2.266   0.750  13.964 -0.5939 -0.4206 -0.0744
  566MPD2    C3 8448   2.134   0.750  13.932  0.0689  0.2113 -0.3649
  566MPD2    C4 8449   2.048   0.819  14.019 -0.9856  0.5066  0.5799
  566MPD2    C5 8450   2.087   0.884  14.127  0.0550 -0.3601 -0.0325
  566MPD2     H 8451   2.346   0.693  13.917  0.7801 -0.2904  2.1364
  566MPD2    H1 8452   1.942   0.827  13.997 -0.6717  1.3160 -0.6806
  566MPD2    H2 8453   2.250   0.951  14.235 -0.3641 -0.0345 -0.3278
  566MPD2    H3 8454   2.012   0.935  14.187 -1.2306 -0.8518 -1.2131
  566MPD2     N 8455   2.080   0.685  13.822  0.4239  0.2089 -0.4916
  566MPD2    H5 8456   1.979   0.689  13.809  0.4381  3.0336  0.3241
  566MPD2    N1 8457   2.447   0.823  14.118 -0.0300 -0.3530 -0.1571
  566MPD2    H7 8458   2.457   0.883  14.199  1.2163  1.1544 -1.4315
  567TMC3    C1 8459   2.683   0.779  14.122 -0.8833  0.0831  0.9458
  567TMC3    C2 8460   2.792   0.775  14.043 -0.2026  0.4424  0.9470
  567TMC3    C3 8461   2.918   0.800  14.095  0.2287  0.2617 -0.0750
  567TMC3    C4 8462   2.693   0.799  14.251  0.3445  0.1460  0.9447
  567TMC3    C5 8463   2.819   0.817  14.307  0.4508  0.5079 -0.0056
  567TMC3    C6 8464   2.934   0.819  14.229 -0.0378 -0.1653  0.3394
  567TMC3     C 8465   2.556   0.755  14.064  0.6249 -0.3584 -0.4286
  567TMC3     O 8466   2.556   0.686  13.965 -0.0116 -0.1112 -0.0676
  567TMC3     H 8467   2.776   0.743  13.940  0.9322  2.6644  0.0985
  567TMC3    H1 8468   2.614   0.787  14.324  0.6323  1.3769  1.4425
  567TMC3    H2 8469   3.028   0.817  14.282  1.5431  0.2263 -2.4613
  567TMC3    C7 8470   2.832   0.832  14.456  0.1379 -0.1417 -0.2749
  567TMC3    C8 8471   3.021   0.827  14.001  0.3229  0.2339  0.0684
  567TMC3    O1 8472   2.940   0.801  14.504  0.1476 -0.2370  0.4974
  567TMC3    O2 8473   2.986   0.823  13.883 -0.2022  0.6315 -0.1677
  568MPD2     C 8474   0.009   1.570  17.005  0.0502  0.4961 -0.2379
  568MPD2    C1 8475   4.628   1.509  16.973 -0.5828 -0.6895  0.7141
  568MPD2    C2 8476   4.559   1.537  16.856 -0.0581  0.1239  0.1360
  568MPD2    C3 8477   4.615   1.629  16.767  0.1560  0.2858  0.0519
  568MPD2    C4 8478   4.727   1.699  16.809 -0.8132  0.0109 -0.0621
  568MPD2    C5 8479   0.041   1.682  16.933  0.8669  0.3391 -0.3351
  568MPD2     H 8480   4.479   1.469  16.830 -1.2286  0.8601  1.8531
  568MPD2    H1 8481   0.033   1.780  16.750  0.3254  0.3756  1.2019
  568MPD2    H2 8482   0.046   1.550  17.105 -0.9731  1.0978  0.2667
  568MPD2    H3 8483   0.114   1.748  16.979  0.1035  0.8847  0.0881
  568MPD2     N 8484   4.546   1.669  16.650 -0.3235 -1.0675 -0.4013
  568MPD2    H5 8485   4.460   1.620  16.626 -2.8581  2.3778  1.6010
  568MPD2    N1 8486   4.582   1.417  17.062  0.2147 -0.4769  0.6700
  568MPD2    H7 8487   4.661   1.388  17.119 -0.4255 -1.3217  1.1147
  569TMC3    C1 8488   4.490   1.763  16.451  0.1706 -0.9461 -0.0462
  569TMC3    C2 8489   4.368   1.812  16.500  0.2088 -0.1348  0.1576
  569TMC3    C3 8490   4.279   1.877  16.422  0.1277  0.0559  0.5515
  569TMC3    C4 8491   4.517   1.776  16.319  1.1805  0.5340  1.3065
  569TMC3    C5 8492   4.424   1.847  16.245 -0.4157  0.4334 -0.8044
  569TMC3    C6 8493   4.305   1.883  16.292  1.2338  0.6369  0.6311
  569TMC3     C 8494   4.593   1.754  16.552  0.0343  0.8068  0.7787
  569TMC3     O 8495   4.701   1.803  16.529 -0.5929 -0.4346 -0.7312
  569TMC3     H 8496   4.350   1.810  16.607 -1.6321  1.7474 -0.1292
  569TMC3    H1 8497   4.614   1.748  16.281  0.9301  0.8070  0.4563
  569TMC3    H2 8498   4.229   1.923  16.226  1.2666 -0.9775 -0.3728
  569TMC3    C7 8499   4.484   1.959  16.169  0.1790  0.4787 -0.4327
  569TMC3    C8 8500   4.227   2.003  16.464 -0.8824  0.0730  0.1138
  569TMC3    O1 8501   4.594   1.927  16.129 -0.0309  0.2209  0.4199
  569TMC3    O2 8502   4.191   2.080  16.377  0.1463  0.1693  0.3770
  570TMC3    C1 8503   4.112   0.316  16.571  0.6506  0.1036  0.3147
  570TMC3    C2 8504   4.169   0.308  16.444  1.0153 -0.4864 -0.2909
  570TMC3    C3 8505   4.211   0.427  16.394 -0.3788 -0.4067 -0.2010
  570TMC3    C4 8506   4.094   0.430  16.634 -0.1796  0.0546 -0.3896
  570TMC3    C5 8507   4.147   0.543  16.581  0.1906 -0.0288  0.2515
  570TMC3    C6 8508   4.218   0.542  16.463 -0.6636  0.2359 -0.4314
  570TMC3     C 8509   4.061   0.184  16.610 -0.2761  0.3170 -0.0717
  570TMC3     O 8510   4.080   0.092  16.529  0.0917  0.2192  0.6264
  570TMC3     H 8511   4.155   0.222  16.380  0.7339 -1.7426  1.4593
  570TMC3    H1 8512   4.043   0.439  16.728  0.1510 -0.4758 -0.1593
  570TMC3    H2 8513   4.260   0.628  16.412  0.7756 -0.8914 -1.1575
  570TMC3    C7 8514   4.104   0.673  16.634 -0.5098 -0.6707  0.1153
  570TMC3    C8 8515   4.301   0.433  16.280  0.7839 -0.2619 -0.0577
  570TMC3    O1 8516   4.027   0.660  16.733 -0.0704  0.4410 -0.0914
  570TMC3    O2 8517   4.381   0.523  16.270 -0.4330  0.0632  0.6339
  571MPD2     C 8518   1.933   2.145   0.189  0.8212  0.1627  0.0866
  571MPD2    C1 8519   2.053   2.100   0.246  0.2313 -0.5131  0.2006
  571MPD2    C2 8520   2.152   2.196   0.275  0.0335 -0.1383  0.4699
  571MPD2    C3 8521   2.140   2.329   0.246 -0.1800 -0.0344  0.7848
  571MPD2    C4 8522   2.025   2.369   0.186  0.6528 -0.0070  0.4480
  571MPD2    C5 8523   1.926   2.273   0.163 -0.1377 -0.4414  0.0030
  571MPD2     H 8524   2.246   2.153   0.309 -1.2559 -1.4270  2.4031
  571MPD2    H1 8525   2.003   2.472   0.160 -0.8047 -0.1304  1.1467
  571MPD2    H2 8526   1.859   2.080   0.144 -0.6086  2.2530 -0.6172
  571MPD2    H3 8527   1.830   2.299   0.120 -1.2761 -1.4817  1.9333
  571MPD2     N 8528   2.235   2.425   0.276  0.3222 -0.3505 -0.3531
  571MPD2    H5 8529   2.206   2.515   0.240 -2.4760 -0.3740  1.8031
  571MPD2    N1 8530   2.061   1.960   0.263  0.4786 -0.8082  0.1493
  571MPD2    H7 8531   1.985   1.913   0.214  1.2036 -1.6211 -0.1875
  572TMC3    C1 8532   2.438   2.516   0.367  0.3160 -0.1151  0.1940
  572TMC3    C2 8533   2.510   2.511   0.481 -0.2867 -0.3015  0.3970
  572TMC3    C3 8534   2.560   2.628   0.516 -0.0575  1.0619  0.6036
  572TMC3    C4 8535   2.404   2.631   0.299 -0.2840  0.3938 -1.1526
  572TMC3    C5 8536   2.474   2.743   0.338 -0.3433  0.5989  0.6602
  572TMC3    C6 8537   2.558   2.739   0.441 -0.3774 -0.1416  0.8803
  572TMC3     C 8538   2.351   2.400   0.350  0.9574 -0.2221  0.6118
  572TMC3     O 8539   2.387   2.298   0.403 -0.6309  0.0427 -0.0766
  572TMC3     H 8540   2.500   2.438   0.560  0.7700 -2.5086 -1.5141
  572TMC3    H1 8541   2.345   2.635   0.208 -1.5597  0.5131 -0.3321
  572TMC3    H2 8542   2.624   2.820   0.470 -0.1635  0.0877 -0.2499
  572TMC3    C7 8543   2.448   2.869   0.267 -0.4881  0.6371 -0.1541
  572TMC3    C8 8544   2.667   2.633   0.614 -0.6853 -0.1538 -0.7961
  572TMC3    O1 8545   2.400   2.865   0.154  0.4062  0.6792 -0.0568
  572TMC3    O2 8546   2.684   2.733   0.679  0.0017 -0.3874  0.7340
  573MPD2     C 8547   3.177   2.069   0.603 -0.0453 -0.3418  0.1368
  573MPD2    C1 8548   3.223   2.194   0.587 -0.6049  0.4226  0.0383
  573MPD2    C2 8549   3.212   2.258   0.464  1.0668  0.1628 -0.0585
  573MPD2    C3 8550   3.150   2.190   0.358 -0.0797  0.5296 -0.4115
  573MPD2    C4 8551   3.092   2.067   0.383  0.1365 -0.1939  0.4879
  573MPD2    C5 8552   3.116   2.003   0.501 -0.4468 -0.6765 -0.5172
  573MPD2     H 8553   3.263   2.352   0.447  0.6217  0.2237 -1.0691
  573MPD2    H1 8554   3.040   2.009   0.308  0.7680  1.9485 -1.5917
  573MPD2    H2 8555   3.185   2.013   0.695 -0.4186 -0.6548 -0.0240
  573MPD2    H3 8556   3.080   1.903   0.523  0.1326 -1.1096 -1.5540
  573MPD2     N 8557   3.123   2.249   0.233 -0.7342 -0.5211  0.5251
  573MPD2    H5 8558   3.062   2.197   0.171  0.3457  0.8836 -1.7329
  573MPD2    N1 8559   3.283   2.242   0.700 -0.2001 -0.0494 -0.1430
  573MPD2    H7 8560   3.253   2.193   0.784 -1.1409  0.5102 -0.1469
  574TMC3    C1 8561   3.045   2.425   0.104  0.0768 -0.5563  0.3578
  574TMC3    C2 8562   2.946   2.481   0.173 -0.6301 -0.0736 -0.6922
  574TMC3    C3 8563   2.875   2.577   0.112  0.8150  0.3279  0.6734
  574TMC3    C4 8564   3.089   2.473  17.719  0.1709  0.7923  0.5168
  574TMC3    C5 8565   3.006   2.553  17.652  0.5041 -0.3180  0.2101
  574TMC3    C6 8566   2.906   2.619  17.720 -0.0141 -0.3007 -0.6399
  574TMC3     C 8567   3.150   2.377   0.196 -0.6610 -0.5423 -0.0488
  574TMC3     O 8568   3.230   2.457   0.245  0.0198  0.1807 -0.6514
  574TMC3     H 8569   2.917   2.448   0.272  1.2165  0.4314  0.0228
  574TMC3    H1 8570   3.167   2.413  17.672 -1.5430 -0.5353 -0.6421
  574TMC3    H2 8571   2.859   2.708  17.679  0.0519  0.9345  1.9285
  574TMC3    C7 8572   3.000   2.570  17.502 -0.6261 -0.2465 -0.0688
  574TMC3    C8 8573   2.830   2.676   0.209 -0.4872  0.9725 -0.1335
  574TMC3    O1 8574   2.897   2.623  17.464 -0.5353  0.2076 -0.3187
  574TMC3    O2 8575   2.843   2.651   0.329  0.2452 -0.0895 -0.2848
  575TMC3    C1 8576   1.367   3.702  10.952 -0.0177 -0.3456  0.3462
  575TMC3    C2 8577   1.251   3.655  10.992  0.3303 -0.5534 -0.3385
  575TMC3    C3 8578   1.140   3.732  10.963 -0.6215  0.0913  0.0290
  575TMC3    C4 8579   1.383   3.832  10.905  0.1916  1.0455 -0.1310
  575TMC3    C5 8580   1.269   3.901  10.871  0.0232 -0.2375  0.4390
  575TMC3    C6 8581   1.147   3.855  10.903 -0.7163 -1.0123  0.2668
  575TMC3     C 8582   1.481   3.612  10.928  0.6883  0.4587 -0.0946
  575TMC3     O 8583   1.592   3.663  10.937 -0.3746 -0.3675  0.0752
  575TMC3     H 8584   1.242   3.556  11.035  3.3875 -0.8057 -0.3013
  575TMC3    H1 8585   1.479   3.867  10.868  0.9731 -1.6530 -0.6379
  575TMC3    H2 8586   1.058   3.913  10.885 -0.0452 -0.6609 -1.9607
  575TMC3    C7 8587   1.280   4.036  10.810 -0.7067  0.2155 -0.1434
  575TMC3    C8 8588   1.018   3.687  11.017 -0.3720  0.3543  0.4510
  575TMC3    O1 8589   1.180   4.102  10.822 -0.1539  0.3317  0.2331
  575TMC3    O2 8590   0.920   3.735  10.958  0.1053  0.0949 -0.1356
  576MPD2     C 8591   0.307   0.230  12.478 -0.0286 -0.1479 -0.8774
  576MPD2    C1 8592   0.312   0.354  12.416  0.1368 -0.1718  0.0754
  576MPD2    C2 8593   0.266   0.464  12.489  0.6682 -0.4093 -0.1054
  576MPD2    C3 8594   0.194   0.447  12.608 -0.5486 -0.0664  0.4128
  576MPD2    C4 8595   0.183   0.314  12.659 -0.3711  0.3266  0.1568
  576MPD2    C5 8596   0.238   0.212  12.592 -0.4258  0.3594  0.0347
  576MPD2     H 8597   0.269   0.563  12.445 -2.5105  0.2939  1.1967
  576MPD2    H1 8598   0.131   0.289  12.752  1.5922  0.8802  1.3980
  576MPD2    H2 8599   0.351   0.145  12.427  3.7127  1.1302  0.2278
  576MPD2    H3 8600   0.225   0.110  12.627 -1.1674  0.5677  0.3772
  576MPD2     N 8601   0.149   0.564  12.677 -0.0638 -0.2855  0.1451
  576MPD2    H5 8602   0.156   0.655  12.632  0.7747 -0.5867 -0.3507
  576MPD2    N1 8603   0.387   0.365  12.293 -0.9151  0.0132  0.1444
  576MPD2    H7 8604   0.382   0.447  12.235 -2.3288  1.0270  1.7127
  577TMC3    C1 8605   0.534   0.324  12.112 -1.3628  0.0637  0.9044
  577TMC3    C2 8606   0.616   0.224  12.046 -0.3386 -0.1043 -0.1592
  577TMC3    C3 8607   0.692   0.263  11.941  0.3694  0.3124  0.4889
  577TMC3    C4 8608   0.524   0.447  12.057 -0.3792  0.9987  0.3305
  577TMC3    C5 8609   0.595   0.473  11.944  0.2089  0.1476 -0.3909
  577TMC3    C6 8610   0.684   0.392  11.884 -0.1728  0.2019 -0.8960
  577TMC3     C 8611   0.478   0.277  12.239  0.9050 -0.2001  0.2947
  577TMC3     O 8612   0.524   0.173  12.288 -0.0248 -0.3873  0.4721
  577TMC3     H 8613   0.614   0.123  12.085  1.4570  0.8945  2.4840
  577TMC3    H1 8614   0.473   0.526  12.110 -1.3533  1.1757 -0.8644
  577TMC3    H2 8615   0.706   0.418  11.781  0.9428 -0.4510 -0.8193
  577TMC3    C7 8616   0.584   0.601  11.872 -0.2280 -0.4640  0.2249
  577TMC3    C8 8617   0.800   0.177  11.894 -0.3477  0.3290 -0.5567
  577TMC3    O1 8618   0.677   0.651  11.805  0.2663  0.5524 -0.2915
  577TMC3    O2 8619   0.806   0.068  11.951  0.8667  0.3894 -0.2199
  578MPD2     C 8620   2.971   0.506   1.569  0.0897  0.8067  0.8671
  578MPD2    C1 8621   3.013   0.440   1.456 -0.4833 -0.0985 -0.1177
  578MPD2    C2 8622   3.131   0.378   1.465  0.1214  0.0272 -0.1138
  578MPD2    C3 8623   3.214   0.380   1.576  0.1927  0.1015  0.6317
  578MPD2    C4 8624   3.173   0.454   1.688 -0.0127 -0.4547 -0.1690
  578MPD2    C5 8625   3.053   0.517   1.683  0.2414 -0.5463 -0.5824
  578MPD2     H 8626   3.168   0.316   1.384 -1.7810 -0.6020 -0.5032
  578MPD2    H1 8627   3.234   0.443   1.777 -2.1731 -0.6057  1.3028
  578MPD2    H2 8628   2.874   0.554   1.570 -0.7776 -0.9655  0.8101
  578MPD2    H3 8629   3.023   0.576   1.769  1.5839  1.3245 -1.4146
  578MPD2     N 8630   3.334   0.306   1.570 -0.4306 -0.7452  0.0234
  578MPD2    H5 8631   3.357   0.272   1.477 -0.1380 -2.3472  0.6664
  578MPD2    N1 8632   2.934   0.438   1.339  0.8300  0.2088 -0.9261
  578MPD2    H7 8633   2.845   0.486   1.335  0.9435  0.4798 -0.1288
  579TMC3    C1 8634   3.578   0.278   1.616  0.1471 -0.5131 -0.3742
  579TMC3    C2 8635   3.695   0.337   1.663  0.1211 -0.1083  0.0589
  579TMC3    C3 8636   3.818   0.296   1.617 -0.0506 -0.3763 -0.0927
  579TMC3    C4 8637   3.587   0.185   1.518  0.3579  0.3408 -0.2582
  579TMC3    C5 8638   3.711   0.140   1.485 -0.6138 -0.5210  0.2568
  579TMC3    C6 8639   3.827   0.187   1.536  0.2979 -0.1381  0.5648
  579TMC3     C 8640   3.443   0.319   1.659  0.7047 -0.0014 -0.6197
  579TMC3     O 8641   3.447   0.386   1.763  0.5231 -0.5061 -0.3351
  579TMC3     H 8642   3.688   0.422   1.730  1.4417 -0.2889  0.4297
  579TMC3    H1 8643   3.498   0.125   1.502 -0.4386  0.9744  1.7960
  579TMC3    H2 8644   3.922   0.152   1.497  1.2493  0.7860  2.0495
  579TMC3    C7 8645   3.721   0.029   1.387 -0.0302  0.1277 -0.7648
  579TMC3    C8 8646   3.937   0.340   1.693  0.6183 -0.1638 -0.7258
  579TMC3    O1 8647   3.831   4.712   1.379  0.0908  0.1038 -0.1231
  579TMC3    O2 8648   3.913   0.418   1.784  0.0653  0.4846  0.2102
  580TMC3    C1 8649   2.733   3.816  11.946 -0.3183  0.2471  0.0704
  580TMC3    C2 8650   2.813   3.792  11.836  0.2808 -0.0503  0.6304
  580TMC3    C3 8651   2.950   3.770  11.849  0.3645  0.0945  0.2049
  580TMC3    C4 8652   2.772   3.775  12.070 -0.4378  0.1582  0.9929
  580TMC3    C5 8653   2.908   3.728  12.083 -0.3243 -0.4759 -0.4650
  580TMC3    C6 8654   2.997   3.740  11.974 -0.3097  0.5999 -0.5255
  580TMC3     C 8655   2.721   3.967  11.935  0.0482  0.4327  0.6736
  580TMC3     O 8656   2.731   4.025  11.827  0.5269 -0.9500 -0.1486
  580TMC3     H 8657   2.785   3.825  11.736  3.0064  3.1824  0.9361
  580TMC3    H1 8658   2.707   3.777  12.157 -0.8375  0.6010  0.6850
  580TMC3    H2 8659   3.103   3.751  11.993 -0.9818  1.4915  2.8551
  580TMC3    C7 8660   2.976   3.705  12.211 -0.3554  0.1217  0.1945
  580TMC3    C8 8661   3.024   3.853  11.761 -0.0929 -0.7179  1.0394
  580TMC3    O1 8662   2.944   3.766  12.312 -0.1089  0.2256  0.0925
  580TMC3    O2 8663   3.000   3.865  11.641  0.3364 -0.0705  0.1745
  581MPD2     C 8664   0.800   3.742  14.986 -0.3253 -0.7201 -0.7395
  581MPD2    C1 8665   0.681   3.791  15.026  0.1339 -0.6065 -0.3254
  581MPD2    C2 8666   0.606   3.862  14.930 -0.3740  0.6318 -0.1636
  581MPD2    C3 8667   0.649   3.884  14.801 -0.2184 -0.5364 -0.8652
  581MPD2    C4 8668   0.767   3.832  14.763  0.2080  0.0226  0.1501
  581MPD2    C5 8669   0.836   3.755  14.851  0.7615  0.2362  0.9178
  581MPD2     H 8670   0.511   3.914  14.941 -0.9116  0.0243 -2.0308
  581MPD2    H1 8671   0.806   3.845  14.663 -0.8922 -0.3062 -0.3239
  581MPD2    H2 8672   0.870   3.698  15.055 -1.5826 -0.0816  0.9228
  581MPD2    H3 8673   0.934   3.721  14.818  0.5758 -0.5932  1.2304
  581MPD2     N 8674   0.566   3.967  14.725  0.3740 -0.0669 -0.1946
  581MPD2    H5 8675   0.476   3.992  14.764  0.0375  0.0549 -1.0508
  581MPD2    N1 8676   0.646   3.774  15.164 -0.0903  0.3846  0.3306
  581MPD2    H7 8677   0.713   3.739  15.231  1.0475  3.2940  0.7442
  582TMC3    C1 8678   0.502   3.783  15.352 -0.6140 -0.0651  0.6589
  582TMC3    C2 8679   0.608   3.782  15.435 -0.3139  0.1848  0.3183
  582TMC3    C3 8680   0.586   3.825  15.563 -0.2721 -0.0264  0.1300
  582TMC3    C4 8681   0.373   3.812  15.395  0.3648  0.1580  0.4580
  582TMC3    C5 8682   0.351   3.849  15.522  0.2352 -0.6086 -0.3266
  582TMC3    C6 8683   0.461   3.860  15.608 -0.4677  0.6430 -0.0316
  582TMC3     C 8684   0.519   3.802  15.207 -0.4180  0.5409  0.1377
  582TMC3     O 8685   0.425   3.856  15.148 -0.1442  0.2813 -0.3395
  582TMC3     H 8686   0.707   3.790  15.392 -0.4765 -3.0151 -0.5947
  582TMC3    H1 8687   0.289   3.818  15.328 -0.2818 -1.3021  1.1277
  582TMC3    H2 8688   0.444   3.884  15.712 -0.4837  1.5217 -0.2347
  582TMC3    C7 8689   0.253   3.952  15.534  0.0875  0.2312 -0.4771
  582TMC3    C8 8690   0.681   3.912  15.629  0.5292 -0.8335 -0.5776
  582TMC3    O1 8691   0.136   3.931  15.498 -0.4863 -0.1648 -0.2030
  582TMC3    O2 8692   0.634   4.017  15.672 -0.4007 -0.2618 -0.1180
  583MPD2     C 8693   1.021   0.773  16.906 -0.2038 -0.0349  0.1561
  583MPD2    C1 8694   1.005   0.894  16.845 -0.5854 -0.2025  0.4934
  583MPD2    C2 8695   0.943   0.995  16.919  0.2731  0.4412 -0.1086
  583MPD2    C3 8696   0.893   0.973  17.049  0.0761 -0.8179  0.6455
  583MPD2    C4 8697   0.907   0.847  17.096  0.0463  0.0263  0.5520
  583MPD2    C5 8698   0.966   0.744  17.023 -1.1040  0.1738  0.3719
  583MPD2     H 8699   0.948   1.093  16.872  0.6737 -0.1488 -1.2909
  583MPD2    H1 8700   0.858   0.819  17.189 -2.0795 -2.2570 -1.2774
  583MPD2    H2 8701   1.070   0.690  16.856 -0.6268 -0.8875  1.1679
  583MPD2    H3 8702   0.983   0.643  17.058 -2.3907 -0.7426 -1.6502
  583MPD2     N 8703   0.841   1.091  17.108  0.1419  0.1499 -0.0861
  583MPD2    H5 8704   0.827   1.175  17.053 -0.5820 -0.7298 -1.2561
  583MPD2    N1 8705   1.069   0.926  16.721  0.2727 -0.1097 -0.0090
  583MPD2    H7 8706   1.044   1.015  16.680  2.2273  0.7490  0.6522
  584TMC3    C1 8707   0.739   1.219  17.279 -0.0186 -0.0612  1.0494
  584TMC3    C2 8708   0.742   1.332  17.197 -0.5025 -0.2165  0.4167
  584TMC3    C3 8709   0.729   1.450  17.262  0.0742  0.3834  0.2719
  584TMC3    C4 8710   0.734   1.231  17.419  0.4328  0.2009 -1.0887
  584TMC3    C5 8711   0.717   1.352  17.475  0.0206  0.0284  0.7458
  584TMC3    C6 8712   0.718   1.462  17.397  0.0067 -0.7709  0.3257
  584TMC3     C 8713   0.786   1.087  17.237  0.1365 -0.0866 -0.4702
  584TMC3     O 8714   0.751   0.994  17.306 -0.0973 -0.0217  0.1506
  584TMC3     H 8715   0.748   1.330  17.089  2.9310  0.8624  0.6086
  584TMC3    H1 8716   0.733   1.141  17.479 -0.7431  0.0096 -1.3886
  584TMC3    H2 8717   0.681   1.550  17.447  0.8525  0.2866 -0.9101
  584TMC3    C7 8718   0.729   1.365  17.619  0.7553 -0.4723  0.9251
  584TMC3    C8 8719   0.753   1.570  17.180  0.3828 -1.2437 -1.1060
  584TMC3    O1 8720   0.727   1.263  17.687  0.6701 -0.2100  0.2953
  584TMC3    O2 8721   0.740   1.563  17.058  0.9700  0.5683  0.1687
  585MPD2     C 8722   4.558   0.552   0.805  0.4227  0.4341 -0.0707
  585MPD2    C1 8723   4.558   0.552   0.672  0.3739  0.1401  0.6236
  585MPD2    C2 8724   4.599   0.440   0.608  0.4134 -0.3815  0.3192
  585MPD2    C3 8725   4.626   0.321   0.676 -0.1908 -1.0386 -0.2026
  585MPD2    C4 8726   4.630   0.323   0.815 -0.0735 -0.0352  0.1501
  585MPD2    C5 8727   4.596   0.439   0.871  0.3473  0.2074 -0.0469
  585MPD2     H 8728   4.584   0.422   0.502 -1.2920 -0.2421  0.5362
  585MPD2    H1 8729   4.644   0.238   0.881 -1.2580 -0.6937 -0.4314
  585MPD2    H2 8730   4.524   0.635   0.867 -2.6646 -1.0796  0.2646
  585MPD2    H3 8731   4.585   0.444   0.979  0.7348 -1.2593  0.0618
  585MPD2     N 8732   4.643   0.198   0.608  0.3539  0.0401 -0.3568
  585MPD2    H5 8733   4.604   0.201   0.514 -1.4371  0.9944  0.4169
  585MPD2    N1 8734   4.537   0.678   0.607 -0.5606  0.5219 -0.6418
  585MPD2    H7 8735   4.497   0.744   0.672  1.5644  1.0418  0.1605
  586TMC3    C1 8736   4.733   4.721   0.573  0.1293 -0.4850 -0.7155
  586TMC3    C2 8737   0.114   4.654   0.579 -0.1238  0.1682 -0.2369
  586TMC3    C3 8738   0.118   4.517   0.549 -0.3072  0.1447 -0.1938
  586TMC3    C4 8739   4.616   4.670   0.548 -0.5418 -0.4540 -0.1492
  586TMC3    C5 8740   4.620   4.535   0.535 -0.9802 -0.7415  0.1763
  586TMC3    C6 8741   4.731   4.458   0.551 -0.1880  0.0215  0.9555
  586TMC3     C 8742   4.727   0.097   0.659 -0.1171  1.0334 -0.2558
  586TMC3     O 8743   0.077   0.103   0.747 -0.3402 -0.3118 -0.5064
  586TMC3     H 8744   0.205   4.713   0.586  0.6200 -1.0206 -0.0122
  586TMC3    H1 8745   4.525   4.728   0.561 -0.1630  0.3113 -0.9528
  586TMC3    H2 8746   4.718   4.362   0.503  0.7490  0.8435 -0.9897
  586TMC3    C7 8747   4.538   4.476   0.432  0.2550  0.2923 -0.0193
  586TMC3    C8 8748   0.194   4.473   0.441 -0.8704 -0.0647 -0.7058
  586TMC3    O1 8749   4.478   4.369   0.446 -0.8454  0.3791 -0.8989
  586TMC3    O2 8750   0.185   4.356   0.409 -0.2962 -0.2792 -0.1677
  587TMC3    C1 8751   2.510   3.150  16.992  0.2523 -0.6551 -0.3560
  587TMC3    C2 8752   2.443   3.242  17.073 -0.6964  0.3065  0.1910
  587TMC3    C3 8753   2.513   3.296  17.175 -0.4350 -0.4037 -0.3173
  587TMC3    C4 8754   2.628   3.097  17.023  0.5209 -0.2475 -0.6709
  587TMC3    C5 8755   2.678   3.149  17.141 -0.5156  0.1356 -0.1332
  587TMC3    C6 8756   2.634   3.248  17.214  0.1136  0.4645  0.3860
  587TMC3     C 8757   2.437   3.103  16.875  0.0108  1.1491 -0.0700
  587TMC3     O 8758   2.501   3.036  16.793  0.0004  0.1062  0.2840
  587TMC3     H 8759   2.339   3.271  17.077 -1.1307 -1.1134 -1.0616
  587TMC3    H1 8760   2.681   3.030  16.956  0.3289 -0.3732 -0.6940
  587TMC3    H2 8761   2.694   3.299  17.289  2.0476  0.0041 -0.8597
  587TMC3    C7 8762   2.794   3.075  17.192 -0.7060  0.0883 -0.1669
  587TMC3    C8 8763   2.446   3.385  17.270  0.5442  0.0239 -0.1005
  587TMC3    O1 8764   2.823   2.987  17.111 -1.0152  0.5255 -0.2667
  587TMC3    O2 8765   2.491   3.372  17.385 -0.5648  0.1694  0.7722
  588TMC3    C1 8766   0.179   1.421   9.658 -0.2340  0.2260  0.6775
  588TMC3    C2 8767   0.249   1.307   9.626  0.0416  0.0297 -0.7539
  588TMC3    C3 8768   0.296   1.224   9.726  0.1135 -0.4394 -0.0923
  588TMC3    C4 8769   0.177   1.465   9.790  0.1449  0.2663  0.2823
  588TMC3    C5 8770   0.226   1.379   9.889 -0.0150 -0.4480  0.0760
  588TMC3    C6 8771   0.290   1.259   9.859 -0.3461  0.0217 -0.6931
  588TMC3     C 8772   0.136   1.511   9.551  0.1589 -0.4256  0.8192
  588TMC3     O 8773   0.124   1.474   9.431 -0.1281  0.8081  0.2069
  588TMC3     H 8774   0.241   1.267   9.526  0.8449  0.3600 -0.9522
  588TMC3    H1 8775   0.102   1.537   9.821 -0.5741  0.5827 -2.2325
  588TMC3    H2 8776   0.329   1.204   9.943  0.6798  1.1344 -0.4323
  588TMC3    C7 8777   0.236   1.432  10.024  0.0985  0.3608 -0.3545
  588TMC3    C8 8778   0.346   1.095   9.676  0.0948 -0.2434 -0.2765
  588TMC3    O1 8779   0.222   1.350  10.112  0.2426  0.9104  0.0892
  588TMC3    O2 8780   0.395   1.094   9.562 -0.1291 -0.2245  0.2450
  589TMC3    C1 8781   4.286   3.263   1.596 -0.0398  0.9292 -0.1784
  589TMC3    C2 8782   4.401   3.335   1.592 -0.1765  0.0610 -0.0635
  589TMC3    C3 8783   4.518   3.261   1.611  0.0693 -0.5679 -0.2657
  589TMC3    C4 8784   4.289   3.132   1.619 -1.1286  0.1777  0.1213
  589TMC3    C5 8785   4.405   3.066   1.635 -0.1634  0.0381 -0.3916
  589TMC3    C6 8786   4.527   3.127   1.644  0.0833  0.3929  0.7749
  589TMC3     C 8787   4.158   3.329   1.612  0.1895 -0.2163 -0.3729
  589TMC3     O 8788   4.061   3.270   1.658  0.2751 -0.2847 -0.3325
  589TMC3     H 8789   4.411   3.438   1.559  3.3341  0.4679  2.3289
  589TMC3    H1 8790   4.193   3.083   1.603 -0.7569 -0.4764 -0.1035
  589TMC3    H2 8791   4.622   3.077   1.655  0.8847  1.4578 -1.2356
  589TMC3    C7 8792   4.392   2.929   1.650  0.2818  0.4719  0.4964
  589TMC3    C8 8793   4.639   3.337   1.584  0.1435 -0.9659 -0.1486
  589TMC3    O1 8794   4.280   2.885   1.668 -0.0995 -0.0997 -0.5012
  589TMC3    O2 8795   4.634   3.454   1.612 -0.4315 -0.4492 -0.8768
  590MPD2     C 8796   3.312   1.560  16.742  0.3462 -0.3231  0.4960
  590MPD2    C1 8797   3.316   1.696  16.761 -0.3904 -0.8416 -0.3554
  590MPD2    C2 8798   3.427   1.772  16.714 -0.5386 -0.4411 -0.2644
  590MPD2    C3 8799   3.528   1.715  16.644 -0.4420  1.2501 -0.1964
  590MPD2    C4 8800   3.525   1.584  16.629 -0.3533  0.4759 -0.1717
  590MPD2    C5 8801   3.420   1.505  16.672 -0.1988 -0.3944 -1.1099
  590MPD2     H 8802   3.432   1.879  16.727  2.0570 -0.7013  0.7361
  590MPD2    H1 8803   3.593   1.528  16.566 -0.3236 -0.5849  0.7997
  590MPD2    H2 8804   3.229   1.497  16.772 -0.6527  1.3850  1.3240
  590MPD2    H3 8805   3.417   1.398  16.657 -2.5451 -0.7062  1.5720
  590MPD2     N 8806   3.625   1.799  16.581 -0.0768  0.5974 -0.7890
  590MPD2    H5 8807   3.621   1.895  16.616 -1.3097  0.0580  0.5357
  590MPD2    N1 8808   3.206   1.753  16.828  0.0208  0.1164 -0.1053
  590MPD2    H7 8809   3.122   1.695  16.822 -0.5373  0.8326  0.7696
  591TMC3    C1 8810   3.775   1.892  16.416  0.2679  0.5277  1.1773
  591TMC3    C2 8811   3.857   1.865  16.315  0.2556  0.2664 -0.6099
  591TMC3    C3 8812   3.921   1.975  16.257 -0.2781  0.2173 -0.4870
  591TMC3    C4 8813   3.761   2.024  16.465 -0.3436 -0.1203  0.4734
  591TMC3    C5 8814   3.822   2.131  16.406  0.2088  0.3724  0.2797
  591TMC3    C6 8815   3.910   2.105  16.310  0.3894 -0.4393 -0.4857
  591TMC3     C 8816   3.715   1.773  16.482 -0.0812 -0.1276 -0.0863
  591TMC3     O 8817   3.739   1.666  16.429  0.0194 -0.2301  0.2214
  591TMC3     H 8818   3.878   1.760  16.293  0.7635 -0.0896  1.5924
  591TMC3    H1 8819   3.695   2.045  16.548 -0.6510 -1.7112  0.6337
  591TMC3    H2 8820   3.967   2.191  16.279  0.6277 -0.3281  0.2605
  591TMC3    C7 8821   3.750   2.259  16.408 -0.3525 -0.1063  0.5500
  591TMC3    C8 8822   3.986   1.946  16.128  0.0256 -0.1148 -0.1176
  591TMC3    O1 8823   3.635   2.258  16.450  0.1528  0.3836  0.4488
  591TMC3    O2 8824   4.031   1.837  16.101 -0.1135  0.1854 -0.2293
  592MPD2     C 8825   3.924   3.980  11.315  0.4303 -0.6882  0.8835
  592MPD2    C1 8826   3.941   4.010  11.446 -0.0238 -0.2262 -0.0172
  592MPD2    C2 8827   3.908   3.920  11.550 -0.1924  0.1456  0.1874
  592MPD2    C3 8828   3.825   3.811  11.515  0.4132 -0.3980  0.1615
  592MPD2    C4 8829   3.796   3.793  11.380  0.1812 -0.2385 -0.1051
  592MPD2    C5 8830   3.847   3.872  11.285 -0.0724  0.4206 -0.0032
  592MPD2     H 8831   3.932   3.934  11.655 -2.8091  0.4901  0.7346
  592MPD2    H1 8832   3.745   3.707  11.339  0.1568 -1.6455  2.8701
  592MPD2    H2 8833   3.952   4.042  11.231 -1.4590 -1.7778 -0.5750
  592MPD2    H3 8834   3.818   3.855  11.182  2.2918  1.1309 -0.7740
  592MPD2     N 8835   3.796   3.714  11.608 -0.4102  0.0793  0.2420
  592MPD2    H5 8836   3.837   3.726  11.700 -0.1151 -4.1998  0.6744
  592MPD2    N1 8837   4.012   4.129  11.472  0.0187  0.2974  0.4529
  592MPD2    H7 8838   4.052   4.187  11.398 -0.3324 -1.5562 -1.1989
  593TMC3    C1 8839   4.085   4.304  11.581  0.9792  1.0046 -0.0863
  593TMC3    C2 8840   4.055   4.392  11.684 -1.0138 -0.2307  0.6581
  593TMC3    C3 8841   4.130   4.506  11.686 -0.3118  0.6253 -0.0614
  593TMC3    C4 8842   4.174   4.330  11.473 -0.1112 -0.5206 -0.1660
  593TMC3    C5 8843   4.232   4.447  11.479  0.1090  0.2348  0.0233
  593TMC3    C6 8844   4.221   4.535  11.583 -0.0538 -0.2332 -0.4340
  593TMC3     C 8845   4.032   4.177  11.596 -0.3949 -0.4195 -0.4604
  593TMC3     O 8846   4.013   4.135  11.713 -0.0077  0.6315  0.9573
  593TMC3     H 8847   4.002   4.362  11.773 -0.4650 -0.7954  0.7919
  593TMC3    H1 8848   4.214   4.245  11.419 -2.1449 -1.0014 -0.9185
  593TMC3    H2 8849   4.268   4.633  11.582  2.6333 -1.5540 -2.3446
  593TMC3    C7 8850   4.322   4.490  11.374 -0.2184 -0.5974  0.2132
  593TMC3    C8 8851   4.140   4.564  11.815 -0.4454  0.1745  0.4643
  593TMC3    O1 8852   4.392   4.591  11.388 -0.0632 -0.1834  0.0309
  593TMC3    O2 8853   4.039   4.543  11.884  0.5087  0.3317 -0.2206
  594MPD2     C 8854   2.804   2.637  14.341 -0.3341  0.1715 -0.2117
  594MPD2    C1 8855   2.767   2.719  14.443 -0.0222  0.0312 -0.1858
  594MPD2    C2 8856   2.861   2.814  14.488 -0.1317 -0.0554  0.4731
  594MPD2    C3 8857   2.983   2.828  14.423  0.2310 -0.9299 -0.0008
  594MPD2    C4 8858   3.005   2.750  14.311 -0.1520  0.0186 -0.3867
  594MPD2    C5 8859   2.914   2.663  14.265 -0.3361 -0.2107  0.1075
  594MPD2     H 8860   2.835   2.888  14.564 -0.9362 -0.0538  0.2014
  594MPD2    H1 8861   3.090   2.759  14.245  0.5443  2.9984  0.9279
  594MPD2    H2 8862   2.731   2.570  14.297  1.1640 -0.4621 -1.7692
  594MPD2    H3 8863   2.936   2.602  14.178  1.9443 -0.4644  0.8635
  594MPD2     N 8864   3.077   2.927  14.457  0.6663  0.3637  0.2031
  594MPD2    H5 8865   3.046   2.997  14.524  0.6634 -0.0853  0.6702
  594MPD2    N1 8866   2.632   2.709  14.499 -0.0841 -0.4625 -0.3894
  594MPD2    H7 8867   2.558   2.658  14.452  1.6330 -1.5473 -1.9540
  595TMC3    C1 8868   3.502   3.145  14.527  0.5955 -0.3239 -0.0570
  595TMC3    C2 8869   3.419   3.043  14.479  0.1306  0.5316  0.9491
  595TMC3    C3 8870   3.281   3.054  14.470  0.2602  0.2674  0.0659
  595TMC3    C4 8871   3.443   3.245  14.593 -0.3438  0.4418  0.6628
  595TMC3    C5 8872   3.308   3.252  14.583  0.2425  0.4005  0.2758
  595TMC3    C6 8873   3.224   3.163  14.518 -0.1997  0.8043  0.4473
  595TMC3     C 8874   3.647   3.134  14.528 -0.1849 -0.5308 -0.1996
  595TMC3     O 8875   3.702   3.195  14.619  0.1761 -0.2794 -0.0258
  595TMC3     H 8876   3.473   2.956  14.445  0.0329  1.6808 -2.1319
  595TMC3    H1 8877   3.508   3.325  14.626  1.4397 -0.0827 -1.5632
  595TMC3    H2 8878   3.120   3.182  14.497 -0.9369 -1.8487  1.7369
  595TMC3    C7 8879   3.243   3.340  14.673 -0.0203 -1.3625  0.2323
  595TMC3    C8 8880   3.204   2.949  14.407  0.5033  0.3391  0.0013
  595TMC3    O1 8881   3.130   3.362  14.653 -0.2606 -0.0141 -0.5184
  595TMC3    O2 8882   3.269   2.869  14.341  0.2862  0.0390 -0.0601
  596MPD2     C 8883   2.011   0.680  16.815  0.1312  0.0974  0.1514
  596MPD2    C1 8884   1.929   0.793  16.788 -0.2076  0.6087  0.5668
  596MPD2    C2 8885   1.871   0.807  16.662  0.3285  0.1983 -0.6190
  596MPD2    C3 8886   1.909   0.721  16.562  0.5851 -0.6021  0.7167
  596MPD2    C4 8887   2.000   0.617  16.589  0.1225 -0.2230  0.4681
  596MPD2    C5 8888   2.050   0.596  16.716  0.4217 -0.4036 -0.0668
  596MPD2     H 8889   1.804   0.891  16.651  0.3294 -0.2834 -4.2880
  596MPD2    H1 8890   2.036   0.561  16.504 -0.6241 -2.3341  1.5187
  596MPD2    H2 8891   2.068   0.662  16.906 -0.9632 -0.6339  0.6972
  596MPD2    H3 8892   2.128   0.526  16.745 -0.5169 -1.1220  0.7252
  596MPD2     N 8893   1.866   0.737  16.425 -0.1802  0.6127 -0.3612
  596MPD2    H5 8894   1.898   0.665  16.361  1.5724  0.2776  0.9063
  596MPD2    N1 8895   1.895   0.887  16.897 -0.0386 -0.9212 -0.7508
  596MPD2    H7 8896   1.815   0.946  16.875 -0.1590 -0.8768 -0.1798
  597TMC3    C1 8897   1.915   1.018  17.080  0.4379 -0.1525 -0.3146
  597TMC3    C2 8898   2.022   1.100  17.116  0.6365 -0.2666 -0.0631
  597TMC3    C3 8899   1.996   1.236  17.128 -0.5488 -0.1654  0.1992
  597TMC3    C4 8900   1.793   1.065  17.049  0.0533  0.2202  0.2997
  597TMC3    C5 8901   1.770   1.202  17.064  0.4817 -0.2128  0.7769
  597TMC3    C6 8902   1.870   1.284  17.104  0.2963 -0.9305  0.8883
  597TMC3     C 8903   1.958   0.901  17.016  0.3641 -0.1884  0.3749
  597TMC3     O 8904   2.069   0.852  17.039 -0.0323 -0.3911 -0.0622
  597TMC3     H 8905   2.118   1.056  17.138  0.0984 -0.4979  1.8302
  597TMC3    H1 8906   1.707   1.006  17.021  0.1029 -0.1314  0.8829
  597TMC3    H2 8907   1.851   1.388  17.128  1.8086  0.3120 -3.3086
  597TMC3    C7 8908   1.635   1.243  17.098  0.9443 -0.0741 -1.5502
  597TMC3    C8 8909   2.082   1.315  17.211 -0.1029  0.0774  0.8876
  597TMC3    O1 8910   1.577   1.172  17.176 -0.5975 -0.0840 -0.1977
  597TMC3    O2 8911   2.057   1.435  17.219 -0.5053  0.8532  0.1824
  598TMC3    C1 8912   4.720   2.305  15.450 -0.1345  0.1028  0.1014
  598TMC3    C2 8913   4.652   2.189  15.420  0.3418  0.9774  0.4770
  598TMC3    C3 8914   4.598   2.187  15.294 -0.2855  0.1575  0.5674
  598TMC3    C4 8915   4.719   2.416  15.366  0.0777 -0.6245 -0.6190
  598TMC3    C5 8916   4.652   2.413  15.247 -0.4126  0.1193  0.6131
  598TMC3    C6 8917   4.590   2.297  15.211 -0.2264 -0.3862  0.5964
  598TMC3     C 8918   0.081   2.302  15.556  0.9340  0.7584  0.1375
  598TMC3     O 8919   0.169   2.388  15.544 -0.4782  1.0209 -0.2242
  598TMC3     H 8920   4.656   2.099  15.480  0.4423  0.8658  0.3012
  598TMC3    H1 8921   0.018   2.510  15.408 -1.2678  0.1545 -1.2606
  598TMC3    H2 8922   4.532   2.298  15.119  1.6145  0.1663 -0.5741
  598TMC3    C7 8923   4.684   2.501  15.135  0.4327 -0.1427 -0.3006
  598TMC3    C8 8924   4.532   2.069  15.245 -0.0557  0.0556 -0.2403
  598TMC3    O1 8925   4.625   2.474  15.031  0.2858  0.5435 -0.2627
  598TMC3    O2 8926   4.527   2.041  15.129  0.2058  0.3219 -0.4282
  599MPD2     C 8927   0.049   4.734  15.880 -0.0671  0.1727 -0.5784
  599MPD2    C1 8928   0.082   4.632  15.966  0.7555 -0.1206  0.0045
  599MPD2    C2 8929   0.040   4.642  16.096 -0.0182 -0.2575  0.7051
  599MPD2    C3 8930   4.694   0.008  16.138  0.5470  0.6533  0.0306
  599MPD2    C4 8931   4.675   0.116  16.052 -0.3228  0.0877 -0.2092
  599MPD2    C5 8932   4.727   0.113  15.925 -0.1462 -0.0934  0.3500
  599MPD2     H 8933   0.077   4.560  16.157  0.7741 -2.0165 -2.1510
  599MPD2    H1 8934   4.623   0.205  16.084 -0.0496  0.0733  0.2787
  599MPD2    H2 8935   0.090   0.004  15.780 -1.4495  2.5629 -1.0279
  599MPD2    H3 8936   4.709   0.202  15.866 -0.3982  0.7219  1.6681
  599MPD2     N 8937   4.639   0.016  16.268  0.4416 -0.8915 -0.8831
  599MPD2    H5 8938   4.594   0.104  16.291  0.6219 -0.9408 -0.3330
  599MPD2    N1 8939   0.161   4.526  15.914  0.5023 -0.2507 -0.1093
  599MPD2    H7 8940   0.193   4.542  15.819  2.4262 -1.7265  0.2805
  600TMC3    C1 8941   4.568   4.694  16.487  0.2679 -0.2100  0.1398
  600TMC3    C2 8942   4.496   4.593  16.545 -0.1563  0.3738  0.2617
  600TMC3    C3 8943   4.407   4.625  16.646 -0.0581 -0.3960 -0.0967
  600TMC3    C4 8944   4.556   0.088  16.535 -0.2530  0.1095  0.4833
  600TMC3    C5 8945   4.482   0.110  16.654  0.3003 -0.2630 -0.7026
  600TMC3    C6 8946   4.406   0.012  16.707 -0.4863 -0.3456 -0.2274
  600TMC3     C 8947   4.632   4.655  16.364  0.8868 -0.0939 -0.1096
  600TMC3     O 8948   4.658   4.537  16.359  0.0678  0.2087  0.5024
  600TMC3     H 8949   4.509   4.490  16.515 -0.9283  0.0598  1.0372
  600TMC3    H1 8950   4.626   0.164  16.502  0.4091 -0.2933  0.9629
  600TMC3    H2 8951   4.350   0.027  16.799  0.6994 -1.1131  0.6348
  600TMC3    C7 8952   4.463   0.247  16.703 -0.0699  0.4829  0.3665
  600TMC3    C8 8953   4.330   4.524  16.723 -0.2794 -0.4998  0.7251
  600TMC3    O1 8954   4.372   0.264  16.784  0.1619  0.6861  0.1676
  600TMC3    O2 8955   4.339   4.518  16.842  0.1701  0.0554 -0.0581
  601MPD2     C 8956   2.434   3.381   0.286 -0.2802  0.3085 -0.1521
  601MPD2    C1 8957   2.386   3.301   0.183 -0.1698  0.0616  0.9465
  601MPD2    C2 8958   2.396   3.165   0.211 -0.6447 -0.2484  0.4724
  601MPD2    C3 8959   2.456   3.114   0.323 -0.0400  0.1949  0.3712
  601MPD2    C4 8960   2.503   3.197   0.428 -0.2429 -0.2372 -0.1522
  601MPD2    C5 8961   2.485   3.330   0.398  0.4635  1.2332  0.1300
  601MPD2     H 8962   2.362   3.098   0.132 -0.9461 -3.4825  3.3361
  601MPD2    H1 8963   2.553   3.167   0.520  1.1110  0.7872 -0.5571
  601MPD2    H2 8964   2.438   3.489   0.283  0.5751  0.3914  4.1001
  601MPD2    H3 8965   2.513   3.407   0.469  2.7187 -0.5021  1.1358
  601MPD2     N 8966   2.478   2.975   0.349  0.3421 -0.0149  0.0055
  601MPD2    H5 8967   2.512   2.947   0.440  0.2979 -1.2211 -0.3519
  601MPD2    N1 8968   2.329   3.349   0.064 -0.0276 -0.0496 -0.7436
  601MPD2    H7 8969   2.267   3.284   0.017  0.7831 -1.2643 -0.1308
  602TMC3    C1 8970   2.237   3.503  17.659 -0.1375  0.3794  0.3981
  602TMC3    C2 8971   2.192   3.630  17.650 -0.3573  1.3217  0.5893
  602TMC3    C3 8972   2.083   3.656  17.570  0.6873  0.1838 -0.6068
  602TMC3    C4 8973   2.166   3.397  17.601  0.3120 -0.1412 -0.3534
  602TMC3    C5 8974   2.060   3.428  17.516  0.6831 -0.4721  0.0242
  602TMC3    C6 8975   2.010   3.557  17.511  0.7031  0.0122 -0.1714
  602TMC3     C 8976   2.334   3.482   0.028 -0.3230  0.5307 -0.3290
  602TMC3     O 8977   2.377   3.580   0.090  0.3752 -0.0881 -0.0311
  602TMC3     H 8978   2.241   3.718  17.689  1.5441  1.1995 -1.4996
  602TMC3    H1 8979   2.203   3.295  17.596 -0.5389 -0.4611 -0.2288
  602TMC3    H2 8980   1.936   3.574  17.434 -1.2338  0.8239  1.8721
  602TMC3    C7 8981   1.975   3.325  17.462 -0.9173  0.2049 -1.0062
  602TMC3    C8 8982   2.017   3.771  17.609  0.6102 -0.3726  0.3675
  602TMC3    O1 8983   1.988   3.289  17.347 -0.1764 -0.2256  0.5075
  602TMC3    O2 8984   2.070   3.881  17.612  0.2620 -0.5877 -0.0202
  603TMC3    C1 8985   0.478   2.757  10.690 -0.0405  0.6203 -0.2445
  603TMC3    C2 8986   0.418   2.823  10.794 -0.2388  0.1853 -0.2192
  603TMC3    C3 8987   0.377   2.952  10.776 -1.0832 -0.7286 -0.0565
  603TMC3    C4 8988   0.479   2.823  10.565  0.0613 -0.1993 -0.0021
  603TMC3    C5 8989   0.414   2.944  10.548 -0.0913 -0.3166 -0.0797
  603TMC3    C6 8990   0.354   3.006  10.652 -0.1231 -0.4527  0.2246
  603TMC3     C 8991   0.602   2.688  10.717  0.0102 -0.3401  0.5544
  603TMC3     O 8992   0.693   2.709  10.639 -0.3697  0.0097 -0.2696
  603TMC3     H 8993   0.417   2.779  10.893  0.3006 -0.4853 -0.5129
  603TMC3    H1 8994   0.539   2.784  10.484  0.6475  2.5742 -0.9031
  603TMC3    H2 8995   0.343   3.113  10.641 -2.0291 -0.5600  1.1022
  603TMC3    C7 8996   0.398   2.991  10.407 -1.0187  0.2513 -0.2107
  603TMC3    C8 8997   0.333   3.022  10.895  0.3732  0.0301 -0.3056
  603TMC3    O1 8998   0.423   2.909  10.320 -0.1124 -0.3056 -0.2440
  603TMC3    O2 8999   0.308   2.951  10.992  0.7928 -0.0566 -0.1163
  604MPD2     C 9000   1.036   2.230  16.736 -0.3353 -0.2220  0.3711
  604MPD2    C1 9001   0.923   2.185  16.667  0.2052 -0.2336 -0.4880
  604MPD2    C2 9002   0.936   2.145  16.537  0.0382 -0.8435 -0.6506
  604MPD2    C3 9003   1.060   2.153  16.474 -0.2652  0.2568  0.0409
  604MPD2    C4 9004   1.169   2.204  16.549  0.0917  0.1253  0.1096
  604MPD2    C5 9005   1.159   2.231  16.685 -0.1359 -0.0234 -0.2480
  604MPD2     H 9006   0.853   2.127  16.470 -0.1694  1.2595 -0.9471
  604MPD2    H1 9007   1.271   2.209  16.514 -0.4891 -1.3461 -1.7939
  604MPD2    H2 9008   1.022   2.255  16.841  0.7915 -1.5369  0.8332
  604MPD2    H3 9009   1.244   2.268  16.741 -0.7612 -2.3728  2.2466
  604MPD2     N 9010   1.069   2.124  16.333 -0.6443 -0.6590  0.3308
  604MPD2    H5 9011   0.985   2.094  16.285  0.8912 -0.7548 -2.3206
  604MPD2    N1 9012   0.801   2.179  16.737 -0.0134  0.2275 -0.0371
  604MPD2    H7 9013   0.798   2.223  16.829 -0.9050 -3.1781  1.5664
  605TMC3    C1 9014   0.575   2.151  16.788  0.6194 -0.3457  0.0499
  605TMC3    C2 9015   0.628   2.186  16.911  0.2159 -0.2317 -0.0989
  605TMC3    C3 9016   0.596   2.309  16.969  0.4750 -0.0663  0.1063
  605TMC3    C4 9017   0.468   2.219  16.742 -0.3766 -0.5577 -0.1938
  605TMC3    C5 9018   0.430   2.332  16.812 -0.6920 -1.2484 -0.0078
  605TMC3    C6 9019   0.496   2.390  16.920  0.3346  0.1067  0.0871
  605TMC3     C 9020   0.681   2.130  16.687  0.0791  0.0465 -0.4295
  605TMC3     O 9021   0.656   2.069  16.584 -0.3208 -0.4157  0.2452
  605TMC3     H 9022   0.698   2.120  16.962 -0.4076 -0.4585  0.4628
  605TMC3    H1 9023   0.422   2.191  16.648  1.1633  1.1603 -1.4671
  605TMC3    H2 9024   0.470   2.485  16.964  0.2756 -0.7494  1.8989
  605TMC3    C7 9025   0.302   2.393  16.766 -0.5393 -0.0365 -0.1816
  605TMC3    C8 9026   0.719   2.373  17.002 -0.2867 -0.4740 -0.4946
  605TMC3    O1 9027   0.290   2.510  16.799  0.0417 -0.2505 -0.1263
  605TMC3    O2 9028   0.813   2.308  16.963  0.2016 -0.3328 -0.1052
  606TMC3    C1 9029   1.502   1.086  17.676 -0.4395  0.1205  0.2006
  606TMC3    C2 9030   1.540   1.041   0.062  0.9678 -0.2109 -0.5787
  606TMC3    C3 9031   1.528   0.910   0.104  0.3366  0.9260  0.3594
  606TMC3    C4 9032   1.455   0.999  17.584 -0.6557 -0.5625 -0.2271
  606TMC3    C5 9033   1.441   0.865  17.622 -0.0084 -0.3370  0.3954
  606TMC3    C6 9034   1.491   0.820   0.009 -0.5219 -0.0562  0.1656
  606TMC3     C 9035   1.545   1.210  17.623  0.0393  0.5677  0.1613
  606TMC3     O 9036   1.483   1.254  17.526 -0.1312 -0.0209 -0.2681
  606TMC3     H 9037   1.601   1.106   0.124  0.0919 -0.2392  0.3080
  606TMC3    H1 9038   1.413   1.030  17.489 -1.4101 -0.2825  0.1947
  606TMC3    H2 9039   1.512   0.716   0.029 -0.3078  0.1350  0.9330
  606TMC3    C7 9040   1.461   0.782  17.502 -0.6113  0.3646  0.2562
  606TMC3    C8 9041   1.631   0.859   0.190 -0.0806  0.5631 -0.4974
  606TMC3    O1 9042   1.503   0.834  17.401  0.1812 -0.1012  0.5118
  606TMC3    O2 9043   1.747   0.903   0.171  0.0317  0.2724  0.7369
  607MPD2     C 9044   4.027   3.439  11.590  0.7332 -0.5522 -0.3547
  607MPD2    C1 9045   4.064   3.531  11.683  0.0115  0.0649 -0.7659
  607MPD2    C2 9046   4.043   3.494  11.815 -0.2590 -0.0131 -0.9680
  607MPD2    C3 9047   3.988   3.373  11.859 -0.4489 -0.4377 -0.1390
  607MPD2    C4 9048   3.966   3.280  11.760  0.0830 -0.5225  0.1518
  607MPD2    C5 9049   3.977   3.317  11.628 -0.0620  0.7818  0.2116
  607MPD2     H 9050   4.082   3.560  11.891 -1.1186 -1.3895  0.6609
  607MPD2    H1 9051   3.942   3.178  11.788  1.0617 -0.6087  0.6854
  607MPD2    H2 9052   4.034   3.448  11.482  2.9711  0.1815 -0.1493
  607MPD2    H3 9053   3.942   3.247  11.553 -2.0113  0.7705  1.1448
  607MPD2     N 9054   3.989   3.353  11.997  0.5006  0.4094  0.1491
  607MPD2    H5 9055   4.010   3.434  12.054  2.0890  0.1986 -0.1583
  607MPD2    N1 9056   4.135   3.656  11.663  0.0119  0.5160  0.0710
  607MPD2    H7 9057   4.175   3.686  11.751  3.2820 -1.1735 -0.8264
  608TMC3    C1 9058   4.241   3.842  11.577 -0.3151 -0.1288 -0.4315
  608TMC3    C2 9059   4.231   3.893  11.702  0.4759 -0.1356  0.5005
  608TMC3    C3 9060   4.316   3.989  11.735  0.0343  0.4473 -0.1920
  608TMC3    C4 9061   4.334   3.886  11.483  0.1679  0.0810  0.2636
  608TMC3    C5 9062   4.422   3.984  11.529 -0.0042  0.0891 -1.2587
  608TMC3    C6 9063   4.415   4.039  11.651  0.5725 -0.3309  1.1879
  608TMC3     C 9064   4.170   3.719  11.545  1.0318  0.2207 -0.2277
  608TMC3     O 9065   4.166   3.670  11.431  0.7367  0.7138 -0.2677
  608TMC3     H 9066   4.145   3.878  11.766  0.4362  0.7398  0.6664
  608TMC3    H1 9067   4.332   3.862  11.377 -0.9082  0.4355  0.1991
  608TMC3    H2 9068   4.500   4.093  11.692 -0.3670 -1.3766  4.5380
  608TMC3    C7 9069   4.513   4.032  11.433  0.2004  0.1438  0.1675
  608TMC3    C8 9070   4.315   4.042  11.864 -0.1999  0.3480 -0.0991
  608TMC3    O1 9071   4.549   3.952  11.346 -0.0712  0.3982 -0.1685
  608TMC3    O2 9072   4.353   4.151  11.894 -0.2805 -0.3761 -0.0459
  609TMC3    C1 9073   2.508   2.863   9.028  0.4629  0.4655 -0.0399
  609TMC3    C2 9074   2.391   2.808   8.979  0.8089 -0.3071  0.4570
  609TMC3    C3 9075   2.405   2.692   8.914  1.0344 -0.1827 -0.1539
  609TMC3    C4 9076   2.632   2.805   9.022  0.1391 -0.6571 -0.0305
  609TMC3    C5 9077   2.646   2.682   8.959 -0.4600  0.4941  0.4433
  609TMC3    C6 9078   2.530   2.627   8.909  0.9508 -0.0254  0.5440
  609TMC3     C 9079   2.491   2.973   9.119 -0.8013 -0.0412  0.1605
  609TMC3     O 9080   2.386   3.034   9.124  0.4036 -0.2563 -0.3796
  609TMC3     H 9081   2.296   2.853   9.005 -0.3873 -3.3444  1.3743
  609TMC3    H1 9082   2.727   2.849   9.049  1.0137 -1.9309 -1.0209
  609TMC3    H2 9083   2.534   2.530   8.861 -1.0366  0.6811 -1.0959
  609TMC3    C7 9084   2.776   2.625   8.962  0.0912 -0.2808 -0.0278
  609TMC3    C8 9085   2.289   2.632   8.848  0.0551  0.2065  0.6553
  609TMC3    O1 9086   2.868   2.698   8.999 -0.4214 -0.3290  0.0950
  609TMC3    O2 9087   2.289   2.512   8.822 -0.1368 -0.3449  0.5198
  610TMC3    C1 9088   4.709   3.073  12.437 -0.2879  0.6101 -0.6513
  610TMC3    C2 9089   4.702   3.203  12.383 -0.9018 -0.7155 -0.7928
  610TMC3    C3 9090   0.050   3.254  12.289 -0.0081 -0.3853  0.4344
  610TMC3    C4 9091   0.080   2.996  12.403 -0.5913 -0.4868 -0.3697
  610TMC3    C5 9092   0.166   3.053  12.314 -0.5408  0.2198  0.0586
  610TMC3    C6 9093   0.154   3.173  12.251 -0.0611 -0.4764 -0.3007
  610TMC3     C 9094   4.615   3.017  12.535 -0.0479  1.1854 -0.1572
  610TMC3     O 9095   4.625   2.896  12.562 -0.7633  0.0501  0.1324
  610TMC3     H 9096   4.609   3.251  12.409  0.7666  1.3344  1.3617
  610TMC3    H1 9097   0.102   2.901  12.450  2.2772  0.3366 -0.0615
  610TMC3    H2 9098   0.213   3.202  12.165 -1.8084 -2.4006 -2.1527
  610TMC3    C7 9099   0.270   2.977  12.249  0.4174 -0.1743  0.6235
  610TMC3    C8 9100   0.060   3.395  12.256  1.1111  0.0170 -0.2531
  610TMC3    O1 9101   0.299   3.011  12.134 -0.0723  0.7177  0.1320
  610TMC3    O2 9102   0.166   3.435  12.212  0.0161  0.3708  0.3947
  611MPD2     C 9103   4.020   3.651   9.892  0.4558  0.2394  0.0243
  611MPD2    C1 9104   4.084   3.586   9.996 -0.0824  0.2529 -0.3200
  611MPD2    C2 9105   4.218   3.613  10.019  0.1634 -0.1537  0.8183
  611MPD2    C3 9106   4.290   3.702   9.942 -0.0399 -0.6345 -0.8812
  611MPD2    C4 9107   4.218   3.773   9.847  0.0541 -0.6649 -0.2588
  611MPD2    C5 9108   4.091   3.747   9.814  0.2905 -0.3178 -0.1151
  611MPD2     H 9109   4.263   3.564  10.105  0.3649 -2.5286 -0.6494
  611MPD2    H1 9110   4.270   3.833   9.773 -0.2533 -1.9104 -1.4715
  611MPD2    H2 9111   3.919   3.627   9.858 -1.1472  4.2496  1.9408
  611MPD2    H3 9112   4.036   3.803   9.740  0.4223  1.0338  0.8117
  611MPD2     N 9113   4.420   3.732   9.973  0.3535 -1.0246 -0.4051
  611MPD2    H5 9114   4.453   3.802   9.907 -1.5658  2.6158  2.5084
  611MPD2    N1 9115   4.026   3.491  10.074 -0.1754 -0.2492 -0.6598
  611MPD2    H7 9116   4.095   3.435  10.123  3.2683  3.4999 -1.2127
  612TMC3    C1 9117   4.629   3.753  10.087  0.3922 -0.5604  0.4690
  612TMC3    C2 9118   4.726   3.687  10.147  0.2163 -0.3458  0.1044
  612TMC3    C3 9119   0.122   3.735  10.140  0.4324 -0.2474 -0.0905
  612TMC3    C4 9120   4.650   3.876  10.034 -0.4885  0.3168 -0.1028
  612TMC3    C5 9121   0.043   3.926  10.029 -0.2183 -0.1460 -0.2286
  612TMC3    C6 9122   0.150   3.860  10.090 -0.0783 -0.0301 -1.1343
  612TMC3     C 9123   4.504   3.672  10.067  0.4521 -0.1681 -0.3172
  612TMC3     O 9124   4.494   3.566  10.117 -0.2166 -0.0236  0.1772
  612TMC3     H 9125   4.718   3.581  10.169 -0.6004  0.0782  1.8889
  612TMC3    H1 9126   4.571   3.934   9.987 -0.9289 -0.6121 -0.5174
  612TMC3    H2 9127   0.254   3.890  10.082  0.1294  0.1308  2.1686
  612TMC3    C7 9128   0.082   4.040   9.948  0.7637 -0.5252  0.0141
  612TMC3    C8 9129   0.231   3.633  10.119 -0.3108  0.2059  0.2714
  612TMC3    O1 9130   0.198   4.073   9.964 -0.0214 -0.5270 -0.3251
  612TMC3    O2 9131   0.335   3.655  10.057 -0.0292  0.1602  0.4304
  613MPD2     C 9132   3.449   0.992  16.680  0.2745  0.3984  0.1237
  613MPD2    C1 9133   3.330   1.057  16.645 -0.0589 -0.2271 -0.7702
  613MPD2    C2 9134   3.205   1.001  16.671 -0.4354  0.3312 -0.4353
  613MPD2    C3 9135   3.212   0.877  16.737 -0.1708 -0.3044  0.1805
  613MPD2    C4 9136   3.331   0.818  16.779  0.5027 -0.0846 -0.4783
  613MPD2    C5 9137   3.447   0.875  16.750 -0.2041 -0.2662  0.6928
  613MPD2     H 9138   3.114   1.048  16.636 -0.4418  0.3984 -0.3294
  613MPD2    H1 9139   3.334   0.723  16.832 -0.2421  0.9673  1.4492
  613MPD2    H2 9140   3.541   1.043  16.652  0.0904  0.6166 -0.0979
  613MPD2    H3 9141   3.542   0.839  16.789  0.0111  0.8932  1.2664
  613MPD2     N 9142   3.094   0.807  16.771  0.0860 -0.8849  0.7749
  613MPD2    H5 9143   3.104   0.720  16.822 -0.0214 -0.2893  1.8120
  613MPD2    N1 9144   3.344   1.173  16.570 -0.4925 -0.0664  0.0329
  613MPD2    H7 9145   3.433   1.185  16.521  0.6527  1.3125  2.4682
  614TMC3    C1 9146   3.226   1.224  16.371  0.2879 -0.4288  0.4622
  614TMC3    C2 9147   3.279   1.106  16.319  0.6155  0.3046 -0.0811
  614TMC3    C3 9148   3.204   1.038  16.227  0.0582 -0.8445 -0.0022
  614TMC3    C4 9149   3.106   1.274  16.313 -0.7724 -0.6153  0.6829
  614TMC3    C5 9150   3.047   1.214  16.211 -0.3677 -0.4653 -0.6569
  614TMC3    C6 9151   3.083   1.085  16.168  0.0087  0.0257 -0.0269
  614TMC3     C 9152   3.236   1.238  16.518 -0.4077  0.2171  0.2875
  614TMC3     O 9153   3.136   1.281  16.578  0.1458  0.5987  0.4728
  614TMC3     H 9154   3.373   1.068  16.359  2.0510  4.0376  0.0607
  614TMC3    H1 9155   3.063   1.367  16.349 -0.8812 -0.2637 -0.3702
  614TMC3    H2 9156   3.041   1.031  16.085  2.8072  1.2212 -2.2152
  614TMC3    C7 9157   2.913   1.257  16.183  1.1022 -0.3437 -0.3878
  614TMC3    C8 9158   3.194   0.901  16.253 -0.1409  0.4197  0.1425
  614TMC3    O1 9159   2.854   1.281  16.287  0.3533  0.0802 -0.5324
  614TMC3    O2 9160   3.094   0.842  16.222  0.0210  0.6639 -0.6221
  615MPD2     C 9161   2.377   2.285  16.114 -0.1790 -0.4221 -0.5103
  615MPD2    C1 9162   2.445   2.397  16.159  0.4748  0.4689  0.9191
  615MPD2    C2 9163   2.455   2.508  16.075 -0.1861 -0.3355  0.3158
  615MPD2    C3 9164   2.397   2.509  15.947  0.0441  0.1985 -0.1935
  615MPD2    C4 9165   2.340   2.397  15.903  0.3436 -0.4856 -0.1519
  615MPD2    C5 9166   2.323   2.286  15.985  0.2456  0.1463 -0.1156
  615MPD2     H 9167   2.502   2.597  16.115 -1.2099  0.9908 -1.4357
  615MPD2    H1 9168   2.273   2.402  15.817 -0.4117  0.8157  0.5223
  615MPD2    H2 9169   2.357   2.199  16.177  1.4067 -2.2592 -2.5590
  615MPD2    H3 9170   2.254   2.208  15.955 -0.4529  1.5584 -2.2189
  615MPD2     N 9171   2.410   2.618  15.859 -0.6539  0.1388 -0.3255
  615MPD2    H5 9172   2.361   2.611  15.770 -0.0206  0.2621 -0.6820
  615MPD2    N1 9173   2.516   2.399  16.277  0.4085  0.3937 -0.3398
  615MPD2    H7 9174   2.565   2.484  16.300  2.3372 -0.5626 -0.9830
  616TMC3    C1 9175   2.604   2.344  16.487  0.5889  0.2258 -0.2135
  616TMC3    C2 9176   2.725   2.270  16.495  0.6906  0.0512 -0.2271
  616TMC3    C3 9177   2.835   2.347  16.516 -0.1480  0.4726 -0.2851
  616TMC3    C4 9178   2.604   2.477  16.502  0.4832 -0.1027 -0.1783
  616TMC3    C5 9179   2.720   2.550  16.518 -0.4793 -0.3297 -0.4755
  616TMC3    C6 9180   2.833   2.481  16.524 -0.0993 -0.6333 -0.0450
  616TMC3     C 9181   2.531   2.301  16.373  0.0737 -0.5654  0.0444
  616TMC3     O 9182   2.498   2.183  16.369  0.9116  0.7398 -0.2964
  616TMC3     H 9183   2.734   2.163  16.509 -0.8206 -0.1748 -0.9997
  616TMC3    H1 9184   2.515   2.540  16.495 -1.0575 -2.3260 -0.6234
  616TMC3    H2 9185   2.924   2.539  16.535 -0.4260 -0.0488 -0.4341
  616TMC3    C7 9186   2.726   2.664  16.431 -0.1510 -0.0750 -0.2985
  616TMC3    C8 9187   2.960   2.282  16.564 -0.4046  0.2647  0.3052
  616TMC3    O1 9188   2.640   2.658  16.345  0.3428 -0.2870  0.0429
  616TMC3    O2 9189   2.981   2.167  16.540  0.1284  0.2493 -0.2822
  617MPD2     C 9190   1.118   0.225  13.586 -0.7101 -0.5873 -0.3383
  617MPD2    C1 9191   1.133   0.231  13.722 -0.1021 -0.1065 -0.0110
  617MPD2    C2 9192   1.030   0.284  13.795  0.0410  0.1254  0.2437
  617MPD2    C3 9193   0.919   0.338  13.730 -0.4582  0.2782  0.3341
  617MPD2    C4 9194   0.914   0.342  13.590  0.2452 -0.0476 -0.5603
  617MPD2    C5 9195   1.008   0.276  13.520  0.0561 -0.5748  0.6238
  617MPD2     H 9196   1.030   0.271  13.903  0.5677  0.6675  0.3064
  617MPD2    H1 9197   0.824   0.373  13.538 -0.1317 -0.1850  0.0113
  617MPD2    H2 9198   1.189   0.170  13.525  0.1729  0.6001 -0.3759
  617MPD2    H3 9199   0.999   0.276  13.412 -0.2600  0.8121  0.6490
  617MPD2     N 9200   0.800   0.379  13.790 -0.2994  0.5805 -0.2747
  617MPD2    H5 9201   0.727   0.413  13.729 -0.0945 -0.2903 -1.0126
  617MPD2    N1 9202   1.247   0.160  13.782 -0.1322  0.2353  0.6160
  617MPD2    H7 9203   1.297   0.101  13.716  0.8175 -0.1172  1.6538
  618TMC3    C1 9204   1.386   0.071  13.948  0.8592 -0.2185 -0.5200
  618TMC3    C2 9205   1.471   0.113  14.047  0.7608 -0.4778 -0.5331
  618TMC3    C3 9206   1.573   0.034  14.080  0.4945 -0.6690 -0.1102
  618TMC3    C4 9207   1.384   4.680  13.893  0.3048 -0.4237 -0.1879
  618TMC3    C5 9208   1.494   4.610  13.923 -0.1091 -0.1493 -0.0591
  618TMC3    C6 9209   1.583   4.644  14.021  0.0823  0.1402 -0.8590
  618TMC3     C 9210   1.272   0.158  13.921 -0.2481  0.1458  1.0525
  618TMC3     O 9211   1.218   0.221  14.011  0.1284  0.9539  1.1612
  618TMC3     H 9212   1.471   0.215  14.083  1.7052 -0.7539  0.2568
  618TMC3    H1 9213   1.304   4.646  13.828 -1.0909  0.8419  0.8620
  618TMC3    H2 9214   1.659   4.572  14.048 -0.4623  0.8845  2.6239
  618TMC3    C7 9215   1.504   4.475  13.873 -0.5186 -0.5779 -0.1753
  618TMC3    C8 9216   1.662   0.082  14.184  0.6828  0.6211 -0.2573
  618TMC3    O1 9217   1.403   4.415  13.846  0.3855 -0.0702  0.7707
  618TMC3    O2 9218   1.614   0.147  14.275 -0.5434  0.1697 -0.6040
  619MPD2     C 9219   2.241   1.229  13.839  0.1347 -0.4531  0.0686
  619MPD2    C1 9220   2.201   1.342  13.767  0.6713 -0.8827 -0.4036
  619MPD2    C2 9221   2.067   1.376  13.769  0.0237 -0.4655 -0.5090
  619MPD2    C3 9222   1.970   1.298  13.835 -0.1191 -0.5012 -0.3749
  619MPD2    C4 9223   2.011   1.189  13.900  0.0036  0.4274 -0.0194
  619MPD2    C5 9224   2.151   1.158  13.908  0.0469  0.5792  0.2715
  619MPD2     H 9225   2.044   1.464  13.710  0.1994 -0.7266 -0.9655
  619MPD2    H1 9226   1.943   1.134  13.964  0.8713  2.5571  2.7784
  619MPD2    H2 9227   2.344   1.198  13.853 -0.2781 -1.4371  0.9117
  619MPD2    H3 9228   2.185   1.073  13.966 -0.6826 -0.5149 -0.9220
  619MPD2     N 9229   1.826   1.317  13.828  0.0538  0.3961 -1.0902
  619MPD2    H5 9230   1.765   1.245  13.865  1.5293 -0.8120 -0.9939
  619MPD2    N1 9231   2.282   1.429  13.689 -0.4534 -0.0028 -0.7169
  619MPD2    H7 9232   2.238   1.509  13.645  0.5721  0.8844 -0.1526
  620TMC3    C1 9233   2.464   1.497  13.562 -0.8517 -0.1573  0.7689
  620TMC3    C2 9234   2.381   1.552  13.467  0.0008  0.4499 -0.4653
  620TMC3    C3 9235   2.412   1.676  13.416 -0.0217  0.4779 -0.1415
  620TMC3    C4 9236   2.566   1.573  13.612 -0.5278 -0.2752  0.1600
  620TMC3    C5 9237   2.591   1.703  13.572  0.0415 -0.3002  0.2541
  620TMC3    C6 9238   2.522   1.750  13.462 -0.2069 -0.3197  0.2747
  620TMC3     C 9239   2.412   1.405  13.653  0.2050  0.3784  0.8488
  620TMC3     O 9240   2.488   1.326  13.714 -0.6476  0.2632 -0.1897
  620TMC3     H 9241   2.298   1.496  13.426 -0.8783 -0.7909  2.9777
  620TMC3    H1 9242   2.614   1.543  13.704 -2.2429 -0.7169  0.9025
  620TMC3    H2 9243   2.541   1.851  13.428  1.0541  0.1625  2.3780
  620TMC3    C7 9244   2.632   1.794  13.674 -0.6539 -0.1083  0.1574
  620TMC3    C8 9245   2.357   1.726  13.284  0.2886 -0.5328  0.2097
  620TMC3    O1 9246   2.730   1.757  13.746 -0.5182  0.3174  0.6082
  620TMC3    O2 9247   2.447   1.763  13.210  0.1706 -0.1363 -0.5368
  621MPD2     C 9248   1.975   2.721  10.764 -0.1557  0.8860  0.0156
  621MPD2    C1 9249   1.999   2.663  10.637 -0.4804 -0.2814 -0.5811
  621MPD2    C2 9250   2.071   2.744  10.547  1.1480  0.1186  0.6258
  621MPD2    C3 9251   2.135   2.860  10.586  0.0758 -0.3781  0.2322
  621MPD2    C4 9252   2.113   2.910  10.712  0.0529  0.1770 -0.2277
  621MPD2    C5 9253   2.039   2.837  10.802 -0.5344 -0.8668  0.1267
  621MPD2     H 9254   2.100   2.704  10.450 -0.2255 -0.8717  0.6271
  621MPD2    H1 9255   2.153   3.005  10.747 -0.4828  0.0211  0.8059
  621MPD2    H2 9256   1.916   2.672  10.840  0.4819 -1.4405 -0.9755
  621MPD2    H3 9257   2.015   2.887  10.895  0.4012  1.6823 -0.9797
  621MPD2     N 9258   2.205   2.939  10.487 -0.5212  0.3627  0.6641
  621MPD2    H5 9259   2.196   2.908  10.390 -0.9121 -2.2677  1.5346
  621MPD2    N1 9260   1.950   2.534  10.599  0.6577 -0.4857 -0.1016
  621MPD2    H7 9261   1.992   2.497  10.514 -1.1261 -0.6304 -0.9416
  622TMC3    C1 9262   1.790   2.352  10.592  0.4366 -0.4724 -0.3751
  622TMC3    C2 9263   1.661   2.319  10.618 -0.2207 -0.0420  0.1065
  622TMC3    C3 9264   1.625   2.187  10.591 -0.6121 -0.8314  0.6024
  622TMC3    C4 9265   1.881   2.265  10.536 -0.1475  0.3342 -0.5294
  622TMC3    C5 9266   1.836   2.139  10.511  0.1001  0.0851  0.1908
  622TMC3    C6 9267   1.709   2.094  10.544  0.1328  0.3888  0.1283
  622TMC3     C 9268   1.837   2.469  10.659 -0.6544  0.3150  0.1147
  622TMC3     O 9269   1.763   2.519  10.744 -0.2148  0.1407  0.2529
  622TMC3     H 9270   1.596   2.389  10.671  0.7363  0.4618  0.6146
  622TMC3    H1 9271   1.985   2.290  10.516  0.2368  0.4849  1.6328
  622TMC3    H2 9272   1.677   1.991  10.536 -1.1717  0.8744 -0.9959
  622TMC3    C7 9273   1.926   2.044  10.451  0.0590  0.6246  0.3729
  622TMC3    C8 9274   1.485   2.157  10.573 -0.3017  0.4353  0.0379
  622TMC3    O1 9275   1.920   1.927  10.475  0.1846  0.5520  0.0708
  622TMC3    O2 9276   1.462   2.039  10.586 -0.0669  0.5989  0.0856
  623MPD2     C 9277   1.138   2.456  16.124 -0.3412  0.4932  0.3959
  623MPD2    C1 9278   1.048   2.456  16.235  0.5972 -1.0411  0.6903
  623MPD2    C2 9279   1.106   2.469  16.361 -0.3165  0.2785  0.3581
  623MPD2    C3 9280   1.236   2.506  16.378  0.1651 -0.3642 -0.7822
  623MPD2    C4 9281   1.314   2.529  16.265  0.0648  0.6941 -0.3738
  623MPD2    C5 9282   1.270   2.494  16.133  0.2854 -0.0678  0.9155
  623MPD2     H 9283   1.046   2.478  16.451 -0.5637  2.2105  0.0046
  623MPD2    H1 9284   1.416   2.567  16.265  0.8584 -1.4304  0.1588
  623MPD2    H2 9285   1.091   2.441  16.027 -0.1684  0.0987  0.3742
  623MPD2    H3 9286   1.339   2.482  16.050 -0.8855 -1.1539  0.0862
  623MPD2     N 9287   1.281   2.523  16.513 -0.1523 -0.2724 -0.1869
  623MPD2    H5 9288   1.219   2.488  16.585  0.0870  2.4423  1.3666
  623MPD2    N1 9289   0.908   2.444  16.225 -0.2937  0.0093 -0.2555
  623MPD2    H7 9290   0.863   2.451  16.316  0.6753  0.1333  0.2139
  624TMC3    C1 9291   1.559   2.643  16.876  0.2621 -1.2421  0.5387
  624TMC3    C2 9292   1.452   2.636  16.963  0.1432  0.6922 -0.4582
  624TMC3    C3 9293   1.330   2.581  16.909 -0.3994  0.3428  0.3088
  624TMC3    C4 9294   1.547   2.621  16.738 -0.3577  0.2969 -0.5150
  624TMC3    C5 9295   1.418   2.590  16.697  0.0565  0.2243  0.1534
  624TMC3    C6 9296   1.313   2.555  16.776  0.3547 -0.3262 -1.1871
  624TMC3     C 9297   1.686   2.676  16.942  0.0349 -0.6364 -0.4454
  624TMC3     O 9298   1.685   2.703  17.060 -0.2407 -0.1060  0.5606
  624TMC3     H 9299   1.459   2.661  17.068  0.6002 -2.1310  0.1766
  624TMC3    H1 9300   1.630   2.617  16.668 -1.1037 -2.3631 -1.2397
  624TMC3    H2 9301   1.213   2.528  16.741 -0.3079  0.9616 -0.2862
  624TMC3    C7 9302   1.397   2.589  16.551  0.1020  0.4019 -0.2049
  624TMC3    C8 9303   1.224   2.528  16.991  0.2076  0.2519 -0.7162
  624TMC3    O1 9304   1.461   2.667  16.486  0.3778 -0.3701 -0.3776
  624TMC3    O2 9305   1.180   2.423  16.951  0.0076  0.2027 -0.3594
  625MPD2     C 9306   1.697   3.491   0.831 -0.1067 -0.1194 -0.0268
  625MPD2    C1 9307   1.694   3.631   0.824  0.0069 -0.0379 -0.2331
  625MPD2    C2 9308   1.802   3.708   0.789 -0.0782 -0.0940  0.5396
  625MPD2    C3 9309   1.917   3.643   0.769 -0.5331  0.1670  0.0290
  625MPD2    C4 9310   1.931   3.504   0.781  0.0217  0.2765  0.9923
  625MPD2    C5 9311   1.820   3.430   0.813 -0.0188  0.0448 -0.4288
  625MPD2     H 9312   1.794   3.815   0.777  0.7556 -0.3246 -1.9645
  625MPD2    H1 9313   2.029   3.460   0.761 -0.2694 -0.4630  1.1933
  625MPD2    H2 9314   1.606   3.432   0.840 -0.5776  0.6277  0.0671
  625MPD2    H3 9315   1.840   3.325   0.824 -1.7225 -0.2932 -0.5454
  625MPD2     N 9316   2.028   3.728   0.726 -0.1319  0.5605 -0.9719
  625MPD2    H5 9317   2.009   3.828   0.729 -0.9273  0.5012 -4.6675
  625MPD2    N1 9318   1.575   3.699   0.845 -0.2616 -0.0633 -0.5879
  625MPD2    H7 9319   1.581   3.797   0.818 -0.2216  0.0793 -0.0621
  626TMC3    C1 9320   1.345   3.726   0.880  0.4149  0.3177  0.2623
  626TMC3    C2 9321   1.348   3.852   0.827  0.0991  0.4098  0.0245
  626TMC3    C3 9322   1.233   3.921   0.806 -0.1458  0.6671  0.1201
  626TMC3    C4 9323   1.225   3.679   0.914  0.1171 -0.1132 -0.3423
  626TMC3    C5 9324   1.109   3.752   0.889  0.2356 -0.2224 -0.0787
  626TMC3    C6 9325   1.112   3.875   0.826  0.0852  0.4324 -0.1249
  626TMC3     C 9326   1.460   3.646   0.898 -0.0506  0.0684 -0.0189
  626TMC3     O 9327   1.442   3.534   0.949 -0.2967 -0.1508  0.1285
  626TMC3     H 9328   1.447   3.897   0.826 -0.2474  1.1651 -1.2328
  626TMC3    H1 9329   1.210   3.580   0.955 -1.5982  0.3976  0.2956
  626TMC3    H2 9330   1.022   3.930   0.801 -0.6102 -0.4389  0.4595
  626TMC3    C7 9331   0.980   3.696   0.916 -0.0157  0.2053 -0.0770
  626TMC3    C8 9332   1.248   4.048   0.731  0.6553  0.7504  0.0098
  626TMC3    O1 9333   0.987   3.579   0.955 -0.0462 -0.1710  0.1046
  626TMC3    O2 9334   1.364   4.082   0.715  0.7588 -0.7478  0.2025
  627MPD2     C 9335   4.701   4.067  14.371  0.5181  0.4348  0.1148
  627MPD2    C1 9336   0.025   4.021  14.490  0.6009 -0.2045  0.6506
  627MPD2    C2 9337   4.716   3.894  14.540 -0.3324 -0.0898 -0.7672
  627MPD2    C3 9338   4.625   3.824  14.467  0.0424  0.3892 -0.5534
  627MPD2    C4 9339   4.577   3.876  14.345 -0.0861  0.2293 -0.6042
  627MPD2    C5 9340   4.620   3.996  14.295 -0.0029  0.0631  0.4132
  627MPD2     H 9341   0.022   3.851  14.631  0.8051  0.7010 -0.8957
  627MPD2    H1 9342   4.493   3.830  14.295 -0.1987 -2.2020  1.7676
  627MPD2    H2 9343   4.718   4.167  14.334 -3.0060  0.6698 -0.8666
  627MPD2    H3 9344   4.580   4.028  14.200  1.4701 -2.2434 -1.0026
  627MPD2     N 9345   4.574   3.706  14.523  0.0542  0.2927 -0.3482
  627MPD2    H5 9346   4.582   3.692  14.623 -3.9019 -0.0188 -0.0866
  627MPD2    N1 9347   0.126   4.095  14.558 -0.0463 -0.3306 -0.1802
  627MPD2    H7 9348   0.172   4.051  14.638 -0.7901  0.0812  0.4739
  628TMC3    C1 9349   0.299   4.236  14.578  0.4358  0.1374  0.3603
  628TMC3    C2 9350   0.382   4.129  14.571 -0.0023  0.1506 -0.1197
  628TMC3    C3 9351   0.522   4.142  14.575 -0.4895 -0.3039  0.2487
  628TMC3    C4 9352   0.351   4.364  14.571  0.3319 -0.2066  0.0032
  628TMC3    C5 9353   0.491   4.370  14.569 -0.3933 -0.4158  0.6965
  628TMC3    C6 9354   0.576   4.261  14.578 -0.1400 -0.7255  0.4824
  628TMC3     C 9355   0.169   4.220  14.527  0.0368 -0.6106 -0.2004
  628TMC3     O 9356   0.137   4.305  14.443 -0.5198 -0.1241  0.4033
  628TMC3     H 9357   0.355   4.026  14.552 -1.3738  0.1025  2.1672
  628TMC3    H1 9358   0.285   4.446  14.546 -1.5174 -1.6001  0.3035
  628TMC3    H2 9359   0.678   4.271  14.613 -0.0965 -1.4312  0.5579
  628TMC3    C7 9360   0.556   4.491  14.608  0.4102  0.3084 -0.8169
  628TMC3    C8 9361   0.610   4.031  14.612  0.3270 -0.3231 -0.2081
  628TMC3    O1 9362   0.649   4.481  14.689  0.2973 -0.2858  0.7000
  628TMC3    O2 9363   0.724   4.040  14.569 -0.1848  0.5889  0.4641
  629MPD2     C 9364   3.454   2.309  16.722  0.1422 -0.1799  0.0447
  629MPD2    C1 9365   3.407   2.435  16.709  0.6757 -0.5790  0.0557
  629MPD2    C2 9366   3.280   2.450  16.679 -0.1987 -0.4675 -0.4262
  629MPD2    C3 9367   3.193   2.347  16.651 -0.1550 -0.5185  0.1605
  629MPD2    C4 9368   3.249   2.212  16.640  0.6997 -0.0184  0.0620
  629MPD2    C5 9369   3.374   2.204  16.696 -0.5375 -0.3071 -0.8131
  629MPD2     H 9370   3.235   2.548  16.674 -1.3212 -0.9045  1.0004
  629MPD2    H1 9371   3.190   2.123  16.620 -2.3431  2.0102  0.0171
  629MPD2    H2 9372   3.558   2.293  16.747  1.0414  1.1353 -2.8215
  629MPD2    H3 9373   3.417   2.107  16.716 -0.1884 -0.1777 -0.9337
  629MPD2     N 9374   3.055   2.372  16.622 -0.3088  0.2809 -0.5807
  629MPD2    H5 9375   3.019   2.464  16.647  2.6728  0.9102  1.3543
  629MPD2    N1 9376   3.500   2.535  16.741 -0.1829  0.5149  0.3754
  629MPD2    H7 9377   3.589   2.494  16.768 -0.3459  0.6295  1.1048
  630TMC3    C1 9378   3.583   2.752  16.779 -0.3315  0.7972  0.2137
  630TMC3    C2 9379   3.613   2.870  16.721  0.4283 -1.4423 -0.8569
  630TMC3    C3 9380   3.708   2.946  16.775  0.3809 -0.9908  0.5014
  630TMC3    C4 9381   3.637   2.712  16.901 -0.1178 -0.0050 -0.2806
  630TMC3    C5 9382   3.726   2.803  16.962  0.3080 -0.4029  0.6227
  630TMC3    C6 9383   3.762   2.919  16.896  0.1261 -0.1630  0.7259
  630TMC3     C 9384   3.478   2.671  16.722  0.0970  0.4031 -0.3346
  630TMC3     O 9385   3.393   2.731  16.656  0.0133  0.3507  0.3341
  630TMC3     H 9386   3.565   2.885  16.625  0.6724  0.9998 -0.5987
  630TMC3    H1 9387   3.606   2.628  16.962  1.1856 -0.5163 -0.3290
  630TMC3    H2 9388   3.843   2.986  16.921 -1.8255  2.4651  0.0745
  630TMC3    C7 9389   3.777   2.772  17.092 -0.0903 -0.2938  0.2417
  630TMC3    C8 9390   3.793   3.016  16.681  0.4674  0.0876 -1.4771
  630TMC3    O1 9391   3.763   2.660  17.145 -0.4539  0.3149  0.2667
  630TMC3    O2 9392   3.896   3.067  16.727 -0.7044 -0.2458  0.0062
  631MPD2     C 9393   2.137   2.560  15.065 -0.3510 -0.0715  0.3864
  631MPD2    C1 9394   2.059   2.551  15.178 -0.4270  0.8340  0.2950
  631MPD2    C2 9395   2.105   2.607  15.297  0.0158  0.2239  0.0230
  631MPD2    C3 9396   2.219   2.680  15.295 -0.6414 -0.2129 -0.1955
  631MPD2    C4 9397   2.298   2.679  15.180 -0.7874  0.3512  0.1749
  631MPD2    C5 9398   2.260   2.616  15.068 -0.0180 -0.0974  0.0810
  631MPD2     H 9399   2.042   2.613  15.384 -0.3570  1.6957 -0.3462
  631MPD2    H1 9400   2.396   2.725  15.171 -0.2478 -0.9731 -0.6735
  631MPD2    H2 9401   2.102   2.532  14.966 -2.8443 -0.3504  1.3600
  631MPD2    H3 9402   2.328   2.623  14.985  0.0130 -0.4891  0.0742
  631MPD2     N 9403   2.259   2.751  15.414  0.4341 -0.2088 -0.0235
  631MPD2    H5 9404   2.214   2.714  15.497  1.0829 -2.3273 -0.6029
  631MPD2    N1 9405   1.921   2.522  15.166 -0.2011  0.2593  0.1490
  631MPD2    H7 9406   1.892   2.515  15.069 -3.4445  0.2553  1.1124
  632TMC3    C1 9407   1.691   2.542  15.225 -0.1619  0.1194  0.4352
  632TMC3    C2 9408   1.607   2.562  15.332  0.6400 -0.4010  0.4328
  632TMC3    C3 9409   1.506   2.653  15.310  0.0832  0.1747  0.2428
  632TMC3    C4 9410   1.679   2.608  15.102 -0.3406 -0.3009  0.4735
  632TMC3    C5 9411   1.570   2.691  15.083 -0.1961 -0.0833 -0.0800
  632TMC3    C6 9412   1.491   2.722  15.192  0.3825 -0.5580  0.5059
  632TMC3     C 9413   1.829   2.509  15.265  0.4173 -0.2672  0.2723
  632TMC3     O 9414   1.849   2.479  15.383 -0.0200 -0.3973 -0.3309
  632TMC3     H 9415   1.624   2.513  15.427 -1.9448 -2.9267 -0.4252
  632TMC3    H1 9416   1.747   2.579  15.023  2.1491  1.3313  2.0259
  632TMC3    H2 9417   1.408   2.787  15.166 -0.5223 -1.6869  0.5891
  632TMC3    C7 9418   1.554   2.742  14.945 -0.4063 -0.4914 -0.3136
  632TMC3    C8 9419   1.437   2.709  15.421 -0.1711 -0.2451  0.2083
  632TMC3    O1 9420   1.636   2.703  14.864 -0.4958 -0.7469 -0.2581
  632TMC3    O2 9421   1.325   2.746  15.395  0.6178 -0.2792 -0.0750
  633MPD2     C 9422   1.067   0.628  17.424  0.5817  0.2899  0.3772
  633MPD2    C1 9423   1.133   0.563  17.322  0.3562  0.9768  0.2921
  633MPD2    C2 9424   1.139   0.426  17.332 -0.0798  0.0995  0.0061
  633MPD2    C3 9425   1.083   0.356  17.439  0.0825 -0.0286 -0.3083
  633MPD2    C4 9426   1.022   0.429  17.539 -0.4949  0.6871  0.0637
  633MPD2    C5 9427   1.036   0.560  17.538 -0.6336  0.4321  0.6348
  633MPD2     H 9428   1.185   0.381  17.245  0.8412 -0.9837  1.0607
  633MPD2    H1 9429   0.971   0.384  17.623 -0.7642 -0.3109 -0.6291
  633MPD2    H2 9430   1.052   0.735  17.419 -0.1646  0.1612 -0.2508
  633MPD2    H3 9431   1.001   0.613  17.626 -2.4582  2.0311 -1.0500
  633MPD2     N 9432   1.098   0.219  17.469 -0.1623  0.2386  0.2980
  633MPD2    H5 9433   1.068   0.192  17.562 -1.4719 -1.3196 -0.5768
  633MPD2    N1 9434   1.196   0.632  17.216  0.0415 -0.6527 -0.0881
  633MPD2    H7 9435   1.241   0.578  17.143  2.2126  1.3129 -0.2000
  634TMC3    C1 9436   1.292   0.813  17.095 -0.3849  0.0491 -0.3108
  634TMC3    C2 9437   1.377   0.719  17.037  0.0525  0.0787  0.2574
  634TMC3    C3 9438   1.436   0.761  16.925  0.8059  0.1343  0.3040
  634TMC3    C4 9439   1.263   0.939  17.048  0.4278 -0.3373  0.2494
  634TMC3    C5 9440   1.332   0.976  16.938 -0.1304  0.1381  0.3429
  634TMC3    C6 9441   1.420   0.891  16.876  0.7006  0.5533  0.0748
  634TMC3     C 9442   1.220   0.773  17.210  0.1793  0.5966 -0.0486
  634TMC3     O 9443   1.179   0.868  17.278  0.7219  0.0739  0.3006
  634TMC3     H 9444   1.408   0.628  17.087 -0.5020  0.1339  0.7018
  634TMC3    H1 9445   1.194   1.002  17.101 -0.6503 -2.1523  1.0193
  634TMC3    H2 9446   1.472   0.923  16.786  0.9947 -2.3791 -0.7958
  634TMC3    C7 9447   1.337   1.111  16.885  0.5963  0.1226 -0.0646
  634TMC3    C8 9448   1.541   0.684  16.865 -0.2731 -1.0267 -0.3712
  634TMC3    O1 9449   1.354   1.118  16.765  0.4360 -0.1059  0.3004
  634TMC3    O2 9450   1.602   0.603  16.929  0.3462  0.1337 -0.9521
  635TMC3    C1 9451   2.164   1.747   0.306 -0.8235 -0.4159 -0.7941
  635TMC3    C2 9452   2.055   1.682   0.343 -0.5568 -0.1682 -0.6626
  635TMC3    C3 9453   2.055   1.551   0.377 -0.2517  0.1650  0.0434
  635TMC3    C4 9454   2.277   1.678   0.289  0.3307  0.0372 -0.1581
  635TMC3    C5 9455   2.280   1.539   0.317 -0.5706 -0.5233  0.0142
  635TMC3    C6 9456   2.168   1.481   0.365 -0.4934 -0.0326 -0.3291
  635TMC3     C 9457   2.172   1.887   0.309 -0.2023 -0.7612 -0.7318
  635TMC3     O 9458   2.280   1.941   0.334 -0.1859  0.1891 -0.4151
  635TMC3     H 9459   1.968   1.743   0.369  0.0407  0.7824 -0.8880
  635TMC3    H1 9460   2.364   1.739   0.268  0.3369  0.5405  1.3048
  635TMC3    H2 9461   2.170   1.374   0.384  1.0775 -0.2623 -1.8155
  635TMC3    C7 9462   2.404   1.464   0.343  0.3742  0.0096  0.9914
  635TMC3    C8 9463   1.924   1.482   0.382  0.4014  0.1251 -0.1547
  635TMC3    O1 9464   2.413   1.389   0.439  0.5193 -0.0906 -0.4179
  635TMC3    O2 9465   1.833   1.562   0.408 -0.3273 -0.4119  0.0294
  636MPD2     C 9466   2.256   1.127  16.356  0.6170  0.0025 -0.1144
  636MPD2    C1 9467   2.359   1.186  16.426  0.1424  1.6104 -0.1294
  636MPD2    C2 9468   2.429   1.101  16.505 -0.4985  0.5954  0.2413
  636MPD2    C3 9469   2.418   0.965  16.501  0.0592  0.0029 -0.1445
  636MPD2    C4 9470   2.324   0.906  16.418 -0.1181 -0.7913  0.4346
  636MPD2    C5 9471   2.236   0.993  16.358 -0.2516  0.9417 -0.5231
  636MPD2     H 9472   2.502   1.144  16.572  0.7524  0.0557 -0.7767
  636MPD2    H1 9473   2.300   0.802  16.399  3.4557 -1.2299 -1.6134
  636MPD2    H2 9474   2.181   1.183  16.303  0.4520 -1.6997 -1.6909
  636MPD2    H3 9475   2.154   0.946  16.305  0.6121 -1.6199  0.3993
  636MPD2     N 9476   2.520   0.890  16.564 -0.2036 -0.9836  0.6910
  636MPD2    H5 9477   2.568   0.946  16.633  2.6898 -1.5561 -0.8143
  636MPD2    N1 9478   2.393   1.321  16.422  0.0703 -0.3023  0.1014
  636MPD2    H7 9479   2.462   1.352  16.490  0.2830 -1.6701  0.5024
  637TMC3    C1 9480   2.683   0.715  16.609 -0.6698 -0.8588 -0.1018
  637TMC3    C2 9481   2.746   0.788  16.716  0.3613 -0.4357  0.1064
  637TMC3    C3 9482   2.863   0.737  16.754 -0.1931  0.0781 -0.1966
  637TMC3    C4 9483   2.733   0.599  16.554 -0.1215  0.0193  0.3639
  637TMC3    C5 9484   2.850   0.547  16.601  0.1281  0.2967 -0.5655
  637TMC3    C6 9485   2.908   0.613  16.707  0.2748  1.2128 -0.1739
  637TMC3     C 9486   2.565   0.769  16.535 -0.5071  0.1602 -0.0308
  637TMC3     O 9487   2.511   0.695  16.457 -0.1441 -0.0160 -0.3929
  637TMC3     H 9488   2.708   0.886  16.740 -1.7283 -1.1196 -0.3851
  637TMC3    H1 9489   2.686   0.551  16.468 -0.5202  1.4978 -0.2497
  637TMC3    H2 9490   2.998   0.576  16.754 -0.5199 -0.1953  0.2532
  637TMC3    C7 9491   2.929   0.506  16.488  0.1038 -0.0939 -0.2767
  637TMC3    C8 9492   2.965   0.843  16.744  0.4426 -1.0125 -0.6449
  637TMC3    O1 9493   2.892   0.549  16.379  0.0626  0.1756 -0.3524
  637TMC3    O2 9494   2.928   0.948  16.696  0.2065  0.3045  0.0507
  638MPD2     C 9495   2.759   4.644  14.996  0.0451  0.5581 -1.0876
  638MPD2    C1 9496   2.711   4.536  14.921 -0.0630  0.4466  0.3858
  638MPD2    C2 9497   2.627   4.447  14.988 -0.8093  0.4158 -0.3343
  638MPD2    C3 9498   2.610   4.454  15.123  0.8340 -0.0199 -0.5114
  638MPD2    C4 9499   2.672   4.558  15.192  0.5114 -1.5283  0.0464
  638MPD2    C5 9500   2.746   4.651  15.130  0.7542 -1.0007 -0.8429
  638MPD2     H 9501   2.570   4.380  14.924 -0.2396  0.1601 -0.5733
  638MPD2    H1 9502   2.657   4.578  15.298  2.5678 -1.7356  0.3786
  638MPD2    H2 9503   2.818   4.722  14.950 -0.4180  0.6824 -1.4665
  638MPD2    H3 9504   2.785   0.000  15.185  0.3106 -0.2432 -1.6916
  638MPD2     N 9505   2.525   4.354  15.185 -0.5872  0.3669  0.1831
  638MPD2    H5 9506   2.482   4.290  15.118  0.9795 -1.5319  0.9791
  638MPD2    N1 9507   2.747   4.516  14.781 -0.4742 -1.0736  0.3159
  638MPD2    H7 9508   2.803   4.591  14.741 -0.1359 -0.6575  1.5829
  639TMC3    C1 9509   2.468   4.205  15.337 -0.4786 -0.0535 -0.0402
  639TMC3    C2 9510   2.404   4.146  15.229  0.1184  0.6174  0.5574
  639TMC3    C3 9511   2.443   4.014  15.209  0.3505 -0.5811 -0.0729
  639TMC3    C4 9512   2.548   4.130  15.426  0.7626 -0.0079 -0.3876
  639TMC3    C5 9513   2.572   3.994  15.403 -0.1424  0.0933 -0.1172
  639TMC3    C6 9514   2.532   3.939  15.285  0.0731 -0.6842 -0.0830
  639TMC3     C 9515   2.521   4.338  15.320  0.1621  0.3916 -0.0215
  639TMC3     O 9516   2.584   4.387  15.412  0.0794 -0.1139 -0.1173
  639TMC3     H 9517   2.340   4.191  15.154 -1.3210  1.5241  2.3423
  639TMC3    H1 9518   2.604   4.181  15.504  1.5459 -1.0754 -0.2363
  639TMC3    H2 9519   2.549   3.834  15.261  0.7631 -0.6391  0.2032
  639TMC3    C7 9520   2.697   3.949  15.465  0.5492  0.2301  0.4912
  639TMC3    C8 9521   2.384   3.935  15.110  0.1547 -0.1061  0.2391
  639TMC3    O1 9522   2.728   3.979  15.580 -0.5642 -0.4290 -0.1074
  639TMC3    O2 9523   2.454   3.856  15.055  0.1170  0.0652 -0.9042
  640MPD2     C 9524   2.986   3.797   9.708  0.5211  0.8541  0.1131
  640MPD2    C1 9525   2.930   3.811   9.583 -0.7065 -0.0889 -0.0324
  640MPD2    C2 9526   2.897   3.936   9.534 -0.3613 -0.4225  0.2836
  640MPD2    C3 9527   2.949   4.052   9.591  0.0839 -0.9106  0.2525
  640MPD2    C4 9528   3.012   4.039   9.718  0.6618 -0.0605 -0.1698
  640MPD2    C5 9529   3.023   3.918   9.776 -0.2167  0.2993  0.1552
  640MPD2     H 9530   2.845   3.929   9.439  1.4662 -0.9265 -0.6771
  640MPD2    H1 9531   3.042   4.127   9.775  2.0060  0.2711 -1.4035
  640MPD2    H2 9532   3.009   3.704   9.758  1.7979  0.7354 -0.7046
  640MPD2    H3 9533   3.078   3.914   9.869  1.6516 -0.3262 -0.9764
  640MPD2     N 9534   2.933   4.184   9.534 -0.9243 -0.2960  0.7461
  640MPD2    H5 9535   2.968   4.263   9.587 -0.1444  0.1241 -0.4208
  640MPD2    N1 9536   2.905   3.684   9.515  0.3063 -0.2010  0.0088
  640MPD2    H7 9537   2.919   3.596   9.564 -0.8598 -0.3252  0.1345
  641TMC3    C1 9538   2.871   3.543   9.341  0.3627  0.2572  0.2783
  641TMC3    C2 9539   2.970   3.456   9.393  0.2660  0.1872 -0.2656
  641TMC3    C3 9540   2.982   3.331   9.336  0.3022  0.2408 -0.8352
  641TMC3    C4 9541   2.803   3.510   9.231 -0.0986 -0.0277  0.4026
  641TMC3    C5 9542   2.820   3.387   9.179 -0.9017 -0.1528 -0.2125
  641TMC3    C6 9543   2.909   3.297   9.225  0.4382  0.3631 -0.6410
  641TMC3     C 9544   2.872   3.682   9.382  0.4503  0.4686 -0.8188
  641TMC3     O 9545   2.847   3.761   9.295  0.4455  0.3909 -0.1012
  641TMC3     H 9546   3.047   3.483   9.464 -0.5936 -2.2121  1.5892
  641TMC3    H1 9547   2.736   3.577   9.178 -1.7354 -1.4826  0.6237
  641TMC3    H2 9548   2.912   3.194   9.192  0.2184  0.4772 -1.0268
  641TMC3    C7 9549   2.742   3.356   9.058  0.5874 -0.1160  0.9977
  641TMC3    C8 9550   3.068   3.231   9.398 -0.1628  0.0986 -0.3415
  641TMC3    O1 9551   2.677   3.443   9.004 -0.2712 -0.4467  0.0515
  641TMC3    O2 9552   3.092   3.135   9.328 -0.3782 -0.5049  0.2974
  642TMC3    C1 9553   3.748   4.481  12.253  0.4082 -0.3037  0.6109
  642TMC3    C2 9554   3.851   4.507  12.336 -0.3036 -0.0630  0.5889
  642TMC3    C3 9555   3.914   4.393  12.392  0.5292 -0.6842 -0.3318
  642TMC3    C4 9556   3.715   4.351  12.217 -0.4086 -0.1709  0.0543
  642TMC3    C5 9557   3.787   4.247  12.264 -0.1806 -0.4347  0.5644
  642TMC3    C6 9558   3.888   4.266  12.356  0.2561 -0.2060  0.0499
  642TMC3     C 9559   3.653   4.589  12.223  0.3325  0.0474  0.4493
  642TMC3     O 9560   3.690   4.704  12.211 -0.5301  0.9137  0.1007
  642TMC3     H 9561   3.872   4.609  12.364 -1.4857  0.1913  0.5458
  642TMC3    H1 9562   3.631   4.329  12.152 -1.3783 -0.6204  1.4752
  642TMC3    H2 9563   3.953   4.189  12.395  0.4809  0.4723  1.0023
  642TMC3    C7 9564   3.755   4.115  12.233 -0.4335  0.0503  0.0293
  642TMC3    C8 9565   4.041   4.425  12.451 -0.2743 -0.0044 -0.0911
  642TMC3    O1 9566   3.675   4.104  12.140  0.3660 -0.8913  0.2214
  642TMC3    O2 9567   4.096   4.532  12.416 -0.0142  0.4021 -0.0130
  643TMC3    C1 9568   3.187   3.407   0.388 -0.4665  0.0408 -0.4510
  643TMC3    C2 9569   3.098   3.434   0.295  0.6896  0.4452  0.1704
  643TMC3    C3 9570   3.101   3.359   0.184 -0.2733  0.7300  0.0588
  643TMC3    C4 9571   3.265   3.295   0.381  0.3352  0.1977 -0.8506
  643TMC3    C5 9572   3.261   3.217   0.271  0.0469  1.0986 -0.0158
  643TMC3    C6 9573   3.167   3.240   0.180  0.5603 -0.6836  0.2058
  643TMC3     C 9574   3.214   3.506   0.490  0.0485 -0.3850  0.0887
  643TMC3     O 9575   3.192   3.620   0.453 -0.2367 -0.1215  0.0420
  643TMC3     H 9576   3.046   3.528   0.309 -0.0911 -0.1986  1.5517
  643TMC3    H1 9577   3.348   3.275   0.447 -0.2599 -0.8790 -0.4257
  643TMC3    H2 9578   3.163   3.186   0.086  2.4313 -0.5069  0.0271
  643TMC3    C7 9579   3.397   3.225   0.215  0.0737  0.4291 -0.5019
  643TMC3    C8 9580   3.110   3.429   0.061 -0.5303 -0.7102 -0.6111
  643TMC3    O1 9581   3.461   3.323   0.253 -0.5504 -0.3711  0.7145
  643TMC3    O2 9582   3.064   3.377  17.699 -0.0506 -0.0500  0.1850
  644MPD2     C 9583   3.040   3.312   8.840  0.4722  0.1896  0.4825
  644MPD2    C1 9584   3.132   3.273   8.937  0.1699 -0.3555 -0.3308
  644MPD2    C2 9585   3.184   3.378   9.012  0.5157  0.5119 -0.1220
  644MPD2    C3 9586   3.134   3.511   9.008 -0.1945 -0.2605 -0.5961
  644MPD2    C4 9587   3.034   3.540   8.920  0.0402 -0.3672 -0.4987
  644MPD2    C5 9588   3.003   3.441   8.826  0.1519 -0.6071 -0.1034
  644MPD2     H 9589   3.257   3.351   9.088 -1.6473 -0.0280  1.7447
  644MPD2    H1 9590   2.983   3.635   8.914 -1.8150 -1.2591  1.1515
  644MPD2    H2 9591   3.000   3.240   8.769 -0.9273 -0.6632  2.1020
  644MPD2    H3 9592   2.924   3.471   8.758 -1.0517 -1.7776  0.7803
  644MPD2     N 9593   3.179   3.604   9.109  0.2429  0.3383 -0.4671
  644MPD2    H5 9594   3.257   3.574   9.167  1.7155  0.5205 -2.3569
  644MPD2    N1 9595   3.184   3.151   8.960  0.2172 -0.3336 -0.2068
  644MPD2    H7 9596   3.234   3.140   9.048 -1.4358 -1.7906  0.5552
  645TMC3    C1 9597   3.194   3.807   9.230 -0.4448 -0.8656  0.1731
  645TMC3    C2 9598   3.226   3.733   9.340  0.0347 -0.1657 -0.7084
  645TMC3    C3 9599   3.253   3.793   9.458  0.5373  0.1681  0.5172
  645TMC3    C4 9600   3.168   3.939   9.237  0.3224 -0.3503 -0.1209
  645TMC3    C5 9601   3.193   4.002   9.359  0.1384  0.0041 -0.1522
  645TMC3    C6 9602   3.243   3.932   9.469  0.8563 -0.0191  0.3216
  645TMC3     C 9603   3.159   3.737   9.104  0.2356  0.8755  0.2489
  645TMC3     O 9604   3.093   3.805   9.024 -0.1292  0.0137 -0.2756
  645TMC3     H 9605   3.250   3.627   9.334 -0.1429 -0.2023 -0.7955
  645TMC3    H1 9606   3.129   3.985   9.146  1.1774  1.8884  0.6322
  645TMC3    H2 9607   3.261   3.985   9.563 -1.3528  0.9986  0.1693
  645TMC3    C7 9608   3.215   4.137   9.363  0.5938 -0.1552  0.5313
  645TMC3    C8 9609   3.284   3.704   9.565  0.4795 -0.4694 -0.1382
  645TMC3    O1 9610   3.280   4.168   9.461 -0.7316 -0.4805 -0.2523
  645TMC3    O2 9611   3.271   3.587   9.552 -0.1085  0.5797  0.1452
  646MPD2     C 9612   2.868   3.205  14.846 -0.3915  0.4202  0.1091
  646MPD2    C1 9613   2.767   3.181  14.935 -0.3564 -0.1795 -0.0172
  646MPD2    C2 9614   2.633   3.193  14.890  0.1205  0.4269  0.7391
  646MPD2    C3 9615   2.608   3.235  14.754 -0.2877 -0.0429 -0.0020
  646MPD2    C4 9616   2.720   3.251  14.669 -0.0163  0.3056  0.2560
  646MPD2    C5 9617   2.847   3.235  14.714 -0.1638 -0.4905 -0.2743
  646MPD2     H 9618   2.552   3.178  14.960 -0.5367  0.0022 -0.1100
  646MPD2    H1 9619   2.714   3.267  14.562 -1.5064 -2.3998 -0.0535
  646MPD2    H2 9620   2.971   3.184  14.873 -0.0732  1.3353 -0.3742
  646MPD2    H3 9621   2.928   3.250  14.644  1.6105 -1.5809  1.5465
  646MPD2     N 9622   2.476   3.251  14.709  0.0150  0.1184 -0.3439
  646MPD2    H5 9623   2.398   3.209  14.760 -0.5275  0.4145 -0.9322
  646MPD2    N1 9624   2.812   3.149  15.061  0.3091 -0.6000 -0.6954
  646MPD2    H7 9625   2.906   3.114  15.071  0.3773  0.3720  1.9483
  647TMC3    C1 9626   2.804   3.108  15.296 -0.6016 -0.4174 -0.2474
  647TMC3    C2 9627   2.724   3.055  15.399 -0.8600 -0.2877  0.9817
  647TMC3    C3 9628   2.788   3.011  15.510 -0.1911 -0.3925 -0.6732
  647TMC3    C4 9629   2.936   3.128  15.309 -0.7759 -0.7696 -0.1627
  647TMC3    C5 9630   2.993   3.075  15.422  0.1393  0.3918 -0.0396
  647TMC3    C6 9631   2.922   3.012  15.517 -0.1558 -0.3178 -0.5446
  647TMC3     C 9632   2.732   3.139  15.176 -0.7719 -0.1135 -0.7640
  647TMC3     O 9633   2.609   3.133  15.182 -0.0685  0.4242 -0.3153
  647TMC3     H 9634   2.616   3.048  15.390 -1.0822  3.3260  0.6651
  647TMC3    H1 9635   2.998   3.180  15.237  2.1540 -1.6268  1.7271
  647TMC3    H2 9636   2.970   2.963  15.601  0.6303 -1.7481 -1.8263
  647TMC3    C7 9637   3.133   3.037  15.432 -0.1087 -0.2651  0.3714
  647TMC3    C8 9638   2.744   2.879  15.547  0.1707 -0.0312 -1.0812
  647TMC3    O1 9639   3.177   2.984  15.535 -0.1550  0.6348 -0.2818
  647TMC3    O2 9640   2.730   2.855  15.666 -0.0380 -0.4804 -0.2839
  648TMC3    C1 9641   1.754   0.834  16.246 -0.2114 -0.3536  0.0463
  648TMC3    C2 9642   1.764   0.717  16.181  0.4691 -0.9315  0.3741
  648TMC3    C3 9643   1.763   0.725  16.044 -0.2382 -0.4037 -0.3708
  648TMC3    C4 9644   1.729   0.948  16.175 -0.1283 -0.3279  0.4060
  648TMC3    C5 9645   1.742   0.951  16.042  0.1018 -0.0773  0.0724
  648TMC3    C6 9646   1.754   0.838  15.972 -0.4232 -0.2290  0.2282
  648TMC3     C 9647   1.803   0.849  16.380 -0.4216  0.1951 -0.1175
  648TMC3     O 9648   1.804   0.959  16.437 -0.1266  0.1496  0.3687
  648TMC3     H 9649   1.762   0.620  16.230  1.4433 -0.7787  0.7006
  648TMC3    H1 9650   1.726   1.043  16.227 -0.8829  0.1117 -0.4299
  648TMC3    H2 9651   1.773   0.842  15.865  1.4244 -0.6448  0.5555
  648TMC3    C7 9652   1.724   1.068  15.960 -0.1430 -0.1976  0.1119
  648TMC3    C8 9653   1.786   0.599  15.976  0.4104 -0.5433  0.1382
  648TMC3    O1 9654   1.773   1.063  15.847  0.1564  0.2761 -0.3099
  648TMC3    O2 9655   1.733   0.496  16.018 -0.1253 -0.5887 -0.4128
  649TMC3    C1 9656   0.958   1.700  12.653  0.3259  0.2161 -0.2900
  649TMC3    C2 9657   1.080   1.738  12.686  0.2717  0.2210  0.5481
  649TMC3    C3 9658   1.138   1.684  12.796 -0.0529 -0.7885  0.0219
  649TMC3    C4 9659   0.883   1.613  12.726  0.7947 -0.2680 -0.2220
  649TMC3    C5 9660   0.946   1.565  12.836  0.1765  0.6019 -0.4487
  649TMC3    C6 9661   1.070   1.599  12.879  0.5107  0.2803  0.2675
  649TMC3     C 9662   0.893   1.752  12.532 -0.3968  0.2644  0.5417
  649TMC3     O 9663   0.771   1.742  12.532  0.8456 -0.0621  0.6336
  649TMC3     H 9664   1.128   1.815  12.627 -1.4699  0.2861 -0.7745
  649TMC3    H1 9665   0.785   1.573  12.701  0.8642 -0.6193  0.0642
  649TMC3    H2 9666   1.118   1.540  12.956  2.0718  0.5219 -0.5312
  649TMC3    C7 9667   0.875   1.473  12.919 -0.7284 -0.0944 -0.2843
  649TMC3    C8 9668   1.264   1.739  12.829  0.0502  0.4198 -0.2178
  649TMC3    O1 9669   0.920   1.459  13.029  0.3447  0.4991 -0.2416
  649TMC3    O2 9670   1.328   1.799  12.743  0.6203  0.6690 -0.1504
  650TMC3    C1 9671   3.452   3.677  13.038 -0.8611  0.0692 -1.1131
  650TMC3    C2 9672   3.360   3.777  13.039 -0.0186  0.3037  0.0009
  650TMC3    C3 9673   3.252   3.765  12.956  0.3308 -0.2781 -0.1345
  650TMC3    C4 9674   3.449   3.578  12.942  0.3599  0.2887  0.0871
  650TMC3    C5 9675   3.342   3.577  12.854 -0.3398 -0.2074 -0.1181
  650TMC3    C6 9676   3.237   3.665  12.863  0.6700  0.3334  0.3895
  650TMC3     C 9677   3.512   3.639  13.166  0.3314  0.8724  0.0229
  650TMC3     O 9678   3.534   3.733  13.244  0.1280 -0.1384 -0.4730
  650TMC3     H 9679   3.357   3.849  13.120  0.6701  0.7399 -0.3564
  650TMC3    H1 9680   3.532   3.512  12.920 -0.2635 -0.6817  0.6039
  650TMC3    H2 9681   3.148   3.661  12.801  0.5174 -0.0797  0.6381
  650TMC3    C7 9682   3.365   3.522  12.720  0.0290 -0.0217  0.4747
  650TMC3    C8 9683   3.152   3.868  12.957 -0.1688 -0.2410  0.0725
  650TMC3    O1 9684   3.454   3.432  12.717  0.5370 -0.1210  0.0135
  650TMC3    O2 9685   3.186   3.985  12.965  1.1128 -0.0389 -0.4012
  651MPD2     C 9686   2.215   0.861  10.625 -0.1907  0.5715  0.2383
  651MPD2    C1 9687   2.215   0.993  10.657  0.2587  0.0916  0.2870
  651MPD2    C2 9688   2.335   1.055  10.699  0.0530 -0.5794  0.8516
  651MPD2    C3 9689   2.454   0.989  10.709  0.5571  0.4255 -0.3066
  651MPD2    C4 9690   2.450   0.852  10.680  0.2076  1.1950 -0.1886
  651MPD2    C5 9691   2.332   0.788  10.644 -1.1149 -0.3968 -0.0708
  651MPD2     H 9692   2.325   1.161  10.720  1.2865  0.1015 -2.0076
  651MPD2    H1 9693   2.539   0.790  10.691  0.2311  0.9927 -1.4883
  651MPD2    H2 9694   2.134   0.808  10.576  0.6820 -1.0864  0.5785
  651MPD2    H3 9695   2.333   0.681  10.630  1.1846 -0.3649 -0.2253
  651MPD2     N 9696   2.581   1.058  10.718  0.4357  0.5287 -0.6090
  651MPD2    H5 9697   2.571   1.156  10.744 -0.4260  0.3244 -0.1424
  651MPD2    N1 9698   2.096   1.073  10.634 -0.3207  0.1614  0.5064
  651MPD2    H7 9699   2.103   1.171  10.659  1.6000 -0.0129  0.6081
  652TMC3    C1 9700   2.956   1.166  10.524  0.0934 -0.3289 -0.5029
  652TMC3    C2 9701   2.919   1.078  10.618  0.2816 -0.1460  0.3440
  652TMC3    C3 9702   2.805   1.115  10.689 -0.6011  0.2202  0.2418
  652TMC3    C4 9703   2.888   1.281  10.499 -0.7941  1.0869  0.4469
  652TMC3    C5 9704   2.782   1.319  10.581  0.7575  0.1315  1.0160
  652TMC3    C6 9705   2.740   1.229  10.674 -0.3365  0.2563 -0.0951
  652TMC3     C 9706   3.098   1.171  10.483 -0.4016 -0.0149 -0.0224
  652TMC3     O 9707   3.129   1.202  10.368 -0.0942 -0.0769 -0.2209
  652TMC3     H 9708   2.961   0.980  10.638 -0.9222 -1.2108 -2.2779
  652TMC3    H1 9709   2.919   1.339  10.412  1.1492 -1.2062 -0.3909
  652TMC3    H2 9710   2.687   1.269  10.759  1.1193 -0.0243  0.9393
  652TMC3    C7 9711   2.696   1.434  10.554 -0.4410 -0.3798  0.1009
  652TMC3    C8 9712   2.712   1.006  10.716  0.7515 -0.4453  0.1686
  652TMC3    O1 9713   2.604   1.453  10.631 -0.0118  0.2103 -0.3085
  652TMC3    O2 9714   2.753   0.891  10.697  0.8006 -0.2107  0.0979
  653MPD2     C 9715   0.929   0.942   0.140 -0.5507 -0.6340 -0.2998
  653MPD2    C1 9716   0.950   0.995   0.015  0.7136  0.3557  0.2287
  653MPD2    C2 9717   0.883   0.944  17.643  0.0723  0.1043  0.0134
  653MPD2    C3 9718   0.803   0.833  17.658  0.4127 -0.0322 -0.2741
  653MPD2    C4 9719   0.786   0.781   0.043 -0.3365 -0.2726  0.0615
  653MPD2    C5 9720   0.844   0.836   0.151  0.2575  0.3225 -0.6907
  653MPD2     H 9721   0.897   0.995  17.548 -1.8608 -0.6094 -0.6514
  653MPD2    H1 9722   0.721   0.695   0.055  2.0360 -2.0257  0.2024
  653MPD2    H2 9723   0.982   0.968   0.232  0.6547  0.3297 -1.2621
  653MPD2    H3 9724   0.837   0.783   0.245  0.5764 -1.0448 -1.4377
  653MPD2     N 9725   0.727   0.796  17.546  0.3177 -0.2262  0.7822
  653MPD2    H5 9726   0.725   0.855  17.463 -1.5011 -1.7932 -0.3149
  653MPD2    N1 9727   1.025   1.113  17.734 -0.0986 -0.0758 -0.3842
  653MPD2    H7 9728   1.028   1.146  17.637 -2.8740  4.3913  1.0339
  654TMC3    C1 9729   0.646   0.633  17.399 -0.0821  0.0094  0.4056
  654TMC3    C2 9730   0.582   0.726  17.327 -0.4820  0.3132 -0.3896
  654TMC3    C3 9731   0.552   0.710  17.195  0.2435  0.2253 -0.4928
  654TMC3    C4 9732   0.692   0.521  17.341 -0.6668 -0.2936 -0.1202
  654TMC3    C5 9733   0.666   0.501  17.207  0.2493  0.3741 -0.0896
  654TMC3    C6 9734   0.592   0.595  17.139  0.4135  0.3000  0.3334
  654TMC3     C 9735   0.691   0.668  17.536 -0.2114 -0.0997  0.8115
  654TMC3     O 9736   0.742   0.578  17.598 -0.0201  0.3010 -0.2489
  654TMC3     H 9737   0.553   0.818  17.375  0.9314 -0.2123  1.4810
  654TMC3    H1 9738   0.767   0.468  17.399 -0.8763 -0.5185 -0.0496
  654TMC3    H2 9739   0.577   0.580  17.033  0.1859 -1.9658  0.6751
  654TMC3    C7 9740   0.711   0.380  17.143 -0.3484  0.4092  0.0857
  654TMC3    C8 9741   0.434   0.776  17.149  0.3672  0.0619  0.5683
  654TMC3    O1 9742   0.714   0.375  17.023 -0.1070  0.2748 -0.4125
  654TMC3    O2 9743   0.413   0.893  17.188 -0.1938  0.5868 -0.1092
  655MPD2     C 9744   2.292   0.989  15.711  0.2560  0.1975 -0.5914
  655MPD2    C1 9745   2.198   1.075  15.665  0.8349 -0.2301 -0.2059
  655MPD2    C2 9746   2.162   1.081  15.533  0.3999 -0.0030  0.1710
  655MPD2    C3 9747   2.234   0.999  15.443 -0.3175 -0.0053 -0.6517
  655MPD2    C4 9748   2.334   0.916  15.492 -0.9616  0.3475  0.0508
  655MPD2    C5 9749   2.360   0.910  15.623 -0.5375 -0.5145  0.2302
  655MPD2     H 9750   2.086   1.152  15.503  1.9565  2.1074  1.1878
  655MPD2    H1 9751   2.405   0.864  15.429 -0.2580  0.5245  0.6959
  655MPD2    H2 9752   2.315   0.968  15.815  0.8058  0.2631 -0.6982
  655MPD2    H3 9753   2.427   0.839  15.672 -0.2502 -1.9691 -2.2732
  655MPD2     N 9754   2.200   0.984  15.311 -0.1683  0.6421 -0.9563
  655MPD2    H5 9755   2.254   0.917  15.257 -0.4865  1.1227 -1.8571
  655MPD2    N1 9756   2.137   1.172  15.752  0.3200 -0.3495 -0.4163
  655MPD2    H7 9757   2.106   1.258  15.707 -2.4709 -0.5103  1.1879
  656TMC3    C1 9758   2.098   1.283  15.957  0.4791 -0.0688 -0.1499
  656TMC3    C2 9759   2.054   1.274  16.083  0.5417 -0.1043  0.0807
  656TMC3    C3 9760   1.963   1.370  16.121  0.6213 -0.3789  0.4658
  656TMC3    C4 9761   2.079   1.400  15.881 -0.6533 -0.5014 -0.1251
  656TMC3    C5 9762   1.983   1.489  15.931  0.3994  0.0497  0.5917
  656TMC3    C6 9763   1.915   1.471  16.045 -0.6779  0.0435 -0.3119
  656TMC3     C 9764   2.144   1.166  15.889  0.1155  0.6498 -0.2124
  656TMC3     O 9765   2.158   1.070  15.963 -0.1402  0.1503 -0.1438
  656TMC3     H 9766   2.062   1.180  16.136 -0.8626  0.0872  0.6331
  656TMC3    H1 9767   2.131   1.412  15.787  1.6217 -0.4922  1.1130
  656TMC3    H2 9768   1.847   1.545  16.086 -0.8223  0.5350 -1.4491
  656TMC3    C7 9769   1.948   1.584  15.834  0.4064  0.5869 -0.6517
  656TMC3    C8 9770   1.897   1.336  16.245 -0.2833 -0.5056 -0.6115
  656TMC3    O1 9771   1.985   1.574  15.717 -0.2602  0.0642 -0.0357
  656TMC3    O2 9772   1.910   1.219  16.283 -0.3305 -0.2525  0.1212
  657TMC3    C1 9773   1.282   0.799  14.638  0.0787  0.1572 -0.3190
  657TMC3    C2 9774   1.261   0.826  14.771 -0.0832  0.1623 -0.1318
  657TMC3    C3 9775   1.145   0.896  14.801 -0.4774  0.3261  0.4168
  657TMC3    C4 9776   1.200   0.849  14.543 -0.2389 -1.0899 -0.1545
  657TMC3    C5 9777   1.090   0.920  14.578 -0.4431  0.3292 -0.0891
  657TMC3    C6 9778   1.063   0.954  14.709 -0.1601  0.0458  0.2342
  657TMC3     C 9779   1.379   0.708  14.594  0.4610 -0.3936 -0.3210
  657TMC3     O 9780   1.392   0.701  14.472 -0.2201 -0.6530 -0.2885
  657TMC3     H 9781   1.337   0.811  14.847  1.4575 -0.2515 -1.7329
  657TMC3    H1 9782   1.218   0.842  14.437  0.5727  0.6504 -0.1438
  657TMC3    H2 9783   0.978   1.014  14.741 -1.6071 -1.5244 -0.6621
  657TMC3    C7 9784   0.994   0.956  14.468  0.0805 -0.0862  0.0687
  657TMC3    C8 9785   1.121   0.948  14.932 -0.5304 -0.0328  0.7135
  657TMC3    O1 9786   1.028   0.914  14.357 -0.2881  0.1469  0.0821
  657TMC3    O2 9787   1.066   1.058  14.932 -0.0950  0.0868  0.0662
  658MPD2     C 9788   2.663   0.903  14.940 -0.6261  0.5451  0.2121
  658MPD2    C1 9789   2.562   0.919  14.850  0.1958  0.1207  0.3994
  658MPD2    C2 9790   2.585   0.901  14.715  0.2544 -0.1617  0.7444
  658MPD2    C3 9791   2.708   0.859  14.665 -0.5839  0.7608  0.2152
  658MPD2    C4 9792   2.813   0.837  14.760  0.0990 -0.0150 -0.5091
  658MPD2    C5 9793   2.788   0.859  14.897 -0.4135  0.2078 -0.3129
  658MPD2     H 9794   2.513   0.929  14.639 -0.5472  1.7568  2.2201
  658MPD2    H1 9795   2.912   0.799  14.735  0.5927  0.4926  0.6300
  658MPD2    H2 9796   2.653   0.926  15.045  0.9141 -1.6477  0.8370
  658MPD2    H3 9797   2.860   0.837  14.975  0.1183  0.0176 -0.8562
  658MPD2     N 9798   2.721   0.863  14.524  0.6605  0.4003 -0.0242
  658MPD2    H5 9799   2.636   0.892  14.475  0.5087 -2.2505 -1.3535
  658MPD2    N1 9800   2.432   0.951  14.904  0.4727 -0.5442 -0.0715
  658MPD2    H7 9801   2.427   0.961  15.005 -0.9472 -0.5951 -0.1348
  659TMC3    C1 9802   2.197   0.998  14.900 -0.5774  0.1691  0.0643
  659TMC3    C2 9803   2.187   0.975  15.036  0.0209  0.1444  0.2814
  659TMC3    C3 9804   2.089   1.039  15.103  0.4339  0.6141  0.2846
  659TMC3    C4 9805   2.102   1.063  14.824 -0.0644 -0.2428  0.2216
  659TMC3    C5 9806   2.000   1.113  14.906 -0.4744  0.7593 -0.7146
  659TMC3    C6 9807   1.992   1.110  15.037 -0.1325  0.4472  0.2546
  659TMC3     C 9808   2.314   0.954  14.830 -0.0950  0.6979  0.1805
  659TMC3     O 9809   2.289   0.933  14.710  0.0179 -0.4378 -0.0440
  659TMC3     H 9810   2.272   0.929  15.084  0.3560 -0.1170 -0.5564
  659TMC3    H1 9811   2.127   1.107  14.728 -1.3817  1.0232  0.4684
  659TMC3    H2 9812   1.913   1.155  15.096 -0.8483 -0.7874  0.2559
  659TMC3    C7 9813   1.868   1.134  14.842 -0.1244 -0.3947 -0.4373
  659TMC3    C8 9814   2.109   1.065  15.248 -0.4865  0.1002  0.7678
  659TMC3    O1 9815   1.789   1.201  14.904 -0.8925 -0.4047 -0.1344
  659TMC3    O2 9816   2.044   1.159  15.289 -0.4494 -0.0164 -0.3026
  660MPD2     C 9817   0.483   4.213  12.446 -0.6114  0.5594 -0.4255
  660MPD2    C1 9818   0.404   4.300  12.511  0.0299  0.0082 -0.5832
  660MPD2    C2 9819   0.378   4.272  12.639 -0.3798  0.5136  0.8088
  660MPD2    C3 9820   0.397   4.143  12.698 -0.5669 -0.4457  0.0474
  660MPD2    C4 9821   0.448   4.051  12.616  0.3301 -0.2896 -0.2791
  660MPD2    C5 9822   0.500   4.084  12.495  0.8095  0.1450  0.2051
  660MPD2     H 9823   0.322   4.346  12.695  1.1978  1.6384  0.8988
  660MPD2    H1 9824   0.458   3.949  12.650 -3.2201 -0.1372  1.1980
  660MPD2    H2 9825   0.510   4.230  12.342 -0.7074 -1.6535 -0.8184
  660MPD2    H3 9826   0.555   4.013  12.435  0.1634 -0.8751  0.8198
  660MPD2     N 9827   0.349   4.103  12.825  0.4114  0.0905  0.3231
  660MPD2    H5 9828   0.358   4.005  12.851  1.0939  0.4681  1.5321
  660MPD2    N1 9829   0.381   4.423  12.444 -0.7930 -0.1330 -0.4726
  660MPD2    H7 9830   0.408   4.432  12.347 -0.4610  1.4988 -0.2236
  661TMC3    C1 9831   0.249   4.616  12.385 -0.1789  0.0393  0.2976
  661TMC3    C2 9832   0.315   4.624  12.266 -0.3076  0.8504  0.4261
  661TMC3    C3 9833   0.248   4.694  12.171  0.0197 -0.1648 -0.3797
  661TMC3    C4 9834   0.123   4.666  12.411  0.5102  0.0804 -0.2917
  661TMC3    C5 9835   0.053   4.728  12.313  0.3791  0.1439 -0.1613
  661TMC3    C6 9836   0.113   4.731  12.190  0.6673 -1.0349  0.2851
  661TMC3     C 9837   0.292   4.515  12.483 -0.3332  0.8378 -0.7081
  661TMC3     O 9838   0.241   4.530  12.594  0.2096 -0.0591  0.3361
  661TMC3     H 9839   0.420   4.602  12.252 -1.0601 -1.8481 -0.9657
  661TMC3    H1 9840   0.067   4.654  12.503 -1.8615  1.0749 -1.6007
  661TMC3    H2 9841   0.063   0.051  12.112  1.8657  0.8432  0.8380
  661TMC3    C7 9842   4.644   4.707  12.316  0.0934 -0.2601 -0.1663
  661TMC3    C8 9843   0.307   4.728  12.049  0.1759 -0.8700 -0.0712
  661TMC3    O1 9844   4.584   4.722  12.421 -0.1203 -0.1356 -0.5019
  661TMC3    O2 9845   0.266   0.094  11.994 -0.1615  0.2829 -0.0562
  662MPD2     C 9846   0.393   4.621  17.725 -0.1013 -0.5112 -0.3573
  662MPD2    C1 9847   0.314   4.513   0.020  0.0313  0.3679  0.3907
  662MPD2    C2 9848   0.284   4.499   0.152  0.4275  0.6041 -0.9185
  662MPD2    C3 9849   0.324   4.582   0.255  0.3840 -0.1916  0.1443
  662MPD2    C4 9850   0.401   4.691   0.217  0.2984 -0.1111  0.4284
  662MPD2    C5 9851   0.438   4.704   0.086  0.4631 -0.0031 -0.4120
  662MPD2     H 9852   0.211   4.426   0.183 -2.0273  2.3050 -2.6892
  662MPD2    H1 9853   0.438   0.027   0.290 -0.9757  1.3490 -0.3461
  662MPD2    H2 9854   0.420   4.651  17.624 -0.0336  0.7142  0.0295
  662MPD2    H3 9855   0.500   0.054   0.059 -0.7682  1.4578  1.4153
  662MPD2     N 9856   0.264   4.581   0.386  0.1660 -0.5551  0.3056
  662MPD2    H5 9857   0.254   4.669   0.434  3.2972 -0.0590  0.0438
  662MPD2    N1 9858   0.262   4.425  17.660 -0.0796  0.7923 -0.1133
  662MPD2    H7 9859   0.194   4.358  17.693 -2.2307  2.4468 -1.2197
  663TMC3    C1 9860   0.257   4.282  17.486 -0.1067 -0.1466 -0.0080
  663TMC3    C2 9861   0.136   4.244  17.542  0.4864  0.3819  0.2150
  663TMC3    C3 9862   0.097   4.111  17.546 -0.2045 -0.1867 -0.3551
  663TMC3    C4 9863   0.339   4.188  17.438  0.1876 -0.3486  0.2567
  663TMC3    C5 9864   0.302   4.055  17.447  0.1939 -0.4081 -0.2152
  663TMC3    C6 9865   0.182   4.013  17.493  0.2394 -0.1712  0.7014
  663TMC3     C 9866   0.316   4.399  17.536  0.9929 -0.0246  0.1717
  663TMC3     O 9867   0.405   4.454  17.473 -0.5659  0.1584 -0.5922
  663TMC3     H 9868   0.055   4.314  17.556 -0.1044  0.2081 -2.3738
  663TMC3    H1 9869   0.438   4.226  17.414  0.9764 -2.5769 -0.0551
  663TMC3    H2 9870   0.161   3.908  17.507  1.1951 -0.2253  1.7139
  663TMC3    C7 9871   0.375   3.953  17.366  0.0111  0.9964  0.4185
  663TMC3    C8 9872   0.073   4.105  17.682  0.4809 -0.7802  0.6663
  663TMC3    O1 9873   0.422   3.991  17.259 -0.2678  0.3189  0.1188
  663TMC3    O2 9874   0.120   4.191   0.021  0.4291 -0.5296 -0.1351
  664MPD2     C 9875   3.340   2.157  17.695 -0.4360 -1.0377  0.1878
  664MPD2    C1 9876   3.440   2.226   0.018 -0.9334 -0.9862  0.4749
  664MPD2    C2 9877   3.491   2.182   0.139 -0.0056 -0.4020  0.1193
  664MPD2    C3 9878   3.435   2.070   0.195  0.3741  0.3883 -0.2116
  664MPD2    C4 9879   3.339   2.000   0.129 -0.1800  0.5917 -0.0082
  664MPD2    C5 9880   3.291   2.046   0.009  0.0594  0.2013 -0.4312
  664MPD2     H 9881   3.573   2.238   0.184  2.1195 -2.8125 -0.7605
  664MPD2    H1 9882   3.284   1.915   0.167 -0.6569  0.0856 -1.8032
  664MPD2    H2 9883   3.316   2.184  17.593  2.1757  0.3596 -0.0681
  664MPD2    H3 9884   3.215   1.998  17.688 -1.1482 -0.1602  1.4152
  664MPD2     N 9885   3.490   2.024   0.322  0.1355  0.4109  0.0180
  664MPD2    H5 9886   3.545   2.091   0.375 -0.2761  0.7622  0.0020
  664MPD2    N1 9887   3.501   2.344  17.698  1.2295 -0.0327 -0.0646
  664MPD2    H7 9888   3.570   2.394   0.015  1.3479  0.2646 -0.4812
  665TMC3    C1 9889   3.533   1.906   0.513  0.9245 -0.5824  0.9492
  665TMC3    C2 9890   3.457   1.868   0.614  0.6305 -0.2338  0.1754
  665TMC3    C3 9891   3.488   1.915   0.737 -0.4315  0.1427  0.0642
  665TMC3    C4 9892   3.625   2.006   0.538  0.1092 -0.6849  0.1215
  665TMC3    C5 9893   3.647   2.054   0.664 -0.4077 -0.8835 -0.4694
  665TMC3    C6 9894   3.576   2.016   0.768 -0.0234  0.2357 -0.1655
  665TMC3     C 9895   3.461   1.909   0.391  0.0442  1.1739 -0.1341
  665TMC3     O 9896   3.390   1.814   0.362  0.2695  0.3747  0.9642
  665TMC3     H 9897   3.376   1.797   0.598  0.9816 -0.3826 -0.9329
  665TMC3    H1 9898   3.707   2.036   0.474 -0.6856  0.0992 -0.5404
  665TMC3    H2 9899   3.590   2.047   0.871 -0.9382 -1.1705  0.3949
  665TMC3    C7 9900   3.716   2.182   0.665  0.2588 -0.0447  0.0998
  665TMC3    C8 9901   3.383   1.909   0.833 -0.1941  0.5732  0.5292
  665TMC3    O1 9902   3.734   2.244   0.560  0.4415 -0.3084 -0.2139
  665TMC3    O2 9903   3.364   2.020   0.880 -0.0071  0.2047 -0.1201
  666TMC3    C1 9904   2.335   3.104  10.389 -0.3425 -0.0632 -0.5734
  666TMC3    C2 9905   2.357   3.020  10.279  0.7440  0.1846  0.6695
  666TMC3    C3 9906   2.435   3.061  10.178 -0.8264  0.7441  0.0459
  666TMC3    C4 9907   2.377   3.235  10.387 -0.3025 -0.2879 -0.3190
  666TMC3    C5 9908   2.440   3.274  10.270  0.6716  0.1044 -0.2608
  666TMC3    C6 9909   2.474   3.194  10.167  0.1137  0.2699 -0.3205
  666TMC3     C 9910   2.282   3.052  10.509  0.2630  0.4852  0.4432
  666TMC3     O 9911   2.312   3.105  10.614  0.1060 -0.1899 -0.4367
  666TMC3     H 9912   2.324   2.917  10.285 -0.2484  0.3802 -1.2827
  666TMC3    H1 9913   2.357   3.306  10.466  1.1707  0.2591 -0.4389
  666TMC3    H2 9914   2.534   3.229  10.085  1.6980 -0.0862  0.6936
  666TMC3    C7 9915   2.526   3.394  10.291 -0.0915  0.2776  0.1923
  666TMC3    C8 9916   2.525   2.958  10.125 -0.3193 -0.2382 -0.0143
  666TMC3    O1 9917   2.563   3.416  10.406  0.5833 -0.1239 -0.0161
  666TMC3    O2 9918   2.513   2.840  10.159 -0.0001 -0.1212  0.0186
  667MPD2     C 9919   4.342   2.442  14.638  0.6030 -0.0462 -0.2543
  667MPD2    C1 9920   4.379   2.441  14.775 -0.2478 -0.1551  0.0182
  667MPD2    C2 9921   4.350   2.333  14.853 -0.4257  0.3586  0.4052
  667MPD2    C3 9922   4.266   2.239  14.803  0.6808  0.5804 -0.2445
  667MPD2    C4 9923   4.236   2.237  14.663  0.1830 -0.6160  0.2050
  667MPD2    C5 9924   4.265   2.346  14.584  0.4304 -0.6621 -0.0960
  667MPD2     H 9925   4.395   2.313  14.949  0.0866 -1.1868 -0.1512
  667MPD2    H1 9926   4.191   2.150  14.616  0.9298 -0.8683 -0.0451
  667MPD2    H2 9927   4.377   2.523  14.574 -0.4947  0.4901 -0.1852
  667MPD2    H3 9928   4.243   2.355  14.479 -0.3884 -1.4175  0.0142
  667MPD2     N 9929   4.230   2.119  14.870  0.6405 -0.2428 -0.1232
  667MPD2    H5 9930   4.176   2.050  14.818 -0.9008  0.4820  0.5209
  667MPD2    N1 9931   4.450   2.544  14.837  0.0838  0.6077 -0.6292
  667MPD2    H7 9932   4.496   2.527  14.926  2.3001  0.5526 -1.7861
  668TMC3    C1 9933   4.522   2.751  14.900  0.2642 -0.0511  0.0028
  668TMC3    C2 9934   4.573   2.869  14.860  0.0568  0.3590  0.1434
  668TMC3    C3 9935   4.594   2.962  14.958  0.3368  0.2155  0.4578
  668TMC3    C4 9936   4.466   2.731  15.025  0.2486 -0.1817  0.1493
  668TMC3    C5 9937   4.480   2.831  15.118  0.4645  0.3502  0.8533
  668TMC3    C6 9938   4.549   2.944  15.086  0.0647 -0.2868 -0.5917
  668TMC3     C 9939   4.477   2.665  14.792 -0.0966  0.3588 -0.8077
  668TMC3     O 9940   4.475   2.709  14.679  0.2882 -0.2812 -0.2358
  668TMC3     H 9941   4.600   2.878  14.755 -0.5985  1.1388  0.0417
  668TMC3    H1 9942   4.437   2.631  15.055  1.6893 -0.4146  0.7497
  668TMC3    H2 9943   4.571   3.016  15.164 -0.2133 -0.6785 -0.1516
  668TMC3    C7 9944   4.476   2.792  15.259  0.8322 -0.0409 -0.3488
  668TMC3    C8 9945   4.637   3.100  14.928  0.4629 -0.1499 -0.3767
  668TMC3    O1 9946   4.534   2.872  15.330 -0.0198 -0.5753 -0.4937
  668TMC3    O2 9947   4.625   3.178  15.021 -0.1766  0.0200 -0.5108
  669TMC3    C1 9948   2.475   2.465  14.817 -0.0743 -0.0366  0.1105
  669TMC3    C2 9949   2.394   2.403  14.727 -0.4288  0.2369 -0.2067
  669TMC3    C3 9950   2.360   2.479  14.613  0.4524 -0.3196  0.6672
  669TMC3    C4 9951   2.529   2.593  14.801 -0.0038  0.0415 -0.1860
  669TMC3    C5 9952   2.493   2.661  14.685  0.2921 -0.3164  0.0380
  669TMC3    C6 9953   2.407   2.608  14.591 -0.4465  0.6793 -0.0751
  669TMC3     C 9954   2.517   2.393  14.934 -0.4315  0.3946 -0.6473
  669TMC3     O 9955   2.627   2.413  14.980  0.3782 -0.4463 -0.9155
  669TMC3     H 9956   2.372   2.297  14.731  0.0288  0.3958  5.4792
  669TMC3    H1 9957   2.593   2.645  14.871 -2.0772 -1.0463  2.5144
  669TMC3    H2 9958   2.380   2.665  14.503 -0.1031 -1.6487 -1.6823
  669TMC3    C7 9959   2.605   2.738  14.634  1.1631  0.2600  0.0470
  669TMC3    C8 9960   2.289   2.412  14.507  0.4041  0.0995  0.5544
  669TMC3    O1 9961   2.694   2.771  14.710  0.5827  0.3732  0.0484
  669TMC3    O2 9962   2.333   2.299  14.486  0.3506  0.0240 -0.0150
  670MPD2     C 9963   0.803   4.248  13.351 -0.5886  0.0740 -0.6222
  670MPD2    C1 9964   0.898   4.256  13.453 -0.1118 -0.3934 -0.8696
  670MPD2    C2 9965   0.872   4.344  13.556  0.2225  0.1703  0.6105
  670MPD2    C3 9966   0.775   4.433  13.560  0.1496 -0.2953  0.1178
  670MPD2    C4 9967   0.682   4.428  13.452  0.0438 -0.4265  0.3879
  670MPD2    C5 9968   0.693   4.332  13.354  0.1247 -0.6680  0.6641
  670MPD2     H 9969   0.942   4.335  13.638  2.9746  0.7164 -1.6779
  670MPD2    H1 9970   0.596   4.494  13.442 -0.5078 -1.1325  0.4549
  670MPD2    H2 9971   0.815   4.180  13.267  1.2833 -3.1747  2.2550
  670MPD2    H3 9972   0.617   4.327  13.276  1.0797 -0.9402 -0.2583
  670MPD2     N 9973   0.781   4.529  13.659 -0.0277  0.2550 -0.2945
  670MPD2    H5 9974   0.868   4.531  13.712 -0.6878  0.6456  0.7703
  670MPD2    N1 9975   1.020   4.183  13.467  0.7025 -0.2692  0.2927
  670MPD2    H7 9976   1.077   4.209  13.546 -0.5087  0.7903  0.8185
  671TMC3    C1 9977   0.712   4.710  13.794 -0.1758  0.0504 -0.4421
  671TMC3    C2 9978   0.848   4.726  13.824  0.3080 -0.2628 -0.3589
  671TMC3    C3 9979   0.887   0.016  13.949  0.3099  0.2578 -0.5253
  671TMC3    C4 9980   0.620   4.718  13.894  0.4452 -0.2594 -0.0221
  671TMC3    C5 9981   0.668   0.016  14.018  0.4872  0.1452 -0.5288
  671TMC3    C6 9982   0.796   0.024  14.050  0.0577  0.2064 -0.0337
  671TMC3     C 9983   0.678   4.614  13.690 -0.1436 -0.1167 -0.3009
  671TMC3     O 9984   0.565   4.602  13.654 -0.4568  0.3366  0.7266
  671TMC3     H 9985   0.922   0.004  13.747 -0.7332  1.3834 -1.0735
  671TMC3    H1 9986   0.515   4.702  13.874  0.6163 -1.1833 -0.1737
  671TMC3    H2 9987   0.821   0.048  14.153  0.6747  0.8097 -0.3270
  671TMC3    C7 9988   0.578   4.704  14.118  0.2231  0.3983 -0.3154
  671TMC3    C8 9989   0.981   4.644  13.981 -0.7705  0.2511  0.3202
  671TMC3    O1 9990   0.459   4.723  14.090 -0.4956  0.3195 -0.9985
  671TMC3    O2 9991   0.985   4.554  13.899  0.5064  0.7230  0.2293
  672MPD2     C 9992   1.038   0.762   1.246  0.3099 -0.0257  0.4321
  672MPD2    C1 9993   1.058   0.646   1.176 -0.1149  0.0941 -0.8549
  672MPD2    C2 9994   1.168   0.633   1.100  0.5319 -0.1736 -0.5490
  672MPD2    C3 9995   1.263   0.736   1.100  0.2692  0.7508 -0.4190
  672MPD2    C4 9996   1.230   0.851   1.154  0.0697  0.2099  0.4601
  672MPD2    C5 9997   1.119   0.867   1.228 -0.5100 -0.3339 -0.0041
  672MPD2     H 9998   1.193   0.544   1.044  0.8819 -0.2059 -0.3387
  672MPD2    H1 9999   1.296   0.937   1.149  0.0261  0.1586 -0.8029
  672MPD2    H210000   0.954   0.778   1.312 -1.1503 -2.7840 -0.7672
  672MPD2    H310001   1.096   0.962   1.273 -0.3840  0.6915 -2.0940
  672MPD2     N10002   1.385   0.733   1.032 -0.0086 -0.4471 -0.4443
  672MPD2    H510003   1.442   0.817   1.034 -3.2040  1.7042 -0.5406
  672MPD2    N110004   0.958   0.543   1.170 -0.0812 -0.4362  0.8315
  672MPD2    H710005   0.982   0.460   1.117  1.6078  0.2504  0.5324
  673TMC3    C110006   0.741   0.451   1.167 -0.6664  0.1365  0.6870
  673TMC3    C210007   0.770   0.321   1.148  0.0193  0.0181  0.9602
  673TMC3    C310008   0.669   0.242   1.103 -0.1313  0.0178  0.2299
  673TMC3    C410009   0.611   0.494   1.145  1.0073  0.2724  0.2938
  673TMC3    C510010   0.514   0.414   1.100  0.2386 -0.7523  0.2161
  673TMC3    C610011   0.542   0.287   1.078 -0.1199  0.5038 -0.0883
  673TMC3     C10012   0.833   0.545   1.225 -0.2864 -0.0190  0.3961
  673TMC3     O10013   0.787   0.623   1.303 -0.4155 -0.0715 -0.0995
  673TMC3     H10014   0.869   0.288   1.178  0.8412  2.4951  0.9269
  673TMC3    H110015   0.582   0.594   1.176  0.0501 -0.1944  0.9261
  673TMC3    H210016   0.459   0.223   1.054 -1.1377  1.4583  0.8864
  673TMC3    C710017   0.413   0.478   1.015 -0.5338  0.0298  0.8504
  673TMC3    C810018   0.698   0.116   1.051 -0.4137  0.6315  0.2228
  673TMC3    O110019   0.332   0.410   0.960 -0.4007  0.3668  0.7860
  673TMC3    O210020   0.593   0.052   1.021 -0.4332  0.0534 -0.1382
  674MPD2     C10021   0.584   0.898   0.410  0.8190  0.2066  0.2073
  674MPD2    C110022   0.506   0.796   0.459 -0.7108 -0.4447  0.5192
  674MPD2    C210023   0.371   0.796   0.438 -0.3960 -0.0464  0.2980
  674MPD2    C310024   0.318   0.911   0.379  0.8082 -0.0507  0.4650
  674MPD2    C410025   0.399   1.012   0.334  0.6220 -0.2340  0.5314
  674MPD2    C510026   0.532   1.001   0.337  0.4356  0.6451  0.1058
  674MPD2     H10027   0.310   0.713   0.471 -0.2661 -0.0065  0.6313
  674MPD2    H110028   0.349   1.092   0.281 -0.2301 -0.2050  1.3758
  674MPD2    H210029   0.692   0.895   0.417  0.8604  2.6575  0.4927
  674MPD2    H310030   0.587   1.084   0.294 -1.8909  1.1124 -1.9993
  674MPD2     N10031   0.177   0.918   0.370 -0.0891  0.0891  0.0039
  674MPD2    H510032   0.125   0.837   0.401  0.9523 -0.6323 -0.1468
  674MPD2    N110033   0.566   0.696   0.535 -1.1343 -0.9444  0.2682
  674MPD2    H710034   0.667   0.693   0.545 -1.0506 -0.2776 -0.4496
  675TMC3    C110035   0.611   0.514   0.664  0.3197  0.0771  0.3083
  675TMC3    C210036   0.587   0.385   0.701 -0.3138 -0.4499 -0.7624
  675TMC3    C310037   0.692   0.301   0.724 -0.2433 -0.1953  0.0759
  675TMC3    C410038   0.729   0.572   0.703 -0.1783  0.8474 -0.3483
  675TMC3    C510039   0.829   0.484   0.735  1.0952  0.7062  0.3624
  675TMC3    C610040   0.824   0.347   0.742  0.3936  0.6148 -0.0373
  675TMC3     C10041   0.506   0.594   0.605 -0.6705  0.5526 -0.8581
  675TMC3     O10042   0.396   0.544   0.593  0.0615  0.3588  0.0551
  675TMC3     H10043   0.483   0.355   0.699 -0.2690 -0.5849 -1.1283
  675TMC3    H110044   0.736   0.680   0.695 -1.1294  0.8888 -0.5638
  675TMC3    H210045   0.918   0.302   0.772 -0.1333 -0.3362  0.1856
  675TMC3    C710046   0.964   0.527   0.742  0.3251  0.5457  0.0879
  675TMC3    C810047   0.688   0.163   0.671  0.0856 -0.0651  0.1324
  675TMC3    O110048   1.065   0.462   0.706  0.4999  0.0096  0.6016
  675TMC3    O210049   0.797   0.126   0.624 -0.3064 -0.2534 -0.1885
  676MPD2     C10050   3.819   3.427  11.205  0.1358 -0.6170 -0.3766
  676MPD2    C110051   3.716   3.333  11.206  0.0582 -0.0360  0.2971
  676MPD2    C210052   3.741   3.197  11.206 -0.2332  0.2748 -0.4556
  676MPD2    C310053   3.871   3.149  11.198  0.5929 -0.6593  0.5345
  676MPD2    C410054   3.976   3.238  11.194 -0.1515 -0.6268 -0.0617
  676MPD2    C510055   3.948   3.379  11.202  0.0928 -0.5967  0.3264
  676MPD2     H10056   3.659   3.127  11.201  1.2757 -1.5438 -0.0315
  676MPD2    H110057   4.076   3.209  11.165 -1.2133 -2.7744 -1.6621
  676MPD2    H210058   3.805   3.534  11.211  1.1591 -0.4159 -1.5887
  676MPD2    H310059   4.031   3.446  11.181 -1.1315  0.7572 -0.1463
  676MPD2     N10060   3.886   3.010  11.178  0.1404 -0.2280 -0.0093
  676MPD2    H510061   3.967   2.983  11.124  0.8854  1.8413  0.0482
  676MPD2    N110062   3.576   3.355  11.220  0.1399 -0.0713  0.4509
  676MPD2    H710063   3.519   3.281  11.259  0.6762 -1.0003 -0.5402
  677TMC3    C110064   3.388   3.463  11.282  0.1623  0.7596 -0.4210
  677TMC3    C210065   3.309   3.352  11.254  0.1414 -0.5516  0.4987
  677TMC3    C310066   3.202   3.332  11.340  0.5695 -0.2924  0.7678
  677TMC3    C410067   3.362   3.549  11.386  0.2766  0.6582 -0.7764
  677TMC3    C510068   3.255   3.532  11.462 -0.8078  0.0263 -0.5895
  677TMC3    C610069   3.172   3.422  11.441 -0.4105 -0.0485  0.6898
  677TMC3     C10070   3.511   3.479  11.221  0.2415 -0.4877  0.1526
  677TMC3     O10071   3.544   3.588  11.180 -0.5866  0.1359 -0.3869
  677TMC3     H10072   3.331   3.292  11.166 -2.6920 -1.5436  0.4537
  677TMC3    H110073   3.435   3.628  11.398 -0.9077  1.4805  1.1028
  677TMC3    H210074   3.089   3.408  11.510 -0.6578  0.9345  0.5988
  677TMC3    C710075   3.269   3.576  11.602  0.2093 -0.6215  0.2719
  677TMC3    C810076   3.122   3.210  11.320  0.7155  0.1396  0.5744
  677TMC3    O110077   3.181   3.540  11.672  0.3040 -0.3788 -0.5469
  677TMC3    O210078   3.128   3.169  11.200 -0.1335  0.5234  0.8553
  678MPD2     C10079   0.376   3.440   1.427 -0.3692  0.1256  0.9117
  678MPD2    C110080   0.341   3.318   1.372 -0.5740  0.6860 -0.0355
  678MPD2    C210081   0.220   3.259   1.410 -0.1981  0.4353 -0.2147
  678MPD2    C310082   0.133   3.315   1.502  0.0227 -0.2147 -0.7701
  678MPD2    C410083   0.177   3.434   1.563 -0.1173  0.3627  0.2562
  678MPD2    C510084   0.295   3.488   1.521 -0.5192  0.0053 -0.1270
  678MPD2     H10085   0.188   3.170   1.356 -0.8639 -0.9503  2.4954
  678MPD2    H110086   0.114   3.475   1.641  0.2335 -1.2835  1.4100
  678MPD2    H210087   0.472   3.491   1.422 -0.5849  0.5796  1.3694
  678MPD2    H310088   0.332   3.579   1.566 -2.8254 -0.2796  2.3442
  678MPD2     N10089   0.008   3.262   1.531 -0.2092  0.3796 -0.0129
  678MPD2    H510090   4.724   3.171   1.490 -2.5975  0.1252  1.6491
  678MPD2    N110091   0.417   3.254   1.267 -0.5024 -0.2302 -0.0851
  678MPD2    H710092   0.378   3.172   1.222  0.4597  0.3595 -1.9902
  679TMC3    C110093   0.740   3.156   0.937 -0.7828  0.5651 -0.7293
  679TMC3    C210094   0.707   3.183   1.070  0.1582  0.1968 -0.8821
  679TMC3    C310095   0.580   3.230   1.094 -0.2966 -0.6156 -0.3357
  679TMC3    C410096   0.647   3.167   0.837 -0.9875 -0.0172 -0.6218
  679TMC3    C510097   0.522   3.201   0.866 -0.0690 -0.6981  0.6807
  679TMC3    C610098   0.489   3.235   0.991 -0.7306  0.3205 -0.2769
  679TMC3     C10099   0.869   3.154   0.875  0.7647  0.8430  0.3338
  679TMC3     O10100   0.888   3.226   0.780 -0.2557  0.2921 -0.7995
  679TMC3     H10101   0.777   3.182   1.153 -1.3123 -1.7156  0.3538
  679TMC3    H110102   0.671   3.159   0.731 -0.3453  2.8505 -0.7163
  679TMC3    H210103   0.389   3.269   1.018 -1.2784 -1.4636 -0.0781
  679TMC3    C710104   0.412   3.169   0.778 -0.3597 -0.8449  0.1091
  679TMC3    C810105   0.542   3.290   1.223  1.1279  0.7545 -0.1742
  679TMC3    O110106   0.311   3.233   0.796  0.3392  0.6148 -0.1205
  679TMC3    O210107   0.630   3.334   1.293  0.2227  0.0571  0.4622
  680MPD2     C10108   0.297   1.939  13.453  1.0639  0.5304 -1.3716
  680MPD2    C110109   0.413   1.890  13.517 -0.5982 -0.2440 -0.3859
  680MPD2    C210110   0.498   1.975  13.586 -0.2341 -0.0845 -1.1093
  680MPD2    C310111   0.484   2.111  13.575  0.3591  0.9134  0.9410
  680MPD2    C410112   0.388   2.156  13.500  0.5363 -0.3350  0.2610
  680MPD2    C510113   0.300   2.075  13.435  0.2306  0.1886 -0.3270
  680MPD2     H10114   0.586   1.929  13.631 -2.7249 -0.3258  3.4847
  680MPD2    H110115   0.375   2.263  13.492  2.4074 -0.2067 -0.9980
  680MPD2    H210116   0.230   1.878  13.394 -1.6579  1.4499  0.7712
  680MPD2    H310117   0.228   2.132  13.379  0.2371 -0.3457 -0.8729
  680MPD2     N10118   0.577   2.202  13.620  0.7345 -0.1386 -0.2360
  680MPD2    H510119   0.566   2.298  13.589  0.4043 -0.2778 -0.5543
  680MPD2    N110120   0.441   1.752  13.533 -0.8363 -0.4460  0.2519
  680MPD2    H710121   0.526   1.732  13.586 -0.4654  1.1634  0.2641
  681TMC3    C110122   0.397   1.522  13.509  0.5534 -0.0348  0.0283
  681TMC3    C210123   0.355   1.473  13.629  0.3176 -0.2174  0.2338
  681TMC3    C310124   0.328   1.337  13.639 -0.4940  0.4144  0.1864
  681TMC3    C410125   0.409   1.439  13.403  0.6303 -0.4033 -0.6135
  681TMC3    C510126   0.391   1.304  13.420  0.3888  0.3737 -0.0428
  681TMC3    C610127   0.352   1.249  13.541  0.0183 -0.3529  0.8820
  681TMC3     C10128   0.365   1.654  13.472 -0.6457 -0.0339  0.5637
  681TMC3     O10129   0.287   1.663  13.381  0.3495  0.3615  0.8462
  681TMC3     H10130   0.326   1.536  13.713  0.2898  0.1604 -0.0582
  681TMC3    H110131   0.433   1.484  13.308 -1.3426  2.5542  0.2742
  681TMC3    H210132   0.339   1.142  13.545 -0.9519 -0.3649 -2.8727
  681TMC3    C710133   0.438   1.214  13.308 -1.0938  0.1986 -0.2592
  681TMC3    C810134   0.309   1.293  13.773 -0.5746 -0.9009  0.1666
  681TMC3    O110135   0.399   1.100  13.303  0.5165  0.2475  0.0123
  681TMC3    O210136   0.351   1.182  13.807  0.1940 -0.1532  0.0777
  682MPD2     C10137   3.090   4.029  10.832  0.6512 -0.0558 -0.0936
  682MPD2    C110138   3.045   3.898  10.812 -0.1260  0.1731 -0.2463
  682MPD2    C210139   2.943   3.851  10.891 -0.1700  0.1832 -0.3293
  682MPD2    C310140   2.885   3.932  10.983  0.2519  0.0477 -0.1148
  682MPD2    C410141   2.925   4.061  11.000 -0.1691  0.8141  0.0289
  682MPD2    C510142   3.033   4.104  10.928  0.0217  0.2691  0.4234
  682MPD2     H10143   2.916   3.748  10.871  2.5037 -1.5457  4.8458
  682MPD2    H110144   2.875   4.125  11.072  0.3824 -1.0298  2.0789
  682MPD2    H210145   3.168   4.084  10.781  0.6137 -1.6679 -1.9056
  682MPD2    H310146   3.062   4.207  10.946 -0.0549  0.2524  0.6415
  682MPD2     N10147   2.784   3.888  11.070 -0.3691  0.3066 -0.7963
  682MPD2    H510148   2.762   3.940  11.154  0.1352 -0.6024 -0.1069
  682MPD2    N110149   3.103   3.820  10.713 -0.2295 -0.0538  0.2754
  682MPD2    H710150   3.066   3.726  10.711  0.3259 -0.2511 -0.7813
  683TMC3    C110151   2.515   3.733  11.353 -0.1701  0.1999 -0.3067
  683TMC3    C210152   2.435   3.621  11.319 -0.5854  0.6147 -0.2385
  683TMC3    C310153   2.441   3.580  11.186  0.1342  0.5573  0.1337
  683TMC3    C410154   2.601   3.795  11.262  0.1672 -0.1777 -0.2466
  683TMC3    C510155   2.609   3.735  11.139 -0.1082  0.7773 -0.7339
  683TMC3    C610156   2.530   3.632  11.101  0.3406 -0.7135 -0.1563
  683TMC3     C10157   2.521   3.774  11.488  0.8137 -0.5163 -0.1649
  683TMC3     O10158   2.556   3.887  11.497  0.0376  0.3809  0.2144
  683TMC3     H10159   2.351   3.584  11.376 -0.8322  1.8486  0.2051
  683TMC3    H110160   2.665   3.872  11.302  1.1454 -1.4394  0.5914
  683TMC3    H210161   2.541   3.578  11.007 -0.0417 -0.2378 -0.4754
  683TMC3    C710162   2.703   3.778  11.037  0.7147  0.2618 -0.7857
  683TMC3    C810163   2.366   3.471  11.144  0.1415 -0.4040  0.2469
  683TMC3    O110164   2.689   3.722  10.934 -0.7516 -0.0359  0.7151
  683TMC3    O210165   2.329   3.468  11.023  0.2128 -0.2067 -0.1122
  684MPD2     C10166   0.569   2.633  16.713  0.2257  0.5184 -0.2605
  684MPD2    C110167   0.540   2.695  16.597 -0.2403 -0.8253 -0.6109
  684MPD2    C210168   0.536   2.834  16.589  0.1475 -0.1018 -0.4590
  684MPD2    C310169   0.573   2.911  16.696 -0.0025  0.5659 -0.0330
  684MPD2    C410170   0.600   2.846  16.816  0.1429 -0.5887 -0.2049
  684MPD2    C510171   0.586   2.708  16.821 -0.6059  0.3203  0.6759
  684MPD2     H10172   0.517   2.874  16.490  1.9782  1.4899 -0.1654
  684MPD2    H110173   0.621   2.907  16.903  0.0024 -1.1300  0.2139
  684MPD2    H210174   0.556   2.526  16.718  1.0067  0.3835 -1.0613
  684MPD2    H310175   0.598   2.657  16.915  1.8091 -3.3907 -1.6315
  684MPD2     N10176   0.593   3.053  16.692  0.6779 -0.4672 -0.4984
  684MPD2    H510177   0.619   3.094  16.781  0.8987  0.6831 -1.0989
  684MPD2    N110178   0.520   2.626  16.478  0.3569  0.3089 -0.1379
  684MPD2    H710179   0.511   2.680  16.392  0.0274  0.0744 -0.2539
  685TMC3    C110180   0.550   2.459  16.322  0.4209  0.5385 -0.0915
  685TMC3    C210181   0.464   2.539  16.244  0.2406 -0.4930  0.4004
  685TMC3    C310182   0.504   2.557  16.111  0.0413 -0.0348  0.8200
  685TMC3    C410183   0.666   2.398  16.275 -0.2963 -0.4329  0.2034
  685TMC3    C510184   0.693   2.427  16.146 -0.2643  0.0330 -0.7611
  685TMC3    C610185   0.618   2.501  16.059  0.6037 -0.5033  0.4492
  685TMC3     C10186   0.545   2.492  16.463  0.5368  0.4231 -0.5259
  685TMC3     O10187   0.593   2.406  16.539 -0.6734 -0.1025  0.0890
  685TMC3     H10188   0.374   2.569  16.296  1.0115 -0.4172  1.6991
  685TMC3    H110189   0.728   2.330  16.332 -1.3176 -0.4848  1.2514
  685TMC3    H210190   0.642   2.531  15.957 -2.1190 -0.3430 -0.1685
  685TMC3    C710191   0.834   2.423  16.110 -0.0403 -0.8344 -0.0279
  685TMC3    C810192   0.412   2.604  16.009 -0.4329  0.2744  0.5530
  685TMC3    O110193   0.867   2.453  15.993  0.0842 -0.5163  0.3982
  685TMC3    O210194   0.429   2.576  15.892 -0.4236 -0.5145 -0.0527
  686MPD2     C10195   2.028   3.305  16.077 -0.0360  0.4567 -0.2357
  686MPD2    C110196   2.065   3.175  16.110 -0.0592  0.0126  0.2438
  686MPD2    C210197   2.173   3.123  16.040 -0.3739 -0.2176  0.7086
  686MPD2    C310198   2.240   3.193  15.939 -0.2761  0.8951 -0.3849
  686MPD2    C410199   2.180   3.312  15.896  0.7424  0.4026  0.5214
  686MPD2    C510200   2.082   3.372  15.971 -0.4708 -0.6082  0.3003
  686MPD2     H10201   2.211   3.028  16.077 -0.6245  0.1742  1.9461
  686MPD2    H110202   2.217   3.371  15.814  1.1690 -2.1329 -1.1064
  686MPD2    H210203   1.947   3.350  16.134  1.2318  1.0262  1.1068
  686MPD2    H310204   2.042   3.470  15.949 -0.7228 -0.7939 -0.0825
  686MPD2     N10205   2.352   3.136  15.876  0.1945 -0.6504  0.1493
  686MPD2    H510206   2.374   3.047  15.920 -0.1085 -0.5003  0.6043
  686MPD2    N110207   1.985   3.109  16.210 -0.3837 -0.2541 -0.4938
  686MPD2    H710208   1.900   3.154  16.242  0.2775  0.2986  0.4641
  687TMC3    C110209   2.475   3.051  15.710 -0.1149  0.0436  0.5734
  687TMC3    C210210   2.436   3.017  15.582  0.3234 -0.4289 -0.2484
  687TMC3    C310211   2.399   2.889  15.556  0.8999 -0.4804  0.7277
  687TMC3    C410212   2.501   2.951  15.804 -0.2683 -0.0202  0.1640
  687TMC3    C510213   2.460   2.826  15.775 -0.4988  0.1596  0.7706
  687TMC3    C610214   2.400   2.794  15.654  0.0313 -0.2793 -0.3290
  687TMC3     C10215   2.407   3.172  15.754  0.0518  0.2700  0.0696
  687TMC3     O10216   2.388   3.264  15.676  0.3642  0.6076 -0.0557
  687TMC3     H10217   2.444   3.085  15.498 -1.6020  0.5850  0.4006
  687TMC3    H110218   2.546   2.976  15.900  1.7360 -1.9629 -0.2667
  687TMC3    H210219   2.362   2.696  15.626 -2.8938  0.4427  1.1293
  687TMC3    C710220   2.482   2.729  15.882 -0.3168 -0.3157 -0.0088
  687TMC3    C810221   2.351   2.853  15.420 -0.5236 -0.2953  0.1300
  687TMC3    O110222   2.577   2.761  15.952  0.6290 -0.3341 -0.4387
  687TMC3    O210223   2.419   2.907  15.330 -0.0025 -0.0073 -0.6958
  688MPD2     C10224   1.294   1.592  17.218 -0.6945  0.3303  0.2272
  688MPD2    C110225   1.343   1.482  17.287 -0.1266  0.0279  0.1892
  688MPD2    C210226   1.452   1.414  17.237 -0.9490  0.1105  0.1803
  688MPD2    C310227   1.508   1.444  17.113  0.0693 -0.2360 -0.0474
  688MPD2    C410228   1.465   1.553  17.047  0.5461  0.5678 -0.7584
  688MPD2    C510229   1.355   1.628  17.100  0.5440 -0.3240  0.2193
  688MPD2     H10230   1.494   1.334  17.297  0.0614  0.1772 -0.4497
  688MPD2    H110231   1.503   1.583  16.950  2.3924  0.1737 -0.1674
  688MPD2    H210232   1.216   1.652  17.265  1.1064  0.8790  2.5070
  688MPD2    H310233   1.314   1.708  17.040 -0.8624  1.3000  3.3589
  688MPD2     N10234   1.606   1.369  17.054  0.2906  0.6466  0.1016
  688MPD2    H510235   1.667   1.413  16.986  0.7773 -2.8419 -1.7129
  688MPD2    N110236   1.300   1.439  17.411  0.0217 -0.5117  0.0367
  688MPD2    H710237   1.362   1.372  17.456 -0.0113 -0.4696  0.1428
  689TMC3    C110238   1.207   1.434  17.604  0.2209 -0.4927 -0.1902
  689TMC3    C210239   1.321   1.480  17.658  0.5672  0.2588  0.4160
  689TMC3    C310240   1.342   1.436   0.045 -0.3681 -0.1090  0.8665
  689TMC3    C410241   1.120   1.341  17.654 -0.4274  0.5437 -0.1582
  689TMC3    C510242   1.151   1.299   0.038  0.1220 -0.1799 -0.4970
  689TMC3    C610243   1.263   1.341   0.104 -0.0474  0.1176 -0.3488
  689TMC3     C10244   1.181   1.475  17.472  0.7613 -0.5244 -0.6808
  689TMC3     O10245   1.067   1.503  17.431  0.3993  0.0720 -0.9602
  689TMC3     H10246   1.394   1.538  17.603  1.2028 -1.2709 -0.3570
  689TMC3    H110247   1.026   1.322  17.604 -0.1546  2.0298 -1.2450
  689TMC3    H210248   1.284   1.300   0.202  0.6808 -0.6321 -0.8248
  689TMC3    C710249   1.085   1.185   0.097  0.0751 -0.4819 -0.9750
  689TMC3    C810250   1.431   1.511   0.129 -0.6034 -0.9035  0.1327
  689TMC3    O110251   1.112   1.160   0.216 -0.4702 -0.2063  0.3230
  689TMC3    O210252   1.460   1.472   0.244  0.3742  0.4235  0.1027
  690MPD2     C10253   3.721   3.486  16.022  0.3621  0.1515  0.3343
  690MPD2    C110254   3.624   3.451  15.925 -0.2286  0.1602 -0.6741
  690MPD2    C210255   3.656   3.470  15.788  0.1855  0.1382 -0.0871
  690MPD2    C310256   3.790   3.508  15.753  0.8811 -0.4829 -0.2043
  690MPD2    C410257   3.877   3.554  15.856  0.2371 -0.8963 -0.0460
  690MPD2    C510258   3.841   3.539  15.990  0.0759 -0.0886  0.8425
  690MPD2     H10259   3.583   3.455  15.709  0.5159  1.8699 -0.7293
  690MPD2    H110260   3.965   3.614  15.835 -0.3112 -0.5275 -1.2497
  690MPD2    H210261   3.708   3.484  16.130 -0.5326  1.6111  0.2584
  690MPD2    H310262   3.910   3.581  16.062 -0.8190  1.1306  0.9966
  690MPD2     N10263   3.827   3.501  15.618  0.4484  0.2118  0.8189
  690MPD2    H510264   3.753   3.475  15.553  1.6783 -1.4343  0.0791
  690MPD2    N110265   3.495   3.393  15.953  0.2931 -0.0904  0.3740
  690MPD2    H710266   3.430   3.371  15.879  2.1814  0.6683 -1.4890
  691TMC3    C110267   3.317   3.298  16.077  0.3477 -0.4784 -1.1051
  691TMC3    C210268   3.237   3.327  15.973 -0.3464 -0.8932 -0.2507
  691TMC3    C310269   3.146   3.223  15.942 -0.0500  0.1222  0.2517
  691TMC3    C410270   3.316   3.185  16.150  0.0315  0.0686  0.4449
  691TMC3    C510271   3.237   3.080  16.104 -0.2193  0.4218  0.4157
  691TMC3    C610272   3.152   3.101  15.997  0.4759 -0.6993  0.1836
  691TMC3     C10273   3.444   3.364  16.078  0.0576  0.5089 -0.5100
  691TMC3     O10274   3.491   3.383  16.190  0.6903 -0.1446  0.4380
  691TMC3     H10275   3.242   3.420  15.919 -1.8970 -1.0487 -0.6403
  691TMC3    H110276   3.389   3.177  16.230  1.8030  2.0285 -0.9879
  691TMC3    H210277   3.083   3.022  15.969 -1.3525  0.1505  2.3190
  691TMC3    C710278   3.237   2.960  16.178 -0.2908 -0.2672 -0.4119
  691TMC3    C810279   3.022   3.261  15.880 -0.6317  1.0625 -0.4903
  691TMC3    O110280   3.297   2.959  16.285 -0.3035  0.1391 -0.2402
  691TMC3    O210281   2.950   3.170  15.849  0.4865 -0.2159 -0.5749
  692TMC3    C110282   0.296   4.328  15.904 -0.0484  0.1505  0.1725
  692TMC3    C210283   0.422   4.361  15.941  0.4573 -0.3750  0.3744
  692TMC3    C310284   0.519   4.271  15.924 -0.1412  0.4332  0.2625
  692TMC3    C410285   0.254   4.202  15.894 -0.0542  0.1579 -0.3300
  692TMC3    C510286   0.345   4.102  15.901 -0.1881 -0.5176 -0.7873
  692TMC3    C610287   0.476   4.140  15.908 -0.4283 -0.7556  0.1083
  692TMC3     C10288   0.203   4.408  15.979 -0.1422  0.7251 -0.9731
  692TMC3     O10289   0.190   4.374  16.096  0.4181  0.0548 -0.1773
  692TMC3     H10290   0.448   4.466  15.944  0.1670 -0.2791 -0.4850
  692TMC3    H110291   0.149   4.181  15.881  0.0985 -0.3076 -0.8046
  692TMC3    H210292   0.546   4.059  15.925 -1.9877 -1.8277  1.4639
  692TMC3    C710293   0.293   3.977  15.943 -0.4043 -0.6782  0.3994
  692TMC3    C810294   0.600   4.270  16.035  0.2811  0.3661  0.1680
  692TMC3    O110295   0.174   3.961  15.921  0.4713 -0.2000 -1.2332
  692TMC3    O210296   0.716   4.221  16.032 -0.6870 -0.0182 -0.2604
  693MPD2     C10297   4.627   2.304  11.075  0.2314 -0.0308  0.2144
  693MPD2    C110298   4.565   2.230  10.975 -0.8663  0.5688 -0.2614
  693MPD2    C210299   4.643   2.186  10.870 -0.6479  0.4236  0.1120
  693MPD2    C310300   0.041   2.244  10.860 -0.2784  0.2549  0.1290
  693MPD2    C410301   0.080   2.343  10.944 -0.0506 -0.5152 -0.2610
  693MPD2    C510302   0.008   2.367  11.052  0.4968 -0.3002  0.7674
  693MPD2     H10303   4.597   2.123  10.796  0.4702  0.5652 -0.7075
  693MPD2    H110304   0.178   2.389  10.937 -1.9736  3.5308 -0.6668
  693MPD2    H210305   4.570   2.358  11.150 -3.6990 -1.4970 -1.7196
  693MPD2    H310306   0.044   2.445  11.118 -0.7956  0.6661  0.3276
  693MPD2     N10307   0.128   2.195  10.754  0.1907 -0.4744 -0.2670
  693MPD2    H510308   0.219   2.238  10.761 -0.7044  1.5062 -0.8876
  693MPD2    N110309   4.434   2.189  10.992  0.0686 -0.4996 -0.0030
  693MPD2    H710310   4.392   2.220  11.079  0.5441  1.8959 -0.6217
  694TMC3    C110311   4.236   2.076  10.957  0.6531  0.3908  0.2711
  694TMC3    C210312   4.152   2.008  10.877  0.0139 -1.0387 -0.3762
  694TMC3    C310313   4.048   1.938  10.925 -0.0404  0.1200  0.3814
  694TMC3    C410314   4.222   2.085  11.093 -0.1557  0.1349 -0.0063
  694TMC3    C510315   4.105   2.019  11.143  0.1367  0.6935  0.2949
  694TMC3    C610316   4.024   1.943  11.062 -0.7411 -0.0722  0.1854
  694TMC3     C10317   4.354   2.127  10.892 -0.1412  0.3517  0.4103
  694TMC3     O10318   4.383   2.111  10.775  0.0278 -0.2308 -0.3912
  694TMC3     H10319   4.165   2.030  10.772  1.6978 -1.6002 -0.2899
  694TMC3    H110320   4.280   2.153  11.153 -0.1049  0.2675 -0.2056
  694TMC3    H210321   3.942   1.882  11.099 -2.4837  0.7325 -2.3226
  694TMC3    C710322   4.068   2.049  11.281  0.4795 -0.7668 -0.4508
  694TMC3    C810323   3.959   1.863  10.842 -0.0558 -0.7058 -0.4806
  694TMC3    O110324   4.142   2.117  11.351 -0.0460 -0.7422 -0.6780
  694TMC3    O210325   3.851   1.838  10.897  0.1228  0.3572  0.4617
  695MPD2     C10326   1.004   3.814  13.637  0.0861 -0.1248 -0.0553
  695MPD2    C110327   0.979   3.895  13.741 -0.5634 -0.1188 -0.3590
  695MPD2    C210328   0.865   3.974  13.737 -0.5321 -0.2022 -0.2034
  695MPD2    C310329   0.773   3.974  13.634  0.2367  0.1436 -0.3089
  695MPD2    C410330   0.792   3.879  13.535  0.0979 -0.9807 -0.0848
  695MPD2    C510331   0.911   3.808  13.540 -0.4935  0.4318 -0.5772
  695MPD2     H10332   0.838   4.035  13.823  1.4781  2.2310 -1.3189
  695MPD2    H110333   0.723   3.862  13.454  0.8110 -1.1827 -0.6535
  695MPD2    H210334   1.096   3.760  13.617  0.3278  0.4410 -0.4969
  695MPD2    H310335   0.924   3.733  13.463  0.4062  0.0593 -0.0603
  695MPD2     N10336   0.659   4.058  13.641  0.1157  0.3760  0.7598
  695MPD2    H510337   0.659   4.119  13.722 -1.6336  0.0237  1.0233
  695MPD2    N110338   1.061   3.891  13.855  0.3289 -0.0614  0.9675
  695MPD2    H710339   1.032   3.959  13.924 -1.6067 -0.1938  0.2969
  696TMC3    C110340   0.447   4.159  13.596  0.8519 -0.4615 -0.4822
  696TMC3    C210341   0.410   4.148  13.726 -0.1980 -0.2690  0.4201
  696TMC3    C310342   0.302   4.232  13.768  0.7074 -0.6153 -0.8768
  696TMC3    C410343   0.385   4.232  13.500  0.7406  0.5480 -0.1222
  696TMC3    C510344   0.292   4.327  13.546  0.4509  0.6173  0.3608
  696TMC3    C610345   0.247   4.321  13.679 -0.3506 -0.3921 -0.5423
  696TMC3     C10346   0.558   4.070  13.547  0.5477  0.2867  0.8982
  696TMC3     O10347   0.558   4.042  13.426  0.5260  0.0482  0.0140
  696TMC3     H10348   0.446   4.074  13.797  2.2581 -1.0264 -1.6177
  696TMC3    H110349   0.428   4.251  13.403 -1.6179 -0.5445 -1.3812
  696TMC3    H210350   0.169   4.391  13.706 -1.2129 -1.2703 -0.7513
  696TMC3    C710351   0.272   4.442  13.467 -0.6652  0.1496  0.3198
  696TMC3    C810352   0.333   4.298  13.892 -0.2389  0.4169 -0.3654
  696TMC3    O110353   0.278   4.432  13.346 -0.0015  0.4458 -0.7246
  696TMC3    O210354   0.300   4.416  13.887 -0.7114 -0.4722  0.1909
  697MPD2     C10355   0.200   1.286  15.933 -0.3972  0.4950  0.6328
  697MPD2    C110356   0.173   1.249  15.802 -0.1869  0.0946  0.0768
  697MPD2    C210357   0.218   1.331  15.700 -0.3417  0.4758  0.0152
  697MPD2    C310358   0.292   1.448  15.733  0.4790  0.4396 -0.2201
  697MPD2    C410359   0.306   1.484  15.864 -0.2164  0.2635 -0.5466
  697MPD2    C510360   0.252   1.403  15.963  0.1845  0.1713 -0.2564
  697MPD2     H10361   0.204   1.294  15.599 -1.0272 -0.5223  0.4765
  697MPD2    H110362   0.365   1.568  15.899  1.4950 -1.0353 -0.2725
  697MPD2    H210363   0.172   1.231  16.022  0.6381  0.7048  1.0936
  697MPD2    H310364   0.254   1.425  16.069  1.7205 -1.2734  0.0287
  697MPD2     N10365   0.365   1.511  15.633 -0.4615  0.3136 -0.8518
  697MPD2    H510366   0.361   1.471  15.539  0.9734 -2.5413  0.3023
  697MPD2    N110367   0.107   1.130  15.759 -0.6578  0.4523  0.3266
  697MPD2    H710368   0.106   1.106  15.661  0.5164  2.2069 -0.1245
  698TMC3    C110369   0.466   1.677  15.519  0.0604 -0.2569  0.0038
  698TMC3    C210370   0.588   1.729  15.517 -0.2058 -0.4164 -0.2222
  698TMC3    C310371   0.663   1.712  15.405  0.0837 -0.5780  0.5154
  698TMC3    C410372   0.419   1.602  15.411  0.3464  0.6118  0.8911
  698TMC3    C510373   0.486   1.591  15.293 -0.0680 -0.0765 -0.0233
  698TMC3    C610374   0.614   1.640  15.298 -0.7467  0.1550  0.4109
  698TMC3     C10375   0.428   1.637  15.647 -0.1798 -0.0298 -0.1998
  698TMC3     O10376   0.423   1.723  15.734  0.1970  0.2070  0.3976
  698TMC3     H10377   0.624   1.795  15.596  2.7507 -1.2656 -0.8414
  698TMC3    H110378   0.312   1.584  15.404  0.2114  1.8765 -0.5829
  698TMC3    H210379   0.681   1.631  15.213  0.0204  1.6279  0.8618
  698TMC3    C710380   0.414   1.558  15.173 -0.1075 -0.0354 -0.0485
  698TMC3    C810381   0.792   1.774  15.416 -0.6127 -0.0512  0.1954
  698TMC3    O110382   0.307   1.509  15.197 -0.6091  0.0108  0.1040
  698TMC3    O210383   0.834   1.797  15.529 -0.4457  0.2959  0.5519
  699TMC3    C110384   0.198   4.122  13.005  0.1000 -0.3606  0.6571
  699TMC3    C210385   0.146   3.996  12.975  0.0118 -0.7054  0.7772
  699TMC3    C310386   0.057   3.939  13.059 -0.1336  0.6465  0.4876
  699TMC3    C410387   0.161   4.185  13.124 -0.3403  0.1889 -0.2868
  699TMC3    C510388   0.062   4.126  13.190 -0.5319 -0.9282 -0.7353
  699TMC3    C610389   0.010   4.005  13.160 -0.3976  0.0184  0.1843
  699TMC3     C10390   0.294   4.188  12.919 -0.5295  0.4042  0.0741
  699TMC3     O10391   0.312   4.308  12.940  0.2941  0.6533 -0.2133
  699TMC3     H10392   0.184   3.938  12.892  2.0814 -0.4267  1.5319
  699TMC3    H110393   0.195   4.286  13.145 -0.0509 -0.2850  1.5656
  699TMC3    H210394   4.669   3.961  13.224  0.4412 -1.4115  0.1842
  699TMC3    C710395   0.009   4.197  13.305 -0.1830 -0.0106  0.4410
  699TMC3    C810396   4.703   3.836  13.012 -0.0183 -0.5606 -0.1001
  699TMC3    O110397   4.688   4.137  13.397 -0.1264  0.4202  0.4455
  699TMC3    O210398   4.663   3.762  13.100 -0.0988  1.1441 -0.2923
  700TMC3    C110399   3.711   1.870  17.717  0.7778 -0.7088  0.0926
  700TMC3    C210400   3.737   1.736  17.707 -0.7338 -0.2841  0.3330
  700TMC3    C310401   3.819   1.671   0.059 -0.0041  0.2622 -0.6038
  700TMC3    C410402   3.776   1.948   0.063 -0.3432 -1.0532  0.2261
  700TMC3    C510403   3.847   1.876   0.157  0.5761  0.1067  0.0302
  700TMC3    C610404   3.868   1.742   0.167  0.8555 -0.6461  0.3247
  700TMC3     C10405   3.651   1.935  17.606  0.2643  0.8071  0.2970
  700TMC3     O10406   3.548   1.903  17.551 -0.6721  0.4177 -0.2779
  700TMC3     H10407   3.718   1.694  17.609 -1.8967  2.3708 -0.5955
  700TMC3    H110408   3.757   2.055   0.063 -1.8562 -1.3257 -0.7365
  700TMC3    H210409   3.943   1.694   0.229  0.9503 -1.4651 -0.4145
  700TMC3    C710410   3.888   1.964   0.262  0.9562  0.1882 -0.0302
  700TMC3    C810411   3.895   1.562   0.008 -0.4767  0.1729 -0.1203
  700TMC3    O110412   3.832   2.070   0.261 -0.1420 -0.0886 -0.2658
  700TMC3    O210413   4.021   1.567   0.008 -0.5228 -0.3183  0.2637
  701TMC3    C110414   4.127   0.642  15.948  0.3596 -0.0560  0.0592
  701TMC3    C210415   4.141   0.557  15.841 -0.3312  0.5608  0.5699
  701TMC3    C310416   4.229   0.603  15.738 -0.1697 -0.6342 -0.7490
  701TMC3    C410417   4.184   0.772  15.949  0.0875 -0.5314  0.1482
  701TMC3    C510418   4.271   0.804  15.849  0.1311 -0.1016 -0.2575
  701TMC3    C610419   4.294   0.722  15.742 -0.8440  0.5742 -0.4453
  701TMC3     C10420   4.044   0.595  16.063 -0.3946  0.0063  0.1966
  701TMC3     O10421   3.992   0.487  16.045  0.1880 -0.2461 -0.5365
  701TMC3     H10422   4.090   0.461  15.848 -0.2140  0.5018  0.6133
  701TMC3    H110423   4.164   0.833  16.036  0.2786 -2.5590  1.6208
  701TMC3    H210424   4.362   0.742  15.660  1.1311  1.0770  1.3058
  701TMC3    C710425   4.365   0.914  15.870  0.8124  0.2610  0.1409
  701TMC3    C810426   4.236   0.521  15.618 -0.2150 -0.7048  0.5514
  701TMC3    O110427   4.438   0.953  15.779 -0.1583  0.3939  0.8057
  701TMC3    O210428   4.330   0.528  15.543  0.0303 -0.3271  0.1353
  702MPD2     C10429   4.160   2.756  10.692  0.2240 -0.1593  0.3211
  702MPD2    C110430   4.026   2.772  10.710 -0.4282 -0.0369  0.1211
  702MPD2    C210431   3.951   2.844  10.617  0.6253 -0.2272  0.9580
  702MPD2    C310432   4.015   2.909  10.515 -0.1815 -0.1725 -0.1291
  702MPD2    C410433   4.146   2.892  10.490  0.2768 -0.6105 -0.3343
  702MPD2    C510434   4.218   2.817  10.580  0.1012 -0.0931 -0.7186
  702MPD2     H10435   3.843   2.858  10.620  0.6344 -0.1428  0.8746
  702MPD2    H110436   4.196   2.947  10.411  1.8044 -3.1415 -1.1613
  702MPD2    H210437   4.221   2.696  10.759 -1.1207 -1.1040  0.7243
  702MPD2    H310438   4.325   2.807  10.561  0.0454  0.0283 -1.0927
  702MPD2     N10439   3.941   3.003  10.445 -0.1571 -0.3033 -0.6084
  702MPD2    H510440   3.846   3.019  10.476  0.5046 -0.5855  1.5261
  702MPD2    N110441   3.958   2.726  10.828 -0.4731 -0.0443 -0.1697
  702MPD2    H710442   3.859   2.743  10.837 -0.3979  0.7142 -0.8557
  703TMC3    C110443   3.889   3.186  10.296  0.9785  0.1995  0.0760
  703TMC3    C210444   3.790   3.222  10.390  0.8075 -0.2649  1.1081
  703TMC3    C310445   3.717   3.335  10.370 -0.1816  0.2810 -0.0177
  703TMC3    C410446   3.926   3.267  10.198 -0.6413 -0.4851 -0.2047
  703TMC3    C510447   3.851   3.380  10.185  0.7451 -0.1382 -0.2238
  703TMC3    C610448   3.747   3.417  10.267 -1.2057 -0.3391  0.4518
  703TMC3     C10449   3.979   3.076  10.339 -0.3018  0.3773  0.0817
  703TMC3     O10450   4.089   3.086  10.285 -0.1640  0.8342  0.0727
  703TMC3     H10451   3.795   3.178  10.489 -0.2469 -0.0211  1.2769
  703TMC3    H110452   3.988   3.232  10.116 -0.9970  0.2568 -0.7897
  703TMC3    H210453   3.684   3.499  10.233  1.0380  1.7987  1.4051
  703TMC3    C710454   3.887   3.483  10.088  0.5381  0.0754  0.3364
  703TMC3    C810455   3.619   3.376  10.469  0.0975  0.2133  0.3119
  703TMC3    O110456   3.798   3.562  10.053 -0.2830 -0.2230 -0.4196
  703TMC3    O210457   3.577   3.492  10.457 -0.3890  0.4304 -0.6450
  704TMC3    C110458   1.825   1.097  12.415 -0.1317 -0.8393  0.3220
  704TMC3    C210459   1.846   1.078  12.284 -0.4593  0.0126  0.9815
  704TMC3    C310460   1.876   0.948  12.248 -0.0366 -0.5188  0.1948
  704TMC3    C410461   1.872   1.013  12.517 -0.4839  0.6284 -0.4726
  704TMC3    C510462   1.912   0.885  12.480 -0.2420 -0.0798  0.5606
  704TMC3    C610463   1.901   0.855  12.345 -0.0078 -0.1438  0.1549
  704TMC3     C10464   1.692   1.137  12.441  0.2278  0.4126 -0.4852
  704TMC3     O10465   1.642   1.064  12.525 -0.0336  0.1788  0.5624
  704TMC3     H10466   1.825   1.152  12.208  3.2341 -0.1482 -0.2223
  704TMC3    H110467   1.849   1.036  12.620 -1.7858 -1.6171 -0.2567
  704TMC3    H210468   1.895   0.753  12.307  1.7048 -0.9103  1.9761
  704TMC3    C710469   1.865   0.784  12.569  0.0004  0.3044  0.6498
  704TMC3    C810470   1.774   0.906  12.158 -0.4424  0.1630  0.3920
  704TMC3    O110471   1.812   0.685  12.528 -0.3559 -0.2928 -0.3928
  704TMC3    O210472   1.693   0.831  12.203  0.0454 -0.4208  0.7653
  705MPD2     C10473   0.990   4.359  16.759 -0.8466 -0.9430  0.8656
  705MPD2    C110474   0.883   4.402  16.688 -0.2864 -0.3664 -0.1251
  705MPD2    C210475   0.760   4.412  16.750  0.0891  0.1839 -0.3256
  705MPD2    C310476   0.743   4.341  16.872 -0.8484 -0.3687 -0.2849
  705MPD2    C410477   0.850   4.284  16.939 -0.2641  0.4935 -0.2475
  705MPD2    C510478   0.972   4.294  16.885  0.3516  0.4412  0.5126
  705MPD2     H10479   0.684   4.468  16.697 -0.4932 -0.2140  0.0909
  705MPD2    H110480   0.843   4.230  17.033  1.0366 -0.8697 -0.9434
  705MPD2    H210481   1.092   4.370  16.725 -0.5227 -1.0770  1.8179
  705MPD2    H310482   1.055   4.257  16.944  0.8617  0.2421 -0.3383
  705MPD2     N10483   0.615   4.331  16.936  0.2185  0.4821 -0.0736
  705MPD2    H510484   0.606   4.273  17.019  1.6838 -1.2184 -1.0960
  705MPD2    N110485   0.892   4.441  16.552 -0.2961 -0.0691  0.6608
  705MPD2    H710486   0.803   4.467  16.511 -0.7940 -1.5705  0.7679
  706TMC3    C110487   1.017   4.369  16.101  0.2081  1.0597 -0.3840
  706TMC3    C210488   0.917   4.439  16.044 -0.0384  0.2203  0.3909
  706TMC3    C310489   0.841   4.512  16.141  0.2882 -0.0502 -0.1547
  706TMC3    C410490   1.056   4.368  16.235  0.3108  0.0338 -0.0802
  706TMC3    C510491   0.967   4.437  16.323 -0.0568  0.5422  0.3828
  706TMC3    C610492   0.864   4.512  16.277  0.1718 -0.2712  0.1697
  706TMC3     C10493   1.081   4.269  16.025  0.1546  0.6564 -0.3850
  706TMC3     O10494   1.193   4.228  16.061  0.0232 -0.6299  0.0774
  706TMC3     H10495   0.905   4.455  15.937 -2.1055  0.0977  0.6083
  706TMC3    H110496   1.113   4.281  16.264  2.3557  0.1351 -3.7294
  706TMC3    H210497   0.820   4.592  16.335  0.4143  0.2896 -0.4158
  706TMC3    C710498   0.993   4.408  16.462 -0.3059  0.3964  0.5166
  706TMC3    C810499   0.734   4.596  16.087  0.4852  0.3165 -0.1305
  706TMC3    O110500   1.101   4.361  16.490 -0.2617 -0.1199 -0.1652
  706TMC3    O210501   0.724   4.587  15.967 -0.4201  0.4284 -0.1884
  707TMC3    C110502   2.602   3.028   0.935 -0.1723 -0.3625  0.4377
  707TMC3    C210503   2.542   2.992   1.054 -0.2905  0.2535  0.4815
  707TMC3    C310504   2.413   2.949   1.059  0.6521  0.9691 -0.5007
  707TMC3    C410505   2.536   3.003   0.823  0.2111 -0.6505  0.1124
  707TMC3    C510506   2.410   2.958   0.835 -0.5609  0.0459 -0.6918
  707TMC3    C610507   2.342   2.928   0.952 -0.1827  0.1397 -0.2111
  707TMC3     C10508   2.743   2.984   0.933  0.2976 -0.1673 -0.4778
  707TMC3     O10509   2.779   2.901   1.015  0.9045 -0.2498  0.8151
  707TMC3     H10510   2.603   3.000   1.143 -1.3706 -2.3377  1.4628
  707TMC3    H110511   2.584   3.007   0.726  0.0934 -1.6128  0.0144
  707TMC3    H210512   2.240   2.892   0.961 -0.0332 -0.3173 -0.3314
  707TMC3    C710513   2.365   2.900   0.712 -0.6040  0.1081  0.7004
  707TMC3    C810514   2.381   2.889   1.183 -0.7628  0.1654 -0.5272
  707TMC3    O110515   2.416   2.948   0.613  0.5874 -0.3328 -0.3233
  707TMC3    O210516   2.257   2.888   1.208  0.4933  0.0886  0.2377
  708MPD2     C10517   3.567   1.761  14.184  0.1993 -0.2275 -0.0416
  708MPD2    C110518   3.470   1.832  14.258  0.9695  0.5288 -0.1030
  708MPD2    C210519   3.480   1.837  14.396 -0.3807  0.1421 -0.3591
  708MPD2    C310520   3.597   1.811  14.457 -0.7066 -0.0057 -0.0528
  708MPD2    C410521   3.696   1.759  14.375  0.5877 -0.6395 -0.1237
  708MPD2    C510522   3.687   1.739  14.245 -0.0126 -0.6116  0.6879
  708MPD2     H10523   3.395   1.884  14.445 -0.9501 -3.0371  1.6531
  708MPD2    H110524   3.790   1.737  14.424  0.0313 -2.0037  0.3438
  708MPD2    H210525   3.571   1.752  14.076 -2.3138 -0.9721 -0.0581
  708MPD2    H310526   3.772   1.702  14.188  0.8630  1.8998  0.3603
  708MPD2     N10527   3.605   1.842  14.602 -1.0324  0.1959  0.3082
  708MPD2    H510528   3.522   1.881  14.645  0.0336  1.9821  0.7427
  708MPD2    N110529   3.348   1.887  14.200  0.6370 -0.5986 -0.2505
  708MPD2    H710530   3.290   1.936  14.268  0.5310 -2.8384  1.2945
  709TMC3    C110531   3.223   2.013  14.049  0.4723  0.0533 -0.9026
  709TMC3    C210532   3.255   2.140  14.003 -0.1729 -0.4878  0.2559
  709TMC3    C310533   3.197   2.245  14.063 -0.3267  1.3407 -0.2068
  709TMC3    C410534   3.133   2.001  14.159 -0.8940 -0.3610 -0.1030
  709TMC3    C510535   3.087   2.116  14.221 -0.2628 -0.2352 -0.4384
  709TMC3    C610536   3.118   2.241  14.176 -0.3904 -0.0050  0.4890
  709TMC3     C10537   3.331   1.919  14.065  0.1516 -0.3418 -0.1358
  709TMC3     O10538   3.416   1.908  13.974 -0.2098  0.0984  0.2358
  709TMC3     H10539   3.302   2.148  13.905 -0.5887 -0.0044  0.0985
  709TMC3    H110540   3.111   1.911  14.214  2.0266  0.0835  1.7944
  709TMC3    H210541   3.083   2.334  14.218 -0.8397 -1.0678  2.4534
  709TMC3    C710542   3.125   2.110  14.360 -0.9898  0.9497  0.8997
  709TMC3    C810543   3.180   2.368  13.988  0.1777  0.0093 -0.1882
  709TMC3    O110544   3.205   2.023  14.390 -0.3994 -0.2847 -0.5018
  709TMC3    O210545   3.093   2.447  14.021  0.2683 -0.4357 -0.5511
  710TMC3    C110546   4.391   3.386   0.499  0.5944 -0.2564  0.1838
  710TMC3    C210547   4.410   3.485   0.406 -0.2413  1.1751 -0.0591
  710TMC3    C310548   4.519   3.459   0.322 -0.6677 -0.2495 -0.1606
  710TMC3    C410549   4.471   3.273   0.504  0.0457 -0.3399 -0.8456
  710TMC3    C510550   4.577   3.257   0.419  0.6003 -0.6123 -0.1511
  710TMC3    C610551   4.598   3.351   0.327  1.0704 -0.0988 -0.7405
  710TMC3     C10552   4.288   3.397   0.601 -0.6308 -0.2128 -0.3500
  710TMC3     O10553   4.247   3.300   0.667  0.1469 -0.1778 -0.9752
  710TMC3     H10554   4.338   3.565   0.405 -2.0631 -0.4636  0.6144
  710TMC3    H110555   4.455   3.199   0.582  1.0163  0.8542  0.5001
  710TMC3    H210556   4.677   3.343   0.253  0.6617 -1.8351 -1.0033
  710TMC3    C710557   4.693   3.201   0.482 -0.3807 -1.2836 -0.1084
  710TMC3    C810558   4.568   3.567   0.246 -0.2054  0.4043 -0.0497
  710TMC3    O110559   4.695   3.211   0.599 -0.3915 -0.2927 -0.1319
  710TMC3    O210560   4.654   3.544   0.161 -0.2203  0.0830 -0.1889
  711TMC3    C110561   0.047   0.017  14.671  0.1273 -0.1438  0.3653
  711TMC3    C210562   4.690   0.112  14.698 -0.4380 -0.5857 -0.4442
  711TMC3    C310563   4.734   0.225  14.762 -0.9155 -0.3463  0.2653
  711TMC3    C410564   0.180   0.034  14.700 -0.2971  0.0050  0.5871
  711TMC3    C510565   0.228   0.150  14.754 -0.5931 -0.5491 -0.3550
  711TMC3    C610566   0.133   0.242  14.788 -0.0286 -0.3670  0.8709
  711TMC3     C10567   4.728   4.624  14.662 -0.7520  0.8942 -0.8154
  711TMC3     O10568   4.628   4.616  14.591 -0.0333  0.0374  0.1575
  711TMC3     H10569   4.583   0.100  14.683 -0.4774  0.1709 -0.7577
  711TMC3    H110570   0.244   4.682  14.702 -0.1578  0.1215  1.2773
  711TMC3    H210571   0.158   0.342  14.823 -2.9961 -0.0422  2.0441
  711TMC3    C710572   0.348   0.148  14.828  0.0632  0.3112 -0.1237
  711TMC3    C810573   4.652   0.261  14.872  0.8841  0.0503  0.3194
  711TMC3    O110574   0.355   0.055  14.910 -0.2523 -0.4232  0.5348
  711TMC3    O210575   4.529   0.269  14.852 -0.1753  0.3287 -0.0207
  712MPD2     C10576   1.486   0.674  13.611 -0.5671  0.0980 -0.4124
  712MPD2    C110577   1.381   0.751  13.581 -0.4206  0.0302  0.7112
  712MPD2    C210578   1.373   0.886  13.621 -0.6075 -0.4080 -0.1858
  712MPD2    C310579   1.480   0.941  13.682 -0.5820 -0.8693 -0.0481
  712MPD2    C410580   1.588   0.862  13.717 -0.1469 -0.7634  0.1507
  712MPD2    C510581   1.589   0.732  13.672  0.0633  0.0701  0.5113
  712MPD2     H10582   1.280   0.936  13.595 -0.8109 -0.3400  0.6760
  712MPD2    H110583   1.668   0.895  13.782 -1.7917 -0.7732  2.1743
  712MPD2    H210584   1.502   0.568  13.593  0.3770 -0.1624  1.9585
  712MPD2    H310585   1.681   0.682  13.701  0.1594 -1.0651 -1.7978
  712MPD2     N10586   1.490   1.076  13.717  1.2045  0.0850  0.4230
  712MPD2    H510587   1.572   1.095  13.774  2.0982  0.7032 -1.0625
  712MPD2    N110588   1.275   0.700  13.509 -0.0478  0.3362  0.2454
  712MPD2    H710589   1.196   0.762  13.499 -2.4969 -2.3468  2.8155
  713TMC3    C110590   1.453   1.303  13.708  0.3770 -0.3967  0.6888
  713TMC3    C210591   1.590   1.314  13.719 -0.9642  0.4164 -0.7263
  713TMC3    C310592   1.629   1.425  13.784  0.0348  0.8965 -0.0138
  713TMC3    C410593   1.364   1.410  13.713  0.4528 -0.0071 -0.2760
  713TMC3    C510594   1.411   1.527  13.760  0.5506  0.0790  0.6479
  713TMC3    C610595   1.547   1.534  13.802 -0.7501 -0.3826 -0.0670
  713TMC3     C10596   1.394   1.168  13.698 -0.4250 -0.2257  0.5364
  713TMC3     O10597   1.277   1.158  13.666  0.0804 -0.2038 -0.0436
  713TMC3     H10598   1.660   1.241  13.680  0.6676  1.2064  0.7247
  713TMC3    H110599   1.257   1.395  13.696  0.8505 -0.8570 -2.1030
  713TMC3    H210600   1.586   1.632  13.826  1.9239 -1.8361  1.4457
  713TMC3    C710601   1.331   1.649  13.779 -0.2487 -0.0363 -1.1096
  713TMC3    C810602   1.768   1.441  13.811 -0.2926 -0.7491  0.4264
  713TMC3    O110603   1.367   1.721  13.870  0.3848  0.1224 -0.0863
  713TMC3    O210604   1.807   1.557  13.825  0.0595  0.2045 -0.4239
  714MPD2     C10605   3.369   4.669   1.683  0.0997 -0.3492  0.2184
  714MPD2    C110606   3.407   4.589   1.573 -0.0846  0.3746  0.3039
  714MPD2    C210607   3.341   4.606   1.455 -0.3657  0.1116 -0.1327
  714MPD2    C310608   3.230   4.689   1.456 -0.0605 -0.3286 -0.4108
  714MPD2    C410609   3.198   0.030   1.566  0.7564 -0.3836 -0.1767
  714MPD2    C510610   3.266   0.028   1.683 -0.3645  0.4599  0.2930
  714MPD2     H10611   3.377   4.561   1.364 -0.2635  0.8635 -0.4612
  714MPD2    H110612   3.115   0.100   1.569  1.1984  0.1762 -0.9753
  714MPD2    H210613   3.421   4.658   1.778  0.0430 -0.1038  0.2783
  714MPD2    H310614   3.228   0.085   1.768 -1.5182  1.3915 -0.8453
  714MPD2     N10615   3.150   4.680   1.339  0.3592  0.7940  0.4745
  714MPD2    H510616   3.185   4.624   1.262 -0.7799 -1.8239  1.8692
  714MPD2    N110617   3.526   4.501   1.580 -0.0449  0.4876  0.1524
  714MPD2    H710618   3.583   4.496   1.664 -3.0006 -1.7704  2.0064
  715TMC3    C110619   3.677   4.348   1.516  0.0264  0.4572 -0.0868
  715TMC3    C210620   3.688   4.213   1.493  0.4699 -0.3937 -0.4086
  715TMC3    C310621   3.812   4.157   1.511 -0.2675  1.0208 -0.1765
  715TMC3    C410622   3.779   4.416   1.567 -0.8320 -0.0325  0.1977
  715TMC3    C510623   3.904   4.368   1.571  0.4893 -0.4191 -0.3163
  715TMC3    C610624   3.926   4.234   1.543 -0.4117  0.1179 -0.2975
  715TMC3     C10625   3.554   4.413   1.483 -0.0124 -0.0416 -0.2067
  715TMC3     O10626   3.472   4.349   1.414  0.3712 -0.7067 -0.1863
  715TMC3     H10627   3.607   4.158   1.446 -0.6899  0.7835  0.2077
  715TMC3    H110628   3.763   4.519   1.595 -0.2411  0.2396 -0.4553
  715TMC3    H210629   4.021   4.187   1.565 -0.0964  1.3651  1.0120
  715TMC3    C710630   4.018   4.454   1.610 -0.3020  0.0427  0.7676
  715TMC3    C810631   3.828   4.017   1.473 -0.5376 -0.4551  0.9602
  715TMC3    O110632   4.127   4.418   1.570 -0.4680 -0.3438  0.1852
  715TMC3    O210633   3.730   3.946   1.455  0.6487  0.1321 -0.0128
  716MPD2     C10634   3.175   3.209   9.746  0.1275 -0.1107 -0.9248
  716MPD2    C110635   3.163   3.168   9.616  0.4477 -0.5909 -0.4537
  716MPD2    C210636   3.194   3.042   9.586 -0.0101 -0.4134  0.2764
  716MPD2    C310637   3.242   2.958   9.684  0.8737  0.6072  0.7079
  716MPD2    C410638   3.257   2.999   9.814  0.2182  0.0899 -0.5719
  716MPD2    C510639   3.221   3.130   9.847  0.3430 -0.3352  0.1975
  716MPD2     H10640   3.181   3.002   9.487  1.6897  0.7429 -0.4142
  716MPD2    H110641   3.310   2.932   9.881 -1.0152 -0.2243  0.0856
  716MPD2    H210642   3.146   3.306   9.785 -2.7586 -1.3854  0.1521
  716MPD2    H310643   3.218   3.172   9.947 -2.2808 -2.2071  0.9020
  716MPD2     N10644   3.266   2.822   9.641 -0.2528 -1.0721 -0.3891
  716MPD2    H510645   3.251   2.802   9.543  2.0481  0.2146 -0.9988
  716MPD2    N110646   3.089   3.253   9.531 -0.5265 -0.1658 -0.4440
  716MPD2    H710647   3.050   3.337   9.571 -1.1238 -0.9116  0.5531
  717TMC3    C110648   3.315   2.598   9.624  0.5745  0.0805  0.5237
  717TMC3    C210649   3.224   2.587   9.518 -0.5333 -0.7807  0.2050
  717TMC3    C310650   3.239   2.489   9.435  0.2438  0.2273 -0.0897
  717TMC3    C410651   3.417   2.511   9.646  0.2208 -0.3439  0.3838
  717TMC3    C510652   3.428   2.413   9.554  0.8785  0.6466 -0.2136
  717TMC3    C610653   3.341   2.391   9.452  0.1951 -0.0776  0.3642
  717TMC3     C10654   3.310   2.713   9.705 -0.0053  0.4811 -0.0944
  717TMC3     O10655   3.379   2.712   9.809  0.3283  0.6104  0.4680
  717TMC3     H10656   3.131   2.643   9.519  0.4900  0.9059  0.3581
  717TMC3    H110657   3.497   2.539   9.714 -0.0253  0.5520  0.3009
  717TMC3    H210658   3.360   2.322   9.370 -1.0572 -0.4047  0.3443
  717TMC3    C710659   3.553   2.340   9.548  0.5206  0.0008  0.1090
  717TMC3    C810660   3.144   2.487   9.321 -0.5399 -0.3685  0.0599
  717TMC3    O110661   3.582   2.298   9.438  0.3146 -0.2915  0.6194
  717TMC3    O210662   3.097   2.596   9.292 -0.3652 -0.1468 -0.5961
  718MPD2     C10663   2.458   1.492  12.534  0.2862 -0.3460 -0.2169
  718MPD2    C110664   2.561   1.411  12.489  0.1425 -0.1162  0.2809
  718MPD2    C210665   2.629   1.344  12.588 -1.1361 -0.3121  0.0769
  718MPD2    C310666   2.607   1.370  12.719  0.5676 -0.0123  0.2607
  718MPD2    C410667   2.513   1.462  12.763  0.6986 -0.1209 -0.4859
  718MPD2    C510668   2.437   1.521  12.667 -0.3691 -0.6143 -0.0100
  718MPD2     H10669   2.687   1.261  12.551  0.2116  0.4553  0.4829
  718MPD2    H110670   2.496   1.490  12.866 -0.2203  0.9355 -0.9137
  718MPD2    H210671   2.397   1.540  12.458 -1.1292 -3.4729 -1.0697
  718MPD2    H310672   2.361   1.594  12.691 -0.2134 -0.1807 -0.8440
  718MPD2     N10673   2.663   1.287  12.819 -0.0621  0.0900 -0.0797
  718MPD2    H510674   2.641   1.316  12.914 -0.5899  0.9055 -0.4596
  718MPD2    N110675   2.601   1.382  12.355  0.2074 -1.1371 -0.3859
  718MPD2    H710676   2.678   1.317  12.339  0.6205 -0.5828 -0.6413
  719TMC3    C110677   2.621   1.410  12.121  0.3903  0.0638 -0.1342
  719TMC3    C210678   2.652   1.272  12.134 -0.0818  0.2155  0.1699
  719TMC3    C310679   2.777   1.221  12.132  0.0494 -0.0121  0.6455
  719TMC3    C410680   2.729   1.489  12.084  0.2811  0.2642 -1.1597
  719TMC3    C510681   2.860   1.443  12.103 -0.0200  0.0900 -0.5293
  719TMC3    C610682   2.880   1.308  12.132 -0.4351  0.2029  0.4751
  719TMC3     C10683   2.557   1.452  12.243 -0.6035 -0.4744 -0.0606
  719TMC3     O10684   2.477   1.545  12.240  0.8364  0.1345  0.0543
  719TMC3     H10685   2.575   1.201  12.163  0.0739 -1.0266 -2.4957
  719TMC3    H110686   2.705   1.594  12.071  0.5241  0.2186 -1.9202
  719TMC3    H210687   2.982   1.271  12.138 -1.1710 -1.8788  0.0122
  719TMC3    C710688   2.957   1.544  12.146  0.3725  0.3641  0.2993
  719TMC3    C810689   2.803   1.114  12.227 -0.4393 -0.7389  0.6907
  719TMC3    O110690   2.967   1.647  12.079  0.0538  0.0796  0.1979
  719TMC3    O210691   2.909   1.133  12.293  0.0574 -0.0261 -0.1931
  720MPD2     C10692   1.233   2.481  13.653 -0.6337 -0.0939 -0.3759
  720MPD2    C110693   1.239   2.616  13.631  0.0106 -0.6289  0.0042
  720MPD2    C210694   1.311   2.699  13.723  0.5618 -0.2434  0.1790
  720MPD2    C310695   1.382   2.645  13.831  0.4279  0.4464 -0.2054
  720MPD2    C410696   1.381   2.507  13.844  0.4988  0.1702  0.1586
  720MPD2    C510697   1.305   2.431  13.761 -0.1580  0.0693 -0.1024
  720MPD2     H10698   1.310   2.807  13.709  1.2568 -0.3699 -0.8487
  720MPD2    H110699   1.424   2.462  13.932  0.2997 -0.2556  0.0388
  720MPD2    H210700   1.191   2.411  13.582 -1.3201  2.6755 -2.7027
  720MPD2    H310701   1.317   2.325  13.779  0.6779 -0.1355 -1.8205
  720MPD2     N10702   1.454   2.727  13.925  0.5316  0.0993 -0.8302
  720MPD2    H510703   1.439   2.827  13.928 -2.3603 -0.4329  2.1204
  720MPD2    N110704   1.188   2.662  13.509 -0.4600 -0.0760  0.0767
  720MPD2    H710705   1.154   2.583  13.454  0.6099 -1.0734  0.8617
  721TMC3    C110706   1.620   2.797  14.059  0.8078 -0.0678  0.2280
  721TMC3    C210707   1.539   2.868  14.142  0.2039  0.8171 -0.5463
  721TMC3    C310708   1.599   2.919  14.248 -0.0865 -0.2890 -0.0645
  721TMC3    C410709   1.754   2.778  14.080  0.5232 -0.2354 -0.8712
  721TMC3    C510710   1.806   2.847  14.191 -0.4425  0.0681  0.0404
  721TMC3    C610711   1.732   2.912  14.287  0.0079  0.3262 -0.4160
  721TMC3     C10712   1.557   2.685  14.007  0.0134  0.2803  0.7410
  721TMC3     O10713   1.613   2.576  14.021 -0.0334 -0.7015 -0.0369
  721TMC3     H10714   1.432   2.880  14.129 -0.1524 -0.0137  1.6325
  721TMC3    H110715   1.802   2.734  13.994  2.6887  0.3395  0.0235
  721TMC3    H210716   1.768   2.972  14.370  0.7115 -1.5534  0.6323
  721TMC3    C710717   1.951   2.866  14.186 -0.2868  0.4650  0.8300
  721TMC3    C810718   1.507   2.968  14.348  0.3633  0.6532 -0.4608
  721TMC3    O110719   2.003   2.874  14.076  0.2860  0.4186 -0.0624
  721TMC3    O210720   1.410   3.020  14.310 -0.0316  0.0764 -0.0238
  722MPD2     C10721   0.335   1.543  13.056  0.1274 -0.1800  0.3121
  722MPD2    C110722   0.302   1.676  13.053  1.1301 -0.1557  0.5594
  722MPD2    C210723   0.185   1.715  12.992  1.0160  0.3737 -0.0850
  722MPD2    C310724   0.090   1.618  12.955  0.3012  0.0227 -0.1420
  722MPD2    C410725   0.120   1.487  12.959  0.1627  0.6636  0.5732
  722MPD2    C510726   0.249   1.454  13.003  0.1296  0.3071 -0.0455
  722MPD2     H10727   0.159   1.820  12.998  0.4568  0.2788 -0.8614
  722MPD2    H110728   0.053   1.410  12.923 -0.3999  1.0097  0.8921
  722MPD2    H210729   0.424   1.502  13.103  2.4372  3.2790 -0.9935
  722MPD2    H310730   0.271   1.349  12.988 -2.6979 -0.5094  1.4550
  722MPD2     N10731   4.701   1.662  12.906 -0.0124  0.0820 -0.1091
  722MPD2    H510732   4.693   1.760  12.884 -3.6845 -0.4739 -1.2553
  722MPD2    N110733   0.387   1.779  13.102  0.6474  0.3610 -0.2133
  722MPD2    H710734   0.343   1.870  13.117 -2.7488 -1.3533  0.2588
  723TMC3    C110735   4.484   1.636  12.796 -0.1063 -0.1087  0.3935
  723TMC3    C210736   4.371   1.556  12.782 -0.5362  0.3341  0.3038
  723TMC3    C310737   4.301   1.550  12.665  0.7953  0.0701 -0.5693
  723TMC3    C410738   4.514   1.733  12.709 -0.0497 -0.6510  0.0438
  723TMC3    C510739   4.424   1.744  12.599  0.3424 -0.2620 -0.2219
  723TMC3    C610740   4.325   1.650  12.574  0.0631  0.5812 -0.5833
  723TMC3     C10741   4.588   1.583  12.879 -0.3233 -0.1909  0.1140
  723TMC3     O10742   4.574   1.464  12.904 -0.4691  0.0239  0.0044
  723TMC3     H10743   4.338   1.488  12.860 -0.0430 -3.8721 -3.1786
  723TMC3    H110744   4.613   1.775  12.694 -0.9010  1.7237  1.1206
  723TMC3    H210745   4.252   1.665  12.496 -0.6086  0.3062 -0.0109
  723TMC3    C710746   4.447   1.849  12.500 -0.5991  0.2088 -0.3521
  723TMC3    C810747   4.182   1.470  12.658  0.1160 -0.0493  0.2839
  723TMC3    O110748   4.383   1.836  12.398 -1.1648  0.0252  0.4334
  723TMC3    O210749   4.083   1.520  12.602 -1.1968 -0.5081 -0.1452
  724TMC3    C110750   0.866   0.530  10.595  0.4168 -0.2422 -0.1397
  724TMC3    C210751   0.892   0.503  10.462  0.7252  0.0416  0.4606
  724TMC3    C310752   0.934   0.603  10.376 -0.1647 -0.1062 -0.7653
  724TMC3    C410753   0.901   0.653  10.644  0.0836  0.0211  1.0540
  724TMC3    C510754   0.951   0.745  10.555 -0.2241 -0.0808 -0.1001
  724TMC3    C610755   0.974   0.724  10.425  0.3384  0.3369 -0.3914
  724TMC3     C10756   0.800   0.428  10.689 -0.0056  0.3107 -0.2179
  724TMC3     O10757   0.787   0.316  10.646 -0.1748 -0.4198 -0.5460
  724TMC3     H10758   0.854   0.411  10.419  0.6955  0.6717 -0.8659
  724TMC3    H110759   0.892   0.680  10.748  1.8224  1.1036  0.9093
  724TMC3    H210760   0.994   0.809  10.360 -2.7775  1.0781 -0.3853
  724TMC3    C710761   0.950   0.889  10.582 -1.1002  0.7135 -0.9142
  724TMC3    C810762   0.907   0.591  10.234 -0.2859 -0.2833  0.3979
  724TMC3    O110763   1.043   0.954  10.524 -0.1661  0.1473  0.1009
  724TMC3    O210764   0.910   0.473  10.203  0.6704  0.1209  0.1828
  725TMC3    C110765   2.369   3.523  12.656  0.2289 -0.7563 -0.2728
  725TMC3    C210766   2.278   3.498  12.566 -0.8836 -0.7242  0.0726
  725TMC3    C310767   2.278   3.378  12.507  0.3915  0.3397  0.0234
  725TMC3    C410768   2.471   3.433  12.676  0.0007  0.4573 -0.4030
  725TMC3    C510769   2.462   3.316  12.614  0.1503  1.3397 -0.0572
  725TMC3    C610770   2.365   3.282  12.527  0.3882 -0.2643  0.4340
  725TMC3     C10771   2.354   3.620  12.765 -0.1475  0.2948  0.2292
  725TMC3     O10772   2.445   3.624  12.844  0.0061 -0.1103 -0.3839
  725TMC3     H10773   2.194   3.565  12.556  1.1663  1.5369 -1.9447
  725TMC3    H110774   2.551   3.450  12.747 -1.3417 -1.8984  1.6776
  725TMC3    H210775   2.358   3.186  12.478  0.6838  0.5804 -1.2667
  725TMC3    C710776   2.558   3.215  12.646 -0.3313  0.0547 -0.1187
  725TMC3    C810777   2.175   3.350  12.405 -0.4070  0.0270  0.5838
  725TMC3    O110778   2.576   3.131  12.558  0.8651  0.0266 -0.5321
  725TMC3    O210779   2.148   3.230  12.393  0.3023  0.3048 -0.1843
  726MPD2     C10780   4.603   4.615  10.374 -0.6281  0.3512 -0.5088
  726MPD2    C110781   4.611   4.727  10.457 -0.3901  0.4187 -0.6997
  726MPD2    C210782   4.516   4.729  10.565 -0.5107  0.1335  0.0078
  726MPD2    C310783   4.430   4.618  10.585  0.2079 -0.6944 -0.8237
  726MPD2    C410784   4.437   4.504  10.509 -0.3077  0.0254  0.0275
  726MPD2    C510785   4.529   4.498  10.412  0.4735 -0.6472 -0.5764
  726MPD2     H10786   4.530   0.079  10.631  1.2690  1.1227 -1.6460
  726MPD2    H110787   4.376   4.416  10.528 -0.3908  0.4939  1.9017
  726MPD2    H210788   4.664   4.614  10.285 -0.9797 -0.5321 -0.7322
  726MPD2    H310789   4.531   4.406  10.356  0.6061 -1.4449  0.7379
  726MPD2     N10790   4.337   4.607  10.691 -0.5837  0.3935  1.0140
  726MPD2    H510791   4.282   4.522  10.695  2.4061 -1.6911 -1.6391
  726MPD2    N110792   4.698   0.105  10.433 -0.3401  0.4626  0.0995
  726MPD2    H710793   4.686   0.184  10.497 -1.2757  0.1583  0.3042
  727TMC3    C110794   0.116   0.248  10.318  0.1496  0.5771 -0.0509
  727TMC3    C210795   0.126   0.328  10.432 -0.1456 -0.2577 -0.5319
  727TMC3    C310796   0.144   0.460  10.414 -0.0079  0.1598  0.3659
  727TMC3    C410797   0.126   0.298  10.192 -0.2618 -0.3730 -0.1473
  727TMC3    C510798   0.137   0.430  10.181 -0.0058 -0.3004 -0.5628
  727TMC3    C610799   0.163   0.515  10.289 -0.3534 -0.2404 -0.2024
  727TMC3     C10800   0.045   0.123  10.323 -1.0474 -0.3954  0.2739
  727TMC3     O10801   0.064   0.050  10.226 -0.3939 -0.0234 -0.2152
  727TMC3     H10802   0.120   0.281  10.529  1.0832  1.3476  0.3167
  727TMC3    H110803   0.092   0.240  10.108  0.2031 -0.4858 -0.2523
  727TMC3    H210804   0.198   0.616  10.270 -0.5086  0.4299  3.1575
  727TMC3    C710805   0.161   0.478  10.042 -0.0184 -0.2002 -0.0471
  727TMC3    C810806   0.163   0.540  10.533 -0.2736  1.0478  0.0484
  727TMC3    O110807   0.197   0.407   9.952 -0.5425 -0.0710 -0.4430
  727TMC3    O210808   0.163   0.470  10.634 -0.2282  0.2328  0.0575
  728TMC3    C110809   3.989   3.489  15.434 -0.8229  0.7537 -0.0928
  728TMC3    C210810   4.129   3.486  15.398  0.4909 -0.5246 -0.0513
  728TMC3    C310811   4.155   3.492  15.267 -0.1334  0.0692  0.2266
  728TMC3    C410812   3.888   3.480  15.342 -0.6993  0.0182  0.2361
  728TMC3    C510813   3.924   3.475  15.210 -0.2683  0.0499  0.0367
  728TMC3    C610814   4.056   3.487  15.173  0.0111 -0.1155  0.3872
  728TMC3     C10815   3.957   3.516  15.573 -0.2628  0.8910 -0.1833
  728TMC3     O10816   4.052   3.536  15.644 -0.3072  0.3504  0.2043
  728TMC3     H10817   4.206   3.489  15.475  0.1993 -1.1495  0.2710
  728TMC3    H110818   3.785   3.481  15.375 -1.3711  1.9267 -1.9570
  728TMC3    H210819   4.089   3.510  15.073  0.5165  2.0060  1.0342
  728TMC3    C710820   3.825   3.499  15.116 -0.2278  1.1672 -0.3855
  728TMC3    C810821   4.230   3.608  15.231 -0.2270 -0.2173  0.2862
  728TMC3    O110822   3.721   3.441  15.127  0.2224 -0.3333 -0.3161
  728TMC3    O210823   4.165   3.706  15.189 -0.1896 -0.9082 -0.3339
  729MPD2     C10824   1.486   4.385  16.750  0.2189  0.9003 -0.0719
  729MPD2    C110825   1.573   4.469  16.813  0.0693 -0.2815 -0.0314
  729MPD2    C210826   1.557   4.495  16.949  0.4840  0.6188  0.1422
  729MPD2    C310827   1.443   4.432  17.012 -1.1170 -0.3471 -0.6119
  729MPD2    C410828   1.356   4.347  16.947 -0.3420 -0.2407  0.3989
  729MPD2    C510829   1.377   4.331  16.813  0.2459 -0.5243 -0.3630
  729MPD2     H10830   1.624   4.542  17.020  1.1822  0.7367 -0.5982
  729MPD2    H110831   1.269   4.303  16.994 -1.7795 -0.6109 -2.5981
  729MPD2    H210832   1.496   4.360  16.645 -2.2970  3.0419 -0.8344
  729MPD2    H310833   1.310   4.275  16.749 -0.4139  1.6677 -1.6204
  729MPD2     N10834   1.414   4.469  17.148 -0.1177 -0.3482  0.1723
  729MPD2    H510835   1.483   4.530  17.191 -0.1822  0.2189 -0.5392
  729MPD2    N110836   1.682   4.527  16.737 -0.4468  0.2375 -0.4517
  729MPD2    H710837   1.684   4.507  16.638 -1.0059  2.6618 -0.9431
  730TMC3    C110838   1.295   4.567  17.315  0.0414  0.0766  0.5716
  730TMC3    C210839   1.403   4.594  17.391 -0.4315 -0.0892 -0.3552
  730TMC3    C310840   1.396   4.680  17.499  0.1089  0.7821  0.1319
  730TMC3    C410841   1.173   4.635  17.331  0.4464 -0.1813  0.3804
  730TMC3    C510842   1.177   4.730  17.429 -0.5842  0.0953 -0.0512
  730TMC3    C610843   1.280   0.011  17.520 -0.4906 -0.4507  0.3972
  730TMC3     C10844   1.291   4.472  17.205  0.2001  0.1097 -0.1495
  730TMC3     O10845   1.184   4.430  17.166 -0.4744 -0.6070 -0.1549
  730TMC3     H10846   1.500   4.552  17.367 -1.1348 -0.2884 -2.8412
  730TMC3    H110847   1.103   4.649  17.250  0.2239  1.1763  0.8151
  730TMC3    H210848   1.262   0.061  17.614 -0.3437  1.3192 -0.5166
  730TMC3    C710849   1.139   0.126  17.375 -0.5399  0.2905 -0.5428
  730TMC3    C810850   1.496   0.044  17.508  0.1523 -0.9644  0.4022
  730TMC3    O110851   1.176   0.150  17.259 -0.6223  0.0051  0.1327
  730TMC3    O210852   1.607   0.020  17.467  0.6298 -0.0714  0.3394
  731MPD2     C10853   2.403   2.736  12.535 -0.5245 -0.1881 -0.6023
  731MPD2    C110854   2.279   2.790  12.518  0.3632 -0.2941 -0.2776
  731MPD2    C210855   2.168   2.769  12.605 -0.1112 -0.3767  0.1998
  731MPD2    C310856   2.196   2.688  12.714 -0.0232  0.3399  0.0942
  731MPD2    C410857   2.319   2.624  12.720  0.0983 -0.5946  0.4820
  731MPD2    C510858   2.421   2.651  12.637  0.2580 -0.6020 -0.1956
  731MPD2     H10859   2.064   2.794  12.588  0.5060  0.6765 -2.0095
  731MPD2    H110860   2.349   2.546  12.790  2.2789 -2.1461 -2.1880
  731MPD2    H210861   2.481   2.748  12.461  1.1076 -1.1204  0.9523
  731MPD2    H310862   2.516   2.606  12.662  1.6809  1.3593 -1.9703
  731MPD2     N10863   2.083   2.659  12.799  0.8012  0.0409 -0.5210
  731MPD2    H510864   2.006   2.725  12.798 -0.1454 -1.0384  2.9416
  731MPD2    N110865   2.267   2.849  12.387 -0.3009  0.2823  0.1478
  731MPD2    H710866   2.356   2.875  12.346  0.5041 -0.7840  1.2661
  732TMC3    C110867   2.159   2.952  12.199  0.5664  0.1813 -0.0369
  732TMC3    C210868   2.049   2.948  12.118  0.6327 -0.1718  0.5836
  732TMC3    C310869   2.052   3.011  12.000  0.1733 -0.4239  0.9093
  732TMC3    C410870   2.279   2.998  12.153  0.7413  0.2113 -0.1258
  732TMC3    C510871   2.268   3.072  12.040 -0.3934  0.8405  0.0255
  732TMC3    C610872   2.160   3.083  11.958 -0.3626 -0.3573  0.3046
  732TMC3     C10873   2.146   2.876  12.326  0.1402  0.0234 -0.4578
  732TMC3     O10874   2.033   2.839  12.359 -0.5428 -0.7081 -0.2664
  732TMC3     H10875   1.958   2.900  12.151  1.6539 -1.2986  1.7450
  732TMC3    H110876   2.367   2.989  12.215 -0.4865 -2.0786  1.2734
  732TMC3    H210877   2.157   3.150  11.873 -1.7541 -1.0476 -0.1938
  732TMC3    C710878   2.385   3.157  12.008  0.6028  0.2906  0.6922
  732TMC3    C810879   1.976   2.957  11.889  0.9641 -0.4903 -0.1667
  732TMC3    O110880   2.376   3.255  11.934  0.0438 -0.0763 -0.1976
  732TMC3    O210881   1.956   3.034  11.795 -0.3631 -0.2835 -0.1635
  733TMC3    C110882   2.609   0.990  13.039  0.7280 -0.7681 -0.2197
  733TMC3    C210883   2.674   1.106  13.010 -0.1204  0.6866  0.3785
  733TMC3    C310884   2.778   1.110  12.925  0.6760  0.0266 -0.0582
  733TMC3    C410885   2.641   0.879  12.984  0.1276 -0.4513  0.9577
  733TMC3    C510886   2.748   0.876  12.898 -0.9780  0.9958  0.1445
  733TMC3    C610887   2.824   0.992  12.879  0.3800 -0.2651  0.3720
  733TMC3     C10888   2.467   1.009  13.049  0.2263  0.2400  0.9727
  733TMC3     O10889   2.415   1.102  12.988  0.3530 -0.4065  0.1685
  733TMC3     H10890   2.629   1.195  13.052 -2.2184 -0.2989  0.2039
  733TMC3    H110891   2.565   0.802  12.986  0.6145 -0.9592  0.1743
  733TMC3    H210892   2.906   0.989  12.809 -1.1976 -0.3332 -1.4774
  733TMC3    C710893   2.720   0.800  12.783  0.0030 -0.7730  0.4610
  733TMC3    C810894   2.750   1.186  12.804  0.7288 -0.0049  0.4772
  733TMC3    O110895   2.629   0.720  12.781  0.0154  0.4279 -0.3786
  733TMC3    O210896   2.793   1.138  12.700  0.5192  0.7599 -0.0162
  734MPD2     C10897   4.147   3.924  12.343 -0.3900  0.5616 -0.6260
  734MPD2    C110898   4.143   3.811  12.263 -0.6645  0.6699  0.0083
  734MPD2    C210899   4.198   3.824  12.134  0.7225  0.4724 -0.1515
  734MPD2    C310900   4.244   3.947  12.081  0.6073 -0.1475  1.0555
  734MPD2    C410901   4.238   4.061  12.163  0.3936 -0.1575  0.2856
  734MPD2    C510902   4.184   4.049  12.290 -0.2294  0.1168  0.5812
  734MPD2     H10903   4.193   3.740  12.066  1.2460 -0.5515  1.0882
  734MPD2    H110904   4.278   4.154  12.127 -0.0474 -0.8356 -1.9582
  734MPD2    H210905   4.109   3.936  12.444  1.1247  3.2478 -0.3589
  734MPD2    H310906   4.181   4.136  12.354 -1.5408 -0.0998  0.8204
  734MPD2     N10907   4.287   3.938  11.950  0.1441  0.5916  0.3881
  734MPD2    H510908   4.282   3.840  11.924  0.7582  1.1276 -1.7598
  734MPD2    N110909   4.098   3.690  12.319 -0.8475  0.5759  0.0282
  734MPD2    H710910   4.077   3.680  12.417  1.2443  1.0266  0.5296
  735TMC3    C110911   4.038   3.460  12.308  0.7233  0.0439  0.2188
  735TMC3    C210912   3.950   3.381  12.238  0.5998 -0.2508 -0.4016
  735TMC3    C310913   3.988   3.253  12.203  0.6420  0.3840 -0.1020
  735TMC3    C410914   4.167   3.419  12.322 -0.0509 -0.3243  0.4569
  735TMC3    C510915   4.202   3.288  12.285  0.1728 -1.1028  1.4853
  735TMC3    C610916   4.114   3.207  12.227 -0.0231  0.1400  0.4335
  735TMC3     C10917   4.050   3.589  12.241  0.7176 -0.3684 -0.1525
  735TMC3     O10918   4.053   3.585  12.121  0.5292 -0.0949  0.2828
  735TMC3     H10919   3.852   3.423  12.220  1.2545  1.7353  0.6329
  735TMC3    H110920   4.239   3.483  12.373  0.5773 -2.3596  2.1277
  735TMC3    H210921   4.135   3.116  12.171 -2.1985 -0.0796 -0.0024
  735TMC3    C710922   4.339   3.254  12.268  0.3416  0.0482 -0.6553
  735TMC3    C810923   3.966   3.238  12.066  0.1519  0.3492  0.2014
  735TMC3    O110924   4.425   3.338  12.282  0.0523 -0.6805 -0.1151
  735TMC3    O210925   3.942   3.125  12.024  0.4162  0.1720  0.2883
  736MPD2     C10926   4.472   2.914  12.220 -0.5528 -0.0544 -0.1584
  736MPD2    C110927   4.461   3.047  12.190  0.5263  0.3021  0.1915
  736MPD2    C210928   4.543   3.111  12.104  0.0291  0.1575  0.3143
  736MPD2    C310929   4.653   3.045  12.047  0.5091  0.0001 -0.3532
  736MPD2    C410930   4.673   2.911  12.086  0.1447  0.6704  0.0954
  736MPD2    C510931   4.579   2.844  12.167  1.1209 -0.0443  0.8010
  736MPD2     H10932   4.534   3.215  12.076  0.8288 -0.7363 -3.3131
  736MPD2    H110933   0.011   2.841  12.048 -0.4740  0.5090 -0.7848
  736MPD2    H210934   4.406   2.863  12.290 -2.3527  1.4085 -0.7797
  736MPD2    H310935   4.598   2.741  12.195 -0.4464 -0.5254  0.1081
  736MPD2     N10936   0.012   3.091  11.953  0.1542 -0.3899  0.3606
  736MPD2    H510937   0.089   3.027  11.933 -0.0964 -0.5768 -0.0052
  736MPD2    N110938   4.353   3.117  12.252 -0.0939 -0.3025  0.3901
  736MPD2    H710939   4.284   3.058  12.298 -1.1376  2.1170  1.8869
  737TMC3    C110940   0.108   3.219  11.791  0.0950  0.1111 -1.0173
  737TMC3    C210941   0.073   3.261  11.661  0.3491  0.3936 -0.0376
  737TMC3    C310942   0.172   3.247  11.570 -0.6595  0.0859  0.3065
  737TMC3    C410943   0.219   3.135  11.813  0.2053 -0.5208  0.6173
  737TMC3    C510944   0.300   3.111  11.707 -0.2505  0.4283  0.1249
  737TMC3    C610945   0.291   3.182  11.591  0.3230  0.0194  0.3415
  737TMC3     C10946   0.000   3.206  11.878  0.1058  0.5033 -0.3235
  737TMC3     O10947   4.643   3.289  11.875  0.8543 -0.3458 -0.4225
  737TMC3     H10948   4.711   3.291  11.622 -1.2422 -1.1281  2.7211
  737TMC3    H110949   0.249   3.094  11.909  1.1126 -0.3745  0.3865
  737TMC3    H210950   0.368   3.174  11.516 -0.6474 -1.8414 -0.4691
  737TMC3    C710951   0.403   3.014  11.731  0.1146 -0.7657  0.1161
  737TMC3    C810952   0.166   3.326  11.453  0.4805 -0.2936 -0.4050
  737TMC3    O110953   0.430   2.985  11.845 -0.2790  0.2235 -0.4593
  737TMC3    O210954   0.127   3.443  11.468  0.1617  0.3112  0.5091
  738MPD2     C10955   1.029   1.947  15.375 -0.6611 -0.0708  0.5997
  738MPD2    C110956   0.936   1.929  15.276  0.0255 -0.0945  0.4274
  738MPD2    C210957   0.926   2.026  15.178  0.5516  0.0183 -0.6866
  738MPD2    C310958   1.023   2.131  15.171  0.0064  0.5211  0.0990
  738MPD2    C410959   1.129   2.129  15.257 -0.3338  0.4595  0.0346
  738MPD2    C510960   1.136   2.033  15.359  0.9312  0.2177 -0.6960
  738MPD2     H10961   0.841   2.030  15.110  0.7352  2.5990 -0.7625
  738MPD2    H110962   1.215   2.195  15.255 -0.6010  0.8103  0.0168
  738MPD2    H210963   1.032   1.884  15.463  2.6593  1.3718  1.5218
  738MPD2    H310964   1.218   2.033  15.431 -0.6073 -0.3845  1.0624
  738MPD2     N10965   1.005   2.239  15.078 -0.0408 -1.1837 -0.0157
  738MPD2    H510966   1.053   2.326  15.102 -2.3163  0.1419 -0.3297
  738MPD2    N110967   0.825   1.841  15.297 -0.2442 -0.0717  0.1483
  738MPD2    H710968   0.757   1.841  15.222  0.2014 -2.3769 -0.2571
  739TMC3    C110969   0.902   2.358  14.911  0.1460 -0.2898 -0.1653
  739TMC3    C210970   0.904   2.370  14.772 -0.0382 -1.0100  0.4367
  739TMC3    C310971   0.929   2.492  14.710  0.2429  0.2820  0.6442
  739TMC3    C410972   0.935   2.464  14.984  0.7017 -0.7773 -0.5666
  739TMC3    C510973   0.955   2.581  14.925  0.1009  0.1631 -0.4061
  739TMC3    C610974   0.953   2.600  14.786 -0.1175  0.2714 -0.4016
  739TMC3     C10975   0.912   2.231  14.972 -0.7729  0.6865  0.7151
  739TMC3     O10976   0.855   2.135  14.921  0.1773 -0.7635  0.5043
  739TMC3     H10977   0.879   2.280  14.717 -0.9758 -0.6356  0.2410
  739TMC3    H110978   0.938   2.454  15.092 -0.3072  0.2474 -0.4449
  739TMC3    H210979   0.968   2.697  14.740 -2.9320 -0.6846 -3.3238
  739TMC3    C710980   0.985   2.702  15.003  0.4463 -0.0133  0.0787
  739TMC3    C810981   0.955   2.490  14.570  0.0460  0.2831  0.9036
  739TMC3    O110982   1.030   2.795  14.940 -0.1626 -0.0914  0.3352
  739TMC3    O210983   0.930   2.387  14.508 -0.1698  0.1846  0.7328
  740TMC3    C110984   0.848   3.692  14.170  0.8823  0.2014 -0.4318
  740TMC3    C210985   0.968   3.680  14.239 -0.4264  0.3901  0.3140
  740TMC3    C310986   1.076   3.614  14.178 -0.2085 -0.1318 -0.4007
  740TMC3    C410987   0.829   3.659  14.039  0.0307  0.5175 -0.8863
  740TMC3    C510988   0.940   3.598  13.984  0.2458  0.0390 -0.2575
  740TMC3    C610989   1.062   3.575  14.049 -0.4138 -0.1274  0.5885
  740TMC3     C10990   0.728   3.726  14.236 -0.8308 -0.0697 -0.5577
  740TMC3     O10991   0.638   3.766  14.167 -0.1541 -0.5613  0.2695
  740TMC3     H10992   0.979   3.716  14.340 -0.4793 -0.0786  0.4850
  740TMC3    H110993   0.733   3.656  13.989  1.1739 -1.6192 -2.9223
  740TMC3    H210994   1.153   3.542  14.000 -0.1473  0.4205  0.7172
  740TMC3    C710995   0.914   3.503  13.879 -0.6106 -0.0276  0.2335
  740TMC3    C810996   1.204   3.615  14.238 -0.0109  0.1238  0.9260
  740TMC3    O110997   0.803   3.452  13.872  0.8780 -0.9861  0.1283
  740TMC3    O210998   1.228   3.692  14.328  0.4097  0.4673 -0.0579
  741TMC3    C110999   0.634   2.834  14.900  0.7728 -0.2860 -0.4049
  741TMC3    C211000   0.618   2.700  14.900  0.3143 -1.1795 -0.5809
  741TMC3    C311001   0.576   2.650  15.022  0.4431 -0.9926 -0.2743
  741TMC3    C411002   0.620   2.921  15.003  0.1593  0.2493  0.3357
  741TMC3    C511003   0.565   2.860  15.117 -0.3300 -0.2749 -0.3912
  741TMC3    C611004   0.552   2.726  15.131  0.2834 -0.4517 -0.0922
  741TMC3     C11005   0.691   2.885  14.781 -0.4584 -0.4127 -0.5813
  741TMC3     O11006   0.766   2.982  14.791  0.4794  0.5902 -0.1815
  741TMC3     H11007   0.636   2.640  14.811  0.0885 -1.7058 -0.2782
  741TMC3    H111008   0.643   3.025  14.988 -0.9855  0.2720 -1.2197
  741TMC3    H211009   0.513   2.683  15.223 -1.1110  0.8054 -0.0964
  741TMC3    C711010   0.542   2.945  15.227 -0.3053  0.0178  0.0615
  741TMC3    C811011   0.521   2.518  15.005 -0.1291 -0.0858 -0.1625
  741TMC3    O111012   0.475   2.897  15.319 -0.4348 -0.5400  0.2643
  741TMC3    O211013   0.540   2.461  14.898  0.6203  0.0620 -0.3550
  742TMC3    C111014   0.481   1.195  15.424  0.1757  0.0555  0.2066
  742TMC3    C211015   0.391   1.165  15.325  0.7663 -0.1012  0.0088
  742TMC3    C311016   0.420   1.199  15.196  0.3016  0.6231 -0.0198
  742TMC3    C411017   0.607   1.244  15.389  0.1216 -0.1123 -0.1146
  742TMC3    C511018   0.628   1.277  15.260 -0.6151  0.1786 -0.0809
  742TMC3    C611019   0.538   1.254  15.162 -0.3307 -0.2468 -0.0255
  742TMC3     C11020   0.472   1.096  15.534  0.3481  0.1557  0.1663
  742TMC3     O11021   0.366   1.080  15.589  0.2687 -0.3517  0.1315
  742TMC3     H11022   0.304   1.104  15.344 -0.7210  1.5593 -1.3679
  742TMC3    H111023   0.689   1.230  15.458  0.0062  1.6714  0.3977
  742TMC3    H211024   0.559   1.274  15.057  1.4328  1.2434  0.5986
  742TMC3    C711025   0.759   1.307  15.217  0.2713  0.2416 -0.3387
  742TMC3    C811026   0.356   1.124  15.091  0.3087 -0.1873  0.2277
  742TMC3    O111027   0.792   1.285  15.101  0.2585 -0.0072 -0.3232
  742TMC3    O211028   0.434   1.099  15.003  0.2097  0.1686  0.0640
  743MPD2     C11029   2.908   1.934   1.974 -0.1100  0.6422  0.4856
  743MPD2    C111030   3.003   1.907   1.880 -0.5219 -0.3476  0.0804
  743MPD2    C211031   3.115   1.827   1.901 -0.4740 -0.1649  0.3061
  743MPD2    C311032   3.123   1.754   2.023  0.3595  0.2714  0.3434
  743MPD2    C411033   3.018   1.779   2.118  0.1842 -0.1326 -0.1203
  743MPD2    C511034   2.924   1.872   2.104  0.3641  0.0423  0.0982
  743MPD2     H11035   3.196   1.820   1.829  0.0284  1.5026  0.7020
  743MPD2    H111036   3.024   1.721   2.209  0.9303 -0.8364 -0.6051
  743MPD2    H211037   2.819   1.995   1.963  0.2922  1.6395  2.6800
  743MPD2    H311038   2.859   1.882   2.190  0.4754  0.3417  0.1479
  743MPD2     N11039   3.234   1.673   2.051  0.2486  0.1453  0.1190
  743MPD2    H511040   3.313   1.671   1.987 -0.8022  0.5002 -1.1873
  743MPD2    N111041   2.988   1.964   1.745  0.5994  0.8091  0.2256
  743MPD2    H711042   3.063   1.941   1.680  2.0353  0.2455  2.0809
  744TMC3    C111043   2.910   2.105   1.565  0.4125 -0.1544 -0.2724
  744TMC3    C211044   2.836   2.210   1.533  0.6160 -0.4103  1.0363
  744TMC3    C311045   2.820   2.237   1.404 -0.2080 -0.0586  0.1931
  744TMC3    C411046   2.985   2.033   1.478 -0.3997  0.3128  0.0544
  744TMC3    C511047   2.990   2.079   1.345  0.6971  0.5891  0.1877
  744TMC3    C611048   2.903   2.180   1.312 -0.0391  0.3119 -0.4669
  744TMC3     C11049   2.907   2.071   1.705  0.6067 -0.1230  1.2675
  744TMC3     O11050   2.836   2.137   1.778 -0.5467 -0.2072 -0.0968
  744TMC3     H11051   2.785   2.275   1.604 -0.3632  1.9759 -1.8521
  744TMC3    H111052   3.045   1.945   1.502  1.8226  1.5815 -0.7789
  744TMC3    H211053   2.894   2.209   1.208  1.7296  1.4128 -0.3141
  744TMC3    C711054   3.065   2.018   1.236 -0.7318  0.1252 -0.2121
  744TMC3    C811055   2.754   2.364   1.366 -0.3462 -0.0800 -0.3581
  744TMC3    O111056   3.060   2.074   1.125 -0.6479 -0.9057 -0.1297
  744TMC3    O211057   2.806   2.420   1.267  0.2347 -0.1647 -0.5140
  745TMC3    C111058   1.148   0.573  13.357 -0.3139  0.2413 -0.1018
  745TMC3    C211059   1.031   0.621  13.409 -0.5590 -0.4045  0.2240
  745TMC3    C311060   0.928   0.631  13.321  0.3041 -0.0583  0.4308
  745TMC3    C411061   1.158   0.535  13.223 -0.0643 -0.5921 -0.8826
  745TMC3    C511062   1.050   0.553  13.144  0.1492 -0.1384 -0.0525
  745TMC3    C611063   0.932   0.597  13.190  0.5962  0.1751 -0.8211
  745TMC3     C11064   1.270   0.579  13.437  0.9120 -0.2011 -0.1226
  745TMC3     O11065   1.358   0.504  13.409 -0.3849  0.3130  0.6572
  745TMC3     H11066   1.013   0.628  13.516 -3.0778  0.8599 -0.2793
  745TMC3    H111067   1.248   0.492  13.180  0.4373 -1.3992  1.0249
  745TMC3    H211068   0.850   0.619  13.122  0.8139  1.4203 -0.6757
  745TMC3    C711069   1.084   0.607  13.013  0.0061  0.2040  0.4961
  745TMC3    C811070   0.798   0.668  13.367 -0.2701 -0.4864 -0.0853
  745TMC3    O111071   1.001   0.598  12.927  0.0669  0.1670  0.4285
  745TMC3    O211072   0.703   0.653  13.293 -0.4450  0.2988  0.1386
  746TMC3    C111073   3.820   2.778  11.215  0.1034 -0.4066  0.1154
  746TMC3    C211074   3.933   2.744  11.156 -0.1259 -0.1444  0.5347
  746TMC3    C311075   3.924   2.658  11.048 -0.0268 -0.3006  0.1421
  746TMC3    C411076   3.708   2.703  11.205  0.4231 -0.7333 -1.0754
  746TMC3    C511077   3.703   2.611  11.103 -0.3551  0.3044 -0.0468
  746TMC3    C611078   3.811   2.592  11.020  0.0080 -0.7302 -0.3438
  746TMC3     C11079   3.794   2.919  11.230  0.0433  0.0076  0.5300
  746TMC3     O11080   3.710   2.944  11.320  0.4712  0.4623 -0.4049
  746TMC3     H11081   4.020   2.807  11.174  0.7284 -1.7374  1.9715
  746TMC3    H111082   3.615   2.737  11.249  1.5912  0.8139  0.1944
  746TMC3    H211083   3.807   2.506  10.954  1.1895 -1.8799  1.1031
  746TMC3    C711084   3.578   2.593  11.028 -0.5781 -0.0120 -0.1164
  746TMC3    C811085   4.022   2.691  10.945 -0.0010  0.3373 -0.1038
  746TMC3    O111086   3.593   2.592  10.908 -0.0482 -0.7177  0.1487
  746TMC3    O211087   4.133   2.729  10.986 -0.1975 -0.4678  0.1868
  747TMC3    C111088   0.833   2.960  10.838  0.4454 -0.0991  0.5791
  747TMC3    C211089   0.746   2.950  10.948 -0.1503  0.2078 -0.1313
  747TMC3    C311090   0.788   2.870  11.052 -0.2024 -0.2846 -0.2054
  747TMC3    C411091   0.950   2.887  10.827  0.4247  0.3219 -0.0725
  747TMC3    C511092   0.981   2.807  10.938  0.2326 -0.2730  0.0695
  747TMC3    C611093   0.901   2.795  11.048  0.0255 -0.0103 -0.0912
  747TMC3     C11094   0.798   3.055  10.736  0.2821 -0.5517  0.3222
  747TMC3     O11095   0.730   3.153  10.758 -0.1407 -0.4435 -0.1823
  747TMC3     H11096   0.656   3.009  10.956 -0.9317 -1.2367  1.6672
  747TMC3    H111097   1.024   2.921  10.756  1.8072  0.9742  1.6846
  747TMC3    H211098   0.938   2.747  11.138  1.9778  0.3581 -0.7087
  747TMC3    C711099   1.121   2.823  10.974 -0.2570  0.0782  0.9855
  747TMC3    C811100   0.719   2.900  11.177 -0.0259  0.1306 -0.5659
  747TMC3    O111101   1.143   2.851  11.088  0.4021  0.1895 -0.1854
  747TMC3    O211102   0.608   2.947  11.166 -0.2581 -0.1884  0.5042
  748MPD2     C11103   2.388   3.317   1.240 -0.3052 -0.5363  0.4246
  748MPD2    C111104   2.415   3.352   1.111 -0.2628 -0.1001  0.8260
  748MPD2    C211105   2.531   3.427   1.088  1.4603  0.6316 -0.2155
  748MPD2    C311106   2.617   3.452   1.195  0.2899  0.2984 -0.1329
  748MPD2    C411107   2.577   3.423   1.321  0.4233 -0.0397  0.3632
  748MPD2    C511108   2.469   3.351   1.342  0.5002 -0.4337  0.3460
  748MPD2     H11109   2.571   3.455   0.991  0.2301 -2.8337 -1.7168
  748MPD2    H111110   2.632   3.459   1.407 -0.8351 -0.7070  1.4510
  748MPD2    H211111   2.301   3.259   1.268 -0.5998 -1.1853 -1.8196
  748MPD2    H311112   2.440   3.333   1.445  0.4729 -0.4469  0.3359
  748MPD2     N11113   2.730   3.540   1.166 -0.0871  0.4625  0.7525
  748MPD2    H511114   2.751   3.557   1.068 -1.4164 -0.6752  0.2793
  748MPD2    N111115   2.313   3.315   1.017  0.5368  0.1390  0.2567
  748MPD2    H711116   2.224   3.285   1.054 -0.2552  3.1615  0.7951
  749TMC3    C111117   2.951   3.631   1.206  0.4138  0.0297 -0.3179
  749TMC3    C211118   3.067   3.608   1.276  0.1777 -0.5638  0.2091
  749TMC3    C311119   3.172   3.695   1.255 -0.2737  0.0172 -0.4060
  749TMC3    C411120   2.946   3.721   1.104 -0.4831 -1.1665  0.0279
  749TMC3    C511121   3.051   3.811   1.091  0.7036 -0.4417  0.4050
  749TMC3    C611122   3.160   3.797   1.168  0.2170  0.4277 -0.3725
  749TMC3     C11123   2.835   3.558   1.255 -0.2627 -0.5373  0.3731
  749TMC3     O11124   2.839   3.524   1.373 -0.2104 -0.9077  0.0141
  749TMC3     H11125   3.065   3.527   1.348 -1.5653 -1.4801 -0.8609
  749TMC3    H111126   2.857   3.748   1.048 -0.9068 -0.3506  1.1057
  749TMC3    H211127   3.246   3.861   1.146  2.0961 -1.9451  0.0840
  749TMC3    C711128   3.056   3.908   0.987  0.0369 -0.0641 -0.4485
  749TMC3    C811129   3.296   3.667   1.317  0.0196  0.1844  0.5294
  749TMC3    O111130   3.103   4.009   1.037 -0.3105 -0.0359 -0.4965
  749TMC3    O211131   3.374   3.761   1.330 -0.3852  0.3750 -0.0045
  750MPD2     C11132   3.435   4.609  11.358  0.1982 -0.5481 -0.7563
  750MPD2    C111133   3.326   4.531  11.385 -0.0753  0.5154 -0.6726
  750MPD2    C211134   3.310   4.411  11.326 -0.2105  0.7948  0.5216
  750MPD2    C311135   3.404   4.356  11.235 -0.6139  0.6744  0.2134
  750MPD2    C411136   3.520   4.439  11.213  0.9304  0.0303  0.2595
  750MPD2    C511137   3.533   4.559  11.277  0.1198 -0.3071 -0.4514
  750MPD2     H11138   3.237   4.343  11.368 -1.2100  1.6337  0.1371
  750MPD2    H111139   3.592   4.399  11.143  1.6909 -0.0414  1.0886
  750MPD2    H211140   3.449   4.701  11.414 -1.9747 -1.2236  0.9014
  750MPD2    H311141   3.613   4.629  11.257  0.0441 -0.1177 -0.0905
  750MPD2     N11142   3.390   4.230  11.171 -0.1620 -0.2743 -0.7175
  750MPD2    H511143   3.468   4.183  11.127 -1.5759 -0.7471 -2.7103
  750MPD2    N111144   3.229   4.586  11.475 -0.2197  0.6036 -0.6204
  750MPD2    H711145   3.268   4.662  11.530  1.9001 -1.1929  0.3474
  751TMC3    C111146   3.302   4.018  11.134 -0.7081 -0.2732 -0.0435
  751TMC3    C211147   3.215   3.917  11.174  0.0058  0.9046 -0.2552
  751TMC3    C311148   3.242   3.792  11.128 -0.0564 -0.3714  0.2576
  751TMC3    C411149   3.403   3.997  11.048  0.3732  0.2284 -0.3756
  751TMC3    C511150   3.425   3.869  11.008 -0.6312 -0.5738  0.2155
  751TMC3    C611151   3.349   3.768  11.048 -0.5526 -0.4012  0.3446
  751TMC3     C11152   3.278   4.150  11.178 -0.2287  0.6720  0.5174
  751TMC3     O11153   3.170   4.169  11.236  0.8747 -0.8209 -0.2334
  751TMC3     H11154   3.120   3.949  11.214 -0.3629  1.5591 -1.6539
  751TMC3    H111155   3.466   4.071  11.001 -0.2832  0.3595 -1.0508
  751TMC3    H211156   3.362   3.670  11.003 -0.3664  0.4402 -1.4303
  751TMC3    C711157   3.526   3.856  10.909 -0.1488  0.0966 -0.2980
  751TMC3    C811158   3.139   3.685  11.117 -0.3401  0.3371 -0.3952
  751TMC3    O111159   3.557   3.956  10.848  0.2933  0.2438  0.0508
  751TMC3    O211160   3.171   3.601  11.033 -0.0558 -0.0208  0.3741
  752TMC3    C111161   1.872   0.314  17.564 -0.3368  0.5223  0.5088
  752TMC3    C211162   1.923   0.185  17.595  0.1958  0.3640  0.6314
  752TMC3    C311163   1.875   0.119  17.705  0.1495 -0.4290 -0.2879
  752TMC3    C411164   1.780   0.374  17.640  0.0348 -0.1688 -0.4500
  752TMC3    C511165   1.740   0.305   0.015  0.7068 -0.8706  0.1050
  752TMC3    C611166   1.790   0.183   0.050  0.1786  0.0158 -0.3065
  752TMC3     C11167   1.932   0.380  17.457 -0.3758  0.4357  0.0560
  752TMC3     O11168   1.948   0.505  17.464 -0.3230 -0.1758 -0.4319
  752TMC3     H11169   2.006   0.148  17.536  0.1289  1.6927 -0.3084
  752TMC3    H111170   1.748   0.473  17.608  1.4387  0.4952  0.2161
  752TMC3    H211171   1.777   0.138   0.148  0.7434  1.6165  0.4875
  752TMC3    C711172   1.631   0.353   0.095  0.1697 -0.5021 -0.0120
  752TMC3    C811173   1.909   4.716   0.008 -0.0763  0.6049 -0.3536
  752TMC3    O111174   1.593   0.466   0.066  0.1962  0.4121  0.5834
  752TMC3    O211175   1.850   4.671   0.105  0.1082  0.0343  0.5174
  753TMC3    C111176   4.482   0.938  13.592 -0.6773  0.2891 -0.0296
  753TMC3    C211177   4.455   0.911  13.724 -0.5863 -0.6435 -0.0725
  753TMC3    C311178   4.410   0.787  13.767 -0.5106  0.0606 -0.4639
  753TMC3    C411179   4.438   0.844  13.498  0.4493 -0.1052  0.4625
  753TMC3    C511180   4.386   0.723  13.541  0.1044  0.1194 -0.2187
  753TMC3    C611181   4.384   0.688  13.675  0.0570  0.1905  0.7602
  753TMC3     C11182   4.539   1.065  13.557 -0.6030 -0.0993 -0.6216
  753TMC3     O11183   4.524   1.149  13.648 -0.0355 -0.2285 -0.1085
  753TMC3     H11184   4.481   0.985  13.798 -2.0322 -0.4815  0.2744
  753TMC3    H111185   4.426   0.869  13.393  2.1312  0.4613  0.4060
  753TMC3    H211186   4.356   0.589  13.707  0.8029 -0.1966  0.2293
  753TMC3    C711187   4.317   0.638  13.447 -0.3719  0.3722  0.3196
  753TMC3    C811188   4.392   0.740  13.908  0.0561 -0.3134  0.0586
  753TMC3    O111189   4.344   0.655  13.327  0.8736 -1.1840  0.8843
  753TMC3    O211190   4.377   0.615  13.931 -0.8824 -0.0514  0.0192
  754MPD2     C11191   3.394   3.833  13.520 -0.7399 -0.9099  0.2081
  754MPD2    C111192   3.298   3.747  13.474  0.1838 -0.1660  0.4231
  754MPD2    C211193   3.188   3.795  13.399 -0.7784  0.2257  0.0089
  754MPD2    C311194   3.164   3.929  13.400 -0.3761 -0.5458  0.3455
  754MPD2    C411195   3.256   4.012  13.443  0.1516 -0.1375 -0.7346
  754MPD2    C511196   3.370   3.969  13.503 -0.2592 -0.3641 -0.4014
  754MPD2     H11197   3.130   3.723  13.342 -0.3942 -1.1121  1.2990
  754MPD2    H111198   3.239   4.119  13.444  2.2401  0.2140 -3.6270
  754MPD2    H211199   3.488   3.803  13.566 -0.2530  1.3925  0.7397
  754MPD2    H311200   3.432   4.045  13.549  0.3046 -0.7859 -0.4556
  754MPD2     N11201   3.045   3.987  13.349  0.0226  0.5498  0.1080
  754MPD2    H511202   3.055   4.088  13.344 -1.2241  0.5529 -2.3346
  754MPD2    N111203   3.312   3.607  13.505 -0.2676  0.3921  0.2897
  754MPD2    H711204   3.408   3.575  13.517 -0.0625  1.5194  1.6436
  755MPD2     C11205   2.662   0.098  13.441  0.3052  0.0419 -0.0647
  755MPD2    C111206   2.656   4.735  13.539  0.0321  0.0059 -0.4931
  755MPD2    C211207   2.679   4.601  13.506  0.9567  0.6571  0.1339
  755MPD2    C311208   2.703   4.564  13.371  0.2060 -0.7864 -0.1020
  755MPD2    C411209   2.716   4.661  13.279  0.2710  0.4231 -0.6773
  755MPD2    C511210   2.693   0.059  13.310 -0.4102 -0.4678 -0.6810
  755MPD2     H11211   2.661   4.525  13.582  1.8716 -2.5613 -2.8343
  755MPD2    H111212   2.754   4.637  13.180  0.0841 -2.7605  0.0388
  755MPD2    H211213   2.671   0.202  13.470 -0.4150  0.0758  0.0221
  755MPD2    H311214   2.709   0.137  13.237 -0.8160 -0.3788 -0.6745
  755MPD2     N11215   2.723   4.426  13.331  0.2013 -0.3796 -0.0356
  755MPD2    H511216   2.751   4.409  13.234  3.0738 -0.2559  0.7641
  755MPD2    N111217   2.654   0.047  13.677  0.7061  0.2165  0.0813
  755MPD2    H711218   2.616   0.139  13.693 -0.1909 -0.3809  1.3585
  756MPD2     C11219   3.219   1.411   9.945 -0.0813 -0.5433  0.2669
  756MPD2    C111220   3.166   1.289   9.912  0.5191  0.2454 -0.0673
  756MPD2    C211221   3.094   1.276   9.791 -0.0266 -0.2826  0.1398
  756MPD2    C311222   3.078   1.385   9.706 -0.7031  0.0251  0.4322
  756MPD2    C411223   3.137   1.504   9.742  0.7244  0.4378 -0.1000
  756MPD2    C511224   3.201   1.516   9.866 -0.8748  0.0115 -0.1112
  756MPD2     H11225   3.068   1.175   9.764  2.1338 -0.4158 -1.4064
  756MPD2    H111226   3.131   1.595   9.682  1.7357 -1.0580 -2.4537
  756MPD2    H211227   3.283   1.426  10.032  3.9593 -2.4167 -2.3915
  756MPD2    H311228   3.230   1.618   9.891  2.4508 -0.9844  0.1572
  756MPD2     N11229   3.021   1.363   9.580 -0.1905 -0.7078 -0.2324
  756MPD2    H511230   2.974   1.277   9.553  0.9043 -1.0517 -1.0254
  756MPD2    N111231   3.193   1.177   9.995  0.0305 -0.1207  0.2877
  756MPD2    H711232   3.154   1.086   9.970  1.4369  0.0961 -2.6588
  757MPD2     C11233   2.179   1.109   9.549 -1.1169  0.4227 -0.5471
  757MPD2    C111234   2.293   1.055   9.601  0.1578 -0.5263  0.1217
  757MPD2    C211235   2.417   1.103   9.561  0.5301  0.0284  0.0545
  757MPD2    C311236   2.419   1.212   9.470 -0.5277 -0.3771  0.1655
  757MPD2    C411237   2.305   1.279   9.436 -0.1287 -0.9312 -0.4119
  757MPD2    C511238   2.191   1.222   9.477  0.0557  0.4064 -0.2495
  757MPD2     H11239   2.513   1.065   9.594  1.1002 -0.8912 -2.6932
  757MPD2    H111240   2.307   1.363   9.367  0.1658 -0.6869 -0.1051
  757MPD2    H211241   2.080   1.068   9.568  0.2131 -0.7089  3.8118
  757MPD2    H311242   2.097   1.264   9.443 -1.2636 -0.8877  1.7548
  757MPD2     N11243   2.547   1.255   9.430  0.2699 -0.0895 -0.4737
  757MPD2    H511244   2.620   1.190   9.458 -0.0382 -0.2338 -0.0041
  757MPD2    N111245   2.280   0.931   9.675  0.2087  0.5452  0.5147
  757MPD2    H711246   2.189   0.887   9.678 -0.0080  1.0047  0.7180
  758MPD2     C11247   3.135   4.413  15.983  0.0756  0.0097  0.3068
  758MPD2    C111248   3.159   4.301  16.062  0.2448  0.0543  0.5550
  758MPD2    C211249   3.111   4.315  16.192 -0.0364  0.1585 -0.5876
  758MPD2    C311250   3.047   4.426  16.249  0.5519 -0.6751 -0.3656
  758MPD2    C411251   3.032   4.531  16.166 -0.4318 -0.2677 -0.2418
  758MPD2    C511252   3.080   4.529  16.037  0.1908 -0.6224  0.5504
  758MPD2     H11253   3.132   4.229  16.255  0.0786 -0.0120 -0.8601
  758MPD2    H111254   2.986   4.622  16.204  0.0120  0.0818 -0.5457
  758MPD2    H211255   3.176   4.430  15.884  1.7581 -0.2862  0.9470
  758MPD2    H311256   3.085   4.621  15.980 -0.9459  0.6044  2.4448
  758MPD2     N11257   3.005   4.437  16.385  0.6426 -0.1513 -0.2680
  758MPD2    H511258   2.946   4.517  16.407 -0.9483 -1.1905 -0.7842
  758MPD2    N111259   3.236   4.184  16.021  0.5901 -0.6939 -0.0518
  758MPD2    H711260   3.291   4.197  15.937  1.8053  0.5363  0.9469
  759MPD2     C11261   1.604   3.016  10.425  0.0498 -0.1039  0.0532
  759MPD2    C111262   1.542   3.032  10.296  0.4571  0.0157 -0.0109
  759MPD2    C211263   1.622   3.053  10.189 -0.1416  0.4684 -0.4679
  759MPD2    C311264   1.758   3.081  10.204  0.1804  0.4880  1.3681
  759MPD2    C411265   1.810   3.068  10.331 -0.5525  0.0847 -0.5252
  759MPD2    C511266   1.734   3.034  10.438 -0.2673 -0.6939 -0.0235
  759MPD2     H11267   1.576   3.064  10.092 -1.4928 -1.1780  0.0014
  759MPD2    H111268   1.917   3.082  10.343 -0.6004  1.7801 -2.1044
  759MPD2    H211269   1.548   2.975  10.508  1.1121  0.1013  0.8648
  759MPD2    H311270   1.779   3.024  10.536  0.9536 -1.2221 -0.6438
  759MPD2     N11271   1.823   3.120  10.083  0.3043  0.6053  0.3091
  759MPD2    H511272   1.767   3.128   9.999 -0.0681  0.1570  0.5182
  759MPD2    N111273   1.403   3.001  10.278 -0.0298  0.7108  0.2230
  759MPD2    H711274   1.365   2.956  10.195 -1.1928  1.3052  0.4209
  760MPD2     C11275   1.213   4.409  11.929 -0.3566  0.2476 -0.2002
  760MPD2    C111276   1.321   4.471  11.877  0.3392  0.1846 -0.1880
  760MPD2    C211277   1.428   4.394  11.840  0.2728  0.2568 -0.8959
  760MPD2    C311278   1.436   4.260  11.876  0.6272 -0.0356  0.0616
  760MPD2    C411279   1.323   4.202  11.944  0.1033 -0.2412 -0.2744
  760MPD2    C511280   1.215   4.276  11.963 -0.4367  0.7705 -0.5334
  760MPD2     H11281   1.512   4.445  11.794  1.1290  0.0581  0.4595
  760MPD2    H111282   1.328   4.099  11.977  1.8355 -1.0420 -2.9726
  760MPD2    H211283   1.122   4.467  11.941  0.2857  1.0531  0.8547
  760MPD2    H311284   1.123   4.238  12.006  1.4154 -1.8235  1.1315
  760MPD2     N11285   1.551   4.171  11.857  0.1137 -0.2410  0.0160
  760MPD2    H511286   1.549   4.078  11.897 -1.5411  0.4405  1.4750
  760MPD2    N111287   1.313   4.608  11.852  0.8647 -0.1967 -0.7958
  760MPD2    H711288   1.237   4.649  11.904 -1.2039 -4.7982 -0.2044
  761MPD2     C11289   2.755   3.404  11.293 -0.1407  0.1395 -0.5017
  761MPD2    C111290   2.831   3.383  11.181  0.0928  0.7053  0.1048
  761MPD2    C211291   2.930   3.479  11.152  0.5024  0.8417 -0.0477
  761MPD2    C311292   2.956   3.581  11.240 -0.7167  0.3234  0.5960
  761MPD2    C411293   2.884   3.587  11.355 -0.0134  0.3871 -0.1592
  761MPD2    C511294   2.780   3.505  11.378 -0.4738  0.6261  0.2386
  761MPD2     H11295   2.997   3.467  11.068 -1.1727  1.7983 -1.5116
  761MPD2    H111296   2.911   3.659  11.432 -1.1699  1.3300 -0.6517
  761MPD2    H211297   2.692   3.323  11.329 -0.1359  0.1319 -0.5107
  761MPD2    H311298   2.715   3.517  11.463  0.3077  0.9243  0.7898
  761MPD2     N11299   3.046   3.688  11.210 -0.7145 -0.1069  0.5068
  761MPD2    H511300   3.045   3.757  11.285  2.3193 -0.4095  0.7964
  761MPD2    N111301   2.815   3.261  11.106 -0.1378 -0.1625 -0.3066
  761MPD2    H711302   2.734   3.208  11.137  0.0482  0.2284  0.8707
  762MPD2     C11303   3.303   3.350  10.862 -0.3141  0.1249 -0.4542
  762MPD2    C111304   3.307   3.219  10.807 -0.3115  0.1216 -0.0780
  762MPD2    C211305   3.393   3.190  10.699  0.5726 -0.0212  0.4393
  762MPD2    C311306   3.466   3.296  10.647 -0.1288 -0.6613  0.6755
  762MPD2    C411307   3.456   3.421  10.697  0.1950 -0.0723  0.1653
  762MPD2    C511308   3.381   3.444  10.810  0.3667  0.2976  0.2491
  762MPD2     H11309   3.399   3.091  10.657 -0.6063  0.9447 -2.0453
  762MPD2    H111310   3.509   3.508  10.660 -1.5597  0.9797  0.1050
  762MPD2    H211311   3.236   3.380  10.941  1.2981  1.3205  0.4472
  762MPD2    H311312   3.378   3.546  10.848 -2.0614  0.5069 -0.5536
  762MPD2     N11313   3.560   3.270  10.545 -0.2923 -0.2203  0.4703
  762MPD2    H511314   3.573   3.172  10.526  1.4524  0.4664 -1.9781
  762MPD2    N111315   3.207   3.141  10.858 -0.8148 -0.0452  0.1490
  762MPD2    H711316   3.131   3.186  10.908 -0.2469  0.0171  0.9431
  763MPD2     C11317   4.362   4.021  16.334  0.2548  0.3251  0.1259
  763MPD2    C111318   4.488   4.050  16.287 -0.7611 -0.3639  0.1363
  763MPD2    C211319   4.575   4.109  16.378  0.0100  0.8374 -0.0929
  763MPD2    C311320   4.539   4.145  16.505  0.1942  0.8046  0.1405
  763MPD2    C411321   4.418   4.109  16.552  0.0333  0.2100 -0.0332
  763MPD2    C511322   4.325   4.044  16.470 -0.0972 -0.1958  0.6088
  763MPD2     H11323   4.672   4.132  16.335  1.4007  0.0696  2.6393
  763MPD2    H111324   4.384   4.142  16.649  2.2072  0.3488  0.6768
  763MPD2    H211325   4.284   3.975  16.274  1.5544 -2.3492  0.4981
  763MPD2    H311326   4.234   4.003  16.512 -1.4697  1.3862 -0.8010
  763MPD2     N11327   4.638   4.202  16.580 -0.1840  0.0652 -0.4321
  763MPD2    H511328   4.720   4.227  16.526  0.5062 -0.4637  0.3739
  763MPD2    N111329   4.530   4.024  16.155 -0.7467  0.4841 -1.0975
  763MPD2    H711330   4.628   4.030  16.131 -0.2687 -2.3668  0.1765
  764MPD2     C11331   2.714   1.097   0.051 -0.0388  0.4654  0.5307
  764MPD2    C111332   2.610   1.024  17.735 -0.6509  0.5974  0.0065
  764MPD2    C211333   2.545   0.927   0.071  0.3883 -0.5064  0.2632
  764MPD2    C311334   2.577   0.911   0.204 -0.3341 -1.0032  0.2820
  764MPD2    C411335   2.675   0.992   0.264 -0.3988  0.1492 -0.7615
  764MPD2    C511336   2.741   1.084   0.185 -0.9834  0.3078 -0.2757
  764MPD2     H11337   2.464   0.872   0.024  1.3817 -2.2341  0.5590
  764MPD2    H111338   2.696   0.980   0.370  0.7753 -2.1343 -1.2561
  764MPD2    H211339   2.777   1.171   0.003 -1.3417  1.9138  1.0589
  764MPD2    H311340   2.812   1.151   0.232 -0.5322 -0.7761  0.5830
  764MPD2     N11341   2.495   0.828   0.280 -0.5026  0.2898 -0.4057
  764MPD2    H511342   2.424   0.775   0.231 -2.5208 -0.0244  2.8603
  764MPD2    N111343   2.564   1.030  17.603 -0.1977 -0.0108  0.1319
  764MPD2    H711344   2.491   0.966  17.575  2.2665 -2.3372 -1.0032
  765MPD2     C11345   2.671   3.590  15.718 -0.6096 -0.0644  0.3029
  765MPD2    C111346   2.749   3.653  15.810 -0.4574  0.4131  0.3737
  765MPD2    C211347   2.859   3.589  15.867 -0.6533  0.4558 -0.4248
  765MPD2    C311348   2.874   3.457  15.839  0.0602 -0.9406  0.6379
  765MPD2    C411349   2.790   3.397  15.753 -0.7046 -0.3925 -0.1481
  765MPD2    C511350   2.697   3.467  15.687  0.2979 -1.1682  0.0732
  765MPD2     H11351   2.920   3.629  15.948  0.1629 -0.8502 -0.3922
  765MPD2    H111352   2.785   3.290  15.736 -1.1597 -0.4667  0.4595
  765MPD2    H211353   2.583   3.644  15.685 -0.8626 -0.3797  0.4504
  765MPD2    H311354   2.636   3.422  15.609  0.3602 -0.2906 -0.4828
  765MPD2     N11355   2.992   3.393  15.897  0.5369 -0.7049 -0.3315
  765MPD2    H511356   3.048   3.453  15.956  0.8620 -2.1723  0.8521
  765MPD2    N111357   2.704   3.782  15.838 -0.3742  0.1406 -0.1920
  765MPD2    H711358   2.611   3.803  15.800  0.1991 -1.5374 -2.5505
  766MPD2     C11359   2.114   3.950  15.485  0.7960  0.1975 -0.4809
  766MPD2    C111360   2.229   3.908  15.543 -0.4907 -0.3447 -0.3814
  766MPD2    C211361   2.295   3.798  15.490 -0.1531  0.0316  0.0337
  766MPD2    C311362   2.252   3.742  15.372 -1.1262 -0.0797  0.1497
  766MPD2    C411363   2.138   3.798  15.313 -0.4265 -0.1995 -0.8471
  766MPD2    C511364   2.069   3.901  15.367 -0.1103 -0.3048 -0.2134
  766MPD2     H11365   2.396   3.773  15.520 -1.1789 -0.5632  2.9538
  766MPD2    H111366   2.096   3.770  15.217 -1.1211  1.2086 -0.9386
  766MPD2    H211367   2.057   4.033  15.526 -0.4635  0.8361 -3.5945
  766MPD2    H311368   1.972   3.934  15.330 -0.7808 -4.0127 -1.8390
  766MPD2     N11369   2.331   3.652  15.298 -0.7792 -0.3684  0.0612
  766MPD2    H511370   2.305   3.644  15.200  0.5595 -1.6010 -0.1845
  766MPD2    N111371   2.282   3.979  15.659  0.5701 -0.6688  0.0638
  766MPD2    H711372   2.235   4.059  15.699  1.5954 -0.1854  0.2929
  767MPD2     C11373   2.039   3.963  14.967 -0.3168 -0.1527 -0.0854
  767MPD2    C111374   2.161   3.904  14.994 -0.1373  1.1539 -0.1656
  767MPD2    C211375   2.187   3.784  14.933  0.3385 -0.0062  0.2333
  767MPD2    C311376   2.099   3.722  14.844 -0.0120 -0.9774  0.1262
  767MPD2    C411377   1.983   3.788  14.812 -0.4678 -0.4460  0.0903
  767MPD2    C511378   1.954   3.906  14.871  0.3415 -0.1298  0.4163
  767MPD2     H11379   2.289   3.750  14.951  0.1949  0.6072  2.2485
  767MPD2    H111380   1.913   3.759  14.735 -0.7800 -2.5131  1.1337
  767MPD2    H211381   2.018   4.059  15.012 -1.4052  0.2079 -1.3710
  767MPD2    H311382   1.861   3.954  14.843  1.3350  0.3037 -2.1379
  767MPD2     N11383   2.129   3.598  14.774 -0.4530  1.0888 -0.8337
  767MPD2    H511384   2.223   3.565  14.792 -1.2657 -0.0611  1.3664
  767MPD2    N111385   2.258   3.975  15.082  0.2454  0.1199 -0.3098
  767MPD2    H711386   2.217   4.045  15.143  0.2954  0.1077 -0.2621
  768MPD2     C11387   3.634   2.563  10.430  0.1520  0.1953 -0.1777
  768MPD2    C111388   3.534   2.489  10.483  0.4759  0.1942  0.1782
  768MPD2    C211389   3.552   2.400  10.583 -0.7713 -0.0872 -0.1689
  768MPD2    C311390   3.669   2.390  10.653 -0.1942  0.3389  0.4531
  768MPD2    C411391   3.776   2.471  10.608  0.0118 -0.0066 -0.1337
  768MPD2    C511392   3.753   2.555  10.492 -0.8762 -0.1466  0.1046
  768MPD2     H11393   3.457   2.355  10.611 -1.3742  1.1636 -0.1905
  768MPD2    H111394   3.876   2.460  10.648  0.1035  0.6580 -0.1716
  768MPD2    H211395   3.619   2.631  10.347  0.0417  0.6281  0.1947
  768MPD2    H311396   3.831   2.617  10.448 -1.8984 -0.1342 -1.6765
  768MPD2     N11397   3.692   2.308  10.771 -0.4480 -0.6645 -0.6564
  768MPD2    H511398   3.786   2.308  10.810  0.2381  1.2722 -2.2627
  768MPD2    N111399   3.402   2.485  10.441  0.1712 -0.4165 -0.3574
  768MPD2    H711400   3.340   2.415  10.481  0.9595 -2.4601 -2.6892
  769MPD2     C11401   4.100   0.119  15.362 -0.0938 -0.7389  0.1180
  769MPD2    C111402   3.985   0.181  15.392  0.8893 -0.2017 -0.0131
  769MPD2    C211403   3.991   0.280  15.487  0.4119 -0.0886  0.7587
  769MPD2    C311404   4.108   0.327  15.538  0.1108  0.3911  0.3570
  769MPD2    C411405   4.222   0.247  15.518  0.1446 -0.0427 -0.1833
  769MPD2    C511406   4.217   0.155  15.420 -0.0319  0.1424  0.1766
  769MPD2     H11407   3.901   0.336  15.509 -0.5829 -2.4035  2.5249
  769MPD2    H111408   4.323   0.263  15.556  0.4552 -0.1137 -0.9759
  769MPD2    H211409   4.107   0.038  15.290  1.5602  1.1581 -1.8246
  769MPD2    H311410   4.304   0.091  15.415 -0.0454 -0.0502  2.1222
  769MPD2     N11411   4.117   0.450  15.605 -0.4413 -0.5635 -0.2195
  769MPD2    H511412   4.034   0.489  15.647 -0.2307 -0.8574  0.4738
  769MPD2    N111413   3.875   0.134  15.322 -0.6450  0.5062 -0.7151
  769MPD2    H711414   3.898   0.064  15.252 -0.0140  2.2059 -2.2136
  770MPD2     C11415   3.108   4.321  15.008  0.0749  0.4031  0.3430
  770MPD2    C111416   3.243   4.299  15.026 -0.0202  0.1064  0.5012
  770MPD2    C211417   3.317   4.400  15.086 -0.1384  0.0099  0.5644
  770MPD2    C311418   3.257   4.522  15.116 -0.4276 -0.1959 -1.0047
  770MPD2    C411419   3.124   4.541  15.103 -0.7269  0.5428 -0.3819
  770MPD2    C511420   3.053   4.435  15.055  0.1138  0.4828  0.0323
  770MPD2     H11421   3.425   4.396  15.094 -0.1361 -0.8753  0.0858
  770MPD2    H111422   3.071   4.634  15.119  1.6145  2.0156 -1.2024
  770MPD2    H211423   3.039   4.250  14.964 -2.0134  2.4369  0.3642
  770MPD2    H311424   2.948   4.453  15.031  0.1382 -0.1057 -0.5315
  770MPD2     N11425   3.352   4.626  15.152  0.6338  0.7681 -0.0643
  770MPD2    H511426   3.452   4.606  15.151  0.5243  0.3168 -1.5381
  770MPD2    N111427   3.300   4.174  14.986  0.1247 -0.2152 -0.3167
  770MPD2    H711428   3.232   4.107  14.953 -0.4481  0.2075  0.0107
  771MPD2     C11429   4.092   2.878  13.217  0.1986  0.7577 -0.3967
  771MPD2    C111430   4.164   2.955  13.129 -0.1873 -0.3819  0.2917
  771MPD2    C211431   4.273   2.904  13.063  0.0833  0.3053  0.3800
  771MPD2    C311432   4.320   2.778  13.087  0.2243  0.0653 -0.4451
  771MPD2    C411433   4.254   2.698  13.167 -0.1188  0.6218 -0.1517
  771MPD2    C511434   4.138   2.746  13.231 -0.3015 -0.6620  0.4415
  771MPD2     H11435   4.323   2.966  12.990 -0.3964  0.5556  0.2638
  771MPD2    H111436   4.285   2.599  13.199 -2.3486 -0.9077 -2.7386
  771MPD2    H211437   3.998   2.906  13.262  0.0306 -0.0202 -0.2664
  771MPD2    H311438   4.073   2.676  13.283 -1.6591 -1.6274 -2.5201
  771MPD2     N11439   4.440   2.721  13.033 -0.6995 -0.2929  0.0492
  771MPD2    H511440   4.458   2.623  13.050 -2.2973 -0.3538  1.4197
  771MPD2    N111441   4.115   3.078  13.093 -0.1351  0.4765 -0.9256
  771MPD2    H711442   4.156   3.131  13.017 -1.2561 -1.1345 -2.6314
  772MPD2     C11443   3.835   3.750  13.502 -0.3490 -0.1898  0.0118
  772MPD2    C111444   3.899   3.629  13.521  0.6464 -0.0511  0.2315
  772MPD2    C211445   3.916   3.571  13.641  0.8444 -0.2667 -0.7148
  772MPD2    C311446   3.857   3.627  13.756 -0.1017 -0.4971 -0.1677
  772MPD2    C411447   3.806   3.758  13.740  0.7281 -0.1580 -0.4999
  772MPD2    C511448   3.788   3.814  13.618  0.3442 -0.4146 -0.3674
  772MPD2     H11449   3.950   3.468  13.642  1.1255 -0.1520  1.0199
  772MPD2    H111450   3.756   3.808  13.821  1.0073 -0.2784 -0.2553
  772MPD2    H211451   3.816   3.794  13.405 -0.8553  2.7626  1.4439
  772MPD2    H311452   3.741   3.912  13.609  0.0282 -0.7452 -2.3412
  772MPD2     N11453   3.846   3.560  13.879  0.6435 -0.1570  0.0572
  772MPD2    H511454   3.804   3.613  13.954 -0.9827  0.3590 -1.2042
  772MPD2    N111455   3.952   3.555  13.410 -0.0771  0.1632 -0.3478
  772MPD2    H711456   4.000   3.469  13.436 -0.7302 -0.9786 -2.9054
  773MPD2     C11457   3.430   4.159   0.687  0.5102  0.0468  0.2617
  773MPD2    C111458   3.449   4.090   0.570 -0.1250 -0.0094 -0.1088
  773MPD2    C211459   3.512   3.967   0.579 -0.6328 -0.1477 -0.9719
  773MPD2    C311460   3.566   3.922   0.690 -0.2738  0.3889  0.4812
  773MPD2    C411461   3.550   3.995   0.803 -0.2765 -0.6129  0.0524
  773MPD2    C511462   3.477   4.114   0.803  0.3150 -0.0381 -0.2702
  773MPD2     H11463   3.517   3.915   0.484  0.2617 -2.8125  0.5330
  773MPD2    H111464   3.586   3.954   0.897  0.5045  0.5010  0.2281
  773MPD2    H211465   3.368   4.248   0.692  2.2693  1.2965 -0.3125
  773MPD2    H311466   3.454   4.175   0.890 -1.0846  0.6045 -1.0887
  773MPD2     N11467   3.643   3.799   0.684  0.2211  0.2140 -0.4550
  773MPD2    H511468   3.637   3.752   0.595  0.1418 -1.9685  0.7028
  773MPD2    N111469   3.407   4.137   0.439  0.1374  0.2998 -0.7222
  773MPD2    H711470   3.417   4.078   0.357 -1.6217 -2.1391  0.8238
  774MPD2     C11471   2.499   2.957  13.643 -0.9153 -0.1623 -0.0897
  774MPD2    C111472   2.629   2.955  13.691 -0.3227  0.2330 -0.0665
  774MPD2    C211473   2.729   3.037  13.642 -0.0705 -0.2334 -0.4849
  774MPD2    C311474   2.692   3.139  13.555 -0.4654 -0.0913 -0.3063
  774MPD2    C411475   2.563   3.141  13.502  0.4151  0.4409 -0.2924
  774MPD2    C511476   2.472   3.053  13.551  0.4021 -1.2678  0.2379
  774MPD2     H11477   2.832   3.025  13.674 -0.0744 -0.0593 -0.4071
  774MPD2    H111478   2.537   3.205  13.418 -1.3811  0.5937  0.3809
  774MPD2    H211479   2.424   2.889  13.681 -0.6907 -1.4800 -2.0021
  774MPD2    H311480   2.368   3.055  13.522  0.4777  0.7334  0.1625
  774MPD2     N11481   2.786   3.243  13.532  0.2639 -0.0689  0.2567
  774MPD2    H511482   2.869   3.239  13.590  1.0626 -1.0635 -0.9584
  774MPD2    N111483   2.653   2.874  13.798  0.6603 -0.5116  0.3423
  774MPD2    H711484   2.572   2.853  13.856 -0.4332 -0.6991 -1.2354
  775MPD2     C11485   4.318   0.202  15.992  0.0854  0.2867 -0.1474
  775MPD2    C111486   4.341   0.322  16.067  0.4196 -0.8861  0.1706
  775MPD2    C211487   4.432   0.411  16.007 -0.1464  0.6784  0.4312
  775MPD2    C311488   4.488   0.394  15.882  0.2871 -0.2440  0.1805
  775MPD2    C411489   4.461   0.279  15.816 -0.7316 -0.4367 -0.6396
  775MPD2    C511490   4.377   0.189  15.868 -0.4876  0.1382  0.1339
  775MPD2     H11491   4.462   0.497  16.067  1.6861  0.7272 -0.5741
  775MPD2    H111492   4.504   0.263  15.718 -1.0603  0.3935 -0.9193
  775MPD2    H211493   4.246   0.127  16.023  0.1472 -0.0223 -0.7635
  775MPD2    H311494   4.345   0.114  15.796  0.1168 -0.9553  1.0097
  775MPD2     N11495   4.571   0.483  15.815 -0.5498  0.1688  0.2641
  775MPD2    H511496   4.587   0.479  15.715 -1.1966  0.5168  0.1422
  775MPD2    N111497   4.279   0.327  16.191 -0.3989  0.5407  0.0748
  775MPD2    H711498   4.205   0.258  16.202  0.9982 -0.8215  0.9763
  776MPD2     C11499   3.215   0.429  11.966 -0.8176  0.5477 -0.2176
  776MPD2    C111500   3.177   0.413  11.833  0.1987 -0.2314 -0.3729
  776MPD2    C211501   3.203   0.514  11.743 -0.1637 -0.4091 -0.2598
  776MPD2    C311502   3.264   0.632  11.782  0.6181  1.5136  0.0644
  776MPD2    C411503   3.310   0.638  11.911 -0.0900  0.5900 -0.1945
  776MPD2    C511504   3.277   0.540  11.997 -0.1229  0.0032 -0.0809
  776MPD2     H11505   3.182   0.489  11.639  0.3129 -1.5253 -0.0828
  776MPD2    H111506   3.371   0.717  11.953 -1.7872  1.3422  0.8289
  776MPD2    H211507   3.201   0.347  12.035 -0.4766 -1.8278 -2.9748
  776MPD2    H311508   3.288   0.554  12.104 -1.7446  1.5120 -0.1102
  776MPD2     N11509   3.297   0.739  11.693  0.6987  0.6231 -0.1471
  776MPD2    H511510   3.364   0.808  11.724 -0.9471  1.0899  2.3727
  776MPD2    N111511   3.114   0.288  11.797  0.6099 -0.2983  0.1302
  776MPD2    H711512   3.112   0.227  11.878  4.0468 -0.9116 -0.2779
  777MPD2     C11513   3.793   2.634   0.901  0.5867 -0.1260  0.0397
  777MPD2    C111514   3.738   2.547   0.995 -0.8045  0.7945  0.4352
  777MPD2    C211515   3.729   2.413   0.959 -0.8025  0.1637 -0.8510
  777MPD2    C311516   3.751   2.371   0.827 -0.9697  0.1911  0.2742
  777MPD2    C411517   3.815   2.461   0.744 -0.1853 -0.0788  0.4952
  777MPD2    C511518   3.840   2.588   0.782 -0.2731 -0.2265 -0.3728
  777MPD2     H11519   3.692   2.341   1.031 -2.2807  1.2000 -0.5811
  777MPD2    H111520   3.822   2.451   0.636  0.9457  1.1075  0.4645
  777MPD2    H211521   3.806   2.738   0.930  0.0781 -0.0055 -0.1490
  777MPD2    H311522   3.880   2.668   0.720 -0.5687 -0.1884 -0.5161
  777MPD2     N11523   3.713   2.239   0.791  0.1002  0.1475 -0.5472
  777MPD2    H511524   3.699   2.180   0.872 -0.9980 -0.0319 -0.8717
  777MPD2    N111525   3.687   2.593   1.113 -0.1279 -0.0676 -0.2327
  777MPD2    H711526   3.679   2.530   1.193  0.3731 -1.5352 -1.3357
  778MPD2     C11527   4.711   3.359  14.824 -0.3229  0.4785 -0.2409
  778MPD2    C111528   0.015   3.242  14.761  0.2408 -0.0921  0.2460
  778MPD2    C211529   0.098   3.247  14.649  0.0851  0.0312  0.0228
  778MPD2    C311530   0.118   3.367  14.583  0.2649 -0.7367 -0.8209
  778MPD2    C411531   0.063   3.482  14.636 -0.7080 -0.3472  0.0038
  778MPD2    C511532   0.003   3.476  14.762 -0.4937  0.4287 -1.0126
  778MPD2     H11533   0.123   3.152  14.604 -1.0008 -0.9094  1.4023
  778MPD2    H111534   0.075   3.579  14.589 -0.1289 -1.1307 -1.4636
  778MPD2    H211535   4.651   3.370  14.914  1.0988 -0.3721  0.8276
  778MPD2    H311536   4.708   3.566  14.815 -0.0074 -0.6888  1.1387
  778MPD2     N11537   0.205   3.374  14.469  0.0011  0.3306  0.2039
  778MPD2    H511538   0.273   3.299  14.454 -0.3429 -0.2122  1.3314
  778MPD2    N111539   4.708   3.114  14.804  0.2645  0.8243 -0.3378
  778MPD2    H711540   4.730   3.026  14.759  1.6420  0.6554  0.6724
  779MPD2     C11541   4.376   1.591  14.565 -0.1036 -0.1750  0.4681
  779MPD2    C111542   4.409   1.638  14.692 -0.1793 -0.5963  0.6071
  779MPD2    C211543   4.446   1.774  14.705  0.3449  0.8367  0.3817
  779MPD2    C311544   4.450   1.859  14.592  0.7291  0.2533 -0.2165
  779MPD2    C411545   4.392   1.809  14.472 -0.3476  0.7159 -0.0335
  779MPD2    C511546   4.374   1.678  14.455 -0.7812 -0.4127  0.4387
  779MPD2     H11547   4.474   1.805  14.805 -3.6729 -0.3335  1.8680
  779MPD2    H111548   4.383   1.864  14.380 -0.0887 -0.5334 -0.8053
  779MPD2    H211549   4.350   1.489  14.536 -0.7737 -0.1406  0.9473
  779MPD2    H311550   4.351   1.647  14.354  1.9812  1.7195 -0.8268
  779MPD2     N11551   4.509   1.987  14.607 -0.3855  0.1014  0.0379
  779MPD2    H511552   4.549   2.017  14.695 -1.1826 -0.4296  0.5831
  779MPD2    N111553   4.409   1.566  14.814 -0.2128  0.4972 -0.2270
  779MPD2    H711554   4.423   1.614  14.902  0.5342  1.2083 -0.7424
  780MPD2     C11555   3.797   1.621   1.588 -0.1440  0.1962 -0.1509
  780MPD2    C111556   3.735   1.564   1.481 -0.5106 -0.7571  0.7641
  780MPD2    C211557   3.788   1.576   1.355 -0.3880 -0.6886 -0.6388
  780MPD2    C311558   3.900   1.660   1.341  0.5240  0.4161 -0.9130
  780MPD2    C411559   3.944   1.732   1.449  0.4740 -0.3876  0.0185
  780MPD2    C511560   3.903   1.699   1.575  0.1689  0.7586 -0.1608
  780MPD2     H11561   3.748   1.508   1.281 -1.1167 -1.2116  0.2239
  780MPD2    H111562   4.026   1.803   1.443  0.2868 -0.2940 -1.3808
  780MPD2    H211563   3.760   1.615   1.690  1.4295  1.5649  0.4973
  780MPD2    H311564   3.947   1.749   1.660 -1.0418  1.5906 -0.0090
  780MPD2     N11565   3.973   1.662   1.216  0.4445 -0.0787  0.0246
  780MPD2    H511566   3.951   1.593   1.146 -0.1185 -0.6376  0.7558
  780MPD2    N111567   3.622   1.483   1.503 -0.2727 -0.2812 -0.2777
  780MPD2    H711568   3.603   1.445   1.596  0.2859  2.2621  0.8897
  781MPD2     C11569   1.197   3.381  11.607 -0.0274  0.4351 -0.3012
  781MPD2    C111570   1.233   3.273  11.678 -0.3672 -0.0756  0.0948
  781MPD2    C211571   1.334   3.191  11.633  0.0669 -0.4335  0.2546
  781MPD2    C311572   1.394   3.213  11.511 -0.7725 -0.5373  0.2072
  781MPD2    C411573   1.341   3.305  11.422  0.0234 -0.0404 -0.5249
  781MPD2    C511574   1.244   3.388  11.474 -0.2135 -0.0660  1.1246
  781MPD2     H11575   1.358   3.109  11.700 -0.9883 -0.6366  0.3857
  781MPD2    H111576   1.370   3.334  11.322 -0.4144  0.6638 -0.4458
  781MPD2    H211577   1.132   3.458  11.647 -0.2598 -1.1488  2.3804
  781MPD2    H311578   1.208   3.467  11.409 -0.2676  1.0102  2.4561
  781MPD2     N11579   1.493   3.128  11.462  0.6172  0.0487  0.3615
  781MPD2    H511580   1.512   3.145  11.364  1.3996  0.4754  0.5885
  781MPD2    N111581   1.200   3.259  11.811  0.6808 -0.3890 -0.3615
  781MPD2    H711582   1.238   3.176  11.855  0.5098 -1.0880 -1.5231
  782MPD2     C11583   3.671   4.286  10.342  0.0501  0.3840  0.5604
  782MPD2    C111584   3.803   4.260  10.367 -0.2450  0.6208 -0.4332
  782MPD2    C211585   3.860   4.325  10.469 -0.3784 -0.3872  0.3447
  782MPD2    C311586   3.797   4.423  10.545 -0.0233  0.0646  0.5447
  782MPD2    C411587   3.662   4.436  10.530  0.0007  0.0109  0.5177
  782MPD2    C511588   3.603   4.388  10.412  0.2777 -0.0787 -0.5762
  782MPD2     H11589   3.967   4.316  10.486 -0.2736  0.1390 -0.0244
  782MPD2    H111590   3.602   4.506  10.586 -1.1425  0.4686 -1.2869
  782MPD2    H211591   3.605   4.246  10.266 -1.8144  0.0424  2.3728
  782MPD2    H311592   3.499   4.413  10.391  0.1823  0.4524  0.5076
  782MPD2     N11593   3.876   4.491  10.638  0.3548 -0.4264  0.0862
  782MPD2    H511594   3.975   4.473  10.628  0.6769  1.4552 -0.1531
  782MPD2    N111595   3.887   4.176  10.296  0.0606  0.5790  0.1381
  782MPD2    H711596   3.985   4.165  10.320 -0.2861  0.9643  1.7559
  783MPD2     C11597   3.711   3.535  10.873 -0.3204  0.8077 -0.0826
  783MPD2    C111598   3.668   3.659  10.835  0.0191 -0.0543 -0.1685
  783MPD2    C211599   3.718   3.712  10.717 -0.7386 -1.0377 -0.2749
  783MPD2    C311600   3.816   3.644  10.641  0.2015 -0.0222 -0.2600
  783MPD2    C411601   3.866   3.529  10.692  0.3857 -0.5460 -0.2894
  783MPD2    C511602   3.812   3.467  10.803 -0.8924  0.2156 -0.4236
  783MPD2     H11603   3.678   3.811  10.695 -0.8542 -0.8297  0.8976
  783MPD2    H111604   3.939   3.469  10.638 -0.7895 -0.4364 -1.9672
  783MPD2    H211605   3.667   3.480  10.955  0.0990 -0.7610 -0.9134
  783MPD2    H311606   3.842   3.367  10.829 -1.0044  0.3618  0.2546
  783MPD2     N11607   3.851   3.703  10.516  0.6001 -0.4964 -0.5563
  783MPD2    H511608   3.810   3.791  10.487 -0.4224 -0.3868  1.1980
  783MPD2    N111609   3.578   3.731  10.919 -0.2616 -0.0249  0.4293
  783MPD2    H711610   3.548   3.672  10.995 -0.9119  1.5192  1.3719
  784MPD2     C11611   0.990   4.462   0.896 -0.1602  0.0046  0.0756
  784MPD2    C111612   1.062   4.547   0.975 -0.1503  0.2042 -0.2965
  784MPD2    C211613   1.006   4.665   1.009  0.0318 -0.1454  0.1225
  784MPD2    C311614   0.874   4.695   0.986  0.2313 -0.1077  0.0807
  784MPD2    C411615   0.804   4.607   0.907  0.2296 -0.0686  0.0429
  784MPD2    C511616   0.864   4.498   0.851 -0.6531  0.2697 -0.2800
  784MPD2     H11617   1.068   0.002   1.062  1.0705 -0.3883 -0.7545
  784MPD2    H111618   0.700   4.631   0.887  0.5918  0.9073 -0.6882
  784MPD2    H211619   1.025   4.369   0.852  1.6871  0.7088  0.0674
  784MPD2    H311620   0.809   4.433   0.784  0.6813 -0.2004 -0.9299
  784MPD2     N11621   0.833   0.076   1.049 -0.1324 -0.2286 -0.0863
  784MPD2    H511622   0.907   0.132   1.092 -2.2935  1.9628  0.7652
  784MPD2    N111623   1.186   4.512   1.014  0.2784  0.6967  1.1845
  784MPD2    H711624   1.236   4.579   1.071  0.7845  2.6046 -1.4966
  785MPD2     C11625   2.078   3.599   9.983 -0.0146  0.5927 -0.6520
  785MPD2    C111626   2.104   3.599  10.115  0.1416 -0.8400  0.2044
  785MPD2    C211627   2.011   3.541  10.192 -0.3937  0.3585  0.1970
  785MPD2    C311628   1.886   3.495  10.143 -0.1024 -0.0661 -0.0499
  785MPD2    C411629   1.866   3.494  10.008 -0.2711  0.1307 -0.2319
  785MPD2    C511630   1.969   3.543   9.925  0.9464  0.3873  1.3775
  785MPD2     H11631   2.024   3.539  10.299 -1.2220 -0.7850  0.2669
  785MPD2    H111632   1.781   3.447   9.961  0.1853 -1.4255  0.5234
  785MPD2    H211633   2.157   3.628   9.915  0.5715  1.1697  0.2802
  785MPD2    H311634   1.954   3.534   9.818 -1.7538 -0.2192  1.8143
  785MPD2     N11635   1.790   3.467  10.239 -0.2794  0.3866 -0.6659
  785MPD2    H511636   1.821   3.481  10.334 -0.1451 -0.2435 -0.6175
  785MPD2    N111637   2.219   3.655  10.175 -0.7361 -0.1514 -0.6723
  785MPD2    H711638   2.222   3.650  10.276  0.6296 -1.2225 -0.7697
  786MPD2     C11639   4.675   0.949  14.848  0.6052  0.2113  0.6584
  786MPD2    C111640   0.072   0.947  14.804  0.4004 -1.0036  0.1545
  786MPD2    C211641   0.167   1.012  14.892 -0.4161  0.5025 -0.1455
  786MPD2    C311642   0.126   1.062  15.013 -0.3365 -0.7475  0.4027
  786MPD2    C411643   4.732   1.059  15.039  0.0939 -0.0759  0.5780
  786MPD2    C511644   4.638   0.999  14.964  0.6853  0.4157 -0.9293
  786MPD2     H11645   0.272   1.015  14.865  0.2172 -1.9484  2.0508
  786MPD2    H111646   4.702   1.095  15.137 -0.1926 -3.1277  1.6081
  786MPD2    H211647   4.597   0.896  14.794 -0.1384  3.5352 -1.5466
  786MPD2    H311648   4.534   1.008  14.994  1.0202  0.0878  0.2879
  786MPD2     N11649   0.215   1.113  15.107 -0.0028  0.1524 -0.1973
  786MPD2    H511650   0.168   1.165  15.181  3.4731  3.1420 -0.0668
  786MPD2    N111651   0.105   0.895  14.680  0.2573 -0.0332 -0.1883
  786MPD2    H711652   0.205   0.904  14.661  0.3977 -1.0198  0.0737
  787MPD2     C11653   0.670   0.637  14.581  0.0410  1.5757 -0.1526
  787MPD2    C111654   0.608   0.635  14.459 -0.2070 -0.1304  0.5290
  787MPD2    C211655   0.687   0.624  14.347  0.0252  0.0682  0.3016
  787MPD2    C311656   0.825   0.616  14.355 -0.6860  0.4242 -0.1378
  787MPD2    C411657   0.886   0.612  14.479 -0.2134 -0.7520 -0.7123
  787MPD2    C511658   0.805   0.622  14.591 -0.3311  0.2545 -0.1360
  787MPD2     H11659   0.640   0.610  14.250  1.3152 -0.3943 -0.2599
  787MPD2    H111660   0.994   0.614  14.491 -0.3441 -0.4009  0.4495
  787MPD2    H211661   0.615   0.651  14.673  0.5969 -0.8037  0.5282
  787MPD2    H311662   0.854   0.627  14.687  0.6985  1.5504 -0.7284
  787MPD2     N11663   0.901   0.616  14.237 -0.2081 -0.3426  1.0075
  787MPD2    H511664   0.845   0.649  14.160  0.6082 -0.2908  0.4323
  787MPD2    N111665   0.468   0.655  14.450 -0.0022 -0.6475  0.2901
  787MPD2    H711666   0.412   0.671  14.533 -0.5159 -0.1064 -0.1549
  788MPD2     C11667   2.372   4.338   0.956 -0.1995  0.5525 -0.0153
  788MPD2    C111668   2.414   4.326   0.828  0.4794  0.2275 -0.6575
  788MPD2    C211669   2.452   4.437   0.755  0.7450 -0.4013 -0.4038
  788MPD2    C311670   2.438   4.562   0.822  0.8322 -0.1878  0.5997
  788MPD2    C411671   2.404   4.577   0.950  0.1018 -0.4634  0.0669
  788MPD2    C511672   2.371   4.467   1.018 -1.1995  0.6083  0.0668
  788MPD2     H11673   2.485   4.430   0.652 -2.6751  0.2822 -1.5424
  788MPD2    H111674   2.391   4.675   0.995  0.3046 -1.3528  2.0490
  788MPD2    H211675   2.336   4.255   1.016  1.6656  1.8500  2.8684
  788MPD2    H311676   2.344   4.470   1.123 -1.7770  1.2648 -0.1032
  788MPD2     N11677   2.460   4.687   0.762  0.5672  0.3637 -0.4010
  788MPD2    H511678   2.454   0.038   0.815  0.0605  0.3232 -0.3969
  788MPD2    N111679   2.411   4.201   0.762  0.4972  0.4289 -0.1186
  788MPD2    H711680   2.456   4.182   0.673  0.1897 -0.5416 -0.0664
  789MPD2     C11681   2.394   3.644  17.367 -0.1669 -0.0108 -0.1443
  789MPD2    C111682   2.331   3.598  17.257  0.3618  0.3440 -0.3276
  789MPD2    C211683   2.235   3.672  17.181  0.3258 -0.2421  0.2117
  789MPD2    C311684   2.193   3.791  17.237 -0.1701 -0.1973  0.2270
  789MPD2    C411685   2.254   3.845  17.345  0.9278  0.4206 -0.0228
  789MPD2    C511686   2.358   3.771  17.409 -0.3726  0.2182 -0.5868
  789MPD2     H11687   2.170   3.630  17.105  2.8312 -0.3739 -1.8792
  789MPD2    H111688   2.238   3.945  17.383 -2.6909  0.0649 -0.6377
  789MPD2    H211689   2.486   3.594  17.398 -1.4578 -1.2554  1.6897
  789MPD2    H311690   2.401   3.817  17.497  0.1411 -0.0666 -0.6889
  789MPD2     N11691   2.088   3.870  17.183  0.1183 -0.2612  0.3157
  789MPD2    H511692   2.046   3.948  17.233 -0.8960 -0.9050  0.4673
  789MPD2    N111693   2.364   3.476  17.205  0.2104 -0.4759  0.2310
  789MPD2    H711694   2.352   3.464  17.105 -0.3736 -2.0910  0.4837
  790MPD2     C11695   3.614   0.792  13.625  0.4541  0.3096 -0.0423
  790MPD2    C111696   3.629   0.656  13.627 -0.0002 -0.2300  0.2134
  790MPD2    C211697   3.577   0.579  13.529  0.9444 -0.0015  0.4042
  790MPD2    C311698   3.495   0.636  13.435 -0.3156 -0.5107  0.1443
  790MPD2    C411699   3.485   0.775  13.425  0.0075  0.0753  0.2150
  790MPD2    C511700   3.545   0.844  13.519 -0.3411 -0.2961 -0.1478
  790MPD2     H11701   3.585   0.471  13.538  2.3270  0.0582 -0.0257
  790MPD2    H111702   3.432   0.818  13.341 -2.8715  0.5733  2.3037
  790MPD2    H211703   3.661   0.857  13.698  0.0137 -1.2065  1.5939
  790MPD2    H311704   3.540   0.952  13.510 -0.7347 -0.2060  1.2021
  790MPD2     N11705   3.423   0.552  13.347 -0.0886 -1.0079 -0.8204
  790MPD2    H511706   3.460   0.458  13.341  1.4168 -0.4520 -0.3008
  790MPD2    N111707   3.693   0.606  13.739  0.5258 -0.2508  0.0041
  790MPD2    H711708   3.700   0.673  13.814 -1.1411  0.7855 -0.7757
  791MPD2     C11709   2.700   0.498  13.023 -0.5067  0.8236  0.1686
  791MPD2    C111710   2.769   0.376  13.031  0.6105  0.1773 -0.5061
  791MPD2    C211711   2.705   0.254  13.000  0.6422 -0.9067 -0.0292
  791MPD2    C311712   2.567   0.253  12.974 -0.0329 -0.3406 -0.0991
  791MPD2    C411713   2.495   0.369  12.977  0.0021  0.2811 -0.5246
  791MPD2    C511714   2.563   0.492  12.996  0.3287  0.1250 -0.2782
  791MPD2     H11715   2.763   0.162  12.996  0.7243 -0.8858  0.6553
  791MPD2    H111716   2.388   0.364  12.964 -0.3834  1.7554  2.0065
  791MPD2    H211717   2.753   0.591  13.040  0.4347  0.0365  1.5257
  791MPD2    H311718   2.507   0.584  12.981 -2.2793 -1.4897 -0.3422
  791MPD2     N11719   2.508   0.118  12.953  0.3438  0.2397 -0.4861
  791MPD2    H511720   2.564   0.037  12.974 -0.9645 -0.8238 -1.1290
  791MPD2    N111721   2.905   0.381  13.062  0.5320  0.1783 -0.1698
  791MPD2    H711722   2.943   0.474  13.077 -0.6075  0.9638 -2.2123
  792MPD2     C11723   3.627   0.527  11.503  0.3775 -0.3764 -0.2892
  792MPD2    C111724   3.591   0.577  11.380  0.7767  0.4228  0.3884
  792MPD2    C211725   3.464   0.550  11.330 -0.0663  0.0176  0.5318
  792MPD2    C311726   3.377   0.471  11.396  0.2932  0.1046 -0.3334
  792MPD2    C411727   3.423   0.407  11.506 -0.0849 -1.2610 -0.2171
  792MPD2    C511728   3.544   0.437  11.568  0.5251 -0.4400 -0.1993
  792MPD2     H11729   3.438   0.605  11.240  1.2022 -0.5658 -0.1967
  792MPD2    H111730   3.368   0.335  11.566 -2.1883 -0.7181 -1.5063
  792MPD2    H211731   3.721   0.560  11.546  1.2093 -1.5172 -1.2537
  792MPD2    H311732   3.572   0.391  11.662 -0.2674 -2.5703 -1.0086
  792MPD2     N11733   3.242   0.449  11.343 -0.2737  0.2489  0.0101
  792MPD2    H511734   3.176   0.394  11.398 -1.6392 -0.0852 -1.9683
  792MPD2    N111735   3.673   0.682  11.322 -0.1478  0.0992 -0.4818
  792MPD2    H711736   3.753   0.709  11.380 -1.7301 -0.8387  2.1284
  793MPD2     C11737   2.859   0.653  10.421 -0.4925 -0.6763 -0.1068
  793MPD2    C111738   2.982   0.669  10.484 -0.1815 -0.7370 -0.2304
  793MPD2    C211739   3.006   0.612  10.603  0.2627 -0.0082 -0.4738
  793MPD2    C311740   2.904   0.548  10.673  0.1390  0.0033 -0.0822
  793MPD2    C411741   2.776   0.536  10.622 -0.3850  0.6222  0.2129
  793MPD2    C511742   2.764   0.581  10.489 -0.3556  0.0794 -0.3307
  793MPD2     H11743   3.103   0.614  10.653  0.6200  1.6613 -1.2105
  793MPD2    H111744   2.696   0.483  10.672  0.1220  0.7978  1.2245
  793MPD2    H211745   2.843   0.669  10.315 -3.3545  2.6877  0.8404
  793MPD2    H311746   2.665   0.564  10.449 -1.5547  1.6350  1.9187
  793MPD2     N11747   2.934   0.509  10.811 -0.1647  0.2242  0.1986
  793MPD2    H511748   3.031   0.509  10.839 -0.3995 -1.9752  0.9610
  793MPD2    N111749   3.089   0.719  10.409 -0.3920  0.6627  0.6260
  793MPD2    H711750   3.179   0.725  10.454  0.2838 -1.6082 -0.4222
  794MPD2     C11751   3.195   0.112  17.711 -0.2262 -0.1572  0.0483
  794MPD2    C111752   3.214   4.728  17.638 -0.0482 -0.7801 -0.5113
  794MPD2    C211753   3.162   4.729  17.506  0.2087  0.0954  0.3951
  794MPD2    C311754   3.111   0.112  17.450 -0.5872 -0.3696 -0.0406
  794MPD2    C411755   3.089   0.221  17.532 -0.1989 -0.6775  0.3000
  794MPD2    C511756   3.136   0.225  17.660 -0.0850 -0.8921 -0.1150
  794MPD2     H11757   3.168   4.645  17.438  0.8196  2.0406 -1.9484
  794MPD2    H111758   3.036   0.308  17.495  0.3362 -0.5300 -0.1178
  794MPD2    H211759   3.233   0.127   0.072  0.3876 -0.3819 -0.1503
  794MPD2    H311760   3.121   0.319  17.712  0.0913  0.3632 -2.3116
  794MPD2     N11761   3.063   0.130  17.318  0.1028 -0.4926  0.0902
  794MPD2    H511762   3.023   0.221  17.299 -0.4621 -0.4606  1.4702
  794MPD2    N111763   3.278   4.612  17.680  0.1741  0.3994 -0.0133
  794MPD2    H711764   3.282   4.539  17.610 -1.6921  0.7054 -0.4655
  795MPD2     C11765   1.027   2.030  13.621 -0.3545 -0.1098  0.9750
  795MPD2    C111766   1.008   1.921  13.540  0.0805 -0.4603 -0.0751
  795MPD2    C211767   1.074   1.805  13.559 -0.5517  0.9247  0.1993
  795MPD2    C311768   1.164   1.793  13.661 -0.0760  0.2657  0.5604
  795MPD2    C411769   1.171   1.896  13.754  0.1014  0.5226  0.1549
  795MPD2    C511770   1.104   2.015  13.732 -0.2825  0.1005 -0.4096
  795MPD2     H11771   1.061   1.725  13.487  1.2486 -1.0416  2.0379
  795MPD2    H111772   1.231   1.895  13.844 -0.0345  0.0369  0.2405
  795MPD2    H211773   0.958   2.113  13.622 -1.6888 -1.2078  0.6235
  795MPD2    H311774   1.112   2.095  13.805 -0.0020 -0.5080  0.2214
  795MPD2     N11775   1.243   1.676  13.675 -0.4031  0.3538  0.3780
  795MPD2    H511776   1.231   1.600  13.608  2.5741  0.3113 -0.1072
  795MPD2    N111777   0.918   1.919  13.435  0.4113 -0.1822 -0.2077
  795MPD2    H711778   0.893   1.832  13.389 -1.5462 -0.1726  0.8436
  796MPD2     C11779   0.260   3.520  16.146  0.3807 -1.0862  0.1818
  796MPD2    C111780   0.375   3.573  16.200  0.2723  0.2852 -0.1458
  796MPD2    C211781   0.413   3.694  16.142 -0.2354  0.2889 -0.3301
  796MPD2    C311782   0.348   3.758  16.040  0.0007 -0.0497 -0.5330
  796MPD2    C411783   0.240   3.693  15.988 -0.3511 -0.3552  0.8212
  796MPD2    C511784   0.195   3.576  16.036 -0.2654  0.0130  0.1604
  796MPD2     H11785   0.492   3.750  16.191 -0.0145 -1.1490  0.9468
  796MPD2    H111786   0.184   3.735  15.906 -0.8756 -1.4541  0.6230
  796MPD2    H211787   0.216   3.428  16.184 -1.5601 -0.2502 -0.0275
  796MPD2    H311788   0.109   3.526  15.993  0.7860 -0.7009 -1.0968
  796MPD2     N11789   0.384   3.889  15.999  0.2676  0.4443  1.1852
  796MPD2    H511790   0.475   3.918  16.033  1.1068  0.5010 -1.1131
  796MPD2    N111791   0.427   3.517  16.320  0.5372 -0.2961  0.0201
  796MPD2    H711792   0.382   3.431  16.348  0.7359  0.1147  1.6414
  797MPD2     C11793   1.727   3.186  17.388 -0.3087  1.0949 -1.1887
  797MPD2    C111794   1.738   3.286  17.486  0.2977  0.7667  0.7484
  797MPD2    C211795   1.620   3.324  17.550  0.3737  0.3045 -0.4103
  797MPD2    C311796   1.494   3.290  17.496 -0.2940 -0.0137 -0.2952
  797MPD2    C411797   1.486   3.206  17.386 -0.0174 -0.1400  0.0027
  797MPD2    C511798   1.605   3.154  17.339  1.0490  0.2819 -0.0353
  797MPD2     H11799   1.631   3.394  17.632 -2.5775 -0.3370  0.5442
  797MPD2    H111800   1.391   3.172  17.346 -1.6867  0.9964  3.0117
  797MPD2    H211801   1.814   3.151  17.334  1.4339  0.6305  1.9712
  797MPD2    H311802   1.601   3.070  17.271 -0.9890 -0.1543  0.5964
  797MPD2     N11803   1.377   3.344  17.551 -0.2684  0.6227 -0.6600
  797MPD2    H511804   1.389   3.412  17.625  0.2879 -2.8987  2.5399
  797MPD2    N111805   1.860   3.336  17.531 -0.1355  0.0446 -0.0814
  797MPD2    H711806   1.854   3.405  17.606 -2.0593  0.4429 -0.6083
  798MPD2     C11807   1.540   3.982  17.690 -0.4014  0.2864 -0.2562
  798MPD2    C111808   1.532   3.846  17.688  0.2113 -0.1650 -1.1630
  798MPD2    C211809   1.644   3.763  17.668  0.5063  0.4477  0.3259
  798MPD2    C311810   1.769   3.826  17.657 -0.0598 -0.7207  0.0383
  798MPD2    C411811   1.776   3.964  17.658  0.3099 -0.9480 -0.2882
  798MPD2    C511812   1.663   4.041  17.678  0.1433 -0.5683  0.1772
  798MPD2     H11813   1.629   3.658  17.649  1.5319  0.8615 -2.6794
  798MPD2    H111814   1.871   4.014  17.643 -1.0928  1.0300 -2.7190
  798MPD2    H211815   1.456   4.049  17.704 -0.0139  0.1643  2.7626
  798MPD2    H311816   1.680   4.148  17.681 -1.9768 -0.2311  0.6505
  798MPD2     N11817   1.886   3.744  17.634  0.1398  1.1704 -0.1877
  798MPD2    H511818   1.868   3.644  17.643  0.5095  0.8717 -2.8729
  798MPD2    N111819   1.399   3.794  17.692  0.4549 -0.1855 -0.1824
  798MPD2    H711820   1.328   3.866  17.687 -1.6762 -2.2065  0.7129
  799MPD2     C11821   0.649   0.037  14.644 -0.6785 -0.0854  0.9409
  799MPD2    C111822   0.552   0.001  14.553 -0.0039 -0.3016  0.4278
  799MPD2    C211823   0.499   0.096  14.461 -0.2437 -0.2987  0.6354
  799MPD2    C311824   0.552   0.219  14.454  0.6777  1.0067  0.1832
  799MPD2    C411825   0.649   0.250  14.539 -0.3742  0.6900  0.0272
  799MPD2    C511826   0.694   0.161  14.632  0.2495  0.6193  0.2811
  799MPD2     H11827   0.419   0.062  14.396 -0.1977  0.2714  0.2809
  799MPD2    H111828   0.703   0.344  14.536 -0.3963  0.7004 -0.0445
  799MPD2    H211829   0.693   4.711  14.722  0.5211  1.8519  1.8095
  799MPD2    H311830   0.773   0.206  14.690  0.0980 -1.6395  2.2034
  799MPD2     N11831   0.521   0.309  14.347  0.8332 -0.8231  0.3222
  799MPD2    H511832   0.579   0.392  14.353  1.2489 -1.2414  2.0528
  799MPD2    N111833   0.503   4.603  14.548  0.0585  0.2646  0.3395
  799MPD2    H711834   0.436   4.574  14.478  0.5121 -1.3162  0.5391
  800MPD2     C11835   0.474   0.914  13.687  0.2867  0.2479  0.0140
  800MPD2    C111836   0.604   0.949  13.723  0.5233  0.8450 -0.3513
  800MPD2    C211837   0.709   0.882  13.653 -0.4104 -0.1618  0.4349
  800MPD2    C311838   0.683   0.795  13.545  1.1983  0.4924 -0.2577
  800MPD2    C411839   0.550   0.754  13.523  0.7021  0.8650 -0.1612
  800MPD2    C511840   0.454   0.817  13.592  0.1879  0.1740  0.8725
  800MPD2     H11841   0.813   0.902  13.673 -0.8069 -0.2089  2.5024
  800MPD2    H111842   0.516   0.690  13.443 -1.7938 -0.0923  1.6663
  800MPD2    H211843   0.391   0.964  13.736 -0.4622  1.4880 -2.5239
  800MPD2    H311844   0.363   0.782  13.545  0.7463  0.7960 -0.6643
  800MPD2     N11845   0.801   0.740  13.483  0.1828 -0.2142 -0.6559
  800MPD2    H511846   0.891   0.758  13.527 -1.4069  3.4512  1.0907
  800MPD2    N111847   0.620   1.040  13.833 -0.4722  0.0429  0.2364
  800MPD2    H711848   0.535   1.086  13.863 -0.4698  0.9872 -1.1760
  801MPD2     C11849   0.398   1.727  13.898  0.0879 -0.4944  0.7930
  801MPD2    C111850   0.439   1.689  14.029  0.2129  0.2509 -0.1292
  801MPD2    C211851   0.381   1.752  14.139  0.7749  0.5935  0.1609
  801MPD2    C311852   0.282   1.848  14.116  0.6838 -0.0956 -0.9981
  801MPD2    C411853   0.250   1.876  13.987 -0.1778  0.6398  0.5393
  801MPD2    C511854   0.306   1.819  13.874 -0.5272 -0.7681 -0.1663
  801MPD2     H11855   0.412   1.718  14.237 -1.6109 -0.7935  0.4416
  801MPD2    H111856   0.155   1.928  13.980 -0.8004 -0.1002  3.7065
  801MPD2    H211857   0.449   1.684  13.812  0.1340  0.6378  0.2542
  801MPD2    H311858   0.262   1.842  13.778 -2.0726 -0.6727  0.5621
  801MPD2     N11859   0.208   1.913  14.216  0.0895 -0.5018 -0.5269
  801MPD2    H511860   0.123   1.958  14.181 -1.0063 -3.3736 -1.5736
  801MPD2    N111861   0.539   1.594  14.066 -0.3341  0.4416  0.4833
  801MPD2    H711862   0.569   1.584  14.162 -0.3646  1.4535  0.5910
  802MPD2     C11863   0.364   1.342  17.711  0.9096  0.1021  0.2995
  802MPD2    C111864   0.354   1.479  17.685 -0.0649 -0.0954  0.3457
  802MPD2    C211865   0.361   1.524  17.553 -0.1347  0.3799 -0.2062
  802MPD2    C311866   0.375   1.430  17.453  0.2925  0.7282 -0.0415
  802MPD2    C411867   0.378   1.297  17.479  0.2095  0.4389 -0.5514
  802MPD2    C511868   0.376   1.250  17.610  0.6575 -0.7189 -0.3355
  802MPD2     H11869   0.363   1.629  17.527  0.0399  0.4527  0.0956
  802MPD2    H111870   0.386   1.227  17.397 -3.1650  1.0039 -1.3562
  802MPD2    H211871   0.391   1.311   0.072 -0.6612 -0.9787  0.3902
  802MPD2    H311872   0.396   1.143  17.621  1.1764 -0.5882  0.0031
  802MPD2     N11873   0.384   1.490  17.323  0.2004 -0.1573 -0.4573
  802MPD2    H511874   0.398   1.591  17.320 -1.0761  0.0215 -0.5685
  802MPD2    N111875   0.340   1.566   0.059 -0.2925  0.2848  0.0748
  802MPD2    H711876   0.342   1.519   0.149 -1.0717  0.5398  0.2241
  803MPD2     C11877   0.849   0.379  12.288 -0.0162 -0.2424 -0.2019
  803MPD2    C111878   0.953   0.465  12.304  0.3577 -0.2459 -0.4963
  803MPD2    C211879   1.046   0.448  12.407 -0.0180 -0.1192  0.2742
  803MPD2    C311880   1.034   0.325  12.472  0.3284 -0.1769  0.5337
  803MPD2    C411881   0.931   0.234  12.449  0.0162 -0.7959 -0.6918
  803MPD2    C511882   0.834   0.263  12.354  0.4567 -0.2077  0.2554
  803MPD2     H11883   1.128   0.513  12.434 -0.2284  0.2811 -0.0659
  803MPD2    H111884   0.927   0.142  12.505 -2.1063 -0.1390  0.2457
  803MPD2    H211885   0.777   0.394  12.208 -0.4370 -2.2265 -0.2028
  803MPD2    H311886   0.752   0.194  12.342 -1.2459  1.7018  0.8984
  803MPD2     N11887   1.104   0.296  12.595 -0.3738 -0.0194  0.1653
  803MPD2    H511888   1.067   0.229  12.661  0.8279  1.0916  1.9729
  803MPD2    N111889   0.965   0.587  12.230  0.1801  0.0301 -0.0005
  803MPD2    H711890   1.049   0.643  12.243 -0.8569  1.4885  0.3621
  804MPD2     C11891   0.874   1.826  17.091 -0.4062  0.2521  0.1384
  804MPD2    C111892   0.896   1.771  17.211 -0.2151  0.7766  0.1241
  804MPD2    C211893   0.971   1.837  17.308  0.2404 -0.6302 -0.1389
  804MPD2    C311894   1.032   1.953  17.288 -0.4446  0.3765  0.3826
  804MPD2    C411895   1.011   2.006  17.166 -0.2645 -0.0741  0.3611
  804MPD2    C511896   0.942   1.943  17.070 -0.0837 -0.1634  0.2739
  804MPD2     H11897   0.989   1.785  17.402 -1.0909 -4.0263 -1.7502
  804MPD2    H111898   1.052   2.105  17.150  0.2152 -0.6538 -1.9966
  804MPD2    H211899   0.818   1.773  17.015 -1.4876  0.8644  0.5052
  804MPD2    H311900   0.928   1.988  16.972  0.6920  0.3134  0.3772
  804MPD2     N11901   1.111   2.002  17.394  0.4237  0.0211  0.0500
  804MPD2    H511902   1.109   1.953  17.483 -2.4545  0.6390  0.3191
  804MPD2    N111903   0.835   1.652  17.254 -0.4881 -0.0230  0.4643
  804MPD2    H711904   0.875   1.610  17.338 -0.5436  0.3074  0.6548
  805MPD2     C11905   4.556   0.306  15.169 -0.4275  0.4447  0.0027
  805MPD2    C111906   4.688   0.298  15.122  0.3777 -0.3032  0.6740
  805MPD2    C211907   0.055   0.321  15.215 -0.5502  0.0118 -0.4320
  805MPD2    C311908   0.030   0.321  15.349 -0.0586  0.1642 -0.0661
  805MPD2    C411909   4.634   0.319  15.391 -0.3827  0.7890  0.2167
  805MPD2    C511910   4.534   0.313  15.308  0.0342  0.0354 -0.0702
  805MPD2     H11911   0.158   0.333  15.182 -0.7666  0.7847 -0.8556
  805MPD2    H111912   4.602   0.326  15.494 -3.8801  0.4956 -0.8472
  805MPD2    H211913   4.471   0.305  15.102  0.8841 -1.3163 -1.6167
  805MPD2    H311914   4.431   0.320  15.342 -0.5328 -1.0726 -1.5424
  805MPD2     N11915   0.144   0.354  15.430  0.7132 -0.4825 -0.4589
  805MPD2    H511916   0.234   0.374  15.389  1.0753 -0.8406  0.1617
  805MPD2    N111917   4.727   0.270  14.988  0.0439 -0.2922 -0.3020
  805MPD2    H711918   0.093   0.269  14.979 -0.0964  0.4892 -2.1753
  806MPD2     C11919   0.516   4.442   0.585 -0.1391  0.3571 -0.9751
  806MPD2    C111920   0.440   4.490   0.686  0.9301 -0.5724  0.1680
  806MPD2    C211921   0.456   4.631   0.713 -0.5742  0.2891 -0.0515
  806MPD2    C311922   0.548   4.708   0.646 -0.3043  0.2651  0.4810
  806MPD2    C411923   0.629   4.648   0.546 -0.1252  0.8405 -0.9731
  806MPD2    C511924   0.604   4.516   0.518 -0.4491  0.1675 -0.1965
  806MPD2     H11925   0.400   4.686   0.788  1.1499  3.8209 -1.3255
  806MPD2    H111926   0.702   4.708   0.493  1.0571 -0.2658 -0.6171
  806MPD2    H211927   0.495   4.341   0.550  1.1034 -0.7065  1.3253
  806MPD2    H311928   0.661   4.476   0.435  1.6933  1.3658  0.6930
  806MPD2     N11929   0.570   0.103   0.692  0.4372 -0.0801  0.0277
  806MPD2    H511930   0.492   0.140   0.746 -0.0077 -1.1697  0.1505
  806MPD2    N111931   0.360   4.400   0.761 -0.2858  0.4308 -0.2300
  806MPD2    H711932   0.348   4.304   0.729  0.6366  0.4211 -0.5468
  807MPD2     C11933   0.071   4.309   1.576  0.5393  0.1920 -0.2320
  807MPD2    C111934   0.035   4.203   1.492  0.1686 -0.4099 -0.7331
  807MPD2    C211935   4.712   4.097   1.559  0.2022 -0.3939  0.1837
  807MPD2    C311936   4.702   4.089   1.689 -0.1393  0.5042  0.3213
  807MPD2    C411937   0.006   4.197   1.769  0.1295 -0.2534  0.5159
  807MPD2    C511938   0.065   4.305   1.713 -0.0689 -0.0205 -0.0724
  807MPD2     H11939   4.679   4.016   1.495 -0.6762  1.5680 -1.8491
  807MPD2    H111940   4.732   4.209   1.876  0.1072 -1.7586  0.6781
  807MPD2    H211941   0.109   4.400   1.531  1.6312  0.1466  0.6087
  807MPD2    H311942   0.091   4.392   1.774 -0.0901  0.4522 -0.7419
  807MPD2     N11943   4.643   3.976   1.748 -0.0501  0.2616 -0.1594
  807MPD2    H511944   4.633   3.891   1.692  1.0537 -1.3125  2.0495
  807MPD2    N111945   0.041   4.200   1.353  0.1036 -0.3037  0.4169
  807MPD2    H711946   0.006   4.125   1.295 -0.1900  0.2739 -0.1637
  808MPD2     C11947   1.229   1.517   9.373  0.2754 -0.0594  0.0652
  808MPD2    C111948   1.140   1.577   9.462  0.6864  0.7812 -0.4659
  808MPD2    C211949   1.168   1.707   9.502 -0.3138 -0.2223  0.8225
  808MPD2    C311950   1.276   1.768   9.447 -0.8114 -0.4182 -0.5039
  808MPD2    C411951   1.352   1.715   9.351  0.3551 -0.7069  0.6247
  808MPD2    C511952   1.328   1.586   9.312  0.4497  0.6591 -0.0970
  808MPD2     H11953   1.100   1.764   9.564  0.4246 -1.2875  2.6236
  808MPD2    H111954   1.428   1.768   9.295 -1.8684 -1.6394 -3.2601
  808MPD2    H211955   1.216   1.413   9.342  0.6256 -0.0646 -0.0713
  808MPD2    H311956   1.379   1.537   9.230 -0.6322 -0.1417 -0.2928
  808MPD2     N11957   1.321   1.898   9.477 -0.1073  0.1593  0.5228
  808MPD2    H511958   1.385   1.944   9.413 -1.6036  1.5199  0.0077
  808MPD2    N111959   1.040   1.510   9.523  0.1698  0.5078  0.3993
  808MPD2    H711960   0.981   1.565   9.585  0.9423  0.9188  0.7842
  809MPD2     C11961   1.890   2.711   9.412 -0.2118  0.0289 -0.4817
  809MPD2    C111962   1.906   2.593   9.483  0.0436 -0.4580  0.1606
  809MPD2    C211963   1.802   2.504   9.475  0.3173 -0.0023 -0.3022
  809MPD2    C311964   1.687   2.532   9.404  0.4137 -0.9439  0.1009
  809MPD2    C411965   1.669   2.654   9.346 -0.5404  0.5147 -0.3294
  809MPD2    C511966   1.771   2.739   9.344 -0.6071  0.2039  0.0984
  809MPD2     H11967   1.818   2.406   9.517  1.1959  0.0456 -0.5384
  809MPD2    H111968   1.579   2.671   9.288  0.1529  0.6534 -1.3571
  809MPD2    H211969   1.969   2.785   9.407 -0.7426  0.5381 -1.3837
  809MPD2    H311970   1.752   2.830   9.289  0.0452  0.8536  0.9561
  809MPD2     N11971   1.572   2.450   9.399 -0.9370  0.4761  0.2586
  809MPD2    H511972   1.488   2.491   9.359 -0.1723  1.8361  0.0350
  809MPD2    N111973   2.012   2.562   9.566  0.2541  0.7589 -0.1322
  809MPD2    H711974   2.010   2.469   9.606 -2.8144  0.5931 -0.6846
  810MPD2     C11975   0.436   1.017  10.510  0.7850  0.5242  0.3024
  810MPD2    C111976   0.472   0.900  10.572 -0.1408 -0.1066  0.6923
  810MPD2    C211977   0.474   0.895  10.711 -0.1832 -0.5956 -0.3404
  810MPD2    C311978   0.451   1.002  10.793 -0.7167 -0.3439  0.0608
  810MPD2    C411979   0.410   1.119  10.724 -0.0589 -0.3650 -0.0005
  810MPD2    C511980   0.399   1.126  10.591 -0.2185 -0.1953 -0.5653
  810MPD2     H11981   0.511   0.804  10.757  1.1621 -0.4316 -1.0854
  810MPD2    H111982   0.378   1.210  10.774 -1.2448 -0.2053 -1.0339
  810MPD2    H211983   0.432   1.026  10.402 -2.4282 -0.3818  0.3431
  810MPD2    H311984   0.359   1.221  10.556  1.3968  1.0553  0.9407
  810MPD2     N11985   0.439   0.994  10.933  0.6522  0.2070 -0.0363
  810MPD2    H511986   0.406   1.080  10.975 -0.9160 -1.4017  1.9957
  810MPD2    N111987   0.480   0.781  10.490 -0.0024  0.3369 -0.1889
  810MPD2    H711988   0.471   0.789  10.389 -0.3172  0.0553 -0.1823
  811MPD2     C11989   0.557   0.639   9.793  0.5105  0.5056  0.4616
  811MPD2    C111990   0.498   0.697   9.903 -0.7751  0.1993 -0.0030
  811MPD2    C211991   0.437   0.815   9.892 -0.3258 -0.0969 -0.3471
  811MPD2    C311992   0.430   0.887   9.769 -0.4100 -0.6306 -0.1859
  811MPD2    C411993   0.489   0.832   9.657  0.0899  0.6999  0.2859
  811MPD2    C511994   0.564   0.716   9.676 -0.3298 -1.0358  0.2498
  811MPD2     H11995   0.396   0.866   9.978  0.5669 -0.4310  0.2707
  811MPD2    H111996   0.478   0.877   9.559 -2.3639  0.4157  0.4279
  811MPD2    H211997   0.622   0.553   9.798  0.6145  0.6471  1.7380
  811MPD2    H311998   0.633   0.681   9.600  1.4656  1.3678  0.7457
  811MPD2     N11999   0.365   1.008   9.782  0.2201  0.0514 -0.1107
  811MPD2    H512000   0.334   1.040   9.873  2.0218 -0.4334  0.6616
  811MPD2    N112001   0.506   0.646  10.033 -0.3754  0.1081 -0.2115
  811MPD2    H712002   0.462   0.701  10.107 -1.6233 -1.4785  0.2264
  812MPD2     C12003   4.238   0.611  12.247 -0.1456 -0.0715 -0.0247
  812MPD2    C112004   4.138   0.631  12.336 -0.4297 -0.0573  0.3752
  812MPD2    C212005   4.095   0.527  12.416  0.3333 -0.3497  0.3962
  812MPD2    C312006   4.159   0.407  12.415  0.5413 -0.1478 -0.1521
  812MPD2    C412007   4.265   0.392  12.323 -0.3894  0.2998  0.1908
  812MPD2    C512008   4.304   0.496  12.241  0.3041  0.3116 -0.2340
  812MPD2     H12009   4.005   0.533  12.476 -0.2395  0.9886 -0.5927
  812MPD2    H112010   4.329   0.304  12.328  0.3895  0.7716 -1.2452
  812MPD2    H212011   4.276   0.692  12.187 -0.6119  0.7653  0.8145
  812MPD2    H312012   4.397   0.489  12.184  1.6369 -0.0644  1.9967
  812MPD2     N12013   4.121   0.306  12.506 -0.7152  0.3548  0.8634
  812MPD2    H512014   4.029   0.297  12.547 -0.8803 -3.2159 -0.2858
  812MPD2    N112015   4.069   0.753  12.332 -0.2915  0.2416  0.2628
  812MPD2    H712016   4.111   0.830  12.281  1.1249 -0.6172  0.1343
  813MPD2     C12017   3.580   2.333  12.891  0.1907 -0.0603  0.1412
  813MPD2    C112018   3.541   2.413  12.994 -0.8156  0.1893 -0.8578
  813MPD2    C212019   3.421   2.410  13.050 -0.5469 -0.3294  0.2173
  813MPD2    C312020   3.320   2.325  13.004  0.2727 -0.3422 -0.7907
  813MPD2    C412021   3.352   2.237  12.906  0.7174  0.4366 -0.4924
  813MPD2    C512022   3.481   2.242  12.856  0.4368 -0.4227  0.4581
  813MPD2     H12023   3.391   2.474  13.132 -1.3399 -1.5268  0.8637
  813MPD2    H112024   3.282   2.163  12.868 -0.6343 -0.4500  3.7088
  813MPD2    H212025   3.670   2.327  12.833  0.0030  2.0591 -0.3523
  813MPD2    H312026   3.497   2.173  12.774 -0.4597  2.2340 -1.9585
  813MPD2     N12027   3.192   2.326  13.067 -0.1899  0.6559  0.0309
  813MPD2    H512028   3.191   2.380  13.153  2.1294 -1.2056  1.2374
  813MPD2    N112029   3.638   2.504  13.037 -0.2611 -0.1228  0.4269
  813MPD2    H712030   3.735   2.475  13.022  0.1269 -0.1752  2.9813
  814MPD2     C12031   3.690   3.621  12.322 -0.3091  0.1286 -0.1790
  814MPD2    C112032   3.692   3.691  12.205  0.7141 -0.0639 -0.7237
  814MPD2    C212033   3.721   3.823  12.203  0.1143 -0.1937 -0.2505
  814MPD2    C312034   3.752   3.889  12.323 -0.3641  0.0804 -0.5574
  814MPD2    C412035   3.753   3.817  12.438 -0.0367  0.1912  0.7790
  814MPD2    C512036   3.721   3.686  12.435 -0.5832 -0.2478 -0.4230
  814MPD2     H12037   3.729   3.878  12.110 -0.6522  0.1344 -0.1187
  814MPD2    H112038   3.759   3.865  12.535 -1.1620  2.0816 -0.0940
  814MPD2    H212039   3.689   3.513  12.326 -1.9136  0.1820  1.1710
  814MPD2    H312040   3.735   3.616  12.517 -0.2607 -0.0184 -0.2831
  814MPD2     N12041   3.792   4.021  12.328  0.3258 -0.2467  0.0579
  814MPD2    H512042   3.838   4.055  12.412 -0.7145  1.4717 -0.0650
  814MPD2    N112043   3.674   3.628  12.082  0.0988 -0.4969 -0.2198
  814MPD2    H712044   3.681   3.695  12.006  2.7192 -0.7479 -0.1855
  815MPD2     C12045   4.130   2.349  11.776  0.3915 -0.0433 -0.2482
  815MPD2    C112046   4.122   2.218  11.832  0.5337  0.3898  0.2133
  815MPD2    C212047   4.027   2.187  11.927 -0.2783 -0.7595 -0.1715
  815MPD2    C312048   3.938   2.282  11.965  0.1277  0.3863  0.1311
  815MPD2    C412049   3.945   2.412  11.912 -0.8099  0.8080  0.8390
  815MPD2    C512050   4.048   2.441  11.828 -0.0841  0.1051  0.0681
  815MPD2     H12051   4.006   2.088  11.966  0.6480 -0.9371 -0.1364
  815MPD2    H112052   3.867   2.485  11.930  1.6373  2.9072  2.9512
  815MPD2    H212053   4.197   2.377  11.696 -1.2137 -0.6255 -1.7937
  815MPD2    H312054   4.037   2.532  11.771 -1.1958 -0.2917 -0.3541
  815MPD2     N12055   3.832   2.234  12.046 -0.1641 -0.3990 -0.1054
  815MPD2    H512056   3.822   2.134  12.060  0.6411 -0.2756  1.3696
  815MPD2    N112057   4.202   2.117  11.776 -0.5168 -0.4116  0.3852
  815MPD2    H712058   4.265   2.143  11.700  0.3869 -2.1065  0.5596
  816MPD2     C12059   3.747   1.261  17.628  0.0794  0.5245 -0.3983
  816MPD2    C112060   3.843   1.359  17.630 -0.0633  0.3723 -0.2359
  816MPD2    C212061   3.966   1.346  17.559  0.4006  0.4298 -0.0394
  816MPD2    C312062   3.989   1.225  17.496 -0.2444  0.6340 -0.5000
  816MPD2    C412063   3.904   1.117  17.507 -0.3306 -0.4958  0.6770
  816MPD2    C512064   3.790   1.134  17.588 -0.1468  0.2079 -1.0894
  816MPD2     H12065   4.042   1.424  17.555 -0.3774  1.2300  0.8564
  816MPD2    H112066   3.911   1.017  17.466  1.8059 -0.1304  0.1265
  816MPD2    H212067   3.653   1.260  17.681  0.8768  1.1538  1.0236
  816MPD2    H312068   3.731   1.046  17.611  1.4009 -0.9068 -1.3469
  816MPD2     N12069   4.113   1.227  17.433  0.3585 -0.7227  0.4499
  816MPD2    H512070   4.163   1.315  17.433 -0.0737 -0.4722 -0.0850
  816MPD2    N112071   3.806   1.473  17.695 -0.0665  0.2178 -0.5249
  816MPD2    H712072   3.712   1.475  17.734 -0.5095  2.3305 -1.6822
  817MPD2     C12073   3.748   2.700   9.601  0.0461 -0.3157  0.8719
  817MPD2    C112074   3.773   2.623   9.486  0.0830 -0.8394  0.6089
  817MPD2    C212075   3.682   2.644   9.381 -0.5596 -0.6813  0.3460
  817MPD2    C312076   3.575   2.730   9.382 -0.1418  0.0971 -0.4264
  817MPD2    C412077   3.556   2.813   9.497  1.1211  0.3409 -0.1173
  817MPD2    C512078   3.646   2.789   9.599 -0.3223 -0.3527 -0.4492
  817MPD2     H12079   3.696   2.585   9.291 -1.7795 -1.8828  0.9629
  817MPD2    H112080   3.474   2.882   9.514 -0.5148 -2.2219  2.3863
  817MPD2    H212081   3.800   2.703   9.697  3.3899  0.7490 -0.9558
  817MPD2    H312082   3.632   2.849   9.689  1.6918  2.7841 -2.2346
  817MPD2     N12083   3.489   2.736   9.267 -0.2621 -0.1920 -0.9572
  817MPD2    H512084   3.509   2.668   9.194 -0.5070  0.6199 -1.7927
  817MPD2    N112085   3.878   2.530   9.472  0.5690  0.2406 -0.1661
  817MPD2    H712086   3.880   2.476   9.386  0.5804  0.7164 -0.4652
  818MPD2     C12087   2.840   3.730  10.045 -0.0784 -0.3557  0.1116
  818MPD2    C112088   2.861   3.653  10.163  0.5332  0.1842  0.1265
  818MPD2    C212089   2.758   3.567  10.210 -0.4796 -0.3523 -0.7330
  818MPD2    C312090   2.642   3.559  10.142  0.5590 -0.1483 -0.4325
  818MPD2    C412091   2.622   3.642  10.037  0.2145  0.8486  0.4745
  818MPD2    C512092   2.713   3.736   9.991 -0.1860  0.1177 -0.9024
  818MPD2     H12093   2.777   3.499  10.292 -0.5469  0.7376  0.1961
  818MPD2    H112094   2.523   3.648   9.994  0.3768  0.1880  0.0061
  818MPD2    H212095   2.918   3.788   9.999  1.0036 -1.6838  0.2705
  818MPD2    H312096   2.695   3.797   9.903 -0.4030  0.7135 -0.4420
  818MPD2     N12097   2.538   3.466  10.174  0.5193 -0.3672 -0.8315
  818MPD2    H512098   2.476   3.445  10.096 -0.9117 -0.4658  0.3425
  818MPD2    N112099   2.992   3.649  10.228 -0.3657  0.2121 -0.3348
  818MPD2    H712100   3.000   3.581  10.303 -2.9476  1.5819  1.2356
  819MPD2     C12101   0.873   0.199  16.043  0.0089  0.7622 -0.3119
  819MPD2    C112102   0.912   0.121  15.934 -0.2018 -0.6336  0.2007
  819MPD2    C212103   1.031   0.049  15.942 -0.8498 -0.4554 -0.3288
  819MPD2    C312104   1.096   0.034  16.062 -0.1436 -0.7007 -0.3232
  819MPD2    C412105   1.051   0.110  16.168 -0.5549 -0.2144 -0.2862
  819MPD2    C512106   0.948   0.191  16.154 -0.3998 -0.5157  0.4714
  819MPD2     H12107   1.058   4.728  15.853 -0.7627  0.0087 -0.5929
  819MPD2    H112108   1.099   0.109  16.265 -0.3596 -1.7945 -0.3977
  819MPD2    H212109   0.790   0.269  16.038 -1.2172 -0.8743 -2.9054
  819MPD2    H312110   0.923   0.256  16.237 -1.0420 -1.1900  0.8027
  819MPD2     N12111   1.211   4.690  16.071  0.2118 -0.0694  0.1066
  819MPD2    H512112   1.235   4.641  15.985 -1.8855  0.1576 -0.6124
  819MPD2    N112113   0.833   0.134  15.820 -0.1370 -0.1156 -0.2965
  819MPD2    H712114   0.740   0.173  15.831  0.3185  0.9771 -0.2714
  820MPD2     C12115   0.561   0.432  14.913 -0.0818  0.5899  0.8903
  820MPD2    C112116   0.524   0.304  14.915 -0.0011  0.3898  0.6512
  820MPD2    C212117   0.577   0.221  15.015 -0.3877  0.0609 -0.4261
  820MPD2    C312118   0.665   0.269  15.104 -0.7327 -0.6268  0.6362
  820MPD2    C412119   0.705   0.401  15.092  0.2599 -0.3451  1.1066
  820MPD2    C512120   0.656   0.481  14.994 -0.3195  0.0134  1.3597
  820MPD2     H12121   0.549   0.117  15.001 -0.4623 -0.1661  1.4079
  820MPD2    H112122   0.781   0.441  15.156 -0.4094  1.8141  0.5478
  820MPD2    H212123   0.515   0.490  14.833  0.5626 -0.2386 -0.0944
  820MPD2    H312124   0.671   0.588  14.993 -0.6760  0.0528 -0.1748
  820MPD2     N12125   0.704   0.192  15.216 -0.5057  0.0859 -0.7063
  820MPD2    H512126   0.762   0.237  15.286  1.3588 -1.4445 -1.2789
  820MPD2    N112127   0.415   0.268  14.822  0.5612  0.2927 -0.2002
  820MPD2    H712128   0.375   0.342  14.766  0.9876 -0.1061 -1.0414
  821MPD2     C12129   1.172   0.754  12.763  1.0718 -0.3187 -0.6770
  821MPD2    C112130   1.233   0.763  12.889 -0.4045 -0.2139  0.0334
  821MPD2    C212131   1.340   0.846  12.907  0.3318  0.5085 -0.5363
  821MPD2    C312132   1.391   0.922  12.805  0.7456 -0.1481 -0.8063
  821MPD2    C412133   1.323   0.919  12.679  0.0811  0.3095  0.4314
  821MPD2    C512134   1.211   0.841  12.663  0.4693  0.1420  0.3461
  821MPD2     H12135   1.375   0.854  13.010  1.2150 -0.3332 -0.7760
  821MPD2    H112136   1.345   0.982  12.594  0.8279 -0.6347 -0.0694
  821MPD2    H212137   1.091   0.685  12.743  0.7234 -0.4001  1.0178
  821MPD2    H312138   1.159   0.836  12.568  0.2393 -2.4959  0.5965
  821MPD2     N12139   1.499   1.017  12.813 -0.5286  0.3970 -0.1520
  821MPD2    H512140   1.526   1.062  12.726  0.0942 -2.0431 -1.2259
  821MPD2    N112141   1.193   0.692  13.003  0.2632 -0.7529  0.2340
  821MPD2    H712142   1.235   0.696  13.095 -0.0428  3.5829  0.1842
  822MPD2     C12143   1.621   1.333  15.870 -0.8174  0.2270  0.3164
  822MPD2    C112144   1.596   1.283  15.990 -0.1433  0.4336  0.6253
  822MPD2    C212145   1.541   1.367  16.090 -0.1972 -0.1815 -0.6188
  822MPD2    C312146   1.506   1.496  16.071  0.0870 -0.8663 -0.3010
  822MPD2    C412147   1.536   1.545  15.943 -0.6084 -0.1772  0.3383
  822MPD2    C512148   1.595   1.468  15.846  0.8484  0.0267 -0.2604
  822MPD2     H12149   1.516   1.307  16.177  0.8254 -0.1310 -0.2843
  822MPD2    H112150   1.519   1.651  15.923 -2.8451 -0.3791  1.2326
  822MPD2    H212151   1.663   1.268  15.795 -0.2703  0.8382  0.0962
  822MPD2    H312152   1.622   1.517  15.753 -0.2885  0.1281 -0.5460
  822MPD2     N12153   1.457   1.568  16.185 -0.3747 -0.5666 -0.4449
  822MPD2    H512154   1.430   1.510  16.263  1.1115  2.0478  2.0022
  822MPD2    N112155   1.644   1.155  16.027 -0.7609 -0.2247  0.1579
  822MPD2    H712156   1.606   1.119  16.114  0.2591 -1.3681  0.1276
  823MPD2     C12157   1.070   1.552  16.920  0.8378  0.8508  0.8266
  823MPD2    C112158   1.149   1.496  16.820  0.0432 -0.7527 -0.9362
  823MPD2    C212159   1.214   1.372  16.832 -0.1907 -0.3068  0.0641
  823MPD2    C312160   1.196   1.302  16.949  0.2138  0.0282  0.5462
  823MPD2    C412161   1.104   1.345  17.043  0.4207  0.7162  0.2485
  823MPD2    C512162   1.051   1.476  17.035 -0.4787 -0.5434 -0.4431
  823MPD2     H12163   1.276   1.339  16.749  1.8420  1.9324  0.6959
  823MPD2    H112164   1.083   1.286  17.132 -0.0300  0.9651  0.3101
  823MPD2    H212165   1.049   1.658  16.926  0.8684  0.8675  0.6366
  823MPD2    H312166   1.004   1.515  17.124  3.7058  1.3537  0.9554
  823MPD2     N12167   1.283   1.193  16.979 -0.3532 -0.4295  0.3057
  823MPD2    H512168   1.276   1.164  17.076  0.2541  3.2633  1.4450
  823MPD2    N112169   1.166   1.583  16.713  0.8446 -0.1670  0.3133
  823MPD2    H712170   1.149   1.682  16.723 -0.3166 -0.5279  2.0139
  824MPD2     C12171   1.825   0.388  15.763  0.4015 -0.1002  0.0553
  824MPD2    C112172   1.905   0.503  15.777  0.7538 -0.5181  0.4451
  824MPD2    C212173   2.033   0.507  15.718 -0.3304 -1.1169  0.4999
  824MPD2    C312174   2.087   0.391  15.671  0.0860  0.3877 -0.0640
  824MPD2    C412175   2.016   0.270  15.676 -0.2990  0.3820 -0.5819
  824MPD2    C512176   1.882   0.271  15.711  0.0592 -0.3595  0.2933
  824MPD2     H12177   2.095   0.595  15.729 -2.7267  0.6690 -0.3313
  824MPD2    H112178   2.057   0.175  15.644 -1.0386 -0.2620  0.3616
  824MPD2    H212179   1.723   0.390  15.799 -0.2013 -0.1269 -1.6706
  824MPD2    H312180   1.817   0.184  15.713  0.2917 -0.4893  2.5776
  824MPD2     N12181   2.218   0.377  15.630 -0.2396  0.8869 -0.7208
  824MPD2    H512182   2.277   0.456  15.654 -0.3084  0.7678 -0.1596
  824MPD2    N112183   1.864   0.607  15.862 -0.0271 -0.4749 -0.1211
  824MPD2    H712184   1.920   0.690  15.850  0.9117 -1.1806 -0.5695
  825MPD2     C12185   2.868   0.747  15.261 -0.0167  0.0666 -0.8833
  825MPD2    C112186   2.731   0.734  15.273  0.4670  0.1818  0.3880
  825MPD2    C212187   2.647   0.844  15.262  0.2579  0.2508 -0.3147
  825MPD2    C312188   2.713   0.967  15.263 -0.1432 -0.5038  0.8425
  825MPD2    C412189   2.850   0.978  15.263 -0.3413 -0.5564 -0.3012
  825MPD2    C512190   2.924   0.866  15.240 -0.6752 -0.5082  0.3028
  825MPD2     H12191   2.538   0.845  15.268  0.3685  2.3962  1.2299
  825MPD2    H112192   2.911   1.067  15.272 -1.1501 -0.1151  0.8978
  825MPD2    H212193   2.926   0.656  15.256  0.1950  0.2285 -1.3714
  825MPD2    H312194   3.032   0.871  15.242 -0.7852  1.5859  1.1594
  825MPD2     N12195   2.647   1.093  15.267  0.0850  0.1399  0.3424
  825MPD2    H512196   2.704   1.172  15.296  1.1425 -0.5994  0.2527
  825MPD2    N112197   2.688   0.612  15.321 -0.4276 -0.2568  0.5468
  825MPD2    H712198   2.760   0.543  15.341  1.4083  0.7718 -2.4985
  826MPD2     C12199   2.971   0.238  13.924 -0.4444 -0.5413  0.0195
  826MPD2    C112200   2.943   0.233  13.793  0.4708 -0.1303 -0.1073
  826MPD2    C212201   2.832   0.300  13.744  0.9257  0.2329 -0.1154
  826MPD2    C312202   2.767   0.388  13.829 -0.0947 -0.4003  0.5471
  826MPD2    C412203   2.812   0.404  13.961  0.0051  0.5425 -0.4646
  826MPD2    C512204   2.910   0.331  14.011 -0.5766  0.0291  0.3074
  826MPD2     H12205   2.802   0.283  13.641 -0.1615  3.2969 -0.2880
  826MPD2    H112206   2.769   0.479  14.026  0.7159  0.6129 -0.0778
  826MPD2    H212207   3.050   0.174  13.963  0.2251 -0.6138 -1.4543
  826MPD2    H312208   2.945   0.344  14.113 -0.5642  1.3566  0.1444
  826MPD2     N12209   2.659   0.468  13.793 -0.4885 -0.5778 -0.4357
  826MPD2    H512210   2.631   0.550  13.846  0.3157 -0.8964  0.4860
  826MPD2    N112211   3.002   0.126  13.713 -0.0258 -0.2226  0.0304
  826MPD2    H712212   3.063   0.058  13.757  1.2821  2.4234  2.3144
  827MPD2     C12213   3.248   1.833  10.180  0.0198  0.3624  0.6223
  827MPD2    C112214   3.174   1.727  10.232 -0.2506  0.2692 -0.5469
  827MPD2    C212215   3.059   1.694  10.167  0.6151  0.1674 -0.2649
  827MPD2    C312216   3.006   1.780  10.065  0.1195  1.0709 -0.7116
  827MPD2    C412217   3.083   1.889  10.018  0.0760  0.2871 -0.5028
  827MPD2    C512218   3.209   1.907  10.073  0.1588 -1.0349  0.0984
  827MPD2     H12219   2.996   1.617  10.208  0.5181 -0.3321 -1.3419
  827MPD2    H112220   3.050   1.950   9.935  1.0161  0.7305 -0.5577
  827MPD2    H212221   3.338   1.861  10.234  0.9851 -1.0922 -0.2167
  827MPD2    H312222   3.274   1.987  10.040 -0.1122 -0.9527 -0.2435
  827MPD2     N12223   2.882   1.749  10.001  0.2617  0.7519  0.2324
  827MPD2    H512224   2.823   1.669  10.023  0.6130  1.5282  4.0077
  827MPD2    N112225   3.215   1.672  10.350  0.4012 -0.2117  0.0509
  827MPD2    H712226   3.306   1.704  10.380  0.4811  0.5322 -1.0050
  828MPD2     C12227   2.026   1.435  12.028 -0.1544 -0.3501 -0.9432
  828MPD2    C112228   1.956   1.554  11.998 -0.1388 -0.3785  0.4521
  828MPD2    C212229   2.005   1.627  11.886  0.0258 -0.3283  0.1037
  828MPD2    C312230   2.116   1.582  11.815  0.0287 -0.3158  0.4365
  828MPD2    C412231   2.179   1.466  11.850  0.2417  0.5229 -0.5676
  828MPD2    C512232   2.130   1.397  11.954  0.2041  0.0802 -0.0974
  828MPD2     H12233   1.950   1.717  11.861  0.1097 -0.6631 -1.3032
  828MPD2    H112234   2.271   1.435  11.801  0.5133  1.5791 -0.7229
  828MPD2    H212235   1.997   1.373  12.112  3.2334 -0.6063  0.0097
  828MPD2    H312236   2.187   1.312  11.990 -1.1195  0.3629  2.6257
  828MPD2     N12237   2.170   1.664  11.713  0.2245 -0.1959  0.4454
  828MPD2    H512238   2.240   1.618  11.655  0.0253  0.3726 -0.2438
  828MPD2    N112239   1.840   1.600  12.060 -0.0397  0.1185  0.4147
  828MPD2    H712240   1.808   1.690  12.027 -1.5922 -0.2667  0.8816
  829MPD2     C12241   1.252   1.916  11.564  0.1052  0.2519  0.3153
  829MPD2    C112242   1.173   1.878  11.668  0.2349  0.3462  0.2820
  829MPD2    C212243   1.228   1.850  11.787  0.0793  0.2820  0.6343
  829MPD2    C312244   1.364   1.845  11.798 -0.1600  0.4683  0.0927
  829MPD2    C412245   1.442   1.886  11.691  0.1639  0.3444 -0.2633
  829MPD2    C512246   1.385   1.918  11.572 -0.2689 -0.5413  0.0243
  829MPD2     H12247   1.160   1.830  11.869 -1.0092  1.2892 -0.0224
  829MPD2    H112248   1.549   1.886  11.707  0.3705 -0.3554 -1.6679
  829MPD2    H212249   1.216   1.947  11.467 -1.0917 -2.5910 -0.1281
  829MPD2    H312250   1.448   1.949  11.489 -0.5421  0.2792  0.1224
  829MPD2     N12251   1.427   1.789  11.911 -0.2010  0.0170  0.3507
  829MPD2    H512252   1.528   1.785  11.904 -0.2157 -1.3192  1.0253
  829MPD2    N112253   1.041   1.884  11.638  0.0781 -0.3475 -0.1385
  829MPD2    H712254   1.022   1.909  11.541  0.5445  0.4070 -0.0346
  830MPD2     C12255   2.009   4.546  15.808 -0.2855  0.2382  0.6191
  830MPD2    C112256   1.880   4.595  15.776 -0.1496  0.5459 -0.0232
  830MPD2    C212257   1.860   4.657  15.656  0.3864 -0.2565  0.6419
  830MPD2    C312258   1.965   4.682  15.575  0.0284  0.0940 -0.0171
  830MPD2    C412259   2.087   4.627  15.599  0.3179 -0.6242  0.1666
  830MPD2    C512260   2.111   4.552  15.716  0.3893 -0.2673 -0.0686
  830MPD2     H12261   1.759   4.687  15.631  0.3960  0.0007  0.9032
  830MPD2    H112262   2.170   4.632  15.530  0.2243  0.5792  0.1377
  830MPD2    H212263   2.030   4.508  15.907 -1.1384  0.2344  0.8012
  830MPD2    H312264   2.211   4.520  15.741  0.4262 -0.0846  0.0187
  830MPD2     N12265   1.961   0.029  15.458 -0.3741  0.0169 -0.0342
  830MPD2    H512266   2.057   0.042  15.428 -1.3825 -1.4529 -3.8425
  830MPD2    N112267   1.790   4.572  15.878  0.3421  0.0566  0.3708
  830MPD2    H712268   1.833   4.526  15.958 -0.9813  1.0261  1.6333
  831MPD2     C12269   1.714   1.520  16.508  0.2435 -0.0292 -0.4988
  831MPD2    C112270   1.742   1.418  16.419 -0.7577  0.3060 -0.2761
  831MPD2    C212271   1.664   1.303  16.421  0.2634  0.3417  1.0330
  831MPD2    C312272   1.553   1.296  16.511 -0.1710  0.4590  0.2490
  831MPD2    C412273   1.542   1.388  16.613 -0.9707  0.2737 -0.4865
  831MPD2    C512274   1.626   1.498  16.609 -0.2025  0.2274  0.0291
  831MPD2     H12275   1.685   1.227  16.347 -1.4669 -2.3620  3.3338
  831MPD2    H112276   1.481   1.378  16.701 -1.2511  3.5056 -0.2943
  831MPD2    H212277   1.780   1.605  16.515  0.2850 -0.0242 -0.9479
  831MPD2    H312278   1.634   1.573  16.687  0.1881 -1.4599  1.6392
  831MPD2     N12279   1.458   1.190  16.503 -0.4964  0.2641  0.7761
  831MPD2    H512280   1.391   1.176  16.579 -0.2705 -1.1230  0.7168
  831MPD2    N112281   1.843   1.439  16.315 -0.3941  0.8233  0.3991
  831MPD2    H712282   1.860   1.535  16.289  0.7821 -0.4221 -3.4947
  832MPD2     C12283   0.159   2.524  17.423 -0.5677  0.4670  0.3765
  832MPD2    C112284   0.122   2.657  17.442 -0.3186  0.2450 -0.5195
  832MPD2    C212285   4.718   2.679  17.414 -0.2163 -0.3944  0.8467
  832MPD2    C312286   4.634   2.570  17.387 -0.1193 -0.1733  0.3130
  832MPD2    C412287   4.680   2.438  17.386  0.2072 -0.4475 -0.2168
  832MPD2    C512288   0.079   2.421  17.400 -0.6534 -0.0236 -0.0851
  832MPD2     H12289   4.674   2.778  17.425 -3.2082 -1.4204 -1.8992
  832MPD2    H112290   4.619   2.348  17.386  2.0269 -1.6825  1.1668
  832MPD2    H212291   0.260   2.491  17.444  0.8244  2.5923 -2.9845
  832MPD2    H312292   0.121   2.322  17.405 -3.1286 -1.2110 -2.7370
  832MPD2     N12293   4.499   2.587  17.362  0.0687  0.2436 -0.2571
  832MPD2    H512294   4.442   2.503  17.366  1.2272 -0.5908 -1.3257
  832MPD2    N112295   0.217   2.756  17.478  0.0359 -0.5263 -0.1735
  832MPD2    H712296   0.308   2.719  17.505  1.2230  2.0116 -0.7325
  833MPD2     C12297   1.768   3.938  12.550 -0.2234  0.4416  0.0448
  833MPD2    C112298   1.753   4.069  12.519 -0.4946  0.0679  0.0951
  833MPD2    C212299   1.867   4.129  12.470 -0.1848 -0.3740 -0.1190
  833MPD2    C312300   1.991   4.067  12.453 -0.3317 -0.0965 -0.2529
  833MPD2    C412301   1.997   3.936  12.487  0.1754  0.2963 -0.3043
  833MPD2    C512302   1.889   3.876  12.537 -0.0159  0.4037  0.1626
  833MPD2     H12303   1.865   4.232  12.436  0.7731 -0.8435 -1.6033
  833MPD2    H112304   2.087   3.880  12.467  0.9289  1.8320 -1.2035
  833MPD2    H212305   1.684   3.876  12.578 -0.1337 -0.0047 -0.6669
  833MPD2    H312306   1.898   3.772  12.568 -1.7981  0.5630  1.2431
  833MPD2     N12307   2.109   4.117  12.399 -0.2186 -0.7211 -0.7822
  833MPD2    H512308   2.184   4.048  12.393 -0.7215 -1.3516  0.0334
  833MPD2    N112309   1.631   4.135  12.548 -0.9320  0.1159 -0.3264
  833MPD2    H712310   1.565   4.086  12.608  0.4504 -2.2651 -0.7328
  834MPD2     C12311   2.419   3.573  11.790  0.4952 -0.0590 -0.4151
  834MPD2    C112312   2.436   3.690  11.710  0.5639  0.5533 -0.1443
  834MPD2    C212313   2.402   3.817  11.766  1.0771 -0.0914  0.5714
  834MPD2    C312314   2.358   3.821  11.899 -0.2931 -0.1109  0.3130
  834MPD2    C412315   2.321   3.706  11.963  0.3839  0.3743 -0.2942
  834MPD2    C512316   2.361   3.586  11.917  0.4557 -0.3275 -0.5643
  834MPD2     H12317   2.428   3.909  11.715  1.9522 -0.1926  0.8290
  834MPD2    H112318   2.269   3.713  12.058 -1.1086  3.8291 -1.3660
  834MPD2    H212319   2.450   3.477  11.752 -0.6200  0.0229 -1.5230
  834MPD2    H312320   2.342   3.501  11.982  2.2894  0.2192  0.6968
  834MPD2     N12321   2.343   3.948  11.951 -0.0844 -0.0650 -0.1672
  834MPD2    H512322   2.375   4.025  11.893 -0.2083  0.0774 -0.0416
  834MPD2    N112323   2.475   3.674  11.572  0.1139 -0.2110 -0.2458
  834MPD2    H712324   2.465   3.580  11.534 -0.7776 -0.9277  1.7566
  835MPD2     C12325   2.733   1.786  10.784  0.3444 -0.2171  0.1818
  835MPD2    C112326   2.684   1.812  10.914  0.1309  0.0002 -0.1418
  835MPD2    C212327   2.748   1.757  11.023 -0.0391  0.3539 -0.1763
  835MPD2    C312328   2.871   1.689  11.016 -0.8070  0.0660 -0.5987
  835MPD2    C412329   2.916   1.668  10.888 -0.5993  0.1189  0.1715
  835MPD2    C512330   2.852   1.719  10.777 -0.7087  0.1838  0.8323
  835MPD2     H12331   2.708   1.766  11.123  1.8324  1.9444  0.4271
  835MPD2    H112332   3.012   1.620  10.878  0.1911  1.9463 -1.0332
  835MPD2    H212333   2.694   1.832  10.694 -0.2657  0.2222  0.6677
  835MPD2    H312334   2.899   1.702  10.681 -0.3221 -1.1093  1.2558
  835MPD2     N12335   2.941   1.633  11.125  0.8971  0.1039 -0.0847
  835MPD2    H512336   2.996   1.548  11.117  1.6019  0.6809 -1.3712
  835MPD2    N112337   2.571   1.896  10.936  0.0572  0.0067 -0.0828
  835MPD2    H712338   2.545   1.924  11.030 -1.0146  0.5809 -0.5463
  836MPD2     C12339   2.641   1.924  11.523  0.0430 -0.2068 -0.3279
  836MPD2    C112340   2.675   1.842  11.625 -0.1200  0.1940 -0.1263
  836MPD2    C212341   2.596   1.836  11.733  0.9874  0.4016  0.3302
  836MPD2    C312342   2.485   1.915  11.746  0.5714  0.2615 -0.1253
  836MPD2    C412343   2.448   2.006  11.647  0.6969 -0.2115  0.1799
  836MPD2    C512344   2.524   1.997  11.528  0.0332  0.5788  0.2644
  836MPD2     H12345   2.627   1.770  11.813 -0.3176  1.0701  1.3942
  836MPD2    H112346   2.363   2.072  11.647  1.2543  0.5033  0.6207
  836MPD2    H212347   2.689   1.924  11.426  0.5813  0.5948 -0.0569
  836MPD2    H312348   2.494   2.051  11.439  0.1024 -0.9502 -0.6962
  836MPD2     N12349   2.398   1.917  11.856 -0.0447 -0.5757 -0.4163
  836MPD2    H512350   2.324   1.987  11.856  1.7288  1.2768  1.9795
  836MPD2    N112351   2.772   1.749  11.589  0.1061 -0.5616 -0.2630
  836MPD2    H712352   2.812   1.764  11.497 -0.3221 -2.2488 -0.7135
  837MPD2     C12353   0.147   1.608  10.238 -0.1450  0.2650 -0.8509
  837MPD2    C112354   0.200   1.651  10.117 -0.0182 -0.7488  0.0050
  837MPD2    C212355   0.175   1.784  10.082 -0.0504 -0.7975 -0.3213
  837MPD2    C312356   0.103   1.868  10.161 -0.7620 -0.6575 -0.0356
  837MPD2    C412357   0.048   1.816  10.280  0.3804  0.5623 -0.0410
  837MPD2    C512358   0.078   1.691  10.326 -0.0092  0.4426 -0.4834
  837MPD2     H12359   0.208   1.826   9.988  0.6592 -0.2640  0.1663
  837MPD2    H112360   0.015   1.881  10.360 -0.1010 -0.7106  0.8010
  837MPD2    H212361   0.152   1.505  10.272 -3.3735  0.4724  0.2774
  837MPD2    H312362   0.045   1.646  10.419 -0.7226  1.0752 -0.4336
  837MPD2     N12363   0.078   2.001  10.113 -0.2433 -0.2309  0.0513
  837MPD2    H512364   0.107   2.015  10.017 -0.8729  1.2355  0.0769
  837MPD2    N112365   0.243   1.566  10.014  0.0117  0.3896 -0.4198
  837MPD2    H712366   0.260   1.607   9.923 -1.2205 -0.5942 -1.0991
  838MPD2     C12367   3.337   4.256  11.683 -0.1463 -0.2491 -0.1374
  838MPD2    C112368   3.289   4.251  11.812  0.3128 -0.1344  0.6383
  838MPD2    C212369   3.212   4.146  11.861  0.1389  0.2053  0.2840
  838MPD2    C312370   3.174   4.044  11.778 -0.7101 -0.0920 -0.2751
  838MPD2    C412371   3.224   4.042  11.651 -0.1197 -0.1480 -0.0399
  838MPD2    C512372   3.296   4.150  11.605 -0.5541  0.1051 -0.1333
  838MPD2     H12373   3.190   4.151  11.967  2.2850  3.0178  0.6194
  838MPD2    H112374   3.213   3.957  11.585 -1.4595 -1.0167  1.2938
  838MPD2    H212375   3.400   4.336  11.648 -1.6784  1.0840  0.1356
  838MPD2    H312376   3.327   4.141  11.501  0.4128 -0.7473  0.2319
  838MPD2     N12377   3.107   3.937  11.837  0.8239 -0.0847 -0.8095
  838MPD2    H512378   3.100   3.932  11.938  2.6779 -0.3489 -0.6926
  838MPD2    N112379   3.326   4.353  11.906  0.5287 -1.3125  0.4038
  838MPD2    H712380   3.312   4.340  12.006 -1.6302 -0.9714  0.1513
  839MPD2     C12381   3.340   3.688  11.875 -0.4221  0.1417 -0.2332
  839MPD2    C112382   3.398   3.726  11.755  0.5248  0.3586  0.3421
  839MPD2    C212383   3.488   3.838  11.759 -0.6400  0.3409 -0.1839
  839MPD2    C312384   3.506   3.913  11.870  0.7628 -0.7724 -0.3081
  839MPD2    C412385   3.457   3.864  11.994  0.2128 -0.2935  0.2531
  839MPD2    C512386   3.371   3.755  11.992 -0.0186 -0.2139  0.0568
  839MPD2     H12387   3.519   3.879  11.664  0.7008  3.3286  1.5335
  839MPD2    H112388   3.466   3.912  12.091  1.0044  2.1304 -1.0287
  839MPD2    H212389   3.269   3.606  11.879 -0.0618 -0.0881  1.4462
  839MPD2    H312390   3.331   3.717  12.085  0.4131  1.2402  0.8279
  839MPD2     N12391   3.575   4.029  11.885 -0.3662  0.4162  0.0277
  839MPD2    H512392   3.593   4.064  11.978 -2.4056 -1.6949  1.2165
  839MPD2    N112393   3.381   3.656  11.633  0.3107 -0.1448  0.6706
  839MPD2    H712394   3.444   3.687  11.559 -0.2367  2.9483  1.4839
  840MPD2     C12395   3.841   1.608  10.400  0.6809 -0.1665  0.0647
  840MPD2    C112396   3.773   1.606  10.525  0.4419  0.3715 -0.6062
  840MPD2    C212397   3.821   1.678  10.630  0.1551 -0.1320  0.3825
  840MPD2    C312398   3.945   1.740  10.616  0.2606  0.1947  0.8057
  840MPD2    C412399   4.013   1.733  10.494  0.4414 -0.3524 -0.6437
  840MPD2    C512400   3.967   1.658  10.387 -0.8745  0.0767 -0.0207
  840MPD2     H12401   3.762   1.700  10.718  0.0681  1.3149 -0.0286
  840MPD2    H112402   4.113   1.774  10.479  1.2587 -0.8167  3.3374
  840MPD2    H212403   3.795   1.556  10.317 -2.8881 -0.9400  2.5554
  840MPD2    H312404   4.020   1.670  10.294 -2.1547  2.3657 -0.4670
  840MPD2     N12405   4.011   1.823  10.721  0.4848 -0.0081  0.1890
  840MPD2    H512406   4.103   1.860  10.697  1.6760 -3.5443 -0.6992
  840MPD2    N112407   3.649   1.541  10.527 -0.6459 -0.0037  0.2441
  840MPD2    H712408   3.611   1.512  10.438 -0.9850  1.3025 -0.0413
  841MPD2     C12409   4.010   1.290  14.588  0.3108  0.0151  0.7157
  841MPD2    C112410   3.994   1.415  14.521 -0.3265 -0.3771 -0.3532
  841MPD2    C212411   4.031   1.534  14.589  0.3213 -0.7028  0.3774
  841MPD2    C312412   4.060   1.530  14.725  0.5600 -0.4542 -0.1014
  841MPD2    C412413   4.073   1.403  14.782  0.4505  0.3967 -0.1164
  841MPD2    C512414   4.043   1.287  14.718 -0.1039 -0.8009  0.9614
  841MPD2     H12415   4.025   1.633  14.546  1.0965 -0.7088  0.2633
  841MPD2    H112416   4.102   1.392  14.886 -0.1008 -2.0797 -0.2275
  841MPD2    H212417   3.977   1.199  14.538 -1.0388  1.4195 -0.9667
  841MPD2    H312418   4.061   1.195  14.772  1.3306 -1.2110 -0.2255
  841MPD2     N12419   4.080   1.654  14.796 -0.1802  0.0520 -1.1494
  841MPD2    H512420   4.076   1.733  14.733 -0.3018  0.2283 -0.9214
  841MPD2    N112421   3.950   1.413  14.390  0.4882 -0.8068  0.0456
  841MPD2    H712422   3.918   1.323  14.353  0.6096 -0.8093 -0.0533
  842MPD2     C12423   4.060   2.955  17.258 -0.1169  0.0635 -0.3729
  842MPD2    C112424   3.949   2.873  17.252 -0.1217 -0.1677  0.7617
  842MPD2    C212425   3.929   2.774  17.351  0.3085 -0.0520 -0.0799
  842MPD2    C312426   4.002   2.782  17.465 -0.5475  0.4649  0.0143
  842MPD2    C412427   4.109   2.874  17.467  0.0803 -0.4792  0.1481
  842MPD2    C512428   4.147   2.955  17.366 -0.1078  0.4021 -0.7256
  842MPD2     H12429   3.848   2.703  17.338 -0.3461  0.5535  0.6541
  842MPD2    H112430   4.179   2.876  17.549  1.5760  2.5830 -1.2014
  842MPD2    H212431   4.075   3.025  17.176 -1.7521  1.6857  0.6983
  842MPD2    H312432   4.231   3.021  17.380 -0.3636  0.9118 -1.6166
  842MPD2     N12433   4.000   2.692  17.573  0.2119 -0.4587  0.3133
  842MPD2    H512434   4.083   2.680  17.630  1.9216  0.1865 -2.0723
  842MPD2    N112435   3.860   2.876  17.132  0.5094  0.2068  0.8553
  842MPD2    H712436   3.861   2.961  17.077  1.8232 -0.9173 -0.8613
  843MPD2     C12437   1.007   3.726   0.407 -0.4515 -0.1065 -0.1987
  843MPD2    C112438   0.996   3.828   0.319  0.2798  0.2300  0.1370
  843MPD2    C212439   1.103   3.911   0.308  0.0577  0.5925  0.4339
  843MPD2    C312440   1.222   3.894   0.377  0.0248 -0.5872  0.4060
  843MPD2    C412441   1.237   3.778   0.450 -0.0052  0.8974 -0.3535
  843MPD2    C512442   1.130   3.700   0.464  0.2373  0.9065  0.0993
  843MPD2     H12443   1.099   3.981   0.225 -0.7063  0.4712  0.3687
  843MPD2    H112444   1.331   3.748   0.495 -2.1272 -2.1568  2.0443
  843MPD2    H212445   0.926   3.655   0.419 -0.0037 -0.9727 -2.3155
  843MPD2    H312446   1.141   3.611   0.525 -0.6129 -1.6777 -3.4769
  843MPD2     N12447   1.339   3.973   0.357 -0.4570 -0.5944 -0.2192
  843MPD2    H512448   1.420   3.946   0.412 -0.2667  2.9752  1.2598
  843MPD2    N112449   0.869   3.849   0.260  0.7966 -0.6345 -0.3292
  843MPD2    H712450   0.795   3.782   0.277 -0.1008  0.3850 -0.2243
  844MPD2     C12451   4.163   2.259  16.608 -0.1247  0.2127 -0.4970
  844MPD2    C112452   4.261   2.167  16.652 -0.4203  0.7427 -0.4476
  844MPD2    C212453   4.355   2.207  16.743  0.4993  0.5276  0.8487
  844MPD2    C312454   4.367   2.337  16.782  0.1473 -0.5635  0.0019
  844MPD2    C412455   4.271   2.428  16.747  0.2470 -0.3447 -0.1482
  844MPD2    C512456   4.175   2.385  16.667 -0.2508 -0.1988 -0.4259
  844MPD2     H12457   4.438   2.140  16.764 -0.2322 -0.4582  0.5838
  844MPD2    H112458   4.271   2.534  16.767  2.6679 -0.5560  0.9673
  844MPD2    H212459   4.086   2.241  16.534 -0.9006 -0.8119  0.5524
  844MPD2    H312460   4.103   2.460  16.637  0.3223  0.2489 -0.6849
  844MPD2     N12461   4.469   2.370  16.875  0.5965 -0.1600 -0.0539
  844MPD2    H512462   4.524   2.298  16.921  1.3714 -0.8315 -2.0428
  844MPD2    N112463   4.270   2.034  16.596  0.1536 -0.2606 -0.3149
  844MPD2    H712464   4.328   1.973  16.652 -3.3723 -3.0615  0.2538
  845MPD2     C12465   0.005   3.296  17.175 -0.1486 -0.3560  0.8881
  845MPD2    C112466   4.645   3.229  17.238 -0.2274 -0.4579  0.1968
  845MPD2    C212467   4.655   3.087  17.253 -0.1815  0.2845  0.1222
  845MPD2    C312468   0.012   3.018  17.170 -0.1130  0.4899  0.2431
  845MPD2    C412469   0.110   3.095  17.106  0.2779 -0.4002 -0.3652
  845MPD2    C512470   0.105   3.231  17.110 -0.2557 -0.4378  0.5191
  845MPD2     H12471   4.587   3.023  17.308 -2.1383  0.9456 -1.5246
  845MPD2    H112472   0.181   3.054  17.035  0.8181 -0.2859  0.0969
  845MPD2    H212473   4.731   3.403  17.161 -2.2512 -0.5930  0.4670
  845MPD2    H312474   0.164   3.284  17.036 -1.0491 -1.5253 -0.8946
  845MPD2     N12475   4.733   2.876  17.158  1.0933  0.5923  0.5504
  845MPD2    H512476   4.651   2.836  17.203  1.4191  1.1845  1.6668
  845MPD2    N112477   4.536   3.306  17.300  0.2103 -0.2779  0.7415
  845MPD2    H712478   4.530   3.405  17.278  0.9828 -0.3284  0.2999
  846MPD2     C12479   1.027   3.306  13.422 -0.2752  0.3443  0.4976
  846MPD2    C112480   1.127   3.391  13.464  0.4891  0.2623 -0.2412
  846MPD2    C212481   1.127   3.441  13.590  0.5125 -0.2170 -0.1204
  846MPD2    C312482   1.031   3.408  13.683 -0.2342  0.4447  0.2559
  846MPD2    C412483   0.947   3.304  13.652 -0.4222 -0.0512 -0.2598
  846MPD2    C512484   0.949   3.255  13.520 -0.4061  0.8793 -0.0282
  846MPD2     H12485   1.196   3.522  13.613  0.2102 -0.4539  1.5836
  846MPD2    H112486   0.877   3.266  13.725  0.6426  0.3100  0.9516
  846MPD2    H212487   1.017   3.266  13.321  0.9298 -1.0285  0.9144
  846MPD2    H312488   0.871   3.184  13.494 -0.1590  0.4341  0.4246
  846MPD2     N12489   1.026   3.487  13.797 -0.2820  0.2165 -0.4602
  846MPD2    H512490   1.102   3.553  13.809  0.8911 -1.8497  3.4009
  846MPD2    N112491   1.228   3.433  13.376 -0.1547  0.4228 -0.3569
  846MPD2    H712492   1.313   3.468  13.419  0.0436 -0.6001  0.0816
  847MPD2     C12493   2.681   0.385  14.312 -0.8263  0.0700 -0.4692
  847MPD2    C112494   2.577   0.466  14.365 -0.2591 -0.4737  0.8003
  847MPD2    C212495   2.580   0.488  14.503  0.3325 -0.4072 -0.6286
  847MPD2    C312496   2.675   0.434  14.581 -0.2286 -0.3260 -0.3447
  847MPD2    C412497   2.780   0.364  14.526  0.1009 -0.6426  0.4798
  847MPD2    C512498   2.788   0.348  14.391 -0.4431  0.0285 -0.2854
  847MPD2     H12499   2.507   0.548  14.556  3.7486  1.6479  1.8142
  847MPD2    H112500   2.859   0.322  14.588  0.3515  0.0142  0.6019
  847MPD2    H212501   2.684   0.354  14.208 -0.5303  2.5931 -1.2129
  847MPD2    H312502   2.857   0.281  14.342 -1.4856  0.0097 -1.7182
  847MPD2     N12503   2.661   0.453  14.719  0.2551  0.2510 -0.2205
  847MPD2    H512504   2.583   0.509  14.750  0.7448 -0.3247  2.0280
  847MPD2    N112505   2.456   0.501  14.305  0.6231 -0.3180  0.0288
  847MPD2    H712506   2.384   0.538  14.365  1.2284  2.4556 -0.9534
  848MPD2     C12507   4.072   2.758  16.685  0.4999  0.0579 -0.3253
  848MPD2    C112508   4.166   2.820  16.766  0.7290 -0.1934  0.5733
  848MPD2    C212509   4.250   2.915  16.711  0.0581  0.0355 -0.3675
  848MPD2    C312510   4.228   2.962  16.581  0.1319  0.5780  1.0427
  848MPD2    C412511   4.138   2.896  16.502 -0.2026 -0.2775 -0.5959
  848MPD2    C512512   4.066   2.792  16.551 -0.1275 -0.3885 -0.2327
  848MPD2     H12513   4.318   2.971  16.774 -0.6726  0.0578  0.4013
  848MPD2    H112514   4.118   2.912  16.396  0.7657  1.3966 -0.5236
  848MPD2    H212515   3.990   2.695  16.715  0.1465  1.2798  1.3233
  848MPD2    H312516   4.006   2.736  16.480 -0.9549  0.3369 -0.1069
  848MPD2     N12517   4.288   3.077  16.525 -0.2254 -0.8751  0.3173
  848MPD2    H512518   4.256   3.096  16.430  1.2686  3.8385  0.7604
  848MPD2    N112519   4.181   2.788  16.904 -0.4471 -0.0648  0.2769
  848MPD2    H712520   4.255   2.825  16.963 -3.1842  2.6881  1.9685
  849MPD2     C12521   3.024   2.356  14.628  0.5899 -0.5086  0.7317
  849MPD2    C112522   3.093   2.248  14.566 -1.1695  0.2243 -0.4577
  849MPD2    C212523   3.186   2.185  14.639  0.0377  0.3418  0.1611
  849MPD2    C312524   3.236   2.228  14.758  0.1563  0.1969 -0.6274
  849MPD2    C412525   3.177   2.337  14.811  0.4619 -0.4832  0.2082
  849MPD2    C512526   3.071   2.402  14.749 -0.2286  0.0549  0.4040
  849MPD2     H12527   3.218   2.090  14.598 -1.3929  0.2672 -0.7625
  849MPD2    H112528   3.213   2.366  14.909 -0.6475 -0.6236  0.6538
  849MPD2    H212529   2.945   2.416  14.582  2.0935  1.4822  0.7732
  849MPD2    H312530   3.028   2.490  14.796  1.0304  1.5627 -1.2433
  849MPD2     N12531   3.340   2.166  14.833 -0.3605 -0.7073  0.4731
  849MPD2    H512532   3.368   2.215  14.917 -1.1757  0.5110  0.0369
  849MPD2    N112533   3.065   2.211  14.429 -0.6547  0.6373  0.2783
  849MPD2    H712534   2.981   2.245  14.383 -1.4293  1.7326  2.4894
  850MPD2     C12535   1.537   1.003  14.477  1.3264 -0.6265 -0.1507
  850MPD2    C112536   1.517   1.084  14.594  0.3866  0.4321  0.3954
  850MPD2    C212537   1.630   1.130  14.660 -0.2986 -0.0983 -0.0504
  850MPD2    C312538   1.752   1.077  14.635  0.8994  1.1567 -0.1721
  850MPD2    C412539   1.770   1.005  14.521  0.0617  0.6443  0.2586
  850MPD2    C512540   1.664   0.971  14.447  0.0648 -0.2033  0.4666
  850MPD2     H12541   1.616   1.192  14.748  0.3527  0.4990 -0.3688
  850MPD2    H112542   1.862   0.956  14.493 -0.2964  0.8321 -1.2822
  850MPD2    H212543   1.451   0.969  14.421  1.9536 -0.2617 -1.3365
  850MPD2    H312544   1.685   0.919  14.354  1.7978  1.0205  0.1869
  850MPD2     N12545   1.863   1.082  14.718  0.2455  0.3480 -0.7142
  850MPD2    H512546   1.947   1.034  14.688  0.8659  0.1649  1.3536
  850MPD2    N112547   1.386   1.127  14.619  0.1731  0.1930 -0.0443
  850MPD2    H712548   1.322   1.130  14.541  1.3912  1.8116 -0.9723
  851MPD2     C12549   1.818   0.912  15.378  0.5570 -0.7944 -0.0075
  851MPD2    C112550   1.770   0.882  15.257 -0.0459 -0.1667  0.4664
  851MPD2    C212551   1.826   0.770  15.197 -0.1942  1.2782  0.1665
  851MPD2    C312552   1.925   0.695  15.263  0.1809  0.5737 -0.2187
  851MPD2    C412553   1.978   0.742  15.376 -0.0566  0.8221  0.3356
  851MPD2    C512554   1.922   0.852  15.438 -0.1538 -0.4330  0.3999
  851MPD2     H12555   1.788   0.736  15.101 -0.0030 -0.0926  0.5732
  851MPD2    H112556   2.058   0.695  15.433 -0.1295 -0.2160 -0.4234
  851MPD2    H212557   1.783   1.002  15.428  0.1214 -1.2631  0.5433
  851MPD2    H312558   1.963   0.896  15.528  0.3076 -1.8155  0.8644
  851MPD2     N12559   1.957   0.570  15.209 -0.0616  0.6286  0.2770
  851MPD2    H512560   1.902   0.528  15.135  1.0352  1.3308 -0.9448
  851MPD2    N112561   1.673   0.969  15.201  0.4456  0.1666  0.5699
  851MPD2    H712562   1.634   1.044  15.257 -2.8452 -2.9775  2.3925
  852MPD2     C12563   1.269   3.946  10.452 -0.3023  0.6219  0.1182
  852MPD2    C112564   1.383   3.911  10.385 -0.0259 -0.5040 -0.3635
  852MPD2    C212565   1.438   4.004  10.299 -0.2309  0.1294  0.5581
  852MPD2    C312566   1.374   4.125  10.280  0.2037  0.4190 -0.3799
  852MPD2    C412567   1.259   4.164  10.343 -0.1078 -0.3721  0.6787
  852MPD2    C512568   1.211   4.064  10.419 -0.3054 -0.4385  0.1317
  852MPD2     H12569   1.527   3.982  10.242  0.2707 -0.4381  1.5544
  852MPD2    H112570   1.220   4.265  10.340 -1.4926 -0.8382  2.8881
  852MPD2    H212571   1.211   3.893  10.528  0.5345  0.2098  0.4827
  852MPD2    H312572   1.128   4.089  10.484  1.2713 -0.1411  2.0207
  852MPD2     N12573   1.442   4.221  10.206  0.4165 -0.9662  0.1516
  852MPD2    H512574   1.540   4.202  10.185  0.5408 -1.0488  0.8042
  852MPD2    N112575   1.444   3.793  10.413  0.2421  0.3213  0.6545
  852MPD2    H712576   1.527   3.781  10.354  0.4797  3.2171  0.4011
  853MPD2     C12577   3.736   3.014  12.543 -0.0208 -0.7525 -0.7614
  853MPD2    C112578   3.611   3.026  12.491  0.0782  0.0473 -0.1549
  853MPD2    C212579   3.597   3.008  12.352  0.2316  0.2333  1.0916
  853MPD2    C312580   3.709   2.986  12.276  0.5006  0.3614  0.4371
  853MPD2    C412581   3.837   2.974  12.330  0.3086 -0.3562  0.2892
  853MPD2    C512582   3.844   2.983  12.464  0.1179 -1.1972  0.1212
  853MPD2     H12583   3.503   3.040  12.308 -0.2174  0.1547  1.9930
  853MPD2    H112584   3.920   2.965  12.261  0.3181  0.2907  0.2105
  853MPD2    H212585   3.747   3.041  12.647  0.0118  1.9268 -1.4739
  853MPD2    H312586   3.938   2.970  12.516  0.4942 -2.7502 -0.9415
  853MPD2     N12587   3.696   2.975  12.138  0.1689  0.2076  0.1599
  853MPD2    H512588   3.783   2.955  12.089 -0.6492  0.7177 -1.5050
  853MPD2    N112589   3.495   3.054  12.578  0.0277 -0.2642 -0.6739
  853MPD2    H712590   3.516   3.040  12.677  2.2223 -1.5883 -1.3466
  854MPD2     C12591   0.469   2.775  12.167  0.1677 -0.0090 -0.9529
  854MPD2    C112592   0.428   2.793  12.300 -0.0418  0.3809  0.6225
  854MPD2    C212593   0.485   2.719  12.400  0.2366  0.6462 -0.9072
  854MPD2    C312594   0.571   2.617  12.374 -0.3555 -0.0367 -0.2734
  854MPD2    C412595   0.577   2.578  12.237 -0.6426 -0.5209  0.0555
  854MPD2    C512596   0.542   2.672  12.141  0.0143  0.1846  0.0118
  854MPD2     H12597   0.455   2.742  12.501  1.5156  2.5644 -0.9642
  854MPD2    H112598   0.628   2.486  12.210 -2.4818 -1.6540  0.4929
  854MPD2    H212599   0.443   2.834  12.080 -0.9915 -0.4065 -0.8714
  854MPD2    H312600   0.562   2.635  12.041  1.0471  0.8126 -0.0086
  854MPD2     N12601   0.628   2.545  12.483  0.2097 -0.4935  0.4101
  854MPD2    H512602   0.630   2.587  12.576 -3.6762  0.3725  0.0710
  854MPD2    N112603   0.328   2.880  12.335  0.7144 -0.1698 -0.1014
  854MPD2    H712604   0.319   2.896  12.435 -1.5841 -0.5674 -0.2278
  855MPD2     C12605   0.711   2.710  13.353 -0.2120  0.3883  0.0597
  855MPD2    C112606   0.793   2.601  13.337 -0.5377 -0.2715 -0.9237
  855MPD2    C212607   0.812   2.537  13.215  0.1114  0.0592  0.3633
  855MPD2    C312608   0.751   2.585  13.102  0.1286  0.0172  0.4112
  855MPD2    C412609   0.671   2.693  13.114 -0.8187  0.1767 -0.1564
  855MPD2    C512610   0.646   2.758  13.237 -0.5429  0.6810 -0.0577
  855MPD2     H12611   0.883   2.456  13.207  0.2454  0.1552  0.5772
  855MPD2    H112612   0.609   2.733  13.035 -2.2032 -1.1143  0.2621
  855MPD2    H212613   0.688   2.757  13.448  0.2307  0.4223  0.1510
  855MPD2    H312614   0.586   2.848  13.236  0.5670  1.4183 -0.4903
  855MPD2     N12615   0.780   2.542  12.969 -0.3037 -0.2762  0.0158
  855MPD2    H512616   0.771   2.600  12.887 -1.1413  0.8044  0.8873
  855MPD2    N112617   0.856   2.537  13.448  0.5096 -0.0677  0.2721
  855MPD2    H712618   0.899   2.445  13.441 -0.9070 -0.8542  1.7230
  856MPD2     C12619   2.759   3.340  13.932  0.0567 -0.7490 -0.3022
  856MPD2    C112620   2.755   3.475  13.960  0.3890 -0.6792  0.3204
  856MPD2    C212621   2.634   3.527  13.999  0.7251 -0.1430 -0.5295
  856MPD2    C312622   2.520   3.454  13.998  0.2185 -0.8462 -0.3221
  856MPD2    C412623   2.522   3.322  13.961 -0.7215 -0.0499  0.0512
  856MPD2    C512624   2.640   3.269  13.926 -0.4855 -0.3937 -0.2935
  856MPD2     H12625   2.636   3.632  14.027  2.5429 -0.4926  0.5949
  856MPD2    H112626   2.432   3.264  13.947 -1.5341  1.0131  0.8870
  856MPD2    H212627   2.856   3.295  13.912 -0.6488 -3.1853  1.9101
  856MPD2    H312628   2.645   3.169  13.884 -0.7018 -0.0774 -1.0673
  856MPD2     N12629   2.390   3.522  14.009 -0.3898  0.5787 -0.6202
  856MPD2    H512630   2.313   3.473  13.966  0.1852 -3.1701  2.5412
  856MPD2    N112631   2.867   3.549  13.977  0.1184 -0.2850 -0.2339
  856MPD2    H712632   2.872   3.631  14.036 -1.1131 -1.4572  1.5022
  857MPD2     C12633   3.919   1.051  12.779  0.1627  0.5027  0.0338
  857MPD2    C112634   4.054   1.029  12.808  0.1846  0.1241 -0.4549
  857MPD2    C212635   4.144   1.133  12.782  0.1329 -0.3018  0.4761
  857MPD2    C312636   4.102   1.252  12.735 -0.3920  0.7340 -0.0907
  857MPD2    C412637   3.966   1.280  12.723 -0.5448 -0.3041 -0.3413
  857MPD2    C512638   3.881   1.175  12.741 -0.6781 -0.6522  0.7558
  857MPD2     H12639   4.252   1.125  12.791  0.0563  0.9639  2.3789
  857MPD2    H112640   3.936   1.383  12.707  0.2265  0.2487  1.7924
  857MPD2    H212641   3.838   0.981  12.792  0.7088 -0.1957 -0.3488
  857MPD2    H312642   3.775   1.189  12.728 -0.6834 -1.7074 -0.2855
  857MPD2     N12643   4.200   1.353  12.723 -0.2588  0.4350 -0.1694
  857MPD2    H512644   4.294   1.332  12.755 -0.2521  1.5063  0.5247
  857MPD2    N112645   4.101   0.899  12.829  0.5979 -0.5300 -0.1249
  857MPD2    H712646   4.031   0.826  12.819  2.1755 -2.0870  0.0855
  858MPD2     C12647   4.452   0.031  17.055  0.0414  0.0564 -0.3996
  858MPD2    C112648   4.588   0.031  17.030 -0.0181 -0.2916  0.0741
  858MPD2    C212649   4.664   0.132  17.087  0.6717 -0.3021  0.3713
  858MPD2    C312650   4.602   0.237  17.154  0.2511 -0.2801 -0.7082
  858MPD2    C412651   4.471   0.225  17.191  0.6852 -0.0963  0.2812
  858MPD2    C512652   4.394   0.122  17.141  0.3777 -0.1433  0.0486
  858MPD2     H12653   0.037   0.132  17.073  0.5311  3.2413 -0.5057
  858MPD2    H112654   4.426   0.306  17.249 -0.2495 -0.8346  0.5923
  858MPD2    H212655   4.388   4.692  17.009 -0.5921 -0.2338  0.9435
  858MPD2    H312656   4.288   0.124  17.163  0.1762 -1.8348 -0.7692
  858MPD2     N12657   4.668   0.337  17.223  0.4234 -0.0347  0.3947
  858MPD2    H512658   4.610   0.402  17.276  0.0032 -1.3543  1.5796
  858MPD2    N112659   4.648   4.652  16.965 -0.3561 -0.0349 -0.7725
  858MPD2    H712660   4.589   4.577  16.931  0.3231 -0.8643 -0.1315
  859MPD2     C12661   3.517   2.664  15.935 -0.4367 -0.1493  0.3379
  859MPD2    C112662   3.628   2.590  15.903 -0.1243  0.2961  0.1232
  859MPD2    C212663   3.662   2.483  15.982 -0.4770 -0.3025 -0.1805
  859MPD2    C312664   3.560   2.425  16.059  0.3724  0.0582  0.4140
  859MPD2    C412665   3.447   2.500  16.082  0.2072  0.0339  0.5222
  859MPD2    C512666   3.433   2.621  16.031  0.2754  0.8096  0.4824
  859MPD2     H12667   3.762   2.441  15.975 -0.8271 -1.1792 -0.0050
  859MPD2    H112668   3.363   2.465  16.142  0.7683 -0.3969  1.0548
  859MPD2    H212669   3.483   2.744  15.871 -1.2914  0.4599  1.5460
  859MPD2    H312670   3.349   2.686  16.050 -0.2884  1.0122 -2.6857
  859MPD2     N12671   3.568   2.290  16.107 -0.2348  0.1069 -0.4153
  859MPD2    H512672   3.480   2.253  16.142 -0.6392  0.2397 -1.2679
  859MPD2    N112673   3.711   2.647  15.805 -0.2651  0.1972  0.5892
  859MPD2    H712674   3.691   2.734  15.758 -3.0138 -0.4620  0.5324
  860MPD2     C12675   1.915   2.781  11.661  0.4291 -0.0175 -0.8237
  860MPD2    C112676   1.886   2.746  11.790 -0.4981  0.5243 -0.6518
  860MPD2    C212677   1.819   2.624  11.810  0.8988  0.0946  0.0712
  860MPD2    C312678   1.780   2.543  11.705 -0.3201  0.6212  0.2460
  860MPD2    C412679   1.820   2.572  11.577  0.0583  0.9547  0.3983
  860MPD2    C512680   1.877   2.697  11.556 -0.0645 -0.8089  0.5984
  860MPD2     H12681   1.799   2.586  11.909  1.8164 -2.5908 -0.7648
  860MPD2    H112682   1.798   2.510  11.491 -1.0621  0.9431  0.6930
  860MPD2    H212683   1.973   2.870  11.644  0.7575 -0.0668  0.0362
  860MPD2    H312684   1.890   2.733  11.454  1.5854 -0.2605  1.0056
  860MPD2     N12685   1.716   2.423  11.742  0.2881 -0.2523  0.2720
  860MPD2    H512686   1.698   2.408  11.841  1.2987 -1.5257  0.2670
  860MPD2    N112687   1.932   2.822  11.899  0.1944 -0.3937 -0.2241
  860MPD2    H712688   1.927   2.778  11.990  0.8494 -1.0930 -0.5263
  861MPD2     C12689   4.258   0.702  11.018 -0.4462 -0.5857  0.6880
  861MPD2    C112690   4.277   0.823  11.089  0.2032 -0.0280 -0.1387
  861MPD2    C212691   4.229   0.942  11.025 -0.3197 -0.0897  0.7163
  861MPD2    C312692   4.179   0.950  10.900 -1.0018 -0.1640  0.1982
  861MPD2    C412693   4.170   0.829  10.835 -0.3837 -0.5416 -0.1830
  861MPD2    C512694   4.198   0.707  10.892  0.0118 -0.6213  0.8745
  861MPD2     H12695   4.255   1.031  11.081  1.5851  0.5255 -1.1741
  861MPD2    H112696   4.117   0.821  10.740  1.4597  0.2729 -1.2759
  861MPD2    H212697   4.273   0.603  11.059  1.0343 -0.1955  1.0915
  861MPD2    H312698   4.190   0.619  10.830 -2.1471  1.5854 -1.9780
  861MPD2     N12699   4.136   1.070  10.837 -0.2679  0.1590 -0.7279
  861MPD2    H512700   4.122   1.066  10.736  2.8441  2.3095 -1.2660
  861MPD2    N112701   4.323   0.835  11.222  0.2205 -0.1984 -0.0019
  861MPD2    H712702   4.333   0.931  11.253 -0.8966 -0.5903  1.5774
  862MPD2     C12703   4.226   1.427  10.208  0.1262 -0.9931  0.1584
  862MPD2    C112704   4.221   1.315  10.292 -0.1544 -0.0917 -0.0712
  862MPD2    C212705   4.203   1.190  10.236 -0.0640  0.2220  0.0995
  862MPD2    C312706   4.228   1.167  10.099 -0.5880 -0.3834  0.4652
  862MPD2    C412707   4.253   1.276  10.017 -0.5721 -0.6632  0.4264
  862MPD2    C512708   4.232   1.405  10.072 -0.2814  0.5583  0.7537
  862MPD2     H12709   4.183   1.103  10.298 -0.6164  0.4362  0.2270
  862MPD2    H112710   4.267   1.271   9.909 -0.8729 -3.5371  0.5281
  862MPD2    H212711   4.219   1.529  10.244  1.1319 -1.2127  0.9775
  862MPD2    H312712   4.216   1.492  10.009 -2.8268  0.0669  0.7283
  862MPD2     N12713   4.229   1.035  10.048 -0.3596 -0.1429 -0.7718
  862MPD2    H512714   4.195   0.965  10.114  1.7583 -0.8332 -0.4284
  862MPD2    N112715   4.212   1.331  10.432  0.2258  0.8877 -0.2734
  862MPD2    H712716   4.164   1.250  10.472  1.8784 -0.2437 -0.6014
  863MPD2     C12717   3.021   3.903  17.033 -0.2343 -0.3639  0.1790
  863MPD2    C112718   3.119   3.998  17.024  0.1721 -0.1275 -0.2486
  863MPD2    C212719   3.248   3.982  17.079  0.0032 -0.0497 -0.0226
  863MPD2    C312720   3.270   3.865  17.148 -0.2588  0.1646 -0.3868
  863MPD2    C412721   3.178   3.764  17.145 -0.3181  0.0183  0.0721
  863MPD2    C512722   3.054   3.784  17.096  0.1656 -0.4872 -0.2543
  863MPD2     H12723   3.321   4.062  17.072 -1.1204  1.0546  0.6712
  863MPD2    H112724   3.198   3.672  17.199 -0.2884 -0.9459 -1.5819
  863MPD2    H212725   2.927   3.923  16.982  0.1653  0.6212 -0.1751
  863MPD2    H312726   2.987   3.699  17.089 -1.8200  1.0977 -0.5401
  863MPD2     N12727   3.388   3.838  17.219 -0.2943  0.3414  0.4314
  863MPD2    H512728   3.406   3.744  17.254  0.3226  1.6689  3.6177
  863MPD2    N112729   3.094   4.119  16.946  0.0644 -0.4699 -0.7440
  863MPD2    H712730   3.181   4.171  16.938 -0.0666 -0.8184 -4.4345
  864MPD2     C12731   3.701   0.604  17.600 -0.4513  0.7227 -0.4341
  864MPD2    C112732   3.786   0.524  17.526 -0.6312 -0.6053  0.9717
  864MPD2    C212733   3.865   0.581  17.423 -0.0019 -0.3071  0.2366
  864MPD2    C312734   3.842   0.711  17.384 -0.1906 -0.1181 -0.6207
  864MPD2    C412735   3.739   0.783  17.447  0.3954 -0.5675 -0.1823
  864MPD2    C512736   3.676   0.727  17.553 -0.0387  0.2790  0.2110
  864MPD2     H12737   3.935   0.523  17.363 -1.3168 -1.2490 -0.3869
  864MPD2    H112738   3.712   0.885  17.423 -0.7896 -1.0987 -1.0764
  864MPD2    H212739   3.649   0.569  17.688 -0.2806 -0.3952 -0.7777
  864MPD2    H312740   3.615   0.780  17.625  2.0520  1.9792  0.7292
  864MPD2     N12741   3.918   0.771  17.276 -0.5656 -0.3369 -0.1784
  864MPD2    H512742   3.902   0.868  17.251  1.5718  0.8326  3.0213
  864MPD2    N112743   3.785   0.382  17.554  0.7555 -0.0161 -0.2845
  864MPD2    H712744   3.703   0.342  17.597  0.9311  0.9412  0.9379
  865MPD2     C12745   4.131   0.996  16.460  0.7874  0.3159 -1.1075
  865MPD2    C112746   4.091   0.905  16.555  0.0066 -0.0950  0.2124
  865MPD2    C212747   4.020   0.955  16.663 -0.1071  0.0558  0.7112
  865MPD2    C312748   4.002   1.094  16.680  0.5185 -0.3173  0.5783
  865MPD2    C412749   4.030   1.179  16.580  0.2499 -0.0120  0.3080
  865MPD2    C512750   4.101   1.128  16.471  0.6102 -0.0448  0.9866
  865MPD2     H12751   3.980   0.891  16.741 -1.8192 -0.8644 -0.9277
  865MPD2    H112752   4.009   1.285  16.589  1.2577  0.2382 -0.2980
  865MPD2    H212753   4.187   0.956  16.376  0.3885 -2.3120 -0.1275
  865MPD2    H312754   4.115   1.190  16.383 -1.1509 -0.4217  0.4265
  865MPD2     N12755   3.954   1.159  16.800 -0.2446 -0.4919 -0.4145
  865MPD2    H512756   3.901   1.245  16.787 -0.0252 -0.4954 -1.3167
  865MPD2    N112757   4.141   0.773  16.547 -0.3348 -1.0796  0.0126
  865MPD2    H712758   4.203   0.756  16.468 -0.4185  1.3300 -0.5776
  866MPD2     C12759   0.635   1.519  11.517  0.1890 -0.2823  0.0179
  866MPD2    C112760   0.619   1.468  11.390 -0.3322  0.0322  0.5914
  866MPD2    C212761   0.509   1.509  11.319  0.3332  0.3163 -0.2538
  866MPD2    C312762   0.406   1.580  11.385 -0.1140  0.4560 -0.3011
  866MPD2    C412763   0.421   1.629  11.510  0.0766  0.0786 -0.2207
  866MPD2    C512764   0.539   1.590  11.576 -0.4722  0.7414  1.0629
  866MPD2     H12765   0.488   1.460  11.224  0.2625 -0.9679  0.4290
  866MPD2    H112766   0.354   1.694  11.563 -0.0940 -0.7141  0.5345
  866MPD2    H212767   0.712   1.486  11.586 -1.7909 -3.8147  0.5412
  866MPD2    H312768   0.558   1.636  11.673 -1.7499 -0.2807  1.8070
  866MPD2     N12769   0.289   1.615  11.319  0.4629  0.2853 -0.4246
  866MPD2    H512770   0.220   1.666  11.374  0.6934  1.5880 -1.3324
  866MPD2    N112771   0.714   1.377  11.336 -0.1845 -0.1713  0.6888
  866MPD2    H712772   0.792   1.360  11.398  2.2312  1.0780 -2.0035
  867MPD2     C12773   2.512   0.450  16.777 -0.5144 -0.5561 -0.3674
  867MPD2    C112774   2.594   0.461  16.887 -0.3856  0.9792 -0.2285
  867MPD2    C212775   2.579   0.576  16.971 -0.0376 -1.5425 -0.1793
  867MPD2    C312776   2.483   0.673  16.943 -0.3376 -0.6518 -0.5955
  867MPD2    C412777   2.400   0.652  16.837  0.1088 -0.5846 -0.1941
  867MPD2    C512778   2.418   0.546  16.756  0.3806  0.4189  0.3831
  867MPD2     H12779   2.651   0.598  17.049  0.2022 -2.3051 -0.1841
  867MPD2    H112780   2.325   0.728  16.820  2.0907  1.7451  1.5442
  867MPD2    H212781   2.528   0.370  16.705 -0.7354 -0.4231 -0.5638
  867MPD2    H312782   2.362   0.537  16.663  0.7776  2.1323 -0.0192
  867MPD2     N12783   2.473   0.797  17.020  0.2869 -0.3061 -0.2533
  867MPD2    H512784   2.403   0.865  16.995  0.1325 -0.3872 -0.0405
  867MPD2    N112785   2.694   0.361  16.906  0.2466  0.1002 -0.1382
  867MPD2    H712786   2.716   0.299  16.829 -0.8673 -1.0300  0.4365
  868MPD2     C12787   4.718   4.557  13.326  0.6826  0.2354  0.2578
  868MPD2    C112788   4.688   4.433  13.359 -0.2709  0.3952 -0.7994
  868MPD2    C212789   4.611   4.412  13.472 -0.1262  0.2093  0.4334
  868MPD2    C312790   4.572   4.516  13.555  0.3953 -0.3176  0.3531
  868MPD2    C412791   4.612   4.639  13.522  0.6799 -0.0764  0.4940
  868MPD2    C512792   4.685   4.659  13.408  0.8757  0.0696 -1.1075
  868MPD2     H12793   4.575   4.312  13.495 -1.2411  0.5957  0.3481
  868MPD2    H112794   4.582   4.728  13.576 -2.0367 -0.1055 -0.9866
  868MPD2    H212795   0.039   4.582  13.237 -1.1017 -3.9738 -2.0663
  868MPD2    H312796   4.729   0.021  13.390  0.2901  0.7176  0.9485
  868MPD2     N12797   4.487   4.496  13.668 -0.6840  0.6952  1.0738
  868MPD2    H512798   4.456   4.401  13.685  1.4479  0.1389  1.8336
  868MPD2    N112799   4.733   4.332  13.276 -0.0045  0.0953  0.4542
  868MPD2    H712800   0.051   4.363  13.195  0.8625  1.6821  1.6293
  869MPD2     C12801   1.122   2.213   0.512  0.2580  0.2556  0.8763
  869MPD2    C112802   1.065   2.242   0.390 -0.4870  0.0377 -0.8507
  869MPD2    C212803   1.078   2.365   0.329  0.5502  0.3315 -0.4254
  869MPD2    C312804   1.128   2.476   0.399 -0.4365 -0.3478  0.3974
  869MPD2    C412805   1.198   2.441   0.516  0.1157 -0.9925  0.4049
  869MPD2    C512806   1.192   2.316   0.572  0.3032 -0.3128 -0.0363
  869MPD2     H12807   1.013   2.387   0.245  0.7909  0.6822 -0.5201
  869MPD2    H112808   1.259   2.516   0.565  0.3354  0.6617 -2.3618
  869MPD2    H212809   1.113   2.113   0.554 -2.0909 -0.1458 -0.6006
  869MPD2    H312810   1.262   2.288   0.650  1.3577  0.3270 -0.7437
  869MPD2     N12811   1.137   2.612   0.363 -0.0026  0.2229  0.0314
  869MPD2    H512812   1.202   2.663   0.422 -0.1687  0.8444 -0.3273
  869MPD2    N112813   0.992   2.138   0.328  0.5514  0.2151 -0.3172
  869MPD2    H712814   0.979   2.049   0.375 -1.5434  0.8913  0.3431
  870MPD2     C12815   0.765   0.949   1.786  0.2678  0.2058  0.2554
  870MPD2    C112816   0.881   0.952   1.707 -0.6654  0.2514  0.0521
  870MPD2    C212817   0.962   1.066   1.713 -0.3687 -0.6586  0.5663
  870MPD2    C312818   0.920   1.180   1.772 -0.1261  0.3690 -0.0494
  870MPD2    C412819   0.808   1.179   1.854  0.0642 -0.5742 -0.2251
  870MPD2    C512820   0.735   1.063   1.860 -0.1808 -0.4664 -0.2367
  870MPD2     H12821   1.030   1.081   1.631  0.4465  0.4258  1.4433
  870MPD2    H112822   0.780   1.271   1.903  0.7366 -0.2960 -0.3670
  870MPD2    H212823   0.704   0.861   1.803 -0.5564  0.7842  0.2898
  870MPD2    H312824   0.651   1.058   1.929 -0.9571  1.6523 -1.0293
  870MPD2     N12825   0.993   1.297   1.750  0.2105 -0.4473  0.2355
  870MPD2    H512826   1.067   1.290   1.681  0.7245 -0.6022  0.7958
  870MPD2    N112827   0.924   0.833   1.634  0.1117  0.1920 -0.9172
  870MPD2    H712828   0.866   0.750   1.635  2.0411 -1.1404  0.5175
  871MPD2     C12829   1.511   0.625  16.499 -0.0360 -0.7567  0.3111
  871MPD2    C112830   1.560   0.602  16.629 -0.6094  0.1328  0.3664
  871MPD2    C212831   1.645   0.498  16.649 -0.3015 -0.1410  0.4858
  871MPD2    C312832   1.662   0.404  16.551 -0.0586  0.2773  0.0626
  871MPD2    C412833   1.611   0.427  16.422 -0.0577 -0.7187 -0.1356
  871MPD2    C512834   1.545   0.540  16.396 -0.7746 -0.6680 -0.0414
  871MPD2     H12835   1.674   0.474  16.750  1.3781 -1.1546 -0.2398
  871MPD2    H112836   1.625   0.359  16.339 -1.9048 -0.6785 -0.4818
  871MPD2    H212837   1.445   0.708  16.477 -0.9872 -1.6223 -0.0966
  871MPD2    H312838   1.515   0.553  16.293  0.6416 -2.6850 -0.7289
  871MPD2     N12839   1.738   0.286  16.583 -0.1772  0.0820  0.2650
  871MPD2    H512840   1.778   0.278  16.676 -0.6727  0.0857  0.4800
  871MPD2    N112841   1.511   0.691  16.730 -0.8731 -0.3595 -0.0318
  871MPD2    H712842   1.435   0.753  16.701 -1.5138 -1.5818 -0.9953
  872MPD2     C12843   2.396   2.976  14.449  0.2199  0.4998 -0.0885
  872MPD2    C112844   2.382   2.930  14.322 -0.4770  0.1663  0.1472
  872MPD2    C212845   2.258   2.889  14.272 -0.4667  0.2732 -0.3432
  872MPD2    C312846   2.145   2.900  14.354  0.0787  0.5724  0.1056
  872MPD2    C412847   2.163   2.947  14.487  0.3708 -0.8492 -0.5942
  872MPD2    C512848   2.285   2.989  14.529  0.2134  0.4745 -0.4329
  872MPD2     H12849   2.236   2.853  14.172 -0.7818  0.1003 -0.2126
  872MPD2    H112850   2.080   2.980  14.549  1.1075 -0.1817  0.0489
  872MPD2    H212851   2.488   3.023  14.483  0.4572  0.4738 -0.6951
  872MPD2    H312852   2.297   3.025  14.630 -3.3207 -0.7429  0.4170
  872MPD2     N12853   2.012   2.890  14.315  0.4696  0.7006 -0.4660
  872MPD2    H512854   1.951   2.891  14.396 -0.5944 -1.1762 -1.2251
  872MPD2    N112855   2.494   2.923  14.237  0.0090 -0.2395 -0.3768
  872MPD2    H712856   2.473   2.878  14.148 -0.2911  0.3275 -0.5938
  873MPD2     C12857   4.657   2.689   1.586  0.7442 -0.2465  0.3739
  873MPD2    C112858   4.530   2.730   1.619 -0.3542  0.3204  0.1604
  873MPD2    C212859   4.423   2.640   1.642  0.6494  0.1187 -0.2042
  873MPD2    C312860   4.456   2.505   1.649  0.0510  0.2448  0.2866
  873MPD2    C412861   4.579   2.462   1.631  0.2507 -1.0641  0.8869
  873MPD2    C512862   4.678   2.558   1.601 -0.3020 -0.4677  0.5709
  873MPD2     H12863   4.320   2.666   1.666  1.1583 -0.9162  3.0886
  873MPD2    H112864   4.606   2.357   1.626  0.2555 -0.9950 -0.5396
  873MPD2    H212865   4.735   2.760   1.561  0.0380 -0.6403 -2.9386
  873MPD2    H312866   0.047   2.530   1.597 -0.6107 -1.5970  0.1228
  873MPD2     N12867   4.355   2.412   1.676 -0.0679  0.9908  0.6462
  873MPD2    H512868   4.383   2.318   1.704  0.9286  0.3301 -2.5588
  873MPD2    N112869   4.503   2.865   1.607  0.2231  0.0736  0.1910
  873MPD2    H712870   4.580   2.920   1.571  1.2458 -2.1762 -1.0502
  874MPD2     C12871   3.729   3.113  16.330 -0.3238 -0.7289 -0.0135
  874MPD2    C112872   3.804   3.106  16.449  0.5044  0.1016 -0.6061
  874MPD2    C212873   3.930   3.158  16.451  0.6978 -0.0758 -0.4310
  874MPD2    C312874   3.975   3.246  16.354  0.6284 -0.3993  0.0706
  874MPD2    C412875   3.896   3.262  16.239  0.3320 -0.2912 -0.2214
  874MPD2    C512876   3.779   3.193  16.224 -0.2287 -0.5195  0.2545
  874MPD2     H12877   3.998   3.129  16.530 -0.0449  0.3699  0.3852
  874MPD2    H112878   3.924   3.332  16.161  0.9703 -1.6192 -1.1940
  874MPD2    H212879   3.634   3.062  16.322 -1.0696  0.8700 -1.3625
  874MPD2    H312880   3.716   3.209  16.137  3.2118  2.2637 -1.6945
  874MPD2     N12881   4.106   3.303  16.364 -0.0399 -0.0058 -0.0331
  874MPD2    H512882   4.150   3.295  16.455 -0.3022 -1.9004 -0.0840
  874MPD2    N112883   3.738   3.047  16.561  0.3179  0.0315 -0.0351
  874MPD2    H712884   3.639   3.030  16.545  0.6662 -1.8224 -0.2114
  875MPD2     C12885   0.384   1.388  14.694 -0.1750 -0.0101  0.2405
  875MPD2    C112886   0.292   1.400  14.788 -0.1313  0.1056  0.0703
  875MPD2    C212887   0.318   1.465  14.903  0.1742 -0.0036 -0.9415
  875MPD2    C312888   0.445   1.507  14.931  0.9452 -0.2843  0.0266
  875MPD2    C412889   0.534   1.512  14.831 -0.7443  0.4181 -0.9699
  875MPD2    C512890   0.505   1.442  14.720  0.3182  0.3102  0.0108
  875MPD2     H12891   0.242   1.468  14.980  1.4829  1.8841  0.2872
  875MPD2    H112892   0.636   1.544  14.850 -0.3018 -0.5648 -1.7206
  875MPD2    H212893   0.364   1.341  14.599  1.8962 -1.3340  0.4668
  875MPD2    H312894   0.574   1.443  14.637 -1.0937  0.2106 -1.1526
  875MPD2     N12895   0.484   1.559  15.054  0.2068  0.4193 -0.2331
  875MPD2    H512896   0.570   1.613  15.054  1.4141 -1.4718 -0.9999
  875MPD2    N112897   0.154   1.353  14.768 -0.4826 -0.3252 -0.3524
  875MPD2    H712898   0.095   1.383  14.845 -1.1614 -2.3610 -0.0965
  876MPD2     C12899   3.640   2.757  16.272  0.4325 -0.2380 -1.2322
  876MPD2    C112900   3.769   2.731  16.242  0.3118 -1.0259  0.4555
  876MPD2    C212901   3.826   2.611  16.283  0.9704 -0.1615  0.1117
  876MPD2    C312902   3.752   2.502  16.335  0.0876  0.3661 -0.3951
  876MPD2    C412903   3.617   2.536  16.368  0.6365  0.4201 -0.2851
  876MPD2    C512904   3.570   2.657  16.333  0.4243 -0.0546 -0.5830
  876MPD2     H12905   3.932   2.597  16.265  1.2175  0.9814  0.6421
  876MPD2    H112906   3.551   2.460  16.408  0.5680 -0.2531 -1.6748
  876MPD2    H212907   3.592   2.849  16.242 -0.9485 -1.0529 -1.5550
  876MPD2    H312908   3.463   2.676  16.341  0.3201 -0.3693 -1.1751
  876MPD2     N12909   3.817   2.369  16.346 -0.1179 -0.4587 -0.0183
  876MPD2    H512910   3.914   2.355  16.321  0.5679  0.7009  1.9392
  876MPD2    N112911   3.831   2.833  16.170 -0.4969 -0.0480 -0.3083
  876MPD2    H712912   3.771   2.903  16.128  0.7576  1.5531  0.5306
  877MPD2     C12913   3.728   3.205  15.543 -0.1266  0.3916 -0.4023
  877MPD2    C112914   3.863   3.169  15.549 -0.8304 -0.2657 -0.2253
  877MPD2    C212915   3.938   3.137  15.437  0.9748  0.3040  0.6018
  877MPD2    C312916   3.877   3.153  15.306  0.5183  1.0128 -0.3200
  877MPD2    C412917   3.743   3.189  15.301  0.3625 -0.7684 -0.2500
  877MPD2    C512918   3.673   3.215  15.418 -0.0628  0.7864  0.0447
  877MPD2     H12919   4.040   3.101  15.449  0.8899  0.1409  0.8317
  877MPD2    H112920   3.695   3.211  15.207  0.9366  1.3654 -0.0410
  877MPD2    H212921   3.660   3.231  15.624  0.2459  1.4221 -0.4235
  877MPD2    H312922   3.573   3.258  15.416  0.6725  2.5173  0.9546
  877MPD2     N12923   3.942   3.113  15.180 -0.5230  0.1172 -0.2328
  877MPD2    H512924   3.895   3.123  15.091 -3.0562 -1.3642  0.9280
  877MPD2    N112925   3.936   3.154  15.674  0.5431 -0.4158  0.0237
  877MPD2    H712926   4.037   3.155  15.671  0.6353 -2.0924  1.8946
  878MPD2     C12927   3.221   2.680  13.574  0.2282 -2.0163  0.4191
  878MPD2    C112928   3.345   2.618  13.595 -0.1360 -0.1171  0.1869
  878MPD2    C212929   3.354   2.515  13.696 -0.2380  0.1927 -0.3104
  878MPD2    C312930   3.243   2.485  13.771 -0.4989 -0.0070  0.6846
  878MPD2    C412931   3.125   2.553  13.747 -0.2210  0.3217  0.8925
  878MPD2    C512932   3.111   2.650  13.649 -0.2349  0.5304 -0.5091
  878MPD2     H12933   3.447   2.459  13.709 -0.2674 -0.3072 -2.2716
  878MPD2    H112934   3.038   2.528  13.807 -0.4665 -1.1882 -0.0985
  878MPD2    H212935   3.216   2.736  13.481 -2.5750  0.1426  1.8577
  878MPD2    H312936   3.013   2.696  13.640 -1.1497 -1.4431 -0.8314
  878MPD2     N12937   3.265   2.387  13.876 -0.1027  0.5294  0.5692
  878MPD2    H512938   3.342   2.324  13.855  0.0260  1.3235 -1.3570
  878MPD2    N112939   3.455   2.650  13.506  0.0974  0.3376 -0.5325
  878MPD2    H712940   3.442   2.734  13.452  0.5034  0.3392 -0.6303
  879MPD2     C12941   3.905   4.089  17.146  0.3706  0.1192  0.1921
  879MPD2    C112942   3.945   3.969  17.208 -0.0990 -0.3459  0.0302
  879MPD2    C212943   3.892   3.849  17.162  0.0823  0.6442  0.1305
  879MPD2    C312944   3.805   3.855  17.054  0.6169  0.0302 -1.2279
  879MPD2    C412945   3.759   3.971  16.998  0.8805  0.2061 -0.3009
  879MPD2    C512946   3.814   4.087  17.042  0.2933  0.4306 -0.4044
  879MPD2     H12947   3.914   3.753  17.206 -0.8509 -0.1798 -1.2008
  879MPD2    H112948   3.694   3.971  16.911 -1.9101 -4.4124  1.7925
  879MPD2    H212949   3.939   4.188  17.175 -0.3468  0.7079 -0.9829
  879MPD2    H312950   3.787   4.182  16.997  1.4826  1.0921  0.2811
  879MPD2     N12951   3.750   3.735  17.001  0.8244  0.3117  0.0714
  879MPD2    H512952   3.695   3.738  16.915 -0.7567 -1.5266  1.0202
  879MPD2    N112953   4.037   3.978  17.308 -0.4353 -0.0609  0.2441
  879MPD2    H712954   4.074   4.069  17.335 -0.7957 -0.5807  2.5055
  880MPD2     C12955   0.272   0.882   0.717 -0.4592  0.5738  0.3733
  880MPD2    C112956   0.393   0.914   0.782  0.3719 -0.2472 -0.4259
  880MPD2    C212957   0.440   0.828   0.877  0.2699 -0.2104  0.0207
  880MPD2    C312958   0.385   0.704   0.900 -0.3093  0.1409 -0.3809
  880MPD2    C412959   0.261   0.675   0.842 -0.1825 -0.0333 -0.1702
  880MPD2    C512960   0.207   0.769   0.757 -0.0145 -1.0022  0.0108
  880MPD2     H12961   0.518   0.859   0.945 -0.4847  1.8593 -0.0473
  880MPD2    H112962   0.208   0.582   0.861  1.2968 -0.7245  0.5989
  880MPD2    H212963   0.219   0.954   0.657 -1.2690 -0.5743 -0.2770
  880MPD2    H312964   0.118   0.760   0.697  1.1162 -2.2878 -1.4699
  880MPD2     N12965   0.451   0.607   0.984 -0.0543  0.5586 -0.0748
  880MPD2    H512966   0.540   0.632   1.025 -0.0732  0.4540  0.0294
  880MPD2    N112967   0.459   1.037   0.751  0.1739 -0.5174 -0.4624
  880MPD2    H712968   0.409   1.097   0.687 -1.1817 -1.2571 -0.1144
  881MPD2     C12969   0.942   1.600   0.051  1.1414  0.4532 -0.3893
  881MPD2    C112970   0.832   1.509   0.047 -0.1444  0.3126 -0.0340
  881MPD2    C212971   0.811   1.438   0.168  0.1426 -0.7972 -0.1226
  881MPD2    C312972   0.877   1.474   0.284  0.3616  0.1020  0.5042
  881MPD2    C412973   0.977   1.568   0.289 -0.4765 -0.4666  0.4156
  881MPD2    C512974   1.004   1.624   0.170 -0.1580  0.0546 -0.0424
  881MPD2     H12975   0.743   1.354   0.171 -0.2992 -0.5578 -3.2054
  881MPD2    H112976   1.028   1.592   0.382  0.7442 -0.4020 -0.2681
  881MPD2    H212977   0.970   1.655  17.701 -1.3050 -1.5452 -2.3896
  881MPD2    H312978   1.078   1.703   0.169 -1.2167  1.0635  2.7834
  881MPD2     N12979   0.853   1.421   0.414 -0.0932 -0.2743 -0.3936
  881MPD2    H512980   0.928   1.438   0.479 -0.2455 -3.2741  0.5436
  881MPD2    N112981   0.801   1.480  17.652 -0.1702 -0.1426 -0.0692
  881MPD2    H712982   0.816   1.555  17.585 -0.1986  0.8677  1.0610
  882MPD2     C12983   4.109   3.006  14.366  0.2977  0.1506  0.1837
  882MPD2    C112984   4.067   3.040  14.490 -0.1379 -0.4822 -1.0297
  882MPD2    C212985   3.933   3.077  14.509 -0.0771  0.1074 -0.0661
  882MPD2    C312986   3.839   3.055  14.408  0.6973 -0.3972  0.3424
  882MPD2    C412987   3.886   3.018  14.285 -0.6418 -0.4578 -0.3044
  882MPD2    C512988   4.019   2.998  14.262 -0.0476 -0.1499 -0.1546
  882MPD2     H12989   3.895   3.102  14.608 -2.1203 -1.2376 -0.5308
  882MPD2    H112990   3.821   3.000  14.201 -1.2881  0.3924  0.0218
  882MPD2    H212991   4.214   2.989  14.344  0.3784  1.1122 -0.1741
  882MPD2    H312992   4.058   2.980  14.163 -1.9880 -0.1931 -0.8981
  882MPD2     N12993   3.699   3.080  14.417  0.1677 -0.5530  0.4042
  882MPD2    H512994   3.647   3.071  14.331 -0.6515 -3.9108  1.2692
  882MPD2    N112995   4.156   3.028  14.598  0.5806 -0.3614 -0.2702
  882MPD2    H712996   4.245   2.982  14.586  2.1284  2.5312 -0.0136
  883MPD2     C12997   0.903   2.717  16.540 -0.3903 -0.1816  0.0873
  883MPD2    C112998   0.986   2.787  16.451  0.2101  0.4635 -0.8135
  883MPD2    C212999   1.094   2.845  16.497  0.7508  0.2513 -0.1330
  883MPD2    C313000   1.125   2.839  16.636 -0.1962 -0.6787 -0.0320
  883MPD2    C413001   1.050   2.761  16.725  0.2843 -0.1164 -0.2457
  883MPD2    C513002   0.936   2.712  16.673  0.5454 -0.7276 -0.6095
  883MPD2     H13003   1.145   2.908  16.426 -1.3622  1.4587 -0.5648
  883MPD2    H113004   1.072   2.751  16.831  1.8919 -0.2738 -0.5899
  883MPD2    H213005   0.804   2.686  16.510 -1.6250  3.4072  0.5305
  883MPD2    H313006   0.869   2.668  16.746  1.3453 -1.2723 -0.2146
  883MPD2     N13007   1.248   2.905  16.675 -0.2746  0.3062  0.0658
  883MPD2    H513008   1.304   2.949  16.602 -0.6818 -0.3501 -0.6477
  883MPD2    N113009   0.964   2.812  16.309  0.0436  0.7719  0.0997
  883MPD2    H713010   1.033   2.858  16.251 -0.3264 -0.6875 -1.4819
  884MPD2     C13011   3.144   3.711  15.421 -0.2836 -0.7105 -0.2396
  884MPD2    C113012   3.114   3.760  15.295 -0.0319 -0.3176  0.0400
  884MPD2    C213013   2.997   3.828  15.281  0.1974 -0.7254  0.8538
  884MPD2    C313014   2.903   3.838  15.383 -0.2122  0.0654  0.4018
  884MPD2    C413015   2.934   3.773  15.505  0.2620  0.3896 -0.2812
  884MPD2    C513016   3.056   3.720  15.522 -1.3555  0.3912  0.6469
  884MPD2     H13017   2.972   3.861  15.180 -1.0225 -1.7453  0.8073
  884MPD2    H113018   2.858   3.781  15.582  1.3519 -0.8606  0.9368
  884MPD2    H213019   3.242   3.665  15.434 -0.8499 -1.6782  0.6033
  884MPD2    H313020   3.079   3.685  15.622 -1.0205 -3.0245 -0.6045
  884MPD2     N13021   2.783   3.913  15.362 -0.2939 -0.1045 -0.2837
  884MPD2    H513022   2.762   3.955  15.272 -0.8395 -0.3230 -0.2602
  884MPD2    N113023   3.190   3.766  15.172  0.4655 -0.1532  0.0141
  884MPD2    H713024   3.141   3.802  15.092  2.1048  0.5518 -0.6839
  885MPD2     C13025   1.213   4.312   0.627 -0.4652 -0.1307  0.4860
  885MPD2    C113026   1.145   4.203   0.579  0.7816  0.7187 -0.4508
  885MPD2    C213027   1.065   4.211   0.466  0.4276 -0.0783  0.3622
  885MPD2    C313028   1.043   4.327   0.403  0.3262  0.2825  0.2490
  885MPD2    C413029   1.092   4.445   0.463  0.5181 -0.1776 -0.4239
  885MPD2    C513030   1.177   4.435   0.568  0.0946 -0.0061 -0.4076
  885MPD2     H13031   1.017   4.121   0.429  1.9486 -0.9893  0.6170
  885MPD2    H113032   1.075   4.545   0.426  2.0900  0.5480  0.8119
  885MPD2    H213033   1.279   4.321   0.713 -0.3644 -1.6573  0.5779
  885MPD2    H313034   1.204   4.531   0.610  0.6967  0.1200 -1.0715
  885MPD2     N13035   0.996   4.328   0.274 -0.1882  0.2620  0.1709
  885MPD2    H513036   0.988   4.235   0.233 -0.2214  0.4737 -0.2995
  885MPD2    N113037   1.149   4.073   0.641 -0.2712  0.0145  0.0634
  885MPD2    H713038   1.075   4.005   0.628 -0.0385  0.0166 -1.3134
  886MPD2     C13039   2.595   2.393  15.465 -0.2309  0.4811  0.2393
  886MPD2    C113040   2.656   2.450  15.580 -0.6086 -0.3782  0.4311
  886MPD2    C213041   2.691   2.586  15.579  0.2146 -0.4709 -0.2072
  886MPD2    C313042   2.675   2.663  15.461  0.1239  0.2471 -0.9131
  886MPD2    C413043   2.610   2.601  15.351 -0.2348 -0.5150 -0.8634
  886MPD2    C513044   2.576   2.473  15.351 -0.1209 -0.7639 -0.2506
  886MPD2     H13045   2.746   2.624  15.664 -1.2005 -1.5667  1.1890
  886MPD2    H113046   2.584   2.653  15.260  0.1184 -1.9911 -1.8133
  886MPD2    H213047   2.574   2.287  15.456 -1.6555  0.9678 -2.0205
  886MPD2    H313048   2.532   2.422  15.267 -0.5508 -0.2190 -0.3628
  886MPD2     N13049   2.715   2.800  15.444 -0.1986 -0.0751 -0.3074
  886MPD2    H513050   2.714   2.835  15.349  0.6558  2.0615  0.4587
  886MPD2    N113051   2.681   2.386  15.700  0.5266  0.4139 -0.2379
  886MPD2    H713052   2.706   2.440  15.782  0.2477  2.8642 -1.7578
  887MPD2     C13053   3.087   2.484  16.283 -0.2935  0.3376 -0.3434
  887MPD2    C113054   3.021   2.521  16.171  0.5363  0.7171 -1.1543
  887MPD2    C213055   3.050   2.650  16.128 -0.3744 -0.1602 -0.2288
  887MPD2    C313056   3.139   2.735  16.187 -0.2518  0.7345  0.4309
  887MPD2    C413057   3.192   2.692  16.303  0.3881 -0.2879  0.3948
  887MPD2    C513058   3.163   2.572  16.352  0.0799 -0.0285 -0.3361
  887MPD2     H13059   2.995   2.669  16.037 -1.9649  1.1267  1.0075
  887MPD2    H113060   3.244   2.756  16.374  0.8047 -0.1654 -0.0190
  887MPD2    H213061   3.062   2.391  16.333  2.4251 -1.0000 -1.4966
  887MPD2    H313062   3.205   2.550  16.449 -2.3514 -1.6469  0.3245
  887MPD2     N13063   3.159   2.860  16.130 -0.8001  0.5909  0.2870
  887MPD2    H513064   3.104   2.875  16.046 -1.5977  0.2884  0.7595
  887MPD2    N113065   2.925   2.441  16.104 -0.4304 -0.4319 -0.1148
  887MPD2    H713066   2.869   2.491  16.036  2.1336  0.0571 -1.8527
  888MPD2     C13067   0.110   2.631  14.939  0.1236  0.4999 -0.4139
  888MPD2    C113068   0.089   2.688  15.060 -0.1144  0.9046  0.7768
  888MPD2    C213069   0.134   2.814  15.092 -0.1862  0.0694 -0.0257
  888MPD2    C313070   0.200   2.880  14.986 -0.1581  0.4448  0.2341
  888MPD2    C413071   0.216   2.819  14.860 -0.1318  0.1853 -0.1697
  888MPD2    C513072   0.163   2.699  14.833 -0.6638  0.3463  1.0262
  888MPD2     H13073   0.120   2.856  15.191  2.2447  1.1660 -0.1502
  888MPD2    H113074   0.262   2.873  14.779  0.8829 -0.8567 -0.2719
  888MPD2    H213075   0.062   2.541  14.902 -0.4755  0.9068 -0.6351
  888MPD2    H313076   0.181   2.661  14.733 -0.1462 -0.9557  1.6183
  888MPD2     N13077   0.244   3.008  15.018 -0.2622  0.3656  0.7665
  888MPD2    H513078   0.211   3.050  15.104  0.9669  0.8667  0.9871
  888MPD2    N113079   0.025   2.614  15.162 -0.2433  1.1410 -0.3215
  888MPD2    H713080   0.044   2.655  15.253 -0.4849 -0.4782  0.4421
  889MPD2     C13081   4.536   2.093  12.360 -0.2035 -0.3438  0.1446
  889MPD2    C113082   4.564   2.072  12.495  0.7570  0.2217 -0.6369
  889MPD2    C213083   4.598   2.183  12.578  0.2318 -0.0967  0.2228
  889MPD2    C313084   4.639   2.301  12.516  0.4251 -0.4059  0.2509
  889MPD2    C413085   4.643   2.308  12.378  0.5673 -0.7295  0.1528
  889MPD2    C513086   4.595   2.205  12.301 -0.2841 -0.1764  0.4891
  889MPD2     H13087   4.609   2.174  12.686 -1.0718 -2.1434  0.1920
  889MPD2    H113088   4.689   2.391  12.326  1.3199 -0.2726  1.5348
  889MPD2    H213089   4.499   2.019  12.290 -1.8782  1.3218 -0.7167
  889MPD2    H313090   4.605   2.219  12.194  2.6601 -2.0518  0.5105
  889MPD2     N13091   4.683   2.416  12.595  0.2032  0.5559 -0.0464
  889MPD2    H513092   4.718   2.489  12.533 -3.0473 -0.5044 -3.1470
  889MPD2    N113093   4.528   1.947  12.556  0.1175 -0.6393 -0.4794
  889MPD2    H713094   4.552   1.937  12.654  1.3494 -0.6147 -0.7773
  890MPD2     C13095   3.727   3.650  14.636  0.0475  0.2317  0.0724
  890MPD2    C113096   3.853   3.701  14.679 -0.5215  0.5277 -0.0040
  890MPD2    C213097   3.898   3.677  14.806  0.2686 -0.5868  0.2814
  890MPD2    C313098   3.822   3.596  14.890  0.0507  0.1133  0.4066
  890MPD2    C413099   3.706   3.540  14.849 -0.8452  0.1323 -0.0405
  890MPD2    C513100   3.656   3.573  14.728 -0.3465  0.6905 -0.9555
  890MPD2     H13101   3.992   3.712  14.847 -0.4372  0.4534  1.0181
  890MPD2    H113102   3.641   3.479  14.912 -1.7962  0.2951 -0.8700
  890MPD2    H213103   3.691   3.679  14.538 -0.8130 -0.1906  0.2653
  890MPD2    H313104   3.556   3.547  14.697  0.3606 -1.9882 -1.0066
  890MPD2     N13105   3.883   3.577  15.019 -0.6286 -0.3364 -0.1592
  890MPD2    H513106   3.975   3.619  15.031  0.5454 -2.4202 -1.8303
  890MPD2    N113107   3.940   3.772  14.582  0.0368  0.3212 -0.5737
  890MPD2    H713108   3.904   3.778  14.488 -1.2007  0.3371 -0.1036
  891MPD2     C13109   2.029   2.670  16.792 -0.5956  0.2298 -0.5354
  891MPD2    C113110   1.932   2.666  16.894 -0.0046 -0.5939  0.1132
  891MPD2    C213111   1.963   2.659  17.025  0.7669  0.1945  0.1731
  891MPD2    C313112   2.094   2.680  17.063 -0.3654 -0.2137 -0.3734
  891MPD2    C413113   2.185   2.711  16.963  0.0894 -0.1316 -0.6797
  891MPD2    C513114   2.155   2.693  16.827  0.0018  0.0055 -0.4060
  891MPD2     H13115   1.885   2.641  17.098  1.1099  0.4304  0.5927
  891MPD2    H113116   2.288   2.727  16.990  0.0314 -0.9187 -0.0053
  891MPD2    H213117   2.008   2.646  16.688 -1.0350 -0.1427 -0.3593
  891MPD2    H313118   2.232   2.686  16.750  0.5144  3.4403 -0.2399
  891MPD2     N13119   2.135   2.670  17.202  0.3467  0.1848  0.0487
  891MPD2    H513120   2.056   2.662  17.266  0.7789 -1.5078  0.3785
  891MPD2    N113121   1.796   2.667  16.860 -0.2468  0.7921 -0.5411
  891MPD2    H713122   1.770   2.671  16.762 -1.2090  0.4283 -0.2997
  892MPD2     C13123   3.168   3.416  15.172 -0.0790 -0.3130 -0.3495
  892MPD2    C113124   3.084   3.430  15.067  0.7237  0.4339  0.5201
  892MPD2    C213125   3.128   3.428  14.939  0.3955  1.0472 -0.1203
  892MPD2    C313126   3.262   3.393  14.916  0.0775  0.0310 -0.0207
  892MPD2    C413127   3.342   3.370  15.027 -0.2141  0.1143 -0.4114
  892MPD2    C513128   3.294   3.376  15.153 -0.1679  0.9133  0.4710
  892MPD2     H13129   3.054   3.443  14.862  0.2249  0.1442 -0.1300
  892MPD2    H113130   3.448   3.356  15.013 -0.1216  0.9426 -0.5634
  892MPD2    H213131   3.132   3.416  15.275 -0.3479  0.8245 -0.4455
  892MPD2    H313132   3.370   3.360  15.229 -0.3984  0.4258  0.5956
  892MPD2     N13133   3.319   3.352  14.792  0.4313  0.2781  0.2824
  892MPD2    H513134   3.410   3.308  14.796  0.2234  0.0438  2.4561
  892MPD2    N113135   2.954   3.473  15.085  0.5127 -0.9751 -0.0240
  892MPD2    H713136   2.923   3.528  15.005  2.2701 -0.7077 -0.5220
  893MPD2     C13137   0.678   1.290   1.387 -0.0499  0.5461 -0.1991
  893MPD2    C113138   0.665   1.415   1.446  0.1145 -0.0322 -0.0687
  893MPD2    C213139   0.594   1.428   1.566 -0.1419  1.2399 -0.2501
  893MPD2    C313140   0.534   1.322   1.625  0.8021 -0.2537 -0.0492
  893MPD2    C413141   0.527   1.201   1.554  0.4082  0.6552  0.6399
  893MPD2    C513142   0.603   1.190   1.438  0.4213 -0.8278 -0.3179
  893MPD2     H13143   0.610   1.520   1.621  1.2058 -0.0603  1.5081
  893MPD2    H113144   0.493   1.111   1.604 -0.9135  1.6093  1.4811
  893MPD2    H213145   0.745   1.268   1.306  0.0332 -0.0875  0.0368
  893MPD2    H313146   0.606   1.090   1.397 -1.6520 -0.8792 -0.3672
  893MPD2     N13147   0.491   1.326   1.754  0.0662  0.1210  0.7373
  893MPD2    H513148   0.458   1.240   1.797 -2.1738  1.2031  1.1605
  893MPD2    N113149   0.734   1.522   1.384 -0.4611 -0.3402  0.4133
  893MPD2    H713150   0.796   1.501   1.307  0.3925 -0.9821  1.2871
  894MPD2     C13151   2.653   3.931   0.901  0.7678  0.4217  0.4084
  894MPD2    C113152   2.616   3.958   1.032 -0.5305  0.1861 -0.2993
  894MPD2    C213153   2.648   4.080   1.091  0.6693 -0.1595 -0.2155
  894MPD2    C313154   2.719   4.175   1.021  0.2739 -0.1588 -0.7907
  894MPD2    C413155   2.759   4.153   0.892  0.0343  0.1265 -0.0604
  894MPD2    C513156   2.709   4.037   0.828 -0.0330 -0.4526 -0.1058
  894MPD2     H13157   2.602   4.106   1.186  0.2964 -0.9484 -0.1768
  894MPD2    H113158   2.808   4.230   0.833  2.1713 -0.7899  0.5230
  894MPD2    H213159   2.634   3.837   0.850  0.6697 -0.2052  1.6087
  894MPD2    H313160   2.721   4.030   0.721 -0.5001  1.2423 -0.2635
  894MPD2     N13161   2.746   4.299   1.089 -0.3369 -0.4824  0.0783
  894MPD2    H513162   2.694   4.310   1.175  1.0300 -1.0366  0.9774
  894MPD2    N113163   2.524   3.875   1.103 -0.4157 -0.6396  0.5117
  894MPD2    H713164   2.509   3.906   1.198 -0.1812 -0.0269  0.3493
  895MPD2     C13165   2.514   2.167  14.009  0.0780  0.6929 -0.4405
  895MPD2    C113166   2.429   2.170  13.899  0.1149  0.0619 -0.0779
  895MPD2    C213167   2.443   2.076  13.797  0.4873  0.4898 -0.4300
  895MPD2    C313168   2.541   1.985  13.802 -0.6688 -0.2885 -0.3380
  895MPD2    C413169   2.635   1.985  13.905  0.2396  0.1688 -0.9162
  895MPD2    C513170   2.614   2.073  14.012  0.2327 -0.8647  0.4279
  895MPD2     H13171   2.366   2.064  13.722 -0.0582 -2.4501  0.5981
  895MPD2    H113172   2.713   1.909  13.912  0.3717  0.4149  0.2406
  895MPD2    H213173   2.502   2.233  14.094 -1.3368  2.8425 -2.3165
  895MPD2    H313174   2.684   2.071  14.095  1.8109 -1.0131 -0.9236
  895MPD2     N13175   2.547   1.899  13.691 -0.2386 -0.1616 -0.2148
  895MPD2    H513176   2.471   1.899  13.624 -1.5513 -0.1651  1.2607
  895MPD2    N113177   2.324   2.266  13.885 -0.0299 -0.9959 -0.1456
  895MPD2    H713178   2.274   2.264  13.797  2.1294  1.2870 -1.4520
  896MPD2     C13179   4.440   0.377   1.767  0.3229 -0.4518 -0.4030
  896MPD2    C113180   4.423   0.358   1.630 -0.8543 -0.0727 -0.0420
  896MPD2    C213181   4.292   0.331   1.584  0.1506 -0.1289 -0.6759
  896MPD2    C313182   4.187   0.331   1.677  0.4028  0.8151  0.7841
  896MPD2    C413183   4.209   0.352   1.813  0.5756 -0.5645 -0.6130
  896MPD2    C513184   4.335   0.374   1.853 -0.2113 -0.5797  0.9955
  896MPD2     H13185   4.266   0.297   1.484 -0.3914 -3.2010  0.5021
  896MPD2    H113186   4.124   0.351   1.881  0.4727  1.4331 -0.7146
  896MPD2    H213187   4.542   0.401   1.795  0.6409 -0.1541 -1.8355
  896MPD2    H313188   4.359   0.385   1.958  0.3103  1.3962  0.6620
  896MPD2     N13189   4.058   0.308   1.628  0.3100  0.2183 -0.5391
  896MPD2    H513190   4.043   0.268   1.535 -1.3498  1.3508 -0.7668
  896MPD2    N113191   4.541   0.361   1.553 -0.3925 -0.2860 -0.1913
  896MPD2    H713192   4.626   0.372   1.607 -1.4040  1.3859  1.0515
  897MPD2     C13193   0.576   2.071   9.910 -0.9251 -0.1894 -0.7329
  897MPD2    C113194   0.543   2.172   9.994 -1.3088  1.0130 -0.5803
  897MPD2    C213195   0.461   2.145  10.103  0.1003  0.1042  0.5882
  897MPD2    C313196   0.447   2.017  10.146  0.0801  0.1056 -0.6709
  897MPD2    C413197   0.500   1.915  10.068 -0.0733 -0.0058 -0.2010
  897MPD2    C513198   0.553   1.938   9.944  0.2318  0.3958 -1.0774
  897MPD2     H13199   0.433   2.226  10.171  0.2469  0.8416 -0.2314
  897MPD2    H113200   0.490   1.810  10.090 -2.1416 -0.1689 -1.8831
  897MPD2    H213201   0.615   2.089   9.811 -1.2358 -0.8587 -0.9758
  897MPD2    H313202   0.567   1.862   9.868 -0.0652  0.6060 -1.3403
  897MPD2     N13203   0.394   1.998  10.279  0.1859 -0.2647 -0.2394
  897MPD2    H513204   0.347   2.077  10.320  0.2340 -2.0187  3.1893
  897MPD2    N113205   0.582   2.306   9.959 -0.0558  0.1823  0.1476
  897MPD2    H713206   0.640   2.316   9.876  1.3843 -0.5160  1.0891
  898MPD2     C13207   2.825   2.951   0.329  0.2727 -0.5265 -0.5935
  898MPD2    C113208   2.787   2.926   0.201 -0.2929 -0.7611 -0.5945
  898MPD2    C213209   2.751   3.037   0.119 -0.4652  0.5198 -0.0067
  898MPD2    C313210   2.769   3.161   0.168 -0.1340  0.4233  0.0088
  898MPD2    C413211   2.804   3.181   0.304 -0.0381 -0.0947 -0.1778
  898MPD2    C513212   2.830   3.072   0.384  0.2193  0.1666  0.6436
  898MPD2     H13213   2.719   3.014   0.018 -2.4577 -0.8720  0.9462
  898MPD2    H113214   2.800   3.279   0.350  0.0567  0.0162 -0.4069
  898MPD2    H213215   2.858   2.875   0.399 -0.0770 -0.1970 -0.0641
  898MPD2    H313216   2.858   3.090   0.487  0.6456  1.6804  0.2675
  898MPD2     N13217   2.745   3.273   0.085  0.4120  0.1460 -0.1440
  898MPD2    H513218   2.717   3.254  17.728  1.1457  0.1958 -0.3656
  898MPD2    N113219   2.782   2.792   0.151 -1.0838  0.0972 -0.5255
  898MPD2    H713220   2.770   2.787   0.050 -0.7692  0.2637 -0.5702
  899MPD2     C13221   3.453   3.327  17.454 -0.0894 -0.5901 -0.3402
  899MPD2    C113222   3.476   3.413  17.560  0.8821  0.2804  1.5117
  899MPD2    C213223   3.462   3.357  17.688  0.1787  0.1584  0.3254
  899MPD2    C313224   3.436   3.223  17.717 -0.4553  0.1787  0.3114
  899MPD2    C413225   3.413   3.144  17.608  0.1257  0.1538  0.4425
  899MPD2    C513226   3.425   3.195  17.480 -0.0186 -0.2552  0.3308
  899MPD2     H13227   3.465   3.425   0.034  2.4805 -1.7943  1.8137
  899MPD2    H113228   3.391   3.038  17.612  1.8232 -0.1709  1.1208
  899MPD2    H213229   3.465   3.356  17.351  2.7512  2.5847  0.8808
  899MPD2    H313230   3.415   3.132  17.392  0.7826 -1.3193  1.0136
  899MPD2     N13231   3.400   3.163   0.098 -0.4059  0.0028 -0.0248
  899MPD2    H513232   3.349   3.076   0.101  1.3926 -1.0250  1.0019
  899MPD2    N113233   3.500   3.551  17.538 -0.1593  0.1593  0.3462
  899MPD2    H713234   3.495   3.580  17.441  0.2490  0.5036  0.4305
  900MPD2     C13235   2.567   0.231  12.354 -0.0558 -0.0265  0.6788
  900MPD2    C113236   2.558   0.172  12.476  0.1318 -0.3281  0.7983
  900MPD2    C213237   2.447   0.207  12.547  0.2547 -0.1230 -0.1035
  900MPD2    C313238   2.355   0.305  12.500 -0.3152 -0.3414 -0.4151
  900MPD2    C413239   2.378   0.365  12.378 -0.2707  0.5282  0.4928
  900MPD2    C513240   2.486   0.323  12.303 -0.0964 -0.0076 -0.0150
  900MPD2     H13241   2.437   0.180  12.652 -2.5376 -1.0552 -0.6165
  900MPD2    H113242   2.324   0.453  12.347 -0.3540 -0.6373 -2.6224
  900MPD2    H213243   2.650   0.206  12.288 -0.7650  1.1386 -0.6489
  900MPD2    H313244   2.493   0.367  12.204 -0.0998  3.5869  1.5869
  900MPD2     N13245   2.248   0.338  12.589  0.3749 -0.5766  0.1697
  900MPD2    H513246   2.264   0.305  12.684  1.8632  0.2335  0.2079
  900MPD2    N113247   2.658   0.079  12.516  0.3924  0.1917  0.4627
  900MPD2    H713248   2.732   0.062  12.448  0.5826  1.4619  0.3508
  901MPD2     C13249   2.783   3.799  12.932 -0.1238  1.2258 -0.0507
  901MPD2    C113250   2.905   3.862  12.907  0.4517  0.1093  0.1282
  901MPD2    C213251   2.908   3.987  12.857 -0.6185  0.2431 -0.5339
  901MPD2    C313252   2.795   4.062  12.827  0.5921  0.4603 -0.1798
  901MPD2    C413253   2.679   4.006  12.858  0.6041  0.0430  0.0661
  901MPD2    C513254   2.669   3.871  12.892 -0.3671 -0.7581  0.1837
  901MPD2     H13255   3.007   4.028  12.842  0.3640 -1.3954  1.3832
  901MPD2    H113256   2.583   4.053  12.846  1.7446  2.1619 -0.8285
  901MPD2    H213257   2.789   3.698  12.971  2.8476  0.8028 -1.5286
  901MPD2    H313258   2.570   3.829  12.885 -0.7020 -0.3616  2.7798
  901MPD2     N13259   2.819   4.199  12.781 -0.0928 -0.4677  0.9224
  901MPD2    H513260   2.915   4.230  12.789 -0.2130  0.0691  0.2284
  901MPD2    N113261   3.028   3.807  12.947  0.2076  0.1874  0.4088
  901MPD2    H713262   3.036   3.708  12.969  0.3308  0.3390  1.0372
  902MPD2     C13263   2.734   3.111  12.950 -0.5310  0.0454  0.4578
  902MPD2    C113264   2.722   3.137  12.820  0.1148 -0.0709  0.1920
  902MPD2    C213265   2.803   3.076  12.730  0.0839 -0.3971 -0.0161
  902MPD2    C313266   2.898   2.981  12.767  0.0354 -0.0535  0.5728
  902MPD2    C413267   2.906   2.957  12.900 -0.8880  0.5112 -0.4848
  902MPD2    C513268   2.830   3.022  12.995  0.4870  0.5973 -0.4945
  902MPD2     H13269   2.792   3.085  12.622  0.4223 -0.7471 -0.0830
  902MPD2    H113270   2.978   2.882  12.929  0.5614  2.0079 -0.1885
  902MPD2    H213271   2.671   3.155  13.027  1.2117 -2.3792  3.2670
  902MPD2    H313272   2.850   2.996  13.098 -0.6371  0.2659 -0.3648
  902MPD2     N13273   2.984   2.916  12.677 -0.2046  0.2971  0.2343
  902MPD2    H513274   3.037   2.836  12.708 -0.1917  0.7915  1.4534
  902MPD2    N113275   2.615   3.221  12.772  0.0819  0.0986 -0.2885
  902MPD2    H713276   2.566   3.277  12.841 -1.2636  0.7465 -1.7790
  903MPD2     C13277   2.870   3.263  12.116  0.2182 -0.4714 -0.2235
  903MPD2    C113278   2.863   3.127  12.123 -0.0721  0.4450 -0.1018
  903MPD2    C213279   2.737   3.077  12.093  0.9366  0.0047 -0.4777
  903MPD2    C313280   2.624   3.158  12.059  0.3162  0.5440 -0.5863
  903MPD2    C413281   2.645   3.292  12.048 -0.8174 -0.4588  0.5764
  903MPD2    C513282   2.767   3.343  12.078  0.6774  0.3210  0.1686
  903MPD2     H13283   2.712   2.972  12.103  3.1437 -0.3210  1.6306
  903MPD2    H113284   2.564   3.361  12.028 -0.2655  0.7771  2.5492
  903MPD2    H213285   2.963   3.312  12.143 -0.7641  1.5680 -0.5617
  903MPD2    H313286   2.782   3.450  12.082 -1.9222  0.8054 -2.9874
  903MPD2     N13287   2.496   3.094  12.049 -0.5004  0.0352  0.0913
  903MPD2    H513288   2.489   2.997  12.080  0.2661  0.4211  1.5222
  903MPD2    N113289   2.975   3.041  12.140  0.5187  0.1584  0.4383
  903MPD2    H713290   3.048   3.097  12.183 -0.0467 -0.5787  2.3378
  904MPD2     C13291   2.648   1.852  14.316 -0.6782  0.5578  0.0566
  904MPD2    C113292   2.618   1.793  14.198 -0.1531  0.2430  0.3675
  904MPD2    C213293   2.723   1.733  14.129  0.1195  0.0118 -0.0173
  904MPD2    C313294   2.850   1.718  14.180 -0.1626  0.8009  0.1054
  904MPD2    C413295   2.873   1.769  14.307  0.2829 -0.4629 -0.1255
  904MPD2    C513296   2.776   1.832  14.371  0.3159  0.2018  0.6616
  904MPD2     H13297   2.696   1.691  14.032  0.6483  0.3120 -0.2966
  904MPD2    H113298   2.971   1.773  14.355  0.2784 -1.9609 -0.0113
  904MPD2    H213299   2.574   1.896  14.382  0.4156  0.2281  1.4990
  904MPD2    H313300   2.808   1.862  14.470 -0.8213  0.0999  1.0627
  904MPD2     N13301   2.945   1.646  14.110 -0.7294 -0.0631 -0.4484
  904MPD2    H513302   2.907   1.597  14.029  0.1465  0.0711 -0.9362
  904MPD2    N113303   2.489   1.792  14.136  0.3952  0.1157 -0.2678
  904MPD2    H713304   2.474   1.730  14.057 -0.0690  0.1976 -0.2464
  905MPD2     C13305   1.912   1.630  13.514 -0.1641  0.0271  0.6943
  905MPD2    C113306   2.030   1.684  13.563  0.2455 -0.1088 -0.3646
  905MPD2    C213307   2.128   1.716  13.467 -0.5616  0.4029 -0.2472
  905MPD2    C313308   2.120   1.673  13.337  0.5223  0.5564  0.1144
  905MPD2    C413309   2.011   1.603  13.290 -0.3048  0.6138  0.2187
  905MPD2    C513310   1.901   1.594  13.384  0.0453  0.2265 -0.1692
  905MPD2     H13311   2.209   1.785  13.491 -0.2659  0.0347 -0.1997
  905MPD2    H113312   2.007   1.567  13.188  1.2028 -0.1851  0.4480
  905MPD2    H213313   1.821   1.624  13.572 -0.7867 -0.7012 -0.3437
  905MPD2    H313314   1.811   1.544  13.350  0.2183 -0.0752 -0.1764
  905MPD2     N13315   2.228   1.694  13.249 -0.3952  0.2342 -0.2176
  905MPD2    H513316   2.210   1.677  13.151  1.6706  1.6874 -0.8409
  905MPD2    N113317   2.054   1.727  13.701  0.0315  0.2366  0.5213
  905MPD2    H713318   1.980   1.695  13.763 -1.2252 -1.0019 -1.6379
  906MPD2     C13319   3.907   2.124  11.525 -0.3586  0.4527  0.3827
  906MPD2    C113320   3.888   2.009  11.449 -0.3812  0.2937  0.1605
  906MPD2    C213321   3.793   1.921  11.489  0.8201  0.1879 -0.6505
  906MPD2    C313322   3.720   1.943  11.610 -0.3997 -0.5556  0.5995
  906MPD2    C413323   3.737   2.060  11.687  0.1994  0.1140 -0.0341
  906MPD2    C513324   3.834   2.147  11.641  0.4527  0.1228 -0.3330
  906MPD2     H13325   3.772   1.840  11.420  1.8877 -0.1584 -0.5818
  906MPD2    H113326   3.679   2.080  11.777 -1.3595  0.3000 -1.0665
  906MPD2    H213327   3.984   2.198  11.503 -0.1041 -0.3192 -1.3160
  906MPD2    H313328   3.851   2.243  11.690 -1.0779 -0.7682  1.9864
  906MPD2     N13329   3.624   1.851  11.638  0.6059  0.4782  0.4323
  906MPD2    H513330   3.604   1.782  11.566 -2.0837  1.3306  0.3915
  906MPD2    N113331   3.950   1.990  11.324  0.4236 -0.0973 -0.0765
  906MPD2    H713332   3.927   1.906  11.272  1.2190  0.3202 -1.1060
  907MPD2     C13333   2.484   1.308  15.909 -0.6205  0.5864 -0.0739
  907MPD2    C113334   2.591   1.303  15.831  0.4307  0.0102  0.1545
  907MPD2    C213335   2.724   1.280  15.882  0.5142  0.3288 -0.2600
  907MPD2    C313336   2.738   1.248  16.018  0.3090 -0.2260  0.6811
  907MPD2    C413337   2.627   1.255  16.103 -0.7073 -0.0197 -0.2105
  907MPD2    C513338   2.500   1.282  16.042  0.0244 -0.5602  0.3513
  907MPD2     H13339   2.812   1.289  15.821  2.4640 -1.4367  2.3030
  907MPD2    H113340   2.633   1.232  16.208 -3.1512  0.8715  0.1414
  907MPD2    H213341   2.381   1.315  15.876 -0.2576  1.2770 -1.0598
  907MPD2    H313342   2.412   1.273  16.106 -0.6856  0.3538 -0.4954
  907MPD2     N13343   2.870   1.240  16.058  0.6118  0.1643 -0.1768
  907MPD2    H513344   2.944   1.220  15.992  1.2431  1.5426  0.1089
  907MPD2    N113345   2.577   1.320  15.686  0.3894  0.3964 -0.0438
  907MPD2    H713346   2.646   1.298  15.615 -1.3047 -0.0569 -1.5397
  908MPD2     C13347   0.922   2.482   9.217 -0.0826 -0.4011  0.2027
  908MPD2    C113348   0.918   2.380   9.312  0.1880  0.9794 -0.0203
  908MPD2    C213349   0.867   2.402   9.441  0.2147 -0.2622  0.0740
  908MPD2    C313350   0.819   2.528   9.473 -0.4624 -0.3836 -0.0184
  908MPD2    C413351   0.827   2.631   9.377  1.1024 -0.3478 -0.2780
  908MPD2    C513352   0.886   2.606   9.255  0.0403 -0.9078 -0.7507
  908MPD2     H13353   0.862   2.318   9.510  0.7176  1.0620  1.7111
  908MPD2    H113354   0.793   2.733   9.391  1.2758 -0.2626 -0.4805
  908MPD2    H213355   0.977   2.478   9.124  1.7027 -0.2409  1.2351
  908MPD2    H313356   0.878   2.675   9.172 -0.0883 -0.9417 -0.7666
  908MPD2     N13357   0.782   2.544   9.607  0.0401  0.2842  0.0033
  908MPD2    H513358   0.789   2.461   9.666 -1.4792  1.0258  1.2206
  908MPD2    N113359   0.983   2.258   9.266 -0.4063  0.5146 -0.0484
  908MPD2    H713360   1.021   2.270   9.173  3.6269 -0.9916  1.4298
  909MPD2     C13361   1.149   0.044  11.549 -0.1627 -0.0947  1.0611
  909MPD2    C113362   1.171   0.179  11.567 -0.0738 -0.0768 -0.4026
  909MPD2    C213363   1.084   0.242  11.659 -0.4197  0.5398 -0.8561
  909MPD2    C313364   0.982   0.164  11.725  0.4101  0.6909 -0.4268
  909MPD2    C413365   0.968   0.029  11.703  0.8576 -0.2329 -0.8248
  909MPD2    C513366   1.047   4.709  11.610  0.1553  0.1327  0.9728
  909MPD2     H13367   1.080   0.349  11.677  0.7271  0.6040 -0.9841
  909MPD2    H113368   0.891   4.701  11.747  2.4246 -0.6747  1.2420
  909MPD2    H213369   1.206   4.732  11.470 -1.5899 -1.2691  0.7366
  909MPD2    H313370   1.047   4.602  11.591  1.9954  0.5171 -1.1715
  909MPD2     N13371   0.894   0.235  11.810  0.6670  0.0221  0.2031
  909MPD2    H513372   0.899   0.336  11.807  0.0700  0.1107  2.4332
  909MPD2    N113373   1.272   0.248  11.501 -0.4173  0.1484  0.4501
  909MPD2    H713374   1.260   0.349  11.495 -1.3550  0.1285  2.1691
  910MPD2     C13375   2.020   2.099  16.328  0.0991  0.1929 -0.6616
  910MPD2    C113376   2.091   2.010  16.249 -0.2792 -0.8499  0.3070
  910MPD2    C213377   2.077   2.021  16.115 -0.2612 -0.1959  1.2345
  910MPD2    C313378   2.012   2.131  16.060 -0.8004 -0.4195 -0.7807
  910MPD2    C413379   1.951   2.223  16.141  0.0926 -0.3614  0.3616
  910MPD2    C513380   1.947   2.202  16.276 -0.0671 -0.3450  0.0317
  910MPD2     H13381   2.138   1.956  16.053  1.7493  2.5209  0.3669
  910MPD2    H113382   1.888   2.300  16.099 -2.1479 -2.6431 -0.4547
  910MPD2    H213383   2.025   2.099  16.436 -2.1193 -0.0751 -0.5634
  910MPD2    H313384   1.894   2.271  16.342 -1.9098 -1.6454 -0.0888
  910MPD2     N13385   2.003   2.150  15.924  0.1493  0.2569 -0.6967
  910MPD2    H513386   1.947   2.229  15.893 -1.0052  0.2315  1.3265
  910MPD2    N113387   2.172   1.903  16.308  0.0013 -0.5083 -0.1529
  910MPD2    H713388   2.224   1.842  16.246  0.1031  1.7993 -2.3266
  911MPD2     C13389   0.032   2.194  16.615 -0.7579 -0.2859  0.7121
  911MPD2    C113390   0.088   2.312  16.658 -1.2704  0.4142  0.2010
  911MPD2    C213391   0.026   2.429  16.646 -0.1242 -0.1810 -0.1511
  911MPD2    C313392   4.643   2.434  16.568 -0.0108  0.0324 -0.5897
  911MPD2    C413393   4.585   2.321  16.508 -0.0359  0.1246  0.1657
  911MPD2    C513394   4.645   2.201  16.547  1.1836  1.0834  0.6444
  911MPD2     H13395   0.068   2.526  16.674  0.5514 -0.5220  0.0175
  911MPD2    H113396   4.484   2.329  16.469 -0.0507  2.4232  0.6673
  911MPD2    H213397   0.074   2.095  16.626 -0.3586 -0.2512 -0.5790
  911MPD2    H313398   4.600   2.105  16.525  1.8473  0.7882  0.5833
  911MPD2     N13399   4.557   2.544  16.554 -0.0295  0.6882 -0.1012
  911MPD2    H513400   4.482   2.537  16.486 -1.9128 -2.0982  2.2776
  911MPD2    N113401   0.217   2.301  16.711  0.2934  0.1006  0.3968
  911MPD2    H713402   0.257   2.207  16.710 -2.6833 -1.1632 -3.1847
  912MPD2     C13403   4.578   2.453  16.073  0.2749  0.4305 -0.0258
  912MPD2    C113404   4.469   2.448  16.151 -0.0413  0.2681 -0.2369
  912MPD2    C213405   4.412   2.328  16.190  0.2588  0.6339  0.2061
  912MPD2    C313406   4.470   2.208  16.148 -0.2490 -0.4622 -0.6000
  912MPD2    C413407   4.566   2.217  16.045  0.2976 -0.0047 -0.4386
  912MPD2    C513408   4.625   2.336  16.013  0.0117  0.7191 -0.0914
  912MPD2     H13409   4.336   2.317  16.266  1.1741 -0.4662  0.9715
  912MPD2    H113410   4.592   2.126  15.992 -1.7538 -0.6046 -0.4301
  912MPD2    H213411   4.641   2.540  16.059 -0.4454  0.8418 -0.7519
  912MPD2    H313412   4.704   2.345  15.939  0.3141  0.9648  0.2645
  912MPD2     N13413   4.423   2.081  16.202 -0.6258 -0.7910 -0.1658
  912MPD2    H513414   4.352   2.077  16.274  0.0661  0.4681  0.5824
  912MPD2    N113415   4.418   2.573  16.192 -0.3627 -0.0117 -0.2145
  912MPD2    H713416   4.469   2.656  16.164  2.3206 -1.3765  0.6669
  913MPD2     C13417   1.562   4.211  10.666 -1.0881 -0.7765 -0.7665
  913MPD2    C113418   1.424   4.196  10.692  0.2950  0.1331  0.2808
  913MPD2    C213419   1.327   4.286  10.662 -0.3917  0.1635  0.2222
  913MPD2    C313420   1.366   4.405  10.597  0.6421 -0.1496 -0.7913
  913MPD2    C413421   1.497   4.418  10.561 -0.2441  0.0684  0.3542
  913MPD2    C513422   1.598   4.323  10.593  0.6702  0.1800 -0.1992
  913MPD2     H13423   1.224   4.251  10.665 -0.3301 -0.2006 -1.9413
  913MPD2    H113424   1.536   4.504  10.507  1.0179  0.7648  2.3688
  913MPD2    H213425   1.642   4.142  10.688  1.0647  1.3832 -1.9082
  913MPD2    H313426   1.697   4.324  10.548  0.6802  2.8681 -0.1123
  913MPD2     N13427   1.272   4.502  10.556 -0.0436  0.1548  0.5825
  913MPD2    H513428   1.310   4.582  10.506 -0.5774  0.2111  0.2620
  913MPD2    N113429   1.397   4.072  10.756  0.5800 -0.3373 -0.4430
  913MPD2    H713430   1.479   4.011  10.759  0.0346 -0.8960  3.3310
  914MPD2     C13431   3.283   3.483  12.223 -0.0912  0.5758  0.1824
  914MPD2    C113432   3.180   3.560  12.272 -0.1140  0.2379 -0.5768
  914MPD2    C213433   3.182   3.595  12.406 -0.6177 -0.6098  0.1354
  914MPD2    C313434   3.276   3.533  12.488 -0.3406 -0.3327  0.4519
  914MPD2    C413435   3.373   3.453  12.436  0.1349  1.2548  0.1140
  914MPD2    C513436   3.378   3.430  12.300 -0.1386  0.2377  0.4466
  914MPD2     H13437   3.108   3.664  12.447  1.1492 -0.5427  3.1762
  914MPD2    H113438   3.457   3.417  12.496 -0.0180  0.7656  0.0388
  914MPD2    H213439   3.280   3.459  12.118 -0.5020  0.5039  0.2117
  914MPD2    H313440   3.452   3.370  12.249 -1.9317 -0.7352 -1.0279
  914MPD2     N13441   3.286   3.575  12.625  0.5076 -0.5219 -0.5992
  914MPD2    H513442   3.217   3.647  12.647 -1.0072 -1.6810 -1.5269
  914MPD2    N113443   3.076   3.606  12.188 -0.0341  0.1100 -0.1657
  914MPD2    H713444   3.070   3.565  12.095 -0.0628 -0.0701 -0.0853
  915MPD2     C13445   1.042   3.875  15.705 -0.0669 -0.7757  1.1500
  915MPD2    C113446   0.916   3.930  15.714 -0.1205  0.0774 -1.3609
  915MPD2    C213447   0.902   4.036  15.801  0.3853 -0.0364 -0.1969
  915MPD2    C313448   1.007   4.089  15.868  0.1929 -0.5262 -0.3383
  915MPD2    C413449   1.136   4.029  15.855 -0.3787  0.6947  0.1177
  915MPD2    C513450   1.144   3.918  15.778  0.5165  0.3271 -0.0195
  915MPD2     H13451   0.820   4.105  15.815  0.3872  0.2525 -1.5577
  915MPD2    H113452   1.215   4.066  15.918 -0.9594 -0.2871  1.4333
  915MPD2    H213453   1.064   3.788  15.644  1.5714  0.0128  0.6219
  915MPD2    H313454   1.243   3.874  15.782 -0.4161 -1.9876 -2.3274
  915MPD2     N13455   0.985   4.201  15.948 -0.1894  0.3457  0.0812
  915MPD2    H513456   0.888   4.225  15.968 -0.2210 -0.4920  0.9423
  915MPD2    N113457   0.817   3.869  15.635 -0.5694  0.6077 -0.3308
  915MPD2    H713458   0.838   3.781  15.589 -1.3634  1.1244 -1.6636
  916MPD2     C13459   4.162   2.209  15.957 -0.0775 -0.2033  0.2396
  916MPD2    C113460   4.130   2.080  15.976  0.1566 -0.3188 -0.2608
  916MPD2    C213461   4.220   1.987  15.923  0.4531 -0.4227  0.0594
  916MPD2    C313462   4.323   2.024  15.843  0.3696 -0.0554 -0.4058
  916MPD2    C413463   4.345   2.161  15.815  1.0296 -0.0850  0.3942
  916MPD2    C513464   4.263   2.249  15.871 -0.6030  0.3543 -0.2622
  916MPD2     H13465   4.211   1.881  15.946 -1.1212 -0.8465 -2.4815
  916MPD2    H113466   4.427   2.195  15.752  1.4583 -0.3193  0.8214
  916MPD2    H213467   4.087   2.281  15.987  2.2910  0.7367  3.8991
  916MPD2    H313468   4.267   2.354  15.842 -0.2730  0.1819 -0.8446
  916MPD2     N13469   4.410   1.924  15.813 -0.3711 -0.6878  0.1093
  916MPD2    H513470   4.376   1.832  15.837 -0.3542 -0.7217  0.0040
  916MPD2    N113471   4.024   2.065  16.072 -0.0191  0.5016 -0.3375
  916MPD2    H713472   3.969   2.144  16.104 -1.8418 -0.2007 -1.7050
  917MPD2     C13473   4.379   4.334  11.042  0.5825 -0.5676  0.4970
  917MPD2    C113474   4.413   4.408  11.148  0.2665  0.8490  0.0799
  917MPD2    C213475   4.513   4.499  11.134  0.4980  0.4022 -0.1754
  917MPD2    C313476   4.564   4.519  11.007  0.5647 -0.2631  0.0462
  917MPD2    C413477   4.537   4.437  10.898 -0.6206  0.1611  0.1466
  917MPD2    C513478   4.451   4.336  10.920 -0.3731 -0.4482 -0.6329
  917MPD2     H13479   4.548   4.548  11.224  3.2339 -0.3024 -0.8587
  917MPD2    H113480   4.583   4.447  10.800 -0.5016 -1.0979  0.0760
  917MPD2    H213481   4.308   4.254  11.059  0.5436 -0.0674  2.7441
  917MPD2    H313482   4.433   4.256  10.848 -0.6161 -0.0812 -0.9816
  917MPD2     N13483   4.649   4.629  10.974 -0.6019  0.1247 -0.1262
  917MPD2    H513484   4.682   4.634  10.878 -0.2732 -2.3107 -0.1553
  917MPD2    N113485   4.326   4.403  11.262  1.3254  0.2210  0.2892
  917MPD2    H713486   4.255   4.331  11.266  3.5248 -1.9164  0.7642
  918MPD2     C13487   4.364   4.724  12.244  0.7240 -0.2321 -0.2641
  918MPD2    C113488   4.460   4.686  12.153 -0.0805  0.2551 -0.1879
  918MPD2    C213489   4.429   4.655  12.020 -0.3395  0.1257 -0.5414
  918MPD2    C313490   4.293   4.662  11.975 -0.1690 -0.2387  0.4050
  918MPD2    C413491   4.193   4.694  12.067  0.2883 -0.1769 -0.2327
  918MPD2    C513492   4.231   4.726  12.202 -0.1687 -0.7889  0.8039
  918MPD2     H13493   4.510   4.618  11.958  0.6785  0.4051  0.6217
  918MPD2    H113494   4.087   4.700  12.044  0.1316  1.2638  0.9169
  918MPD2    H213495   4.373   0.019  12.347 -0.3314  0.7663 -0.4615
  918MPD2    H313496   4.153   0.013  12.274  1.6240  0.2745  2.3983
  918MPD2     N13497   4.260   4.623  11.844  0.3179  0.4726  0.1930
  918MPD2    H513498   4.341   4.601  11.787  1.4126  0.6825  1.6593
  918MPD2    N113499   4.596   4.685  12.185 -0.0343  0.3824  0.8166
  918MPD2    H713500   4.658   4.666  12.108  1.0465 -1.8284  2.2465
  919MPD2     C13501   0.225   3.433  11.180 -0.1234 -0.1241  0.7773
  919MPD2    C113502   0.243   3.303  11.211  1.3811  0.3742  0.3277
  919MPD2    C213503   0.274   3.206  11.118 -0.1996 -0.1814 -0.5441
  919MPD2    C313504   0.297   3.249  10.988 -0.1003  0.1977 -0.1955
  919MPD2    C413505   0.281   3.380  10.957  0.0008  0.0044  0.1600
  919MPD2    C513506   0.240   3.470  11.048 -0.5905 -0.5361  0.0285
  919MPD2     H13507   0.274   3.103  11.151  0.3004  0.2680  0.8775
  919MPD2    H113508   0.295   3.410  10.853  1.8098 -1.2377  0.0403
  919MPD2    H213509   0.209   3.506  11.258 -0.4560  0.1656  0.4397
  919MPD2    H313510   0.216   3.572  11.018 -0.1189 -0.0086  1.4071
  919MPD2     N13511   0.337   3.161  10.886 -0.5085 -0.3423 -0.7540
  919MPD2    H513512   0.364   3.201  10.797  0.7769 -0.2253 -0.3080
  919MPD2    N113513   0.228   3.261  11.346  0.9901 -0.1882 -0.3852
  919MPD2    H713514   0.244   3.163  11.371 -0.7127 -0.9651 -2.4422
  920MPD2     C13515   0.333   3.360  10.056  0.0614 -0.7438 -0.1540
  920MPD2    C113516   0.290   3.404  10.177 -0.1667  0.1030  0.5299
  920MPD2    C213517   0.288   3.319  10.285 -0.3740  0.2449  0.4296
  920MPD2    C313518   0.347   3.197  10.277  1.0043 -0.1240  0.4563
  920MPD2    C413519   0.394   3.154  10.157 -0.6936 -0.6231 -0.8292
  920MPD2    C513520   0.382   3.233  10.044 -0.6831 -0.3629  0.0947
  920MPD2     H13521   0.255   3.360  10.380  1.0128 -0.2544  1.1335
  920MPD2    H113522   0.434   3.054  10.143  0.3195  0.5159 -5.7450
  920MPD2    H213523   0.320   3.411   9.962  0.4358  1.6932  1.1119
  920MPD2    H313524   0.402   3.196   9.944  0.4273 -1.2517  0.6433
  920MPD2     N13525   0.363   3.123  10.400  0.0841 -0.3062  0.6426
  920MPD2    H513526   0.333   3.172  10.483 -1.1383  0.3815 -0.2146
  920MPD2    N113527   0.211   3.522  10.185  0.3850  0.1980 -0.3075
  920MPD2    H713528   0.159   3.531  10.272  1.2260 -0.8466  0.2906
  921MPD2     C13529   1.016   2.736  17.204 -0.4197  0.2614 -0.2153
  921MPD2    C113530   1.041   2.629  17.129 -0.0312 -0.0565 -0.3040
  921MPD2    C213531   0.936   2.541  17.092  0.3002  0.7154  0.1054
  921MPD2    C313532   0.808   2.566  17.129 -1.3983 -0.4496 -0.5304
  921MPD2    C413533   0.790   2.671  17.214 -0.1995  0.6275 -0.2521
  921MPD2    C513534   0.891   2.746  17.251 -0.6057  0.0488 -0.2855
  921MPD2     H13535   0.956   2.469  17.014  1.4914  1.4762 -0.2830
  921MPD2    H113536   0.693   2.691  17.258  0.2497 -0.2009  1.1007
  921MPD2    H213537   1.096   2.801  17.238  1.4959 -1.7373 -0.9228
  921MPD2    H313538   0.872   2.824  17.323  2.8048 -0.2927  0.9914
  921MPD2     N13539   0.705   2.492  17.075 -0.7078  0.5109 -0.1866
  921MPD2    H513540   0.616   2.523  17.110 -0.3619 -0.8478  1.8634
  921MPD2    N113541   1.172   2.621  17.081 -0.4378  0.5601  0.3155
  921MPD2    H713542   1.232   2.701  17.100  1.0182 -0.3785 -0.2648
  922MPD2     C13543   1.554   0.534  17.351 -0.2587  0.1017  0.4336
  922MPD2    C113544   1.471   0.534  17.464  0.2133  0.2450 -0.4542
  922MPD2    C213545   1.445   0.412  17.527  0.0213  0.0501 -0.3973
  922MPD2    C313546   1.497   0.296  17.481  0.2323  0.0060  0.1958
  922MPD2    C413547   1.584   0.298  17.371  0.6184  0.0659  0.3381
  922MPD2    C513548   1.606   0.413  17.303  0.7873  0.6838 -0.0249
  922MPD2     H13549   1.368   0.411  17.603 -0.3434  2.3342 -0.7399
  922MPD2    H113550   1.607   0.203  17.324 -0.0830 -0.3047  0.7426
  922MPD2    H213551   1.586   0.627  17.304 -0.1463  0.4042  1.1151
  922MPD2    H313552   1.677   0.412  17.221  0.4746 -1.1695 -0.2668
  922MPD2     N13553   1.444   0.174  17.525  0.2659 -0.5067 -0.0994
  922MPD2    H513554   1.363   0.184  17.586 -1.2770  3.4539 -2.7992
  922MPD2    N113555   1.430   0.651  17.538  0.4874  0.0734 -0.0515
  922MPD2    H713556   1.376   0.630  17.621  2.0161 -3.0790  0.1757
  923MPD2     C13557   2.892   2.282   8.929  0.4463  0.0867 -0.1590
  923MPD2    C113558   2.886   2.406   8.982  0.1879 -0.0648  0.3738
  923MPD2    C213559   2.969   2.441   9.087 -0.5684 -0.1192 -0.5637
  923MPD2    C313560   3.063   2.346   9.137 -0.0930  0.2042 -0.2092
  923MPD2    C413561   3.072   2.227   9.077 -0.3119  1.0331 -0.7639
  923MPD2    C513562   2.986   2.192   8.976  0.5874  0.2351 -1.2228
  923MPD2     H13563   2.965   2.538   9.135 -0.0500  0.4293 -1.6271
  923MPD2    H113564   3.150   2.160   9.110  0.2004  1.8318 -0.3490
  923MPD2    H213565   2.827   2.248   8.849  1.2445 -1.4497 -0.1636
  923MPD2    H313566   2.996   2.094   8.932 -2.6484 -0.7158  0.1184
  923MPD2     N13567   3.136   2.366   9.258 -0.0733 -0.5306 -0.3604
  923MPD2    H513568   3.175   2.285   9.306 -0.6132  0.2320  1.3670
  923MPD2    N113569   2.782   2.489   8.933  0.1863  0.0765 -0.0709
  923MPD2    H713570   2.710   2.450   8.873  1.0320 -2.9203  0.8511
  924MPD2     C13571   3.297   0.489  16.527  0.5088  0.1820  0.8688
  924MPD2    C113572   3.173   0.532  16.483 -0.7491  0.4515 -1.1782
  924MPD2    C213573   3.167   0.655  16.420  0.2069 -0.5540  0.3293
  924MPD2    C313574   3.289   0.725  16.403 -0.4818 -0.1917 -0.0039
  924MPD2    C413575   3.414   0.676  16.438  0.3641 -0.4508 -0.7728
  924MPD2    C513576   3.416   0.559  16.505 -0.1490 -0.4368 -0.1694
  924MPD2     H13577   3.075   0.705  16.392  1.0495 -0.0252 -1.5022
  924MPD2    H113578   3.507   0.725  16.414  1.4863 -1.4905  1.4129
  924MPD2    H213579   3.307   0.400  16.587  4.3184 -0.3426 -0.5387
  924MPD2    H313580   3.508   0.527  16.552 -1.4446 -0.4398  2.3220
  924MPD2     N13581   3.293   0.846  16.335 -0.3696  0.4340  0.4426
  924MPD2    H513582   3.382   0.895  16.335  0.5588 -1.2578  1.4083
  924MPD2    N113583   3.056   0.473  16.535  0.1457  0.0140  0.1476
  924MPD2    H713584   3.064   0.405  16.610 -0.3484  0.7756  0.8937
  925MPD2     C13585   1.429   3.106  14.610 -0.2939  0.2223  0.7504
  925MPD2    C113586   1.490   2.982  14.593 -0.1766  0.3009 -0.0272
  925MPD2    C213587   1.519   2.906  14.709  0.4225  0.0174  0.8207
  925MPD2    C313588   1.468   2.934  14.833 -0.6482 -0.4172 -0.4518
  925MPD2    C413589   1.395   3.050  14.845 -1.2092 -0.6621 -0.3279
  925MPD2    C513590   1.376   3.134  14.738 -0.5552 -0.1468  0.1571
  925MPD2     H13591   1.575   2.816  14.689 -1.3856 -1.3519  1.8698
  925MPD2    H113592   1.369   3.080  14.945 -0.2124 -0.5517 -0.1063
  925MPD2    H213593   1.423   3.177  14.528  0.7919 -1.3366 -0.6825
  925MPD2    H313594   1.324   3.229  14.749 -0.4939 -0.2565  1.4505
  925MPD2     N13595   1.481   2.853  14.945  0.2328  0.5097 -0.2174
  925MPD2    H513596   1.433   2.880  15.030 -1.5051 -1.2166 -0.6508
  925MPD2    N113597   1.547   2.928  14.473 -1.2332 -0.5473 -0.5064
  925MPD2    H713598   1.610   2.849  14.476 -0.5610  0.1088  2.4835
  926MPD2     C13599   0.509   1.141  13.017 -0.5294  0.1338  0.2330
  926MPD2    C113600   0.561   1.247  13.094  0.0197 -0.1527  0.3371
  926MPD2    C213601   0.663   1.317  13.037 -0.0459 -0.1128  0.8097
  926MPD2    C313602   0.715   1.292  12.911  0.0424 -0.5061  0.4163
  926MPD2    C413603   0.661   1.188  12.836 -0.4077  0.3899 -0.5165
  926MPD2    C513604   0.563   1.116  12.895 -0.5999 -0.3334 -0.3335
  926MPD2     H13605   0.692   1.411  13.085 -1.0045  1.8624 -2.4747
  926MPD2    H113606   0.678   1.171  12.730 -0.9811 -1.9112 -0.2324
  926MPD2    H213607   0.419   1.088  13.045 -1.0084  1.0162  0.3698
  926MPD2    H313608   0.506   1.037  12.847  1.9960 -0.5408 -3.0668
  926MPD2     N13609   0.800   1.387  12.852  0.1387  0.2048 -0.1152
  926MPD2    H513610   0.825   1.374  12.755  0.2185  1.9863 -0.3230
  926MPD2    N113611   0.532   1.278  13.227 -0.3533 -0.0112  0.3945
  926MPD2    H713612   0.576   1.358  13.271  0.6684  0.4114 -1.3943
  927MPD2     C13613   4.578   3.911   0.355 -0.2395  0.5025 -0.6090
  927MPD2    C113614   4.579   3.813   0.263 -0.4568 -0.0164  0.3184
  927MPD2    C213615   4.628   3.841   0.138  0.0933  0.5710 -0.0240
  927MPD2    C313616   4.681   3.965   0.106 -0.9883  0.0840  0.2147
  927MPD2    C413617   4.677   4.059   0.200  0.4087 -0.6801 -0.5516
  927MPD2    C513618   4.634   4.033   0.328  0.7387 -0.6096  0.1519
  927MPD2     H13619   4.627   3.767   0.059  1.3602 -0.0795  0.5705
  927MPD2    H113620   4.692   4.166   0.189  0.2916 -0.7200 -1.0881
  927MPD2    H213621   4.529   3.910   0.452  0.4536  0.5171 -0.2593
  927MPD2    H313622   4.621   4.109   0.404  0.2626 -2.0915  1.5579
  927MPD2     N13623   0.001   3.993  17.712  0.1370  0.0689 -0.8820
  927MPD2    H513624   4.724   3.932  17.632 -0.5282 -0.3339 -0.4764
  927MPD2    N113625   4.547   3.684   0.311  0.2067 -0.5258 -0.3765
  927MPD2    H713626   4.508   3.672   0.404  0.2886  0.3067 -0.2371
  928MPD2     C13627   3.122   1.655   1.190  0.4308  0.5369 -0.0694
  928MPD2    C113628   3.137   1.793   1.162 -0.8833  0.0120 -0.4203
  928MPD2    C213629   3.202   1.835   1.048 -0.6471  0.0363 -0.4249
  928MPD2    C313630   3.246   1.753   0.957 -0.0478 -0.0337 -0.2451
  928MPD2    C413631   3.223   1.618   0.979  0.3593  0.4936 -0.8280
  928MPD2    C513632   3.164   1.568   1.094 -0.6379  0.5528  0.6556
  928MPD2     H13633   3.222   1.941   1.045 -1.1673  0.1269 -0.7403
  928MPD2    H113634   3.241   1.549   0.898 -0.5587 -1.1919  0.4176
  928MPD2    H213635   3.076   1.615   1.281 -2.6143  0.2582 -1.7237
  928MPD2    H313636   3.143   1.463   1.111  0.0896  0.4391  0.8170
  928MPD2     N13637   3.331   1.781   0.849  0.0020  0.0150  0.5961
  928MPD2    H513638   3.367   1.704   0.794 -3.6919 -1.5797  0.4127
  928MPD2    N113639   3.090   1.885   1.259  0.4315  0.5887  0.0192
  928MPD2    H713640   3.069   1.841   1.348  0.5195 -1.0319 -0.7627
  929MPD2     C13641   2.943   2.791   9.882  0.4963 -0.5027  0.6726
  929MPD2    C113642   2.860   2.717   9.968 -0.1623  0.0394  0.3053
  929MPD2    C213643   2.753   2.785  10.018 -0.5925 -0.0177 -0.0703
  929MPD2    C313644   2.742   2.924  10.000  0.1635  0.6631  0.3048
  929MPD2    C413645   2.821   2.989   9.917  0.0103 -0.0321  0.3647
  929MPD2    C513646   2.923   2.922   9.849 -0.0141 -0.1290  0.4644
  929MPD2     H13647   2.698   2.743  10.102  0.5128  0.1610  0.7503
  929MPD2    H113648   2.815   3.096   9.903  0.0683  0.2319  2.3548
  929MPD2    H213649   3.034   2.744   9.847  1.2665  1.6927 -0.2251
  929MPD2    H313650   2.989   2.977   9.784  0.5815 -3.1687 -1.4868
  929MPD2     N13651   2.628   3.006  10.049 -0.0662  0.0135 -0.2371
  929MPD2    H513652   2.623   3.106  10.033 -2.5072  0.1407  1.3982
  929MPD2    N113653   2.889   2.588  10.002 -0.1025  0.3249  0.4715
  929MPD2    H713654   2.976   2.545   9.974  0.0774  0.7992  0.3123
  930MPD2     C13655   0.683   4.387  14.258  0.3282  0.5533  0.3507
  930MPD2    C113656   0.606   4.469  14.188  0.8646  0.5370 -0.2038
  930MPD2    C213657   0.511   4.419  14.097  0.1113 -0.9471  0.1462
  930MPD2    C313658   0.507   4.282  14.071 -0.0720  0.3731  0.0440
  930MPD2    C413659   0.577   4.199  14.154  0.2954  0.1418  0.4820
  930MPD2    C513660   0.662   4.254  14.244  0.0845  0.0112 -0.0021
  930MPD2     H13661   0.449   4.492  14.048  1.5604  0.3340  0.2234
  930MPD2    H113662   0.574   4.091  14.152 -0.0672  0.1307  2.1020
  930MPD2    H213663   0.757   4.422  14.330 -1.8398  0.3894  2.6502
  930MPD2    H313664   0.716   4.180  14.302  0.8116  0.2417 -0.3853
  930MPD2     N13665   0.423   4.233  13.969  0.3929 -0.0586 -0.2219
  930MPD2    H513666   0.422   4.134  13.946 -1.0515 -1.0711  4.1325
  930MPD2    N113667   0.634   4.611  14.197 -0.3848 -0.2878 -0.0611
  930MPD2    H713668   0.721   4.634  14.244 -0.1396 -0.0032 -0.6521
  931MPD2     C13669   0.224   3.005   0.333 -0.7068 -0.1888  0.1239
  931MPD2    C113670   0.167   3.081   0.429 -0.1466  0.8847 -0.5669
  931MPD2    C213671   0.225   3.100   0.556  0.3363 -0.4788  0.0786
  931MPD2    C313672   0.356   3.058   0.562 -0.3132  0.6280 -0.5520
  931MPD2    C413673   0.410   2.982   0.468 -0.3414 -0.5287 -0.2830
  931MPD2    C513674   0.345   2.947   0.357  0.2067 -0.2790  0.3068
  931MPD2     H13675   0.180   3.161   0.634  0.9657  3.2678 -2.4826
  931MPD2    H113676   0.508   2.935   0.470 -0.0695  0.0947  0.7547
  931MPD2    H213677   0.174   2.994   0.237 -0.9361 -1.8213  0.4262
  931MPD2    H313678   0.389   2.888   0.278 -0.5018  0.7037 -0.8062
  931MPD2     N13679   0.438   3.084   0.674 -0.0351  0.4369 -0.1005
  931MPD2    H513680   0.524   3.031   0.668 -0.3227 -0.1267  0.7446
  931MPD2    N113681   0.044   3.143   0.397  0.1926 -0.9217 -0.3154
  931MPD2    H713682   0.013   3.134   0.300  0.4046  0.8378 -0.5338
  932MPD2     C13683   2.249   3.191  11.106 -0.0528  0.0951  0.2969
  932MPD2    C113684   2.304   3.236  11.225  0.0202 -0.5097  0.4926
  932MPD2    C213685   2.319   3.149  11.331  0.5438 -0.8932  0.1608
  932MPD2    C313686   2.284   3.017  11.316  0.2223  0.9070 -0.4215
  932MPD2    C413687   2.247   2.972  11.195 -0.2323  0.5956 -0.2189
  932MPD2    C513688   2.223   3.053  11.090  0.0093 -0.2374  0.2592
  932MPD2     H13689   2.357   3.186  11.426 -1.5010  2.7119 -0.4518
  932MPD2    H113690   2.207   2.872  11.202 -1.7865  1.2259  0.0530
  932MPD2    H213691   2.239   3.263  11.025 -1.8453 -0.2569  0.2255
  932MPD2    H313692   2.178   3.015  10.998  0.9993 -0.2493 -0.2270
  932MPD2     N13693   2.280   2.922  11.419 -0.2409 -0.1948 -0.1734
  932MPD2    H513694   2.285   2.826  11.388 -1.5097 -0.9706  2.0347
  932MPD2    N113695   2.359   3.368  11.240 -0.5511  0.3770 -0.3256
  932MPD2    H713696   2.392   3.391  11.333 -0.0515 -0.7401 -0.2241
  933MPD2     C13697   2.461   2.514   1.532  0.3409  0.6094  0.0192
  933MPD2    C113698   2.565   2.512   1.442  0.0124 -0.1994  0.3458
  933MPD2    C213699   2.565   2.602   1.337 -0.2640 -0.0537 -0.3300
  933MPD2    C313700   2.466   2.695   1.320 -0.2305 -0.3606 -0.2413
  933MPD2    C413701   2.362   2.687   1.403 -0.2467  0.1829  0.1003
  933MPD2    C513702   2.357   2.598   1.516  0.4413 -0.1809 -0.3487
  933MPD2     H13703   2.630   2.598   1.250 -0.6996 -0.0914 -0.6544
  933MPD2    H113704   2.278   2.755   1.398 -0.9355 -0.7580 -1.0205
  933MPD2    H213705   2.445   2.441   1.611  0.4996  1.4106  0.7919
  933MPD2    H313706   2.270   2.595   1.581 -1.4598 -0.1610 -2.9199
  933MPD2     N13707   2.481   2.793   1.219 -0.0666 -0.1951  0.3029
  933MPD2    H513708   2.560   2.795   1.155 -0.4926  0.7767 -0.1952
  933MPD2    N113709   2.645   2.400   1.452 -0.9796  0.0737 -0.2230
  933MPD2    H713710   2.611   2.333   1.520 -1.7466  0.2890 -0.3923
  934MPD2     C13711   4.218   0.063   1.924  0.7356 -0.1374 -0.5708
  934MPD2    C113712   4.280   0.009   1.812 -0.7517 -0.4774  0.3552
  934MPD2    C213713   4.201   4.669   1.723  0.8735 -0.2679 -0.1918
  934MPD2    C313714   4.069   4.645   1.763 -0.1053 -0.5251 -0.2060
  934MPD2    C413715   4.017   4.711   1.873 -0.4193  0.1341 -0.3712
  934MPD2    C513716   4.086   0.054   1.949 -0.0130  0.3002  0.8185
  934MPD2     H13717   4.246   4.618   1.639  1.1220  1.5501 -1.1750
  934MPD2    H113718   3.911   4.702   1.892 -0.4765 -1.3468 -1.4179
  934MPD2    H213719   4.267   0.117   2.004  0.1650  1.7716 -1.5057
  934MPD2    H313720   4.034   0.103   2.031 -1.9598 -1.9072  0.9339
  934MPD2     N13721   3.979   4.563   1.694  0.7171 -0.4900 -0.2440
  934MPD2    H513722   3.881   4.574   1.720  0.5381 -1.1141 -0.6515
  934MPD2    N113723   4.416   0.026   1.782  0.3786 -0.0058 -0.1288
  934MPD2    H713724   4.435   0.003   1.684  2.0465  3.4520 -0.6270
  935MPD2     C13725   4.096   3.619   1.286  1.0608 -0.7544  0.8572
  935MPD2    C113726   3.967   3.624   1.328 -0.3604  0.1382  0.1362
  935MPD2    C213727   3.913   3.743   1.384  0.8864  0.2293 -0.0130
  935MPD2    C313728   3.992   3.857   1.392 -0.0342 -0.7972 -0.3803
  935MPD2    C413729   4.125   3.843   1.355  0.2199  0.6505  0.1498
  935MPD2    C513730   4.171   3.726   1.298 -0.4521  0.5385  0.6424
  935MPD2     H13731   3.814   3.743   1.429 -0.4471  2.5690 -2.9516
  935MPD2    H113732   4.199   3.918   1.378 -1.6198  2.4521  0.1260
  935MPD2    H213733   4.135   3.529   1.239 -0.1944 -0.6480 -0.3710
  935MPD2    H313734   4.278   3.712   1.287 -0.1626  2.7494  0.6570
  935MPD2     N13735   3.954   3.986   1.439 -0.4389  0.4406 -0.4332
  935MPD2    H513736   4.016   4.065   1.426 -1.6396  1.2766 -1.0493
  935MPD2    N113737   3.879   3.513   1.302  0.1069  0.1850 -0.1520
  935MPD2    H713738   3.779   3.525   1.319 -0.2221 -3.9960  0.8719
  936MPD2     C13739   2.688   0.698  12.504 -0.1765  0.3106 -0.9452
  936MPD2    C113740   2.740   0.824  12.539  0.9890 -0.1591 -0.9905
  936MPD2    C213741   2.760   0.921  12.444  0.0846  0.2959 -0.3161
  936MPD2    C313742   2.715   0.898  12.312 -0.2905 -1.0204 -0.0124
  936MPD2    C413743   2.657   0.776  12.276  0.4167  1.4279 -0.4765
  936MPD2    C513744   2.653   0.677  12.372  0.0853 -0.0282  0.2189
  936MPD2     H13745   2.798   1.021  12.463  1.1177  0.1662 -1.7186
  936MPD2    H113746   2.631   0.750  12.174 -0.5322  1.2869 -0.1970
  936MPD2    H213747   2.674   0.629  12.586  1.2511 -0.7079 -1.5580
  936MPD2    H313748   2.630   0.576  12.340  0.1649  0.1617 -0.4298
  936MPD2     N13749   2.723   1.004  12.216 -0.5282 -0.2418  0.4343
  936MPD2    H513750   2.674   0.992  12.128 -0.8221 -1.1786  0.7239
  936MPD2    N113751   2.776   0.860  12.673  0.7184  0.0009 -0.2449
  936MPD2    H713752   2.832   0.944  12.685 -1.6107  1.7801 -1.9385
  937MPD2     C13753   0.637   2.828  11.687 -0.1166  0.7320 -0.7230
  937MPD2    C113754   0.553   2.887  11.588  0.1140 -0.3199 -0.4241
  937MPD2    C213755   0.605   2.902  11.457  0.2565 -0.0024  0.2917
  937MPD2    C313756   0.734   2.858  11.425  1.0152 -0.2972  0.6458
  937MPD2    C413757   0.810   2.788  11.524 -0.0971 -0.8567 -0.0471
  937MPD2    C513758   0.754   2.772  11.648 -0.0997  0.2666 -0.2782
  937MPD2     H13759   0.540   2.955  11.388 -0.5272 -0.9698  0.2860
  937MPD2    H113760   0.902   2.739  11.493  0.3563  0.8467 -1.4119
  937MPD2    H213761   0.607   2.831  11.791  0.1060 -1.2096 -0.6168
  937MPD2    H313762   0.812   2.719  11.724  1.2352  1.9969 -0.0727
  937MPD2     N13763   0.784   2.850  11.291  0.7836  0.0805 -0.3926
  937MPD2    H513764   0.875   2.809  11.276 -0.2192 -1.3488 -2.5244
  937MPD2    N113765   0.447   2.974  11.607 -0.4792  0.4365 -0.6781
  937MPD2    H713766   0.393   3.014  11.531  0.0480 -1.6329 -2.1304
  938MPD2     C13767   3.006   4.106   0.525  0.4943 -0.8577  0.2041
  938MPD2    C113768   3.036   4.165   0.645  0.3455  0.0612  0.1141
  938MPD2    C213769   3.045   4.085   0.756 -0.6253 -1.1192 -0.3506
  938MPD2    C313770   3.023   3.949   0.746  0.0526 -0.8634  0.6770
  938MPD2    C413771   2.994   3.890   0.627  0.3047  0.0029  0.4729
  938MPD2    C513772   2.992   3.967   0.515  0.2401 -0.4537 -0.0422
  938MPD2     H13773   3.070   4.127   0.853 -1.1167 -1.4524 -0.0810
  938MPD2    H113774   2.993   3.784   0.605 -1.6934  0.1213  0.0263
  938MPD2    H213775   2.998   4.168   0.437 -3.0121 -1.0618  0.3826
  938MPD2    H313776   2.966   3.919   0.422 -0.1763  0.1658 -0.2406
  938MPD2     N13777   3.024   3.865   0.862 -0.4347  0.4455  0.3121
  938MPD2    H513778   2.999   3.767   0.860  1.0823  0.0556 -0.3394
  938MPD2    N113779   3.051   4.300   0.668 -0.5305 -0.1293  0.2098
  938MPD2    H713780   3.075   4.332   0.762  1.3434 -1.5017  0.1996
  939MPD2     C13781   4.333   0.221   1.074  0.0853  0.5532 -0.2637
  939MPD2    C113782   4.270   0.329   1.027  0.7197 -0.2812 -0.3943
  939MPD2    C213783   4.236   0.327   0.891  0.0723 -1.1244  0.2236
  939MPD2    C313784   4.257   0.219   0.814  0.1420 -0.3917  0.2282
  939MPD2    C413785   4.329   0.113   0.864  0.3767 -0.4593  0.0264
  939MPD2    C513786   4.366   0.113   0.990 -0.4099 -0.2320 -0.0747
  939MPD2     H13787   4.199   0.420   0.850 -0.7013 -1.4565  0.1608
  939MPD2    H113788   4.365   0.037   0.795  0.0376 -0.2763 -0.3514
  939MPD2    H213789   4.366   0.207   1.176  0.0230  0.0843 -0.3070
  939MPD2    H313790   4.428   0.036   1.034  2.4788  3.0044  1.5854
  939MPD2     N13791   4.235   0.238   0.673  0.7514 -0.1555  0.5365
  939MPD2    H513792   4.191   0.325   0.647  1.0782 -0.7140 -1.8731
  939MPD2    N113793   4.261   0.442   1.112 -0.1475  0.1355  0.5245
  939MPD2    H713794   4.298   0.431   1.206  0.3967 -2.2782  0.0316
  940MPD2     C13795   3.295   1.958  13.266  0.5861 -0.0568 -0.6270
  940MPD2    C113796   3.373   1.974  13.156  0.1137 -1.2374 -0.1122
  940MPD2    C213797   3.322   1.928  13.029 -0.3548  0.1587 -0.3105
  940MPD2    C313798   3.199   1.860  13.019 -0.4116 -0.4718  0.2673
  940MPD2    C413799   3.136   1.839  13.141 -0.0864  0.1685  0.1701
  940MPD2    C513800   3.182   1.888  13.256  0.9899  0.2602 -0.2146
  940MPD2     H13801   3.380   1.951  12.941  0.6261 -0.3641  0.2026
  940MPD2    H113802   3.048   1.776  13.136 -0.0519 -0.0002  1.9564
  940MPD2    H213803   3.318   1.990  13.367 -2.8205  1.1965 -0.2498
  940MPD2    H313804   3.143   1.853  13.351 -0.7461  1.0986 -0.6219
  940MPD2     N13805   3.148   1.801  12.900  0.2783 -0.0555  0.3859
  940MPD2    H513806   3.068   1.740  12.913  1.7357 -1.5953  1.9999
  940MPD2    N113807   3.503   2.017  13.160 -0.1595  0.0190  0.5151
  940MPD2    H713808   3.558   2.028  13.075 -0.6483 -0.0332  0.1932
  941MPD2     C13809   2.144   0.987  10.155  0.2925 -0.6357 -0.6004
  941MPD2    C113810   2.271   0.932  10.141  0.2579 -0.9720 -0.8083
  941MPD2    C213811   2.295   0.805  10.188  0.2402  0.1751  0.0223
  941MPD2    C313812   2.193   0.739  10.256  0.1049 -0.2332 -0.0903
  941MPD2    C413813   2.067   0.795  10.271 -0.3081 -1.0898  0.2798
  941MPD2    C513814   2.046   0.925  10.230  0.3546  1.0253 -0.7542
  941MPD2     H13815   2.391   0.762  10.160  1.0564  2.6177 -0.9910
  941MPD2    H113816   1.982   0.752  10.323 -1.9118 -1.1141 -2.3415
  941MPD2    H213817   2.121   1.081  10.106  2.4637 -0.8229 -2.0181
  941MPD2    H313818   1.946   0.966  10.230  0.2702  0.8246  2.6831
  941MPD2     N13819   2.209   0.615  10.311  0.1511 -0.3200 -0.2991
  941MPD2    H513820   2.128   0.559  10.338 -0.7446  2.5115  2.8524
  941MPD2    N113821   2.379   1.000  10.073 -0.0174 -0.0690 -0.0604
  941MPD2    H713822   2.462   0.943  10.080 -0.7374 -1.1815 -0.5641
  942MPD2     C13823   1.658   1.713   9.192 -0.3057 -0.1762 -0.3795
  942MPD2    C113824   1.694   1.803   9.290 -0.0843  0.2886  0.3661
  942MPD2    C213825   1.729   1.930   9.244 -0.3931 -0.3500 -0.3940
  942MPD2    C313826   1.717   1.965   9.110  0.1328 -0.6724  0.1581
  942MPD2    C413827   1.661   1.880   9.020 -0.0009  0.8723 -0.3057
  942MPD2    C513828   1.629   1.754   9.064 -0.4601  0.6970  0.1551
  942MPD2     H13829   1.762   2.007   9.313 -0.2696 -0.5028 -0.2851
  942MPD2    H113830   1.636   1.899   8.916 -1.2479  0.3734 -0.0959
  942MPD2    H213831   1.628   1.611   9.213 -0.6186 -0.1744 -0.8203
  942MPD2    H313832   1.578   1.688   8.995  2.7146 -1.4619 -0.1597
  942MPD2     N13833   1.731   2.100   9.074 -0.2125 -0.5969 -0.1313
  942MPD2    H513834   1.679   2.128   8.991  1.3634  1.9398 -0.2350
  942MPD2    N113835   1.696   1.774   9.426 -0.6090 -0.6095  0.6207
  942MPD2    H713836   1.714   1.850   9.490  0.4068  0.7795 -1.3155
  943MPD2     C13837   1.319   1.337   9.735  0.0900  0.2614 -0.6209
  943MPD2    C113838   1.230   1.251   9.792  0.4740 -0.1618  0.6882
  943MPD2    C213839   1.134   1.300   9.882  0.6197 -0.0461  0.2201
  943MPD2    C313840   1.136   1.442   9.906 -0.2712  0.2810 -0.6359
  943MPD2    C413841   1.214   1.528   9.843 -0.6053  0.2371  0.3884
  943MPD2    C513842   1.300   1.475   9.751  0.2849 -0.4026 -0.0238
  943MPD2     H13843   1.053   1.238   9.921 -1.2395  0.5437 -2.7089
  943MPD2    H113844   1.216   1.635   9.863 -0.8363  0.7531 -2.2691
  943MPD2    H213845   1.384   1.300   9.656  2.1450 -0.4220  1.3871
  943MPD2    H313846   1.379   1.535   9.706 -1.2264  1.5829 -0.0402
  943MPD2     N13847   1.046   1.510   9.992  0.0398 -0.1907 -0.2283
  943MPD2    H513848   1.066   1.607  10.012 -0.5162  0.0940 -1.0743
  943MPD2    N113849   1.248   1.110   9.766 -0.3595 -0.1448 -0.2244
  943MPD2    H713850   1.313   1.085   9.692  0.7607 -1.4191  1.2042
  944MPD2     C13851   1.253   0.102  11.091 -0.3960 -0.1473 -0.7831
  944MPD2    C113852   1.159   0.024  11.156 -0.4509 -0.0717  0.6129
  944MPD2    C213853   1.057   0.083  11.232 -0.1255  0.1666 -0.4249
  944MPD2    C313854   1.039   0.219  11.216  0.0936 -0.4337 -1.0219
  944MPD2    C413855   1.127   0.295  11.143 -0.8603  0.3407 -0.7759
  944MPD2    C513856   1.229   0.234  11.074  0.3352  1.2914 -0.0989
  944MPD2     H13857   0.987   0.025  11.292 -0.1600  1.6144  0.9344
  944MPD2    H113858   1.110   0.402  11.142 -2.9422  0.0571  2.0643
  944MPD2    H213859   1.342   0.060  11.046 -0.9626  1.2845 -3.2963
  944MPD2    H313860   1.307   0.301  11.039  1.7924  0.7270  2.0721
  944MPD2     N13861   0.931   0.272  11.295  0.3800 -0.0622 -0.0661
  944MPD2    H513862   0.860   0.209  11.331 -0.0127  0.2675 -0.2761
  944MPD2    N113863   1.194   4.622  11.164  0.2324  0.2295  0.1154
  944MPD2    H713864   1.286   4.595  11.129 -1.0756 -1.4468 -2.0434
    1TMC1    C113865   4.240   4.644  14.724 -0.2150  0.3154 -0.3340
    1TMC1    C213866   4.346   4.653  14.804 -0.0780 -0.0785  0.0856
    1TMC1    C313867   4.375   4.545  14.886  0.2016 -0.2546 -0.6281
    1TMC1    C413868   4.160   4.531  14.724  0.0399  1.0712  0.3679
    1TMC1    C513869   4.191   4.423  14.806  0.6256 -0.6461 -0.2562
    1TMC1    C613870   4.300   4.433  14.891  0.3607  0.0931 -0.7514
    1TMC1     C13871   4.182   0.034  14.681 -0.5422  0.0145 -0.2222
    1TMC1     O13872   4.258   0.126  14.669 -0.1510 -0.3041 -0.0959
    1TMC1     H13873   4.403   0.008  14.823 -1.3110  0.6227  0.4505
    1TMC1    H113874   4.078   4.533  14.653  1.1949 -0.5826 -1.0189
    1TMC1    H213875   4.333   4.345  14.945  0.8339 -0.0957 -1.3458
    1TMC1    C713876   4.078   4.331  14.843  0.3066  0.2171  0.2121
    1TMC1    C813877   4.496   4.554  14.975  0.2737  0.2885 -0.1974
    1TMC1    O113878   3.965   4.360  14.796  0.2051  0.6624  0.1976
    1TMC1    O213879   4.583   4.638  14.953 -0.0659  0.2746  0.6962
    1TMC1    O313880   4.135   4.207  14.843  0.7592 -0.5725  0.2233
    1TMC1    H313881   4.218   4.199  14.894 -1.6019 -1.5477  3.8866
    1TMC1    O513882   4.456   4.507  15.094  0.3086 -0.5975 -0.3683
    1TMC1    H513883   4.376   4.450  15.099 -1.0875  1.1549 -2.5951
    2MPD2     C13884   3.767   0.321  14.585  0.1884 -0.1198 -0.2401
    2MPD2    C113885   3.900   0.349  14.567 -0.1685 -0.3509  0.2869
    2MPD2    C213886   3.997   0.255  14.600 -0.0948 -0.2765 -1.2309
    2MPD2    C313887   3.959   0.132  14.650  0.1808  0.3819 -0.4389
    2MPD2    C413888   3.828   0.104  14.670  0.3089 -0.1162  0.0257
    2MPD2    C513889   3.739   0.196  14.632  0.2261 -0.6185  0.5883
    2MPD2     H13890   4.104   0.266  14.593  0.0406 -0.4100  0.6438
    2MPD2    H113891   3.790   0.005  14.693  0.5117 -0.6259 -1.8265
    2MPD2    H213892   3.686   0.389  14.561 -2.5427 -2.6904  1.7668
    2MPD2    H313893   3.637   0.161  14.639  0.2055 -0.8186 -0.7514
    2MPD2     N13894   4.044   0.029  14.670  0.2031 -0.0846  0.3540
    2MPD2    H513895   4.003   4.675  14.696 -0.4951 -0.2018 -1.1526
    2MPD2    N113896   3.931   0.477  14.522  0.8433  0.2776  0.0880
    2MPD2    H713897   3.850   0.532  14.498 -0.7354 -0.5720  3.5143
    3TMC2    C113898   4.041   0.644  14.402 -0.1007 -0.2245  0.6542
    3TMC2    C213899   3.982   0.744  14.466 -0.0443 -0.4615  0.0236
    3TMC2    C313900   3.955   0.853  14.396 -0.1155  0.0704 -0.0591
    3TMC2    C413901   4.066   0.633  14.271 -0.0646 -0.2701 -0.1785
    3TMC2    C513902   4.033   0.747  14.204  0.1724 -0.4350 -0.1343
    3TMC2    C613903   3.974   0.852  14.259 -0.1319  0.4288  0.6294
    3TMC2     C13904   4.055   0.520  14.477 -0.8979  0.2716  0.9986
    3TMC2     O13905   4.165   0.462  14.460  0.0580 -0.1015  0.0358
    3TMC2     H13906   3.959   0.734  14.571 -1.4502 -1.0632 -0.3403
    3TMC2    H113907   4.089   0.537  14.226 -1.9583 -0.9505  0.2949
    3TMC2    H213908   3.949   0.939  14.198 -1.9779  0.7657  1.8659
    3TMC2    C713909   4.040   0.733  14.058  0.3817 -0.5565  0.1688
    3TMC2    C813910   3.871   0.957  14.465  0.1354  0.0016 -0.8659
    3TMC2    O113911   4.028   0.619  14.013 -0.3266 -0.2814  0.5058
    3TMC2    O213912   3.879   0.969  14.590  0.8933  0.3216 -0.1385
    3TMC2    O513913   3.872   1.057  14.381 -0.0067 -0.3855 -0.1717
    3TMC2    H513914   3.812   1.034  14.306  1.8766  2.0249 -2.4347
    4TMC2    C113915   4.373   1.508  13.494  0.2795 -0.6537  0.4540
    4TMC2    C213916   4.396   1.468  13.364 -0.1888 -0.0436 -0.6191
    4TMC2    C313917   4.353   1.350  13.319 -0.0405  0.3053 -0.2099
    4TMC2    C413918   4.310   1.415  13.583 -0.5137  0.1856  0.2931
    4TMC2    C513919   4.258   1.296  13.531  0.1275  0.1730 -0.3038
    4TMC2    C613920   4.293   1.254  13.403  0.0094  0.3483  0.2545
    4TMC2     C13921   4.377   1.654  13.521 -0.2875 -0.7187 -0.5888
    4TMC2     O13922   4.357   1.687  13.636 -0.0243 -0.2721  0.1141
    4TMC2     H13923   4.465   1.531  13.310 -0.2436  2.0656  1.7692
    4TMC2    H113924   4.304   1.449  13.686 -0.2925  0.0638  0.3474
    4TMC2    H213925   4.273   1.161  13.351  1.3318  0.3495 -0.2820
    4TMC2    C713926   4.209   1.194  13.624  0.3760  0.8321 -0.7116
    4TMC2    C813927   4.396   1.312  13.189 -0.4514  0.3167  0.1055
    4TMC2    O113928   4.217   1.235  13.736 -0.1434 -0.5124 -0.9081
    4TMC2    O213929   4.414   1.196  13.155  0.5949  0.1861 -0.1684
    4TMC2    O513930   4.367   1.411  13.106 -0.1208 -0.3683 -0.2561
    4TMC2    H513931   4.340   1.500  13.138  1.7045 -0.3707  1.2903
    5MPD2     C13932   4.300   2.123  13.333  0.0290 -0.1793  0.3619
    5MPD2    C113933   4.342   2.037  13.230  0.5453 -0.9061 -0.0101
    5MPD2    C213934   4.372   1.913  13.266 -0.1107 -0.1616 -0.4186
    5MPD2    C313935   4.370   1.867  13.393 -0.0078 -0.1305  0.3685
    5MPD2    C413936   4.331   1.950  13.499  0.3786  0.1805 -0.9926
    5MPD2    C513937   4.305   2.079  13.466 -0.5216  0.2032  0.4862
    5MPD2     H13938   4.409   1.848  13.188  1.2933 -0.7444  0.7199
    5MPD2    H113939   4.321   1.926  13.604  1.4726  0.2181 -0.8840
    5MPD2    H213940   4.273   2.225  13.307 -0.7755 -0.2752  0.8359
    5MPD2    H313941   4.280   2.142  13.551  0.1021  0.7597  0.2553
    5MPD2     N13942   4.395   1.731  13.409  0.0023  0.3210 -0.1279
    5MPD2    H513943   4.412   1.685  13.321  0.6016  0.0453  0.1319
    5MPD2    N113944   4.330   2.081  13.097  0.2028 -0.4092  0.3854
    5MPD2    H713945   4.314   2.181  13.098  0.8992 -0.3057  0.7818
    6MPD1     C13946   2.681   2.464  12.974 -0.0250 -0.1307 -0.0432
    6MPD1    C113947   2.771   2.564  13.008  0.0392  0.6094  0.0077
    6MPD1    C213948   2.893   2.562  12.933  0.6700 -0.7962 -0.4484
    6MPD1    C313949   2.921   2.476  12.830 -0.4933 -0.0010  0.8134
    6MPD1    C413950   2.828   2.383  12.800 -0.6958 -0.2497  0.1295
    6MPD1    C513951   2.715   2.372  12.877  0.5455  0.7936 -0.2191
    6MPD1     H13952   2.969   2.637  12.952 -0.5043  0.5769 -1.1458
    6MPD1    H113953   2.839   2.307  12.723  0.8142 -0.7943  0.8869
    6MPD1    H213954   2.585   2.443  13.020 -0.9529  2.3431 -0.8454
    6MPD1    H313955   2.651   2.287  12.855 -0.7185  1.7297 -0.1741
    6MPD1     N13956   3.045   2.461  12.766 -0.2483 -0.5564  0.5719
    6MPD1    H513957   3.062   2.380  12.708 -1.2925  0.9358 -1.8284
    6MPD1    N113958   2.733   2.671  13.094 -0.0160  0.2532  0.1968
    6MPD1    H613959   2.659   2.658  13.163 -1.1628 -1.8201 -1.4024
    6MPD1    H713960   2.811   2.718  13.141  0.7544  0.7133 -1.5394
    7MPD2     C13961   3.596   2.028  12.530 -0.6658  0.4738  0.4949
    7MPD2    C113962   3.644   2.161  12.530  0.1863  0.3739 -1.0376
    7MPD2    C213963   3.782   2.181  12.530 -0.3393  0.4780 -0.2815
    7MPD2    C313964   3.869   2.079  12.557 -0.2460  0.2753  0.4393
    7MPD2    C413965   3.819   1.949  12.572  0.1778 -0.6625 -0.1492
    7MPD2    C513966   3.690   1.925  12.540  0.9822 -0.1935 -0.7583
    7MPD2     H13967   3.832   2.277  12.520  1.4734 -0.3976  0.4464
    7MPD2    H113968   3.885   1.867  12.598  1.2866  0.1176 -0.5017
    7MPD2    H213969   3.496   1.997  12.503 -0.1127 -2.3138  1.6065
    7MPD2    H313970   3.656   1.823  12.529 -0.5792  0.4825 -2.2528
    7MPD2     N13971   4.007   2.112  12.565 -0.2817 -0.3083 -0.0336
    7MPD2    H513972   4.027   2.211  12.552 -2.6454  0.1677 -0.1262
    7MPD2    N113973   3.564   2.276  12.498 -0.5157  0.5578  0.3410
    7MPD2    H713974   3.631   2.351  12.490  0.9880 -0.9229 -0.8999
    8TMC3    C113975   4.219   2.089  12.659 -0.8441 -0.7436 -1.0059
    8TMC3    C213976   4.276   2.007  12.756  0.2860 -1.2481 -0.2887
    8TMC3    C313977   4.335   2.071  12.859  0.3369 -0.0694  0.0211
    8TMC3    C413978   4.214   2.223  12.668 -0.2219 -0.5210 -0.1232
    8TMC3    C513979   4.275   2.282  12.778  0.4349  0.0594 -0.3697
    8TMC3    C613980   4.344   2.206  12.869  0.4486  1.4507 -0.6853
    8TMC3     C13981   4.112   2.022  12.585 -0.3348  0.5220 -0.6993
    8TMC3     O13982   4.102   1.902  12.585 -0.4361  0.1142  0.1156
    8TMC3     H13983   4.257   1.901  12.757  1.9362 -1.5492  1.1484
    8TMC3    H113984   4.187   2.283  12.582 -0.0531 -1.1054 -0.5866
    8TMC3    H213985   4.413   2.263  12.930  1.4915 -0.3924 -0.1312
    8TMC3    C713986   4.229   2.414  12.814 -0.2259  0.4158 -0.4198
    8TMC3    C813987   4.348   2.003  12.984  0.0855 -0.1163 -0.2906
    8TMC3    O113988   4.272   2.456  12.924  0.4044 -0.1138 -0.5616
    8TMC3    O213989   4.382   1.886  12.965  0.2187 -0.0505  0.3602
    9TMC3    C113990   3.254   2.545  12.683  0.5405  0.5942 -0.8027
    9TMC3    C213991   3.336   2.652  12.682 -0.5735  0.0181 -0.5688
    9TMC3    C313992   3.453   2.630  12.609 -0.0417 -0.3275  0.0652
    9TMC3    C413993   3.274   2.430  12.612  0.0819  0.1455  0.3995
    9TMC3    C513994   3.391   2.417  12.541 -0.7942  0.0618  0.3572
    9TMC3    C613995   3.481   2.516  12.541  0.6294 -0.1710  0.6164
    9TMC3     C13996   3.134   2.564  12.760 -0.4744  0.0265 -0.1496
    9TMC3     O13997   3.120   2.685  12.783  0.4705  0.1449 -0.0567
    9TMC3     H13998   3.326   2.746  12.736  0.8203 -0.6294  0.8250
    9TMC3    H113999   3.197   2.354  12.606 -0.6382  0.9198 -0.2202
    9TMC3    H214000   3.569   2.519  12.477 -0.2447  0.2517 -0.5657
    9TMC3    C714001   3.424   2.283  12.515  0.7884  0.1120 -0.3133
    9TMC3    C814002   3.570   2.704  12.658  0.4326  0.2942 -0.4160
    9TMC3    O114003   3.346   2.195  12.547  0.2524 -0.5292 -0.1199
    9TMC3    O214004   3.546   2.799  12.733  0.3162  0.2383 -0.1151
   10MPD2     C14005   4.044   2.659  12.865 -0.0068 -0.5674 -0.2306
   10MPD2    C114006   4.041   2.568  12.763  0.6137 -0.1502  0.0296
   10MPD2    C214007   3.920   2.568  12.687  1.3233  0.6969  1.1440
   10MPD2    C314008   3.813   2.652  12.716  0.6246 -0.6047  0.2158
   10MPD2    C414009   3.834   2.749  12.816 -0.0881  0.4264 -1.0018
   10MPD2    C514010   3.939   2.743  12.891 -0.5908 -0.0880  0.9401
   10MPD2     H14011   3.900   2.491  12.614 -0.0721  0.4987  1.7319
   10MPD2    H114012   3.750   2.808  12.850  0.9325  0.7519  0.9535
   10MPD2    H214013   4.129   2.671  12.931 -0.2705  1.7250 -0.3125
   10MPD2    H314014   3.949   2.830  12.955 -1.9323  1.2427 -0.6775
   10MPD2     N14015   3.692   2.642  12.637  0.1310 -0.0501 -0.2883
   10MPD2    H514016   3.703   2.582  12.557 -2.2047 -2.2465  1.0196
   10MPD2    N114017   4.131   2.464  12.738 -0.3039  0.3591 -0.5293
   10MPD2    H714018   4.115   2.414  12.651 -1.8650  2.2531 -1.3424
   11MPD2     C14019   4.009   0.745  13.762  0.1089 -1.1219  0.0689
   11MPD2    C114020   4.062   0.844  13.841 -0.8739 -0.4688  0.7851
   11MPD2    C214021   4.110   0.961  13.779 -0.3371  0.3487 -0.5631
   11MPD2    C314022   4.103   0.971  13.641 -0.3137  0.6508 -0.4834
   11MPD2    C414023   4.044   0.868  13.570 -0.1028  0.0662 -0.0331
   11MPD2    C514024   4.000   0.760  13.635 -0.0839  0.5301 -0.0650
   11MPD2     H14025   4.159   1.036  13.840 -1.0102  0.8763 -0.6643
   11MPD2    H114026   4.046   0.875  13.461  2.3094  0.9466  0.0734
   11MPD2    H214027   3.975   0.652  13.806 -0.7424 -0.9715 -0.2804
   11MPD2    H314028   3.965   0.680  13.571 -0.6491  0.0768  0.8122
   11MPD2     N14029   4.156   1.080  13.569  0.7175 -1.1232 -0.1215
   11MPD2    H514030   4.143   1.075  13.468  0.3452  2.8049 -0.2658
   11MPD2    N114031   4.067   0.843  13.984  0.1819  0.2609  0.7773
   11MPD2    H714032   4.091   0.931  14.029 -1.3944  1.6496 -1.0820
    1MPD1     C14033   1.135   2.448  17.503 -0.7257  0.0056 -0.5325
    1MPD1    C114034   1.138   2.495  17.628  0.4853 -0.2442  0.2967
    1MPD1    C214035   1.232   2.585  17.666 -0.4087 -0.3130  0.5261
    1MPD1    C314036   1.323   2.624  17.574 -0.0574  0.6794 -0.0227
    1MPD1    C414037   1.310   2.597  17.444  1.0086  0.2821  0.9220
    1MPD1    C514038   1.219   2.499  17.412  0.1958  0.4782 -0.1689
    1MPD1     H14039   1.229   2.619   0.030  1.5232  0.6957  0.2380
    1MPD1    H114040   1.374   2.644  17.369 -2.3477  1.8533 -0.9599
    1MPD1    H214041   1.065   2.370  17.475  0.7567 -1.3595 -0.3927
    1MPD1    H314042   1.213   2.468  17.308  3.6678  1.5397 -0.6791
    1MPD1     N14043   1.428   2.715  17.601 -0.1364 -0.2031 -0.3823
    1MPD1    H514044   1.492   2.731  17.524 -1.0280 -1.7617 -1.4426
    1MPD1    N114045   1.044   2.442  17.713 -0.1607 -0.5538 -0.4795
    1MPD1    H614046   1.030   2.494   0.060 -1.1221 -1.5051 -0.0610
    1MPD1    H714047   1.039   2.340  17.721 -0.5001 -0.5887 -1.1270
    2MPD1     C14048   1.448   3.470   0.532 -0.5209 -0.0063  0.0329
    2MPD1    C114049   1.420   3.336   0.564 -0.6160  0.2746 -0.3304
    2MPD1    C214050   1.480   3.243   0.480  0.4664 -0.7358  0.7321
    2MPD1    C314051   1.544   3.276   0.363 -0.4065  0.3171  0.0891
    2MPD1    C414052   1.562   3.407   0.326  0.3340 -0.1198 -0.2931
    2MPD1    C514053   1.515   3.505   0.414 -0.0928  0.5247  0.2443
    2MPD1     H14054   1.479   3.137   0.503  0.3898 -1.0187 -0.5686
    2MPD1    H114055   1.612   3.439   0.236  0.5429 -0.8428 -0.4341
    2MPD1    H214056   1.418   3.548   0.601  1.0534 -0.8854  1.6978
    2MPD1    H314057   1.526   3.606   0.375 -3.5786  1.2106  1.0615
    2MPD1     N14058   1.582   3.162   0.282 -0.1387 -0.0708  0.1513
    2MPD1    H514059   1.547   3.077   0.324  0.1938  0.5547  1.6932
    2MPD1    N114060   1.366   3.317   0.697  0.0467  0.1228  0.3497
    2MPD1    H614061   1.287   3.378   0.720 -1.3307 -0.0978 -3.7361
    2MPD1    H714062   1.329   3.222   0.700 -0.1912  0.1863 -0.4188
    3TMC3    C114063   1.679   3.041   0.096 -0.0843 -0.7744  0.1708
    3TMC3    C214064   1.774   3.040  17.732 -0.4143  0.2905  0.3412
    3TMC3    C314065   1.767   2.944  17.635  0.0096  0.4662 -0.2441
    3TMC3    C414066   1.571   2.955   0.100 -0.6236 -0.2708  0.6538
    3TMC3    C514067   1.568   2.865  17.732 -0.9229 -0.0113  0.6623
    3TMC3    C614068   1.661   2.854  17.632  0.0689  0.7115  0.0227
    3TMC3     C14069   1.654   3.170   0.164  0.2561 -0.3397  0.8603
    3TMC3     O14070   1.696   3.271   0.105 -0.1167  0.0486 -0.1907
    3TMC3     H14071   1.850   3.116  17.720 -0.6916  1.0172  3.1463
    3TMC3    H114072   1.492   2.960   0.174 -1.5597 -0.9994 -0.2927
    3TMC3    H214073   1.672   2.769  17.566 -0.8587 -0.1606  0.9925
    3TMC3    C714074   1.444   2.788  17.721  0.4957  0.3288 -0.2996
    3TMC3    C814075   1.869   2.935  17.539  0.3319 -0.1595  0.0842
    3TMC3    O114076   1.371   2.786   0.079 -0.8912  0.2248 -0.1135
    3TMC3    O214077   1.850   2.874  17.434  0.2885 -0.1540 -0.2570
    4MPD1     C14078   2.352   2.994  17.399  0.5246  0.0729 -0.3150
    4MPD1    C114079   2.344   2.983  17.534 -0.5609  0.9115  0.1977
    4MPD1    C214080   2.221   2.997  17.593  0.0229 -0.1607  0.1566
    4MPD1    C314081   2.105   2.991  17.517  0.8671  0.4358 -0.3611
    4MPD1    C414082   2.113   2.968  17.384  0.2942  0.6138 -0.3276
    4MPD1    C514083   2.238   2.971  17.325  0.6492 -0.6672 -0.0781
    4MPD1     H14084   2.200   3.001  17.699  0.5900 -1.6807  0.3348
    4MPD1    H114085   2.028   2.955  17.317 -0.5412  2.0532  0.4351
    4MPD1    H214086   2.450   2.997  17.354  0.7385  1.7596  0.2980
    4MPD1    H314087   2.239   2.967  17.217 -0.9003 -3.2591  0.0050
    4MPD1     N14088   1.982   2.994  17.582  0.3355 -0.0499  0.6066
    4MPD1    H514089   1.991   3.042  17.671 -0.8894  2.4828 -0.6380
    4MPD1    N114090   2.450   2.979  17.619  0.0906 -0.5950 -0.2048
    4MPD1    H614091   2.528   2.927  17.581  0.1916 -1.6394  1.4404
    4MPD1    H714092   2.424   2.937  17.708  1.1518 -0.3537  0.2126
    1TCq1    O114093   1.825   2.376  11.075 -0.0226  0.0771 -0.6833
    1TCq1    C114094   1.891   2.481  11.133 -0.8037 -0.8371 -0.0401
    1TCq1    O214095   1.838   2.565  11.202  0.2072 -0.2102 -0.1551
    1TCq1    C214096   2.031   2.466  11.097 -0.1589 -0.5139  0.1135
    1TCq1    C314097   2.128   2.519  11.178 -0.7736 -0.4673  0.5352
    1TCq1    C414098   2.260   2.537  11.140  0.1428 -0.7677 -0.6751
    1TCq1    C514099   2.287   2.513  11.006 -0.2979 -0.4557 -0.1973
    1TCq1    C614100   2.191   2.463  10.927 -0.2894 -0.0319  0.5793
    1TCq1    C714101   2.064   2.437  10.969 -0.2302 -0.1492  0.0278
    1TCq1    C814102   2.230   2.403  10.800 -0.4268 -0.1430  0.2871
    1TCq1    O414103   2.149   2.313  10.768 -0.0022 -0.1106 -0.7056
    1TCq1    C914104   2.348   2.612  11.231 -0.8222 -0.7148  0.6062
    1TCq1    O514105   2.465   2.631  11.192 -0.3498 -0.4386 -0.2588
    1TCq1    O614106   2.297   2.661  11.336  0.1043 -0.7526  0.1497
    1TCq1    H114107   1.886   2.322  11.020  0.5785  0.4754 -0.4046
    1TCq1    H214108   2.105   2.526  11.284 -0.3519  2.4058  0.4253
    1TCq1    H314109   2.385   2.541  10.969 -1.6126  0.1136 -3.1977
    1TCq1    H414110   1.986   2.419  10.895  1.2832  0.3525 -1.7034
    2MPD1     C14111   2.505   2.302  10.377  0.0133  0.4326  0.5103
    2MPD1    C114112   2.561   2.413  10.428 -0.1171  0.2193  1.1657
    2MPD1    C214113   2.514   2.450  10.554 -0.7295 -0.0809 -0.4100
    2MPD1    C314114   2.394   2.404  10.606 -0.2104 -0.7025  0.3822
    2MPD1    C414115   2.335   2.296  10.545  0.3932 -0.4380 -0.0184
    2MPD1    C514116   2.390   2.248  10.431  0.1051 -0.5458 -0.3949
    2MPD1     H14117   2.565   2.521  10.618  0.5625 -2.1028  0.7688
    2MPD1    H114118   2.250   2.246  10.589 -0.5500  0.4756 -0.8023
    2MPD1    H214119   2.545   2.249  10.291 -0.4392  1.0097 -0.0575
    2MPD1    H314120   2.360   2.149  10.398  0.6310  0.1501 -2.8933
    2MPD1     N14121   2.345   2.447  10.734  0.4417  0.2189 -0.3336
    2MPD1    H514122   2.405   2.510  10.787 -1.1197  0.3994  1.2344
    2MPD1    N114123   2.680   2.455  10.371 -0.1471 -0.2406 -0.5553
    2MPD1    H614124   2.676   2.461  10.270 -0.5542 -0.3910 -0.5479
    2MPD1    H714125   2.704   2.546  10.412 -1.7694 -0.3859  0.7179
    1TMC1    C114126   4.132   2.833   9.714  0.0623 -0.4034  0.0299
    1TMC1    C214127   4.076   2.880   9.602  0.0471 -0.4000 -0.3535
    1TMC1    C314128   4.132   2.861   9.483 -0.1507 -0.2763  0.5902
    1TMC1    C414129   4.240   2.754   9.713 -0.4257  0.2521  0.4651
    1TMC1    C514130   4.292   2.724   9.592  0.1859 -0.4863 -0.3423
    1TMC1    C614131   4.245   2.780   9.479 -0.0996  0.1692 -0.5821
    1TMC1     C14132   4.052   2.823   9.833  0.1346 -0.1256 -0.2991
    1TMC1     O14133   4.092   2.747   9.919 -0.5853  0.4051 -0.4296
    1TMC1     H14134   3.974   2.917   9.609 -0.0343 -0.5366 -0.7873
    1TMC1    H114135   4.293   2.724   9.802 -0.5391 -0.4850  0.2850
    1TMC1    H214136   4.281   2.735   9.387  0.4181  1.7947 -1.1745
    1TMC1    C714137   4.366   2.606   9.578 -0.4404  0.6324  0.4331
    1TMC1    C814138   4.049   2.856   9.368  0.0251  0.0818 -1.3375
    1TMC1    O114139   4.359   2.542   9.471  0.0952  0.3540 -0.3188
    1TMC1    O214140   4.091   2.798   9.268  0.1127  0.5446 -0.2065
    1TMC1    O314141   4.472   2.607   9.658  0.3663  0.2677 -0.1328
    1TMC1    H314142   4.473   2.674   9.729  0.7553  1.3063 -1.1170
    1TMC1    O514143   3.971   2.963   9.363 -0.3192 -0.0788  0.1853
    1TMC1    H514144   3.962   3.028   9.436  2.1074  0.7112 -0.2154
    2MPD1     C14145   3.665   2.966  10.125 -0.3767  0.1802 -0.4373
    2MPD1    C114146   3.682   3.062  10.030 -0.8405  0.3260 -0.8140
    2MPD1    C214147   3.785   3.043   9.935  0.1351  0.2071 -0.3029
    2MPD1    C314148   3.855   2.922   9.934  0.3094  0.1414 -0.0461
    2MPD1    C414149   3.838   2.826  10.033 -1.1664 -1.0176 -0.1962
    2MPD1    C514150   3.743   2.853  10.127 -0.5920  0.5229 -0.2834
    2MPD1     H14151   3.798   3.118   9.858  0.3970 -0.2628 -0.7134
    2MPD1    H114152   3.881   2.727  10.032 -0.5636 -0.7674  1.9298
    2MPD1    H214153   3.576   2.965  10.187 -0.5369 -0.0090 -0.6669
    2MPD1    H314154   3.724   2.778  10.203  1.0912  0.3986  0.0264
    2MPD1     N14155   3.950   2.913   9.835  0.2699  0.4729  0.2305
    2MPD1    H514156   3.938   2.973   9.754 -0.1732  0.8103  0.5441
    2MPD1    N114157   3.586   3.163  10.014 -0.2259 -0.2323 -0.2909
    2MPD1    H614158   3.623   3.253   9.985  1.7813 -0.8149  0.4694
    2MPD1    H714159   3.524   3.168  10.095 -0.4410 -1.1524 -0.3963
    1MPD1     C14160   4.147   4.010  10.612 -0.9730 -0.7120  0.6013
    1MPD1    C114161   4.276   4.039  10.636 -0.4245 -0.4470 -0.3465
    1MPD1    C214162   4.334   3.957  10.732 -0.1396 -0.0297 -0.2383
    1MPD1    C314163   4.266   3.844  10.784 -0.1613  0.3009 -0.3815
    1MPD1    C414164   4.136   3.813  10.753  0.5249 -0.3389 -0.7975
    1MPD1    C514165   4.077   3.911  10.668  0.1954  0.0584 -0.2392
    1MPD1     H14166   4.428   3.992  10.774 -0.3904  1.2000 -0.6874
    1MPD1    H114167   4.069   3.732  10.780 -0.9330  1.4705  0.9716
    1MPD1    H214168   4.091   4.076  10.547 -0.5225 -0.1383  0.8035
    1MPD1    H314169   3.974   3.902  10.635 -0.0344  0.1233  0.4539
    1MPD1     N14170   4.334   3.761  10.875 -0.1377  0.0289  0.3277
    1MPD1    H514171   4.426   3.798  10.894  0.1048 -0.6710  0.5031
    1MPD1    N114172   4.339   4.157  10.591  0.0087  0.2138  0.0812
    1MPD1    H614173   4.431   4.136  10.554  0.2073  0.6809  0.3181
    1MPD1    H714174   4.289   4.178  10.505 -0.0687  2.1694  0.6035
    2MPD1     C14175   3.695   1.518   9.759  0.1590 -0.2817  0.2126
    2MPD1    C114176   3.814   1.542   9.825 -0.3170  0.6583 -0.8443
    2MPD1    C214177   3.816   1.633   9.936 -0.4563 -0.0718 -0.1880
    2MPD1    C314178   3.703   1.699   9.971  0.3582  0.1457  0.1987
    2MPD1    C414179   3.581   1.669   9.901  0.7784 -0.3214  0.1432
    2MPD1    C514180   3.582   1.581   9.798 -0.2089 -0.1034 -0.1065
    2MPD1     H14181   3.901   1.668   9.994 -2.6970  2.0893  1.8180
    2MPD1    H114182   3.481   1.696   9.934  0.3321  1.3725 -2.6823
    2MPD1    H214183   3.703   1.463   9.666 -0.3534 -2.2218  1.3166
    2MPD1    H314184   3.486   1.554   9.756 -0.7591  0.5985  0.7064
    2MPD1     N14185   3.696   1.789  10.073  0.0731  0.0870 -0.0182
    2MPD1    H514186   3.605   1.833  10.088 -1.1027 -2.3317 -0.0906
    2MPD1    N114187   3.924   1.463   9.789  0.4781  0.0968 -0.1322
    2MPD1    H614188   3.930   1.431   9.692  0.1752 -0.8822  0.1773
    2MPD1    H714189   4.011   1.513   9.810  0.6313 -0.4306  0.4865
    3MPD1     C14190   3.244   1.796  10.937  0.1424  0.1361  0.1068
    3MPD1    C114191   3.375   1.803  10.970  0.3914  0.1881 -0.3087
    3MPD1    C214192   3.460   1.836  10.872 -0.9401 -0.6089 -0.4041
    3MPD1    C314193   3.415   1.862  10.743  0.1276  0.5740  0.6092
    3MPD1    C414194   3.281   1.876  10.713  0.3718  0.0840  0.3670
    3MPD1    C514195   3.198   1.845  10.816 -0.0214  0.6004  0.2674
    3MPD1     H14196   3.565   1.813  10.887 -0.3189  0.5188 -2.9489
    3MPD1    H114197   3.239   1.905  10.618  0.8117  2.1223  0.8012
    3MPD1    H214198   3.171   1.768  11.012 -0.1167 -0.2509 -0.2853
    3MPD1    H314199   3.093   1.837  10.792  0.0921 -0.5385  0.1343
    3MPD1     N14200   3.517   1.885  10.650 -0.6431  0.0628 -0.1158
    3MPD1    H514201   3.615   1.883  10.678 -0.2393 -1.2431 -1.6261
    3MPD1    N114202   3.427   1.732  11.076  0.2898  0.0634 -0.5576
    3MPD1    H614203   3.517   1.757  11.117  1.1719 -0.5738 -2.1243
    3MPD1    H714204   3.359   1.738  11.151  2.6570  1.5537  1.4876
    4MPD2     C14205   0.032   3.214  10.572  0.4673 -0.7386  0.6449
    4MPD2    C114206   0.003   3.201  10.708 -0.2351 -0.0214  0.2948
    4MPD2    C214207   4.730   3.074  10.758  0.3205  0.1449 -0.3082
    4MPD2    C314208   0.009   2.960  10.686  0.1851  0.3330  0.6108
    4MPD2    C414209   0.055   2.980  10.551 -0.4123  0.1130 -0.5093
    4MPD2    C514210   0.067   3.109  10.496 -0.0972 -0.0590 -0.0450
    4MPD2     H14211   4.707   3.065  10.864  3.7905 -2.9729  0.1766
    4MPD2    H114212   0.084   2.895  10.490  0.6546 -1.3390  2.0243
    4MPD2    H214213   0.021   3.308  10.518  2.4747 -0.5804  0.5159
    4MPD2    H314214   0.086   3.121  10.390  0.7473 -0.0885  0.1019
    4MPD2     N14215   4.717   2.833  10.740  0.0702  0.3978  0.5184
    4MPD2    H514216   4.684   2.836  10.835 -0.7071 -2.5073  0.3260
    4MPD2    N114217   4.711   3.305  10.803  0.2817 -0.3214  0.2650
    4MPD2    H714218   4.684   3.272  10.895 -1.6461 -1.7748 -0.8207
    5TMC3    C114219   4.639   3.506  10.894 -0.1053  0.3638  0.4402
    5TMC3    C214220   4.531   3.581  10.871  0.0008  0.9728 -0.5458
    5TMC3    C314221   4.428   3.572  10.967  0.0865  0.3730 -0.4415
    5TMC3    C414222   4.652   3.426  11.008  0.2121  0.5159 -0.3727
    5TMC3    C514223   4.547   3.418  11.091  0.1633  0.0341 -0.6032
    5TMC3    C614224   4.430   3.487  11.070  0.3772 -0.6175  0.1237
    5TMC3     C14225   4.692   3.440  10.776  0.1353 -0.1548  0.5086
    5TMC3     O14226   4.692   3.493  10.666  0.2049 -0.1962  0.5841
    5TMC3     H14227   4.511   3.635  10.779  1.1990 -0.9938 -1.9649
    5TMC3    H114228   0.015   3.383  11.027 -0.5493 -0.1125  2.1259
    5TMC3    H214229   4.346   3.487  11.140  1.2427 -1.2213  1.1554
    5TMC3    C714230   4.541   3.282  11.152 -0.6521 -0.4373 -0.2506
    5TMC3    C814231   4.302   3.638  10.921 -0.4212  0.1309  0.5145
    5TMC3    O114232   4.636   3.213  11.129  0.3654  1.2206  0.1343
    5TMC3    O214233   4.197   3.579  10.929 -0.0923 -0.1843 -0.3945
    6TMC3    C114234   3.754   1.919  10.257 -0.2139 -0.9035  0.7482
    6TMC3    C214235   3.634   1.877  10.323 -0.0408  0.0417 -0.0403
    6TMC3    C314236   3.624   1.928  10.453  0.7808 -0.7989 -0.0977
    6TMC3    C414237   3.856   1.983  10.328  0.0929 -0.0098  0.6014
    6TMC3    C514238   3.838   2.029  10.460  0.8575  0.3454  0.4485
    6TMC3    C614239   3.717   2.005  10.520  1.2240  0.0542 -0.0304
    6TMC3     C14240   3.796   1.855  10.138 -0.0782  0.1025  0.4969
    6TMC3     O14241   3.911   1.869  10.102 -0.1172  0.6718  0.5927
    6TMC3     H14242   3.550   1.831  10.272  0.4070 -1.2386  0.3863
    6TMC3    H114243   3.957   1.994  10.290  0.2849 -3.6830  0.0083
    6TMC3    H214244   3.707   2.026  10.626  0.4803 -3.2557  0.5578
    6TMC3    C714245   3.924   2.126  10.515  0.4762 -0.0140 -0.7953
    6TMC3    C814246   3.495   1.899  10.517  0.0412  0.1053  0.7071
    6TMC3    O114247   3.938   2.114  10.632  0.3575  0.0152  0.4483
    6TMC3    O214248   3.404   1.849  10.453  0.3716  0.0259 -0.1883
    7MPD2     C14249   4.284   2.868  11.293 -0.4793 -0.1895  0.2362
    7MPD2    C114250   4.374   2.884  11.191 -0.3043 -0.5927 -0.7887
    7MPD2    C214251   4.413   3.014  11.164  0.1885 -0.3676  0.0999
    7MPD2    C314252   4.382   3.123  11.244 -0.2413 -0.1884 -0.8386
    7MPD2    C414253   4.288   3.100  11.347  0.7185  0.0918 -0.3967
    7MPD2    C514254   4.246   2.969  11.378 -0.0462  0.3153 -0.3964
    7MPD2     H14255   4.473   3.037  11.077 -0.6720  1.3201 -0.0409
    7MPD2    H114256   4.270   3.181  11.417 -0.4383  1.7224 -2.5853
    7MPD2    H214257   4.252   2.767  11.316 -0.2179 -0.0940  1.0203
    7MPD2    H314258   4.185   2.950  11.466  1.4087  0.7716  0.7062
    7MPD2     N14259   4.421   3.252  11.218 -0.2950 -0.3090  0.2572
    7MPD2    H514260   4.377   3.328  11.268 -0.5177 -0.0524 -0.3389
    7MPD2    N114261   4.422   2.768  11.118 -0.2276 -0.9663  0.0676
    7MPD2    H714262   4.373   2.680  11.131 -1.1716 -0.3522  0.6212
    8TMC3    C114263   4.553   2.632  10.966 -0.3374 -0.6060  0.0981
    8TMC3    C214264   4.447   2.560  10.913  0.2734 -0.1076  0.4145
    8TMC3    C314265   4.459   2.511  10.786  0.1131  0.2146 -0.0560
    8TMC3    C414266   4.669   2.654  10.894 -0.5862 -0.2651  0.7156
    8TMC3    C514267   4.659   2.612  10.763 -0.1173  0.4918 -0.2483
    8TMC3    C614268   4.561   2.544  10.706 -0.2311 -0.4290 -0.3273
    8TMC3     C14269   4.528   2.758  11.035  0.1102 -0.2595  0.6072
    8TMC3     O14270   4.608   2.846  11.008  0.1620 -0.1859  0.1827
    8TMC3     H14271   4.352   2.544  10.963  1.1871 -1.1686  1.8301
    8TMC3    H114272   0.023   2.699  10.937  0.3638 -0.9580 -0.5264
    8TMC3    H214273   4.572   2.493  10.610  0.7484 -0.5189 -0.1647
    8TMC3    C714274   4.707   2.715  10.670 -0.5327  0.3703 -0.0719
    8TMC3    C814275   4.342   2.456  10.724  0.4000  0.0185 -0.2617
    8TMC3    O114276   4.723   2.691  10.547 -0.3436 -0.3440 -0.9248
    8TMC3    O214277   4.265   2.396  10.799 -0.0987  0.3836 -0.3084
    9MPD2     C14278   4.237   2.526  10.382 -0.6255  0.2399 -0.2628
    9MPD2    C114279   4.233   2.455  10.498 -0.0632 -0.5789  0.0644
    9MPD2    C214280   4.142   2.354  10.508 -0.8983  0.4514  0.2479
    9MPD2    C314281   4.059   2.321  10.405  1.3239 -0.5160 -0.3617
    9MPD2    C414282   4.060   2.394  10.291 -0.0925  0.0175 -0.1651
    9MPD2    C514283   4.154   2.494  10.281  0.4165 -0.5967  0.1390
    9MPD2     H14284   4.131   2.299  10.601 -2.0231  2.1725  1.1370
    9MPD2    H114285   4.017   2.358  10.198 -1.7659  1.7677 -0.0649
    9MPD2    H214286   4.291   2.619  10.374  0.9000 -0.6178  0.1151
    9MPD2    H314287   4.141   2.553  10.191  1.8047  1.9339  1.5917
    9MPD2     N14288   3.966   2.209  10.414 -0.3791  0.3227 -0.1246
    9MPD2    H514289   3.915   2.200  10.327 -0.6733  1.7124 -0.0984
    9MPD2    N114290   4.331   2.490  10.590  0.4720  0.7888 -0.0558
    9MPD2    H714291   4.395   2.560  10.554  1.4299 -1.2968 -2.3697
    1MPD1     C14292   3.475   1.114  15.844  0.1107  0.2429  0.3939
    1MPD1    C114293   3.507   1.119  15.709 -0.2399 -0.3627 -0.3287
    1MPD1    C214294   3.524   1.247  15.653 -0.3564  0.0406 -0.0597
    1MPD1    C314295   3.484   1.365  15.723  0.6641  0.2560 -0.0817
    1MPD1    C414296   3.441   1.352  15.851  0.3902 -0.6979 -0.2944
    1MPD1    C514297   3.428   1.226  15.906  0.1608 -0.3200  0.0331
    1MPD1     H14298   3.561   1.250  15.551 -1.4580 -1.4738 -0.4988
    1MPD1    H114299   3.398   1.438  15.901  0.3785 -0.3263 -0.9471
    1MPD1    H214300   3.472   1.022  15.902  1.6457 -0.0958 -0.0773
    1MPD1    H314301   3.385   1.231  16.006  1.2889  2.0006  0.4186
    1MPD1     N14302   3.483   1.493  15.655 -0.0643 -0.7594  0.0781
    1MPD1    H514303   3.443   1.571  15.707  0.7469 -2.0443  2.6781
    1MPD1    N114304   3.555   0.995  15.644  0.2164  0.3938 -0.1535
    1MPD1    H614305   3.540   0.995  15.543 -0.1215  1.4841 -0.1009
    1MPD1    H714306   3.502   0.916  15.679 -1.0288  0.8008 -1.1104
    2TMC2    C114307   3.456   1.877  15.513 -0.1940 -0.2548  0.3455
    2TMC2    C214308   3.492   1.902  15.388 -0.5665 -0.6714  0.0944
    2TMC2    C314309   3.545   1.807  15.315 -0.4444 -0.8217  0.4379
    2TMC2    C414310   3.459   1.755  15.570 -0.1379 -0.0990  0.4752
    2TMC2    C514311   3.515   1.658  15.489  0.2574 -0.8338 -0.6244
    2TMC2    C614312   3.550   1.679  15.360  0.5287 -0.2430  0.0172
    2TMC2     C14313   3.407   1.993  15.586 -0.2311 -0.2164  0.1368
    2TMC2     O14314   3.419   2.104  15.534 -0.1848 -0.1564  0.0566
    2TMC2     H14315   3.486   2.001  15.343 -2.6953 -0.8300  0.0274
    2TMC2    H114316   3.414   1.725  15.664  0.6592 -1.3024  0.4741
    2TMC2    H214317   3.601   1.602  15.302  1.2696  0.1250  0.1716
    2TMC2    C714318   3.529   1.523  15.527 -0.2296  0.6449 -0.1976
    2TMC2    C814319   3.621   1.844  15.194  0.7755  0.0693  0.5316
    2TMC2    O114320   3.578   1.444  15.445 -0.0402 -0.1797 -0.3408
    2TMC2    O214321   3.684   1.949  15.193  0.2525 -0.1155  0.2855
    2TMC2    O514322   3.633   1.744  15.107  0.1674 -0.4236  0.1020
    2TMC2    H514323   3.578   1.663  15.112 -1.3686  0.7015  1.3725
    3MPD1     C14324   3.193   2.208  15.995 -0.3776 -0.2631 -0.1644
    3MPD1    C114325   3.193   2.076  16.016 -0.1851  0.6517 -0.1385
    3MPD1    C214326   3.248   1.995  15.916  0.2688 -0.0793 -0.0739
    3MPD1    C314327   3.300   2.052  15.799 -0.2678 -0.3105  1.0804
    3MPD1    C414328   3.306   2.185  15.786  0.5611  0.2382  0.3851
    3MPD1    C514329   3.254   2.262  15.888  0.2224  0.3104  1.3677
    3MPD1     H14330   3.249   1.889  15.938  1.1003 -0.5130 -2.2290
    3MPD1    H114331   3.344   2.241  15.701 -0.1556  0.9106  0.5111
    3MPD1    H214332   3.159   2.278  16.070 -1.0218 -0.2177 -0.4953
    3MPD1    H314333   3.239   2.369  15.876  0.6452  0.1892 -0.2078
    3MPD1     N14334   3.345   1.964  15.703  0.5342 -0.1920  0.1405
    3MPD1    H514335   3.327   1.873  15.743 -0.2875  0.7722  2.0055
    3MPD1    N114336   3.150   2.021  16.137  0.0432  0.0581  0.2497
    3MPD1    H614337   3.081   2.075  16.188 -0.5563 -0.3794 -0.1005
    3MPD1    H714338   3.137   1.920  16.130 -3.1449  0.5364 -0.7106
    1TMC1    C114339   2.302   0.372  13.387  0.2074 -0.2368 -0.6952
    1TMC1    C214340   2.343   0.244  13.359  0.1134 -0.6216  0.6972
    1TMC1    C314341   2.241   0.148  13.348 -0.2551  0.8517  0.2404
    1TMC1    C414342   2.171   0.408  13.403  0.4115 -0.9104 -1.2425
    1TMC1    C514343   2.078   0.306  13.392 -0.1353 -0.8009 -0.3201
    1TMC1    C614344   2.109   0.176  13.367 -0.3277 -0.3799 -0.2054
    1TMC1     C14345   2.395   0.481  13.342 -0.2373  0.0664 -0.0810
    1TMC1     O14346   2.342   0.582  13.296 -0.0842  0.3270 -0.6715
    1TMC1     H14347   2.445   0.213  13.343  0.0275 -1.6115  2.1084
    1TMC1    H114348   2.145   0.513  13.413  0.6467 -1.2466  2.9397
    1TMC1    H214349   2.029   0.103  13.363  0.9818 -1.8762  0.9823
    1TMC1    C714350   1.938   0.337  13.379  0.1629  0.8755 -0.2041
    1TMC1    C814351   2.257   0.010  13.332 -0.5629  0.2470  0.2589
    1TMC1    O114352   1.848   0.264  13.337 -0.1922 -0.5478  0.4144
    1TMC1    O214353   2.350   4.677  13.378  0.2189  0.2414  0.1216
    1TMC1    O314354   1.915   0.451  13.449  0.1926  0.5806  0.3318
    1TMC1    H314355   1.986   0.484  13.508  1.0011  0.6613 -0.6856
    1TMC1    O514356   2.215   4.730  13.206 -0.1274 -0.0750 -0.7410
    1TMC1    H514357   2.161   0.070  13.173 -1.8106  0.2952  2.8067
    2MPD2     C14358   2.637   0.649  13.302  0.7790  0.7402 -0.3142
    2MPD2    C114359   2.642   0.518  13.350  0.6846  0.0639  0.1337
    2MPD2    C214360   2.756   0.470  13.416 -0.2325 -0.2273  0.4537
    2MPD2    C314361   2.866   0.558  13.438  0.3363  0.2778 -0.3475
    2MPD2    C414362   2.854   0.692  13.391  0.3544  0.6816  0.2508
    2MPD2    C514363   2.746   0.728  13.317 -0.2433 -0.7207  0.4034
    2MPD2     H14364   2.757   0.365  13.441 -2.3247 -0.2752  0.3425
    2MPD2    H114365   2.932   0.767  13.395  0.6500  0.3961 -0.1740
    2MPD2    H214366   2.551   0.690  13.249 -0.6911  0.6140  1.9790
    2MPD2    H314367   2.754   0.828  13.278 -1.1846 -1.2706 -1.1870
    2MPD2     N14368   2.984   0.499  13.493 -0.4950 -0.8228  0.2736
    2MPD2    H514369   2.993   0.398  13.486 -0.3049 -0.7036 -1.3142
    2MPD2    N114370   2.523   0.441  13.366 -0.1670  0.5672  0.3320
    2MPD2    H714371   2.540   0.351  13.410 -0.1203  1.3693  1.9687
    3TCq1    O114372   3.273   0.495  13.991 -0.2453 -0.6411  0.3982
    3TCq1    C114373   3.325   0.384  13.932 -0.1573  0.3776 -0.5316
    3TCq1    O214374   3.335   0.279  13.989  0.1500 -0.0776  0.0651
    3TCq1    C214375   3.304   0.387  13.788 -0.3347 -0.7264  0.6818
    3TCq1    C314376   3.345   0.281  13.712  0.1836 -0.0037 -0.3992
    3TCq1    C414377   3.301   0.280  13.584 -0.0884 -0.4571 -0.1225
    3TCq1    C514378   3.210   0.371  13.527 -0.3467 -0.5791 -0.2058
    3TCq1    C614379   3.167   0.467  13.612  0.2048 -0.3311  0.5016
    3TCq1    C714380   3.223   0.486  13.736  0.0274  0.3240 -0.3196
    3TCq1    C814381   3.073   0.565  13.568 -0.1609 -0.6639 -0.1425
    3TCq1    O414382   3.094   0.677  13.609 -0.5837 -0.0088  0.3429
    3TCq1    C914383   3.353   0.175  13.501 -0.3065 -0.4278  0.2331
    3TCq1    O514384   3.401   0.077  13.558  0.0049 -0.2952 -0.5837
    3TCq1    O614385   3.314   0.175  13.378  0.5642 -0.4509 -0.5796
    3TCq1    H114386   3.296   0.569  13.931  0.9836 -1.6262 -0.3347
    3TCq1    H214387   3.416   0.213  13.758  0.9035  1.6928  1.0158
    3TCq1    H314388   3.185   0.366  13.422 -1.0051  0.9308 -0.1094
    3TCq1    H414389   3.172   0.564  13.791 -1.9348 -0.4063 -1.0992
    1MPD2     C14390   2.076   1.460  14.133  0.3617 -0.4201  0.2315
    1MPD2    C114391   2.024   1.569  14.194  0.1061  0.5158 -0.6961
    1MPD2    C214392   2.097   1.620  14.301 -0.2078 -0.0061 -0.0809
    1MPD2    C314393   2.223   1.566  14.342  0.4138 -0.1340  0.1275
    1MPD2    C414394   2.270   1.455  14.279  0.6406 -0.5244  0.4646
    1MPD2    C514395   2.199   1.404  14.168  0.2930 -0.0169  0.6437
    1MPD2     H14396   2.059   1.711  14.346  1.0716  0.9083 -0.8084
    1MPD2    H114397   2.363   1.408  14.307  0.6118 -0.0533  1.3697
    1MPD2    H214398   2.028   1.416  14.045 -2.4785 -0.0662  1.5974
    1MPD2    H314399   2.237   1.310  14.128  1.0277  0.3078  0.5717
    1MPD2     N14400   2.302   1.628  14.443  0.0506  0.1567 -0.2926
    1MPD2    H514401   2.394   1.591  14.462 -1.2198 -1.4643  2.7197
    1MPD2    N114402   1.890   1.610  14.153 -0.1410 -0.0661 -0.2191
    1MPD2    H714403   1.844   1.562  14.076 -1.5200  0.4378  0.3004
    2TMC3    C114404   1.700   1.753  14.146  0.0283  0.2914  0.6344
    2TMC3    C214405   1.626   1.828  14.232 -0.0213 -0.1596 -0.3182
    2TMC3    C314406   1.584   1.955  14.199 -0.1458  0.0364  0.1351
    2TMC3    C414407   1.707   1.797  14.015 -0.2647 -0.1373  0.4054
    2TMC3    C514408   1.631   1.902  13.975 -0.8273  0.0015  0.2941
    2TMC3    C614409   1.574   1.981  14.071 -0.1458 -0.1219  0.6950
    2TMC3     C14410   1.821   1.717  14.212  0.2488  0.0486 -0.0081
    2TMC3     O14411   1.854   1.793  14.301  0.1729  0.6686 -0.2689
    2TMC3     H14412   1.624   1.791  14.334 -0.6541 -1.2560 -0.7327
    2TMC3    H114413   1.762   1.739  13.942 -1.8293 -1.2304  0.1147
    2TMC3    H214414   1.525   2.075  14.046  2.6227  0.9705 -0.6781
    2TMC3    C714415   1.629   1.940  13.834 -0.2271 -0.2377  0.0534
    2TMC3    C814416   1.622   2.072  14.285  0.1796 -0.6101 -0.3167
    2TMC3    O114417   1.669   1.859  13.756  0.6669 -0.2193 -0.1668
    2TMC3    O214418   1.584   2.186  14.257 -0.4897 -0.3591  0.5480
    3TCq1    O114419   1.600   3.009  13.611 -0.0794 -0.2448 -0.1567
    3TCq1    C114420   1.682   2.902  13.626  0.3099 -0.1590  0.4929
    3TCq1    O214421   1.717   2.844  13.733  0.0079  0.4175 -0.6019
    3TCq1    C214422   1.649   2.831  13.506  0.0651  0.2652 -0.4559
    3TCq1    C314423   1.636   2.900  13.392  0.1338  0.3364  0.5150
    3TCq1    C414424   1.566   2.855  13.284 -0.1968  0.2774  0.1522
    3TCq1    C514425   1.526   2.722  13.291 -0.0522  0.6553 -0.8504
    3TCq1    C614426   1.540   2.653  13.411  0.5910  0.9513  0.5080
    3TCq1    C714427   1.598   2.707  13.523  0.3808 -0.5555  0.1927
    3TCq1    C814428   1.499   2.514  13.403 -0.6811 -0.5030 -0.3385
    3TCq1    O414429   1.421   2.472  13.317 -0.0197  0.0054  0.0031
    3TCq1    C914430   1.564   2.925  13.162 -0.0951 -0.1413  0.4190
    3TCq1    O514431   1.630   3.032  13.152 -0.4448  0.2113 -0.6144
    3TCq1    O614432   1.523   2.865  13.058 -0.5554  0.1316  0.0679
    3TCq1    H114433   1.562   3.015  13.520  0.6338 -0.5666 -0.4681
    3TCq1    H214434   1.686   2.996  13.384 -2.8853  1.8939  0.4621
    3TCq1    H314435   1.476   2.682  13.204 -1.5248 -1.9258  1.1783
    3TCq1    H414436   1.588   2.653  13.616 -0.0724 -0.7467  0.0315
    4MPD2     C14437   1.485   2.222  13.427  0.0541 -0.2914 -0.5223
    4MPD2    C114438   1.525   2.309  13.529  0.4440 -0.4022  0.1324
    4MPD2    C214439   1.555   2.251  13.648 -0.6319 -0.9201 -0.3422
    4MPD2    C314440   1.559   2.117  13.675  0.7437  0.3342  0.7928
    4MPD2    C414441   1.532   2.026  13.570  0.9854  0.1403 -0.7574
    4MPD2    C514442   1.492   2.086  13.449 -0.5065 -0.1701  0.3003
    4MPD2     H14443   1.584   2.313  13.732  0.9235 -1.8282 -0.2066
    4MPD2    H114444   1.532   1.919  13.585 -2.2439  0.5370  1.8121
    4MPD2    H214445   1.450   2.255  13.329  0.9032 -0.2289 -0.8078
    4MPD2    H314446   1.455   2.016  13.375 -1.9320  0.0779  0.7948
    4MPD2     N14447   1.589   2.069  13.806 -0.0675 -0.5565  0.4913
    4MPD2    H514448   1.589   2.135  13.883  0.1926  1.6798 -1.4396
    4MPD2    N114449   1.549   2.447  13.511 -0.4522  0.4672 -0.2821
    4MPD2    H714450   1.609   2.494  13.578 -0.5463  1.0630 -0.6101
    5TMC2    C114451   2.302   1.975  14.742  0.3573  0.9191  0.3025
    5TMC2    C214452   2.333   1.909  14.855 -0.5964  0.3160 -0.8868
    5TMC2    C314453   2.379   1.782  14.834 -0.3660  0.3631 -0.1532
    5TMC2    C414454   2.320   1.922  14.617 -0.5538  0.8034 -0.4389
    5TMC2    C514455   2.358   1.791  14.604  0.7353 -0.4770 -0.0356
    5TMC2    C614456   2.385   1.715  14.717 -0.0267 -0.0723 -0.2922
    5TMC2     C14457   2.187   2.068  14.748 -0.1846 -0.3969  0.0214
    5TMC2     O14458   2.184   2.164  14.829  0.5286  0.3934  0.0184
    5TMC2     H14459   2.321   1.945  14.956  2.7231  0.1803 -0.4642
    5TMC2    H114460   2.297   1.988  14.535 -0.5507  0.1658 -0.9536
    5TMC2    H214461   2.417   1.611  14.720 -3.2709 -1.0992 -1.4861
    5TMC2    C714462   2.263   1.737  14.514  0.0119  0.4572 -0.2049
    5TMC2    C814463   2.444   1.708  14.952 -0.1724 -0.4100 -0.2279
    5TMC2    O114464   2.161   1.807  14.504 -0.1046  0.2640  0.0956
    5TMC2    O214465   2.456   1.587  14.945  0.2593  0.4005  0.2036
    5TMC2    O514466   2.517   1.797  15.027 -0.1298 -0.0143  0.3513
    5TMC2    H514467   2.518   1.888  14.992  1.0347 -0.1606 -0.0080
    6MPD2     C14468   1.757   2.223  14.506  0.1520  0.9825 -0.3199
    6MPD2    C114469   1.802   2.106  14.456  0.3390 -0.1595  0.1589
    6MPD2    C214470   1.923   2.045  14.495 -0.4493 -0.2585  0.4339
    6MPD2    C314471   1.992   2.110  14.595  0.4134  0.1112 -0.5457
    6MPD2    C414472   1.950   2.239  14.637 -0.2152  0.3619  0.7977
    6MPD2    C514473   1.839   2.291  14.591 -0.6417 -0.1232  0.0470
    6MPD2     H14474   1.958   1.949  14.457  0.2702  0.9700 -2.0120
    6MPD2    H114475   2.012   2.300  14.701  1.1032  0.6969 -0.7957
    6MPD2    H214476   1.656   2.257  14.485  1.4126  3.8976 -1.6693
    6MPD2    H314477   1.820   2.394  14.619 -0.6935 -0.5926  1.7132
    6MPD2     N14478   2.096   2.034  14.654 -0.2501 -0.8886 -0.1473
    6MPD2    H514479   2.119   1.941  14.621  1.1045 -1.5109  2.4813
    6MPD2    N114480   1.731   2.032  14.360  0.2822 -0.1752 -0.1018
    6MPD2    H714481   1.769   1.941  14.339 -0.8388 -0.6786  0.0383
  945NH4     N114482   2.396   3.402  13.362 -0.3291  0.4149  0.0030
  945NH4     H214483   2.295   3.386  13.381 -0.2123 -1.4025 -0.9255
  945NH4     H314484   2.432   3.327  13.300 -0.8249 -0.4011  0.6989
  945NH4     H414485   2.448   3.415  13.451  4.4460 -2.6807 -2.3631
  945NH4     H514486   2.411   3.494  13.316  2.7991 -1.1752 -2.1267
  946SOD     NA14487   0.230   0.265   9.782 -0.1754 -0.2683 -0.1528
  947SOD     NA14488   3.113   4.009  16.424 -0.0171  0.1200  0.0572
  948SOD     NA14489   0.093   4.448  14.005 -0.4379 -0.0105 -0.0976
  949SOD     NA14490   0.602   0.194  16.675 -0.5425  0.2186  0.6772
  950SOD     NA14491   2.301   3.292  10.729  0.0023 -0.6629  0.2462
  951SOD     NA14492   2.292   2.964   5.346 -0.0619 -0.0598 -0.6715
  952SOD     NA14493   2.423   1.487  10.757  0.3901  0.1077 -0.1277
  953SOL     OW14494   2.676   3.315   9.901 -0.1186  0.0504 -0.3415
  953SOL    HW114495   2.678   3.347   9.811 -4.0715  1.2893 -0.0110
  953SOL    HW214496   2.750   3.365   9.935 -0.9508  1.6314 -0.8365
  954SOL     OW14497   0.422   0.758  12.548 -0.0224 -0.3936  0.8763
  954SOL    HW114498   0.394   0.782  12.460  0.5850  1.6339  1.2474
  954SOL    HW214499   0.489   0.691  12.538  1.1659  0.8931  0.3797
  955SOL     OW14500   1.470   1.970   2.844  0.0652 -0.1552 -0.1878
  955SOL    HW114501   1.407   2.004   2.780 -4.3862 -0.3826  4.1360
  955SOL    HW214502   1.452   2.030   2.916 -2.7616  0.3840 -1.3367
  956SOL     OW14503   2.648   0.638  15.718 -0.1394 -0.5629  0.4585
  956SOL    HW114504   2.567   0.590  15.701  1.2075 -2.1965 -1.3816
  956SOL    HW214505   2.622   0.714  15.771  0.1349 -1.7481  2.3113
  957SOL     OW14506   0.744   2.575   2.973  0.7146  0.2558 -0.0353
  957SOL    HW114507   0.748   2.641   2.904 -1.9657 -0.4393 -0.8442
  957SOL    HW214508   0.694   2.621   3.040  0.9034 -0.2417  0.4498
  958SOL     OW14509   1.150   1.369  13.973  0.3171 -0.2196  0.2925
  958SOL    HW114510   1.161   1.295  13.914 -1.7724 -0.2611 -0.0555
  958SOL    HW214511   1.139   1.332  14.060  1.3814  0.3048  0.6557
  959SOL     OW14512   1.919   1.295  10.248  0.2716 -0.7995 -0.1506
  959SOL    HW114513   1.914   1.247  10.166  0.8286 -2.9607  1.0880
  959SOL    HW214514   1.834   1.259  10.275 -0.6173  0.5781 -1.0901
  960SOL     OW14515   0.133   0.031  15.411 -0.6993 -0.0250  0.6473
  960SOL    HW114516   0.078   4.723  15.345 -1.4303 -0.3710  1.4891
  960SOL    HW214517   0.191   0.082  15.354  1.5726 -2.2749  0.9648
  961SOL     OW14518   0.041   4.303   9.125 -0.6266  0.0462 -0.2981
  961SOL    HW114519   4.720   4.380   9.113 -1.0513  0.2234  2.8850
  961SOL    HW214520   4.713   4.232   9.109  0.0617 -0.2169 -1.9023
  962SOL     OW14521   2.166   3.844   7.424 -0.1533  0.1905 -0.6429
  962SOL    HW114522   2.127   3.921   7.382  0.9578  1.3601  0.4631
  962SOL    HW214523   2.225   3.885   7.487 -1.0786  0.1700  0.2294
  963SOL     OW14524   2.489   4.561   4.634  0.4351 -0.2375  0.5513
  963SOL    HW114525   2.397   4.537   4.630  0.0269  0.8176  3.0618
  963SOL    HW214526   2.501   4.570   4.729 -0.8652 -3.0850  0.9756
  964SOL     OW14527   0.642   1.342   5.461  0.0680 -0.6120 -0.1995
  964SOL    HW114528   0.613   1.257   5.428 -1.3462  0.1363 -0.8832
  964SOL    HW214529   0.568   1.364   5.518 -0.5515 -1.9906 -0.4760
  965SOL     OW14530   1.359   3.264   2.465  1.0166 -0.0594  0.2509
  965SOL    HW114531   1.301   3.286   2.392  2.0204 -1.7543 -1.0623
  965SOL    HW214532   1.389   3.175   2.444  0.4364  0.1557 -1.4874
  966SOL     OW14533   4.102   4.418   8.278 -0.2909 -0.1147  0.4594
  966SOL    HW114534   4.162   4.423   8.352  2.2703  1.0006 -1.6828
  966SOL    HW214535   4.046   4.351   8.318  0.7121 -1.8789 -1.1276
  967SOL     OW14536   0.736   2.484   2.398 -0.1194 -0.1813 -0.0842
  967SOL    HW114537   0.665   2.444   2.347 -1.4612 -0.9018  2.3674
  967SOL    HW214538   0.780   2.405   2.431  0.0456  0.0296  0.2012
  968SOL     OW14539   1.440   0.775   8.206  0.6194 -0.2478  0.2206
  968SOL    HW114540   1.415   0.683   8.222 -2.4491  0.7751  1.2917
  968SOL    HW214541   1.523   0.779   8.254  1.8578  0.8931 -2.0596
  969SOL     OW14542   2.088   0.604  12.229 -0.8317  0.4522  0.1305
  969SOL    HW114543   2.071   0.548  12.305  0.7274  0.8462  0.7778
  969SOL    HW214544   2.108   0.534  12.167  0.9961  1.0038  0.0972
  970SOL     OW14545   0.907   2.388   7.398 -0.3269  0.0160  0.1114
  970SOL    HW114546   0.922   2.350   7.311 -0.0690 -0.5375  0.4001
  970SOL    HW214547   0.884   2.309   7.447 -1.8883  1.4215  1.6229
  971SOL     OW14548   2.992   1.360   1.979 -0.2429 -0.3125 -0.0505
  971SOL    HW114549   2.975   1.410   2.058  2.0813  0.6407 -0.1714
  971SOL    HW214550   3.079   1.326   1.996 -0.1072  1.1805  2.1279
  972SOL     OW14551   3.991   3.954   7.145 -0.3296 -0.1229 -0.8238
  972SOL    HW114552   4.056   3.952   7.074 -1.1509 -2.2976 -1.5210
  972SOL    HW214553   3.969   4.047   7.139 -2.4263 -0.7149 -2.7422
  973SOL     OW14554   2.648   1.717  15.815 -0.2644  0.6975 -0.3633
  973SOL    HW114555   2.556   1.701  15.833 -0.2357 -0.9894 -1.6974
  973SOL    HW214556   2.655   1.747  15.905 -1.3271  2.2689 -0.8046
  974SOL     OW14557   1.449   2.659  11.930  0.1024  0.5509  0.4976
  974SOL    HW114558   1.391   2.600  11.979 -0.6219  0.0430 -0.9655
  974SOL    HW214559   1.413   2.637  11.844 -0.9848 -0.3597  1.1783
  975SOL     OW14560   4.485   3.434   5.102  0.5145 -0.1208  0.0707
  975SOL    HW114561   4.435   3.505   5.062 -1.0074 -0.0936  1.9876
  975SOL    HW214562   4.427   3.398   5.170 -1.0652  2.3337  0.0153
  976SOL     OW14563   0.755   2.485  10.412 -0.2720  0.4531  0.0917
  976SOL    HW114564   0.667   2.513  10.438 -0.4516  0.9050 -1.0050
  976SOL    HW214565   0.731   2.405  10.364 -1.2164  0.6138  0.2830
  977SOL     OW14566   2.563   3.241   4.432 -0.0478 -0.4637  0.2092
  977SOL    HW114567   2.644   3.280   4.399 -0.0868 -0.0155  0.6492
  977SOL    HW214568   2.598   3.174   4.491  2.0472  2.6221  2.4504
  978SOL     OW14569   2.669   3.321   1.781  0.5748  0.3737  0.0740
  978SOL    HW114570   2.707   3.302   1.696  0.6666  1.5558 -0.1457
  978SOL    HW214571   2.739   3.348   1.841  2.1469  0.1949 -1.6928
  979SOL     OW14572   2.254   4.585   2.955 -0.0261  0.0677 -0.2760
  979SOL    HW114573   2.302   4.558   2.877  0.0830  2.2338 -0.9499
  979SOL    HW214574   2.182   4.637   2.922 -0.4435 -0.3593 -0.0457
  980SOL     OW14575   1.478   0.600  12.613  0.1654  0.4935  0.1344
  980SOL    HW114576   1.388   0.566  12.618 -0.0960  1.2486  0.5788
  980SOL    HW214577   1.473   0.674  12.552  0.7437  1.3660  1.1612
  981SOL     OW14578   2.676   3.465   9.655 -0.3300  0.7990  0.0969
  981SOL    HW114579   2.591   3.439   9.689 -0.0329  0.4492  0.5757
  981SOL    HW214580   2.644   3.533   9.596 -1.4749 -0.3325 -0.6055
  982SOL     OW14581   2.861   2.276  10.461  0.3669  0.6337  0.1186
  982SOL    HW114582   2.798   2.332  10.416 -0.0751  0.6114  0.7130
  982SOL    HW214583   2.811   2.264  10.542 -0.1098  0.2857 -0.2361
  983SOL     OW14584   0.248   3.853   0.348 -0.1340  0.5222  0.0771
  983SOL    HW114585   0.260   3.941   0.312 -0.3812  1.0793  1.3533
  983SOL    HW214586   0.180   3.885   0.407  1.6078  1.6147  1.4814
  984SOL     OW14587   4.215   0.445   4.867  0.3091 -0.7758 -0.5968
  984SOL    HW114588   4.225   0.448   4.771 -0.0744  3.7348 -0.5263
  984SOL    HW214589   4.127   0.478   4.885  0.4049  0.1028 -1.6528
  985SOL     OW14590   0.405   3.181  12.983 -0.0609  0.0437  0.0201
  985SOL    HW114591   0.313   3.206  12.991  0.2346  1.8743 -2.3099
  985SOL    HW214592   0.422   3.250  12.918 -1.5151  1.0335  0.6899
  986SOL     OW14593   2.712   4.019  16.770 -0.1582  0.6229  0.2476
  986SOL    HW114594   2.664   3.946  16.811  0.9490  1.1572  2.4624
  986SOL    HW214595   2.782   4.029  16.834  1.4307 -0.0528 -1.3892
  987SOL     OW14596   1.767   2.241   1.865 -0.0641  0.0516  0.5880
  987SOL    HW114597   1.839   2.300   1.890  1.1683 -2.1349  2.1406
  987SOL    HW214598   1.691   2.300   1.875  0.2172  0.6550 -0.9075
  988SOL     OW14599   0.696   3.573   0.313  0.2351  0.4199  0.2115
  988SOL    HW114600   0.631   3.561   0.244  0.1998  1.8707  0.0110
  988SOL    HW214601   0.768   3.514   0.291 -0.1528  0.3224 -0.8176
  989SOL     OW14602   3.697   1.594   0.848  0.2514 -0.0404  0.3644
  989SOL    HW114603   3.777   1.545   0.869 -0.4956 -1.2681  0.3297
  989SOL    HW214604   3.698   1.674   0.902 -1.4708  0.6737 -0.6803
  990SOL     OW14605   3.160   2.275   5.260 -0.1909 -0.1206 -0.6889
  990SOL    HW114606   3.176   2.188   5.225  0.3779  0.0586 -0.8818
  990SOL    HW214607   3.069   2.279   5.287  0.9743 -0.5814  3.3671
  991SOL     OW14608   4.047   2.114  17.223  0.3060 -0.2646 -0.0277
  991SOL    HW114609   4.061   2.021  17.241 -0.6723 -0.3777  0.1528
  991SOL    HW214610   3.992   2.139  17.297 -0.1282 -0.0670 -0.4123
  992SOL     OW14611   3.733   3.653   8.870  0.0726  0.3567 -0.0715
  992SOL    HW114612   3.680   3.637   8.792 -0.7912 -1.5287  0.9272
  992SOL    HW214613   3.673   3.637   8.942  1.0283  2.9391  1.3230
  993SOL     OW14614   0.215   3.270   2.185 -0.8750  0.3768 -0.2558
  993SOL    HW114615   0.222   3.254   2.090  1.6132 -0.6391  0.0913
  993SOL    HW214616   0.279   3.338   2.205 -0.5561 -0.1272  0.4296
  994SOL     OW14617   3.069   0.470   2.903  0.1951  0.0751  0.6103
  994SOL    HW114618   3.008   0.538   2.874  2.4614  1.5881 -0.5868
  994SOL    HW214619   3.072   0.487   2.998 -0.1079 -2.3752  1.0543
  995SOL     OW14620   0.659   2.485   7.281  0.4576  0.3130 -0.1439
  995SOL    HW114621   0.620   2.405   7.245  0.7056 -0.0748  0.4576
  995SOL    HW214622   0.733   2.447   7.328  0.8551  1.8730  0.5029
  996SOL     OW14623   3.595   3.101  13.883 -0.0434 -0.3725  0.2802
  996SOL    HW114624   3.561   3.030  13.829  0.5919  0.0805 -0.7095
  996SOL    HW214625   3.689   3.084  13.883  0.0773  0.3402  1.8161
  997SOL     OW14626   0.172   0.874   5.680 -0.3333  0.1387  0.3486
  997SOL    HW114627   0.219   0.951   5.710  1.9062 -0.3374 -1.9164
  997SOL    HW214628   0.111   0.915   5.619  0.3532  3.6290  1.9814
  998SOL     OW14629   4.679   3.640   5.288 -0.5081 -0.5749  0.3955
  998SOL    HW114630   0.005   3.599   5.349 -1.6412 -0.9528  1.2776
  998SOL    HW214631   4.733   3.648   5.210  0.2031 -2.1314  0.7325
  999SOL     OW14632   4.587   2.395   3.053  0.0495 -0.8408  1.0273
  999SOL    HW114633   4.509   2.405   2.998  0.1787 -4.4211  0.1828
  999SOL    HW214634   4.626   2.319   3.010  0.8214 -0.2058  0.6015
 1000SOL     OW14635   2.414   0.937  16.062 -0.5584 -0.0856 -0.4513
 1000SOL    HW114636   2.366   1.012  16.096  0.7539  0.7931 -0.5051
 1000SOL    HW214637   2.493   0.949  16.115 -0.5479 -1.6642 -0.1000
 1001SOL     OW14638   3.025   1.973   4.655 -0.2076 -0.0038 -0.0516
 1001SOL    HW114639   2.971   1.913   4.706 -0.1248 -2.5549 -2.9782
 1001SOL    HW214640   3.053   2.039   4.719  1.4833 -1.2438  0.4818
 1002SOL     OW14641   2.896   4.448   1.666 -0.4801  0.7707 -0.2932
 1002SOL    HW114642   2.921   4.398   1.744 -1.9583 -1.8947 -1.5459
 1002SOL    HW214643   2.969   4.417   1.613 -0.5922  3.2599 -1.8724
 1003SOL     OW14644   3.270   1.623  15.876  0.5122  0.4987 -0.3457
 1003SOL    HW114645   3.177   1.637  15.860  0.4378  0.8641  0.3816
 1003SOL    HW214646   3.268   1.561  15.949 -0.8724  1.3686  0.3611
 1004SOL     OW14647   3.862   4.279  12.773  0.5423 -0.2783  0.2234
 1004SOL    HW114648   3.824   4.351  12.723  2.4557  1.8836  1.9241
 1004SOL    HW214649   3.798   4.267  12.843  1.6893 -0.8846  1.1624
 1005SOL     OW14650   3.089   2.161  12.671  0.0105  0.5222 -0.6003
 1005SOL    HW114651   3.178   2.131  12.652  0.7516  3.4831 -1.9164
 1005SOL    HW214652   3.094   2.183  12.764 -2.1636 -0.0795 -0.3569
 1006SOL     OW14653   1.136   0.162   2.523  0.0201  0.5024 -0.2545
 1006SOL    HW114654   1.081   0.099   2.476 -0.2688  0.3394  0.3009
 1006SOL    HW214655   1.151   0.232   2.460  0.5314 -0.6448 -1.3876
 1007SOL     OW14656   0.844   0.797  12.482 -0.0775  0.2232 -0.5035
 1007SOL    HW114657   0.854   0.808  12.577 -0.0722  1.7871 -0.6874
 1007SOL    HW214658   0.772   0.734  12.489 -0.9165  1.3935  1.2686
 1008SOL     OW14659   1.147   2.243  15.615  0.3361 -0.8541 -0.3587
 1008SOL    HW114660   1.162   2.295  15.693  0.5016 -0.5767 -0.5749
 1008SOL    HW214661   1.225   2.187  15.607 -0.1035 -1.4541 -0.4680
 1009SOL     OW14662   3.157   3.509   7.505 -0.4086  0.8426 -0.1173
 1009SOL    HW114663   3.139   3.437   7.444  3.5792 -0.1162 -0.1436
 1009SOL    HW214664   3.118   3.471   7.583  0.1406  2.6430  1.0246
 1010SOL     OW14665   4.011   1.205   3.491  0.0237  0.7174 -0.5156
 1010SOL    HW114666   3.944   1.199   3.424  0.1670  2.8763 -0.8474
 1010SOL    HW214667   3.985   1.284   3.539  0.1091  1.5234 -1.8178
 1011SOL     OW14668   0.469   1.806   6.569  0.0438  0.0212  0.3662
 1011SOL    HW114669   0.503   1.832   6.654 -1.4494 -0.1920  1.0326
 1011SOL    HW214670   0.458   1.711   6.569 -0.4132  0.0761 -0.9429
 1012SOL     OW14671   3.408   0.213   7.461  0.4518  0.0267 -0.2660
 1012SOL    HW114672   3.385   0.142   7.521 -0.5098  0.7591  0.2344
 1012SOL    HW214673   3.378   0.175   7.378  0.4230 -0.1429 -0.1772
 1013SOL     OW14674   0.309   2.493   7.353  0.1769 -0.0336  0.8063
 1013SOL    HW114675   0.228   2.542   7.340  0.5604  0.1271 -1.0220
 1013SOL    HW214676   0.323   2.473   7.260 -0.5366  0.7835  0.5273
 1014SOL     OW14677   3.173   4.324   2.035 -0.3901 -0.5555 -0.0145
 1014SOL    HW114678   3.126   4.403   2.010 -2.5052 -2.2152 -1.3247
 1014SOL    HW214679   3.139   4.250   1.984  0.4324  0.0375 -1.4439
 1015SOL     OW14680   1.141   3.018   8.093 -0.3799  0.8621 -0.3536
 1015SOL    HW114681   1.166   3.089   8.034 -0.3370  1.1727  0.0367
 1015SOL    HW214682   1.187   2.941   8.061  1.0495  0.7656  1.9237
 1016SOL     OW14683   0.474   2.798   2.241  0.2674  0.6540 -0.1386
 1016SOL    HW114684   0.544   2.767   2.299 -1.6038 -2.2738  0.5325
 1016SOL    HW214685   0.491   2.892   2.245 -1.3961  1.0122 -1.4959
 1017SOL     OW14686   4.619   1.124  11.372  0.4030  0.1054 -0.1849
 1017SOL    HW114687   4.645   1.120  11.464  0.3598 -0.7015 -0.2142
 1017SOL    HW214688   4.696   1.164  11.331  0.7884 -0.4838 -0.0308
 1018SOL     OW14689   0.033   3.518   0.688  0.6828 -0.2698 -0.2327
 1018SOL    HW114690   0.063   3.486   0.603  0.1628 -2.6024  0.4841
 1018SOL    HW214691   0.120   3.536   0.724  1.9531 -1.0166 -2.9202
 1019SOL     OW14692   2.773   0.803   1.447 -1.0579  0.6720 -0.6604
 1019SOL    HW114693   2.756   0.709   1.439 -1.5499  0.7502 -0.5796
 1019SOL    HW214694   2.683   0.832   1.428 -1.1772  1.4065  1.0228
 1020SOL     OW14695   2.216   0.606   5.259  0.3781 -0.1544 -0.1583
 1020SOL    HW114696   2.133   0.606   5.307  0.4989 -1.7748  0.0390
 1020SOL    HW214697   2.199   0.676   5.196  3.9846  0.6999 -0.1667
 1021SOL     OW14698   1.669   3.036  12.600 -0.0644 -0.2874 -0.0746
 1021SOL    HW114699   1.745   3.039  12.542  0.4887 -0.5260  0.6327
 1021SOL    HW214700   1.683   2.962  12.659 -4.6339  0.1584  1.5690
 1022SOL     OW14701   2.515   4.482   8.221  0.3168 -0.4582 -0.1089
 1022SOL    HW114702   2.435   4.491   8.273  0.4151 -0.7833  0.0953
 1022SOL    HW214703   2.576   4.459   8.291 -0.3303  1.0399  0.9614
 1023SOL     OW14704   2.234   3.362   1.705 -0.0081 -0.1701 -0.3864
 1023SOL    HW114705   2.295   3.320   1.765  2.8054  3.0142 -1.0275
 1023SOL    HW214706   2.290   3.431   1.670  3.4862 -2.6202  0.3946
 1024SOL     OW14707   0.151   4.487   2.053 -0.2959  0.2911  0.0751
 1024SOL    HW114708   0.161   4.493   2.148 -0.7150  1.5395  0.0440
 1024SOL    HW214709   0.241   4.487   2.022 -0.1640 -2.8218  0.4573
 1025SOL     OW14710   0.376   3.471   2.222 -0.5567  0.1734 -0.2696
 1025SOL    HW114711   0.447   3.510   2.272 -1.9963  1.3395  0.8715
 1025SOL    HW214712   0.322   3.548   2.204  0.0684  0.1961 -2.0403
 1026SOL     OW14713   2.119   2.138  13.233  0.7058 -0.1124  0.7999
 1026SOL    HW114714   2.088   2.225  13.259  1.2265  0.5131 -0.6503
 1026SOL    HW214715   2.041   2.087  13.255  0.7841  0.5402  2.6263
 1027SOL     OW14716   1.359   1.132  15.753  0.1746 -0.0457  0.1196
 1027SOL    HW114717   1.370   1.181  15.672  0.8592 -1.3708 -0.5914
 1027SOL    HW214718   1.424   1.062  15.741 -2.0147 -1.8964 -1.0017
 1028SOL     OW14719   4.013   0.853   8.786  0.1494 -0.6402 -0.0379
 1028SOL    HW114720   3.951   0.922   8.763 -0.0089 -1.4516 -2.0788
 1028SOL    HW214721   4.097   0.897   8.778 -0.8314  1.2230 -0.2341
 1029SOL     OW14722   3.770   1.474  17.311 -0.3023 -0.3121 -0.7962
 1029SOL    HW114723   3.735   1.395  17.351  2.3101 -1.5161 -0.8632
 1029SOL    HW214724   3.703   1.533  17.343 -1.8701 -2.1543 -0.6922
 1030SOL     OW14725   1.031   4.195   8.754  0.2882  0.3040 -0.0277
 1030SOL    HW114726   0.994   4.278   8.723  1.2702  0.3508 -1.0774
 1030SOL    HW214727   1.125   4.209   8.750  0.5441 -1.7452 -1.0299
 1031SOL     OW14728   4.094   3.119   5.264  0.1332 -0.2834 -0.2561
 1031SOL    HW114729   4.037   3.066   5.319  0.0409  0.2728  0.1923
 1031SOL    HW214730   4.175   3.097   5.310  1.5463 -1.6442 -3.3740
 1032SOL     OW14731   2.561   1.268   3.714  0.0798  0.4189  0.0993
 1032SOL    HW114732   2.641   1.292   3.669  0.3858  0.8636  0.8768
 1032SOL    HW214733   2.597   1.227   3.793  1.4410  0.2054 -0.6274
 1033SOL     OW14734   4.660   0.728   3.999 -0.0225 -0.2571  0.7250
 1033SOL    HW114735   4.713   0.759   3.925 -2.0769 -1.0753 -1.1107
 1033SOL    HW214736   4.688   0.790   4.066  0.8336  0.7505 -0.5631
 1034SOL     OW14737   1.054   1.278  10.370 -0.0969 -0.2878  0.0108
 1034SOL    HW114738   1.143   1.247  10.382 -0.1824  0.3321  2.1748
 1034SOL    HW214739   1.039   1.225  10.292  1.8292 -2.4477  1.1306
 1035SOL     OW14740   1.596   0.144   6.983 -0.5293  0.2586 -0.2078
 1035SOL    HW114741   1.647   0.123   7.062 -2.2427  0.7680  1.0525
 1035SOL    HW214742   1.552   0.225   7.011  0.0380  1.2251 -2.1376
 1036SOL     OW14743   2.783   3.035   7.568 -0.1539 -0.3470 -1.0131
 1036SOL    HW114744   2.767   3.115   7.616 -1.6812 -0.6830 -0.9755
 1036SOL    HW214745   2.862   3.002   7.611 -0.4883 -0.4069 -0.4568
 1037SOL     OW14746   1.822   3.778   6.728 -0.1893 -0.2685  0.0450
 1037SOL    HW114747   1.769   3.699   6.741 -2.3637  1.0468 -0.6963
 1037SOL    HW214748   1.858   3.798   6.814  0.3988 -0.0709 -0.2438
 1038SOL     OW14749   0.838   3.588   1.725 -0.5297 -0.4373  0.5624
 1038SOL    HW114750   0.850   3.646   1.650 -2.4262 -0.6483  0.0979
 1038SOL    HW214751   0.801   3.507   1.689 -0.4538  0.3875 -1.3780
 1039SOL     OW14752   0.850   0.077   0.228  0.4570 -0.2577  0.3523
 1039SOL    HW114753   0.859   4.721   0.255  0.1520 -1.0268 -2.1467
 1039SOL    HW214754   0.821   0.072   0.137  2.6835 -0.0683 -0.3639
 1040SOL     OW14755   1.458   2.580   5.398  0.2793  0.5143 -0.2430
 1040SOL    HW114756   1.538   2.586   5.450  1.1087  0.8398 -1.5508
 1040SOL    HW214757   1.421   2.668   5.397 -1.6472 -0.2907 -0.3401
 1041SOL     OW14758   0.655   3.505   9.691 -0.4736 -0.7163 -0.6166
 1041SOL    HW114759   0.692   3.468   9.771  1.5283 -0.1900 -1.3126
 1041SOL    HW214760   0.732   3.528   9.639 -0.0612 -0.0673  0.2970
 1042SOL     OW14761   1.223   2.339   7.162 -0.1110 -0.5208  0.2852
 1042SOL    HW114762   1.206   2.433   7.171  0.1269 -0.6190  1.7678
 1042SOL    HW214763   1.318   2.350   7.156 -0.5038  1.4923 -2.3637
 1043SOL     OW14764   3.108   0.650   9.159  0.1719  0.2263  0.2008
 1043SOL    HW114765   3.040   0.686   9.102 -0.8534  0.4709  1.5889
 1043SOL    HW214766   3.057   0.634   9.238 -0.4684  2.5264  0.2757
 1044SOL     OW14767   3.282   1.889   6.871 -0.1768  0.3457  0.2107
 1044SOL    HW114768   3.315   1.944   6.942 -0.6830 -0.5044  1.1045
 1044SOL    HW214769   3.355   1.886   6.810 -0.0052 -1.5645  0.4949
 1045SOL     OW14770   2.140   4.202  15.772  0.3688 -0.3449  0.4508
 1045SOL    HW114771   2.080   4.129  15.787 -1.1414  0.7768 -0.0996
 1045SOL    HW214772   2.172   4.222  15.860  0.8426 -0.2105  0.2509
 1046SOL     OW14773   0.737   4.244  15.596  0.0736  0.0547  0.2525
 1046SOL    HW114774   0.694   4.231  15.511  0.5999  0.0010 -0.0118
 1046SOL    HW214775   0.692   4.173  15.641 -0.3131 -0.1910 -0.5245
 1047SOL     OW14776   4.351   0.392  11.488 -0.0605  0.3798 -0.1034
 1047SOL    HW114777   4.342   0.311  11.538 -2.0587  0.3832 -0.4697
 1047SOL    HW214778   4.436   0.377  11.446 -0.8495  0.2748 -1.6667
 1048SOL     OW14779   2.138   1.351   7.240  0.0896  0.1150 -0.4112
 1048SOL    HW114780   2.229   1.381   7.240  0.2364 -0.3349 -0.9452
 1048SOL    HW214781   2.089   1.433   7.231  0.8624  0.6624  0.4074
 1049SOL     OW14782   0.399   0.457   1.846 -0.1560 -0.2195  0.3905
 1049SOL    HW114783   0.332   0.495   1.789 -1.7865 -1.1237  1.6937
 1049SOL    HW214784   0.407   0.512   1.924 -1.2211  2.1906 -1.1855
 1050SOL     OW14785   3.625   0.773  12.772 -0.0945  0.7529  0.3980
 1050SOL    HW114786   3.609   0.867  12.773  1.1936  0.9416  2.0462
 1050SOL    HW214787   3.563   0.748  12.703 -1.7930 -0.3782  2.3305
 1051SOL     OW14788   1.480   1.018   9.633  0.1134 -0.2256 -0.1025
 1051SOL    HW114789   1.554   0.973   9.675  1.4718  1.2083 -0.9252
 1051SOL    HW214790   1.529   1.086   9.587 -0.7782 -0.9526 -2.1177
 1052SOL     OW14791   2.553   3.344   3.222 -0.0261 -0.3184  0.0487
 1052SOL    HW114792   2.521   3.426   3.259  2.7351  1.3699 -1.2637
 1052SOL    HW214793   2.473   3.294   3.238  0.9605 -1.7567  0.4911
 1053SOL     OW14794   2.030   4.183   4.696  0.8798 -0.0049 -0.3991
 1053SOL    HW114795   2.113   4.140   4.717  0.3466 -1.0665 -0.4363
 1053SOL    HW214796   1.993   4.118   4.636  2.5877 -0.7554 -0.6196
 1054SOL     OW14797   3.222   1.745   3.056 -0.5770  0.7822 -0.3509
 1054SOL    HW114798   3.302   1.781   3.018  1.0054 -1.3415  0.9396
 1054SOL    HW214799   3.152   1.770   2.997 -0.2303  1.6798 -0.3821
 1055SOL     OW14800   1.341   3.817  14.866 -0.1435  0.4725  0.8887
 1055SOL    HW114801   1.435   3.829  14.878  0.7293 -2.4795 -3.0691
 1055SOL    HW214802   1.332   3.773  14.782 -2.2757  1.2773  0.6922
 1056SOL     OW14803   4.277   3.308   4.649 -0.3303 -0.9248 -0.7909
 1056SOL    HW114804   4.213   3.343   4.711  0.3254  0.5914 -0.9611
 1056SOL    HW214805   4.306   3.237   4.707  1.8189  1.3379  0.9419
 1057SOL     OW14806   3.217   2.245   6.382  0.1486  0.1363  0.3288
 1057SOL    HW114807   3.297   2.258   6.332  0.3747  0.6513  0.8259
 1057SOL    HW214808   3.164   2.193   6.321  0.5836  1.5587 -1.2898
 1058SOL     OW14809   2.881   3.665  10.572  0.2899 -0.5021  0.6307
 1058SOL    HW114810   2.816   3.733  10.554  0.0950 -0.9384 -0.3029
 1058SOL    HW214811   2.863   3.645  10.664 -1.7910 -1.1072  0.0861
 1059SOL     OW14812   3.547   0.103   2.807  0.6755  0.6188 -0.5703
 1059SOL    HW114813   3.537   0.013   2.777  2.5066 -0.1300  1.0124
 1059SOL    HW214814   3.494   0.155   2.747  1.6179  1.1632 -0.9240
 1060SOL     OW14815   1.067   4.669  10.861  0.0795 -0.0029 -0.2578
 1060SOL    HW114816   1.158   4.689  10.839  0.0292  1.9649  1.2900
 1060SOL    HW214817   1.071   4.604  10.931 -1.4955  1.3188  1.0689
 1061SOL     OW14818   2.402   1.030   2.382  0.2720  0.2055  0.1173
 1061SOL    HW114819   2.453   1.016   2.302  0.9509  0.7270  0.4562
 1061SOL    HW214820   2.423   1.122   2.399  1.3361 -0.2782  1.4592
 1062SOL     OW14821   2.582   1.939   3.941  0.1579 -0.1299  1.2497
 1062SOL    HW114822   2.630   1.890   3.874  0.9012  1.8065  0.3688
 1062SOL    HW214823   2.627   2.023   3.947 -0.8731  0.5971 -0.8341
 1063SOL     OW14824   1.686   2.036   2.671 -0.2489  0.0841  0.5479
 1063SOL    HW114825   1.744   1.962   2.652  1.5156  1.6778 -0.2545
 1063SOL    HW214826   1.608   1.998   2.712 -0.5672  1.2788  1.0465
 1064SOL     OW14827   2.603   3.405  16.082  0.3694 -0.3754 -0.1834
 1064SOL    HW114828   2.639   3.429  15.997 -1.3651  1.9876 -0.2455
 1064SOL    HW214829   2.572   3.488  16.117 -0.4948 -1.0301  0.6149
 1065SOL     OW14830   3.799   4.540  10.063  0.0224  0.1025  0.6605
 1065SOL    HW114831   3.764   4.626  10.039  0.5188  0.2004  0.2954
 1065SOL    HW214832   3.884   4.542  10.020  0.5597 -3.4501  1.5966
 1066SOL     OW14833   4.003   1.574   3.050 -0.3267 -0.2795  0.2706
 1066SOL    HW114834   4.021   1.557   3.142 -1.7203 -0.3609  0.5382
 1066SOL    HW214835   4.095   1.589   3.031 -0.4292  0.1544  0.1164
 1067SOL     OW14836   3.377   1.358   7.937 -0.0080  0.2535  0.3249
 1067SOL    HW114837   3.436   1.292   7.973  1.6178  1.2279 -0.5683
 1067SOL    HW214838   3.346   1.405   8.014 -0.8099 -0.2274  0.2955
 1068SOL     OW14839   2.831   1.855   2.492  0.0701  0.2160  0.3736
 1068SOL    HW114840   2.769   1.785   2.510  2.0439 -2.0574 -1.6237
 1068SOL    HW214841   2.893   1.823   2.557  0.4479  0.2849  0.0471
 1069SOL     OW14842   4.285   1.448  17.500  0.0364  0.1719  0.5750
 1069SOL    HW114843   4.288   1.491  17.585  0.2110 -1.5543  1.4184
 1069SOL    HW214844   4.366   1.482  17.461 -0.3055  0.8835  0.4855
 1070SOL     OW14845   3.391   2.261   8.314  0.2821  0.0274 -0.4081
 1070SOL    HW114846   3.332   2.187   8.330  0.4223 -0.0088 -0.0563
 1070SOL    HW214847   3.478   2.222   8.306  0.6533  0.6011  0.9442
 1071SOL     OW14848   4.635   4.616   8.702 -0.5188  0.3755 -0.1077
 1071SOL    HW114849   4.567   4.676   8.673 -0.9786  0.7881  1.8363
 1071SOL    HW214850   4.659   4.660   8.784  0.5836 -2.0834  0.8982
 1072SOL     OW14851   1.126   3.614   9.360  0.3663 -0.2603 -0.2187
 1072SOL    HW114852   1.098   3.646   9.274  0.2109 -2.0573 -0.8407
 1072SOL    HW214853   1.163   3.532   9.327 -0.9103 -0.2330 -1.7362
 1073SOL     OW14854   2.862   3.163   5.923  0.1473  0.0250 -0.1517
 1073SOL    HW114855   2.849   3.243   5.872  2.3123 -1.0752 -2.4265
 1073SOL    HW214856   2.861   3.193   6.014 -1.9849 -0.7210  0.0622
 1074SOL     OW14857   2.076   4.201   1.276  0.5389  0.0615 -0.2623
 1074SOL    HW114858   2.157   4.233   1.317  1.7652 -2.8157 -0.4664
 1074SOL    HW214859   2.035   4.161   1.352 -0.0289 -0.4939 -0.8685
 1075SOL     OW14860   3.214   4.374   5.570  0.5832 -0.0492 -0.0709
 1075SOL    HW114861   3.135   4.354   5.620 -0.4013  2.3245 -0.6834
 1075SOL    HW214862   3.239   4.287   5.539  1.5376 -0.1301  0.9304
 1076SOL     OW14863   3.412   1.456   6.346  0.4050 -0.1210 -0.5457
 1076SOL    HW114864   3.352   1.410   6.287 -0.7249  0.3813  0.2096
 1076SOL    HW214865   3.495   1.412   6.329  1.2944  0.4027  2.4269
 1077SOL     OW14866   0.517   3.895  16.817 -0.1503  0.3322  0.0679
 1077SOL    HW114867   0.580   3.910  16.747 -1.3370 -1.9168 -1.5064
 1077SOL    HW214868   0.511   3.800  16.807 -0.9697  0.2966  0.8960
 1078SOL     OW14869   4.425   1.781   9.637 -0.5030 -0.0672  0.0568
 1078SOL    HW114870   4.487   1.782   9.710  1.3629  3.2444 -1.5404
 1078SOL    HW214871   4.398   1.873   9.637  0.5984  0.2621 -1.6691
 1079SOL     OW14872   3.575   3.103  14.147  0.6262 -0.0184 -0.0482
 1079SOL    HW114873   3.609   3.118  14.058 -0.1707  1.5594 -0.1009
 1079SOL    HW214874   3.520   3.028  14.128  2.2532 -0.8591 -1.4810
 1080SOL     OW14875   3.771   0.298   7.654 -0.1302  0.1778  0.2919
 1080SOL    HW114876   3.744   0.262   7.738 -1.8939 -2.1195 -1.2404
 1080SOL    HW214877   3.767   0.215   7.607 -1.2357 -0.2143  1.0677
 1081SOL     OW14878   0.911   0.740   6.312  0.1547 -0.3063 -0.1438
 1081SOL    HW114879   0.882   0.659   6.355  1.4122 -0.0237  1.2310
 1081SOL    HW214880   1.006   0.733   6.300  0.2357 -0.6316  0.6555
 1082SOL     OW14881   2.533   2.295  16.791  0.1483  0.2562  0.2996
 1082SOL    HW114882   2.462   2.359  16.782 -0.2341 -0.1668  0.3452
 1082SOL    HW214883   2.497   2.213  16.758 -1.0038  0.8672  0.0227
 1083SOL     OW14884   2.306   2.309  15.581  0.2704 -0.6163 -0.0341
 1083SOL    HW114885   2.328   2.334  15.492  0.7133 -0.3125  0.1630
 1083SOL    HW214886   2.391   2.273  15.606  0.6585  0.3932  0.0896
 1084SOL     OW14887   3.685   3.668   7.942  0.0712 -0.1157 -0.1456
 1084SOL    HW114888   3.727   3.592   7.981  0.7486  1.8676  3.0063
 1084SOL    HW214889   3.655   3.622   7.864  2.0255  1.9210 -2.0553
 1085SOL     OW14890   4.152   1.718   4.163 -0.2320  0.4345 -0.3186
 1085SOL    HW114891   4.081   1.724   4.226 -2.2420 -0.4236 -2.5360
 1085SOL    HW214892   4.101   1.724   4.082 -1.3721 -0.8046  0.3139
 1086SOL     OW14893   4.398   1.281  11.011  0.3575 -0.5026  0.5983
 1086SOL    HW114894   4.348   1.203  11.035 -1.5994  0.2510 -1.0162
 1086SOL    HW214895   4.486   1.252  11.034 -0.0905 -2.0648  0.3478
 1087SOL     OW14896   1.311   1.847   6.682 -0.6403 -0.3986 -0.3012
 1087SOL    HW114897   1.273   1.934   6.693  0.5001  0.2993 -1.9161
 1087SOL    HW214898   1.273   1.836   6.595  0.7629  0.6927 -1.0578
 1088SOL     OW14899   0.123   2.080   6.478 -0.2028 -0.2978  0.7353
 1088SOL    HW114900   0.219   2.089   6.483 -0.3902  2.2967 -0.3680
 1088SOL    HW214901   0.117   1.984   6.471 -0.7907 -0.3356  1.7435
 1089SOL     OW14902   1.249   3.731   1.211  0.1270  0.0312  0.5082
 1089SOL    HW114903   1.297   3.654   1.244 -0.1661 -0.5848 -0.4944
 1089SOL    HW214904   1.159   3.699   1.220 -0.1790  0.5258 -0.8293
 1090SOL     OW14905   1.891   4.129   4.952  0.2350 -0.0245  0.5804
 1090SOL    HW114906   1.955   4.170   4.895  0.9056  0.6205  1.8007
 1090SOL    HW214907   1.937   4.142   5.035  0.5656 -0.2433  0.4312
 1091SOL     OW14908   2.561   0.252   3.820 -0.2887 -0.1766  0.5209
 1091SOL    HW114909   2.568   0.214   3.732 -1.7723  2.4857 -0.7517
 1091SOL    HW214910   2.470   0.281   3.818  0.2149  1.4218  1.2744
 1092SOL     OW14911   2.950   2.794   4.624 -0.0723  0.3675  0.1776
 1092SOL    HW114912   2.957   2.790   4.528  0.7563  1.7752  0.1859
 1092SOL    HW214913   2.995   2.711   4.641 -2.2994 -0.6246  1.2302
 1093SOL     OW14914   3.833   3.541   6.683 -0.1864  0.6971  0.4334
 1093SOL    HW114915   3.795   3.613   6.734 -1.4155  1.2454 -1.3007
 1093SOL    HW214916   3.757   3.502   6.642  0.6989  0.0388 -0.5850
 1094SOL     OW14917   1.964   1.192  11.649 -0.4103  0.5358 -0.0819
 1094SOL    HW114918   1.894   1.254  11.627 -0.4290  0.4697 -0.2084
 1094SOL    HW214919   1.922   1.121  11.601 -0.4161 -0.6558  1.6785
 1095SOL     OW14920   2.534   3.887  12.287  0.2280  0.2265 -0.1635
 1095SOL    HW114921   2.538   3.798  12.322 -0.8194  1.3328  2.8301
 1095SOL    HW214922   2.541   3.941  12.366  1.1365 -2.6470  1.7350
 1096SOL     OW14923   2.243   2.285   6.765  0.3356  0.1971  1.2613
 1096SOL    HW114924   2.158   2.250   6.794  0.6951 -2.9545 -1.4466
 1096SOL    HW214925   2.221   2.378   6.760  0.5247  0.1849  0.1050
 1097SOL     OW14926   3.265   4.559   5.227  0.0442 -0.4123  0.0348
 1097SOL    HW114927   3.236   4.577   5.138  0.9040 -1.3067 -0.4288
 1097SOL    HW214928   3.335   4.621   5.247 -0.2637 -0.0946  0.1264
 1098SOL     OW14929   2.473   2.447   8.104 -0.1210  0.2824 -0.0215
 1098SOL    HW114930   2.552   2.501   8.101 -0.3691  0.6604  0.1601
 1098SOL    HW214931   2.421   2.497   8.168  1.6819  1.1205  0.7874
 1099SOL     OW14932   3.435   3.886   6.051  0.4710 -0.4127 -0.2484
 1099SOL    HW114933   3.394   3.951   5.993  0.1416 -0.2880  0.1229
 1099SOL    HW214934   3.517   3.934   6.064  0.8004 -0.4466 -2.2117
 1100SOL     OW14935   4.441   0.869   4.624 -0.0219 -0.2059  0.5840
 1100SOL    HW114936   4.420   0.936   4.559  0.9462 -1.4582 -1.0201
 1100SOL    HW214937   4.506   0.825   4.571 -0.6559 -1.0620  0.5080
 1101SOL     OW14938   1.282   4.127  11.474 -0.2935  0.4284  0.0938
 1101SOL    HW114939   1.273   4.222  11.485 -1.4641  0.5087 -1.5385
 1101SOL    HW214940   1.226   4.101  11.547 -1.0625  0.0692 -0.6295
 1102SOL     OW14941   3.248   0.905  15.413  0.6186  0.2902 -0.0663
 1102SOL    HW114942   3.266   0.981  15.358 -0.0568  0.0608 -0.6055
 1102SOL    HW214943   3.164   0.928  15.453 -0.1745 -1.3516 -0.8006
 1103SOL     OW14944   0.973   3.588   1.210  0.4348 -0.3150  0.0069
 1103SOL    HW114945   0.970   3.563   1.117  1.3519  1.1233 -0.3959
 1103SOL    HW214946   0.886   3.620   1.231  0.1930  1.1170 -3.0811
 1104SOL     OW14947   1.849   1.767   2.583  0.4936  0.0433 -0.4043
 1104SOL    HW114948   1.901   1.755   2.503 -0.8147 -2.5257 -0.8716
 1104SOL    HW214949   1.897   1.721   2.652 -0.6393 -0.9204 -0.2576
 1105SOL     OW14950   0.247   2.414  13.733  0.0608 -0.2269  0.3362
 1105SOL    HW114951   0.320   2.378  13.783  1.5184 -0.4216 -1.8975
 1105SOL    HW214952   0.271   2.506  13.730  1.8771 -0.7748 -1.8516
 1106SOL     OW14953   2.463   2.216   5.154 -0.3395 -0.5623 -0.2833
 1106SOL    HW114954   2.549   2.187   5.123  0.7595  1.4097  0.9061
 1106SOL    HW214955   2.450   2.292   5.097  0.0401 -1.0103 -0.9702
 1107SOL     OW14956   1.774   3.486   5.167  0.2539 -0.3600 -0.0675
 1107SOL    HW114957   1.787   3.402   5.211 -1.2493  0.0333  1.1264
 1107SOL    HW214958   1.679   3.492   5.180 -0.0272 -1.1780 -1.7649
 1108SOL     OW14959   4.293   4.203   2.458  0.4484 -0.2015  0.2545
 1108SOL    HW114960   4.227   4.161   2.402 -0.5564 -0.2195  1.4500
 1108SOL    HW214961   4.265   4.294   2.455  0.6631  0.0546  7.5016
 1109SOL     OW14962   3.319   2.543   3.331 -0.1586  0.1217 -0.1909
 1109SOL    HW114963   3.226   2.557   3.349 -0.0769  2.0465 -1.3193
 1109SOL    HW214964   3.315   2.459   3.379 -2.2431  0.7982  0.8064
 1110SOL     OW14965   1.250   4.596   4.156 -0.0481  0.2013  0.1465
 1110SOL    HW114966   1.309   4.543   4.210  2.1240  1.5508 -0.9268
 1110SOL    HW214967   1.215   4.652   4.225 -2.1518 -0.2074 -0.6135
 1111SOL     OW14968   0.605   1.713   3.362  0.5726  0.5284  0.4052
 1111SOL    HW114969   0.518   1.730   3.400 -0.4643  0.9985 -2.1885
 1111SOL    HW214970   0.585   1.694   3.271  0.1248 -3.0742  1.2612
 1112SOL     OW14971   4.198   0.799  14.720  0.0642 -0.1842  0.3635
 1112SOL    HW114972   4.216   0.731  14.655 -1.5351 -0.7534  0.5237
 1112SOL    HW214973   4.257   0.869  14.693 -0.9591  0.3894 -0.3809
 1113SOL     OW14974   2.434   0.036  16.328  0.1995  0.5975  0.5265
 1113SOL    HW114975   2.446   4.678  16.348 -0.1205  0.3355 -0.5249
 1113SOL    HW214976   2.427   0.082  16.412  1.7909 -1.7952  1.9644
 1114SOL     OW14977   3.904   4.271   3.116 -0.2845 -0.1043 -0.6271
 1114SOL    HW114978   3.845   4.258   3.042 -1.0871  2.9828 -0.4944
 1114SOL    HW214979   3.861   4.197   3.160  1.0452 -0.3544  0.2632
 1115SOL     OW14980   1.418   0.240   7.472  0.0853  0.3430 -0.5169
 1115SOL    HW114981   1.472   0.242   7.393 -3.7205 -1.2154 -3.1161
 1115SOL    HW214982   1.483   0.266   7.538  1.5896 -0.3085 -1.7353
 1116SOL     OW14983   3.826   0.159  12.318  0.1460  0.2194 -0.5438
 1116SOL    HW114984   3.860   0.204  12.241  3.1834  0.7372  1.1067
 1116SOL    HW214985   3.777   0.094  12.267 -1.5458  2.3794 -1.6412
 1117SOL     OW14986   3.157   3.124   5.252  0.4347 -0.0809 -0.1712
 1117SOL    HW114987   3.074   3.093   5.217 -0.6414  3.2048 -0.5034
 1117SOL    HW214988   3.159   3.213   5.218  0.5891  0.7503  2.0283
 1118SOL     OW14989   0.289   1.867   5.779  0.5846 -0.1416 -0.1914
 1118SOL    HW114990   0.288   1.868   5.683  0.0181  0.9982 -0.1825
 1118SOL    HW214991   0.236   1.789   5.792  0.9019  0.4617  4.6672
 1119SOL     OW14992   1.371   4.106   1.245 -0.7024 -0.0329 -0.3419
 1119SOL    HW114993   1.382   4.197   1.271 -1.6076  0.2065 -0.7978
 1119SOL    HW214994   1.374   4.067   1.332 -1.0357 -1.8149 -1.1218
 1120SOL     OW14995   0.951   0.608   3.674  0.5160  0.1443  0.1216
 1120SOL    HW114996   0.926   0.590   3.584  0.0497  2.0805 -0.1454
 1120SOL    HW214997   0.987   0.697   3.665  0.2240  0.1847 -0.5883
 1121SOL     OW14998   1.851   4.115  13.092 -0.3074 -0.0089 -0.6537
 1121SOL    HW114999   1.759   4.136  13.107 -0.6295 -2.3290  0.6528
 1121SOL    HW215000   1.836   4.045  13.028  2.1408 -2.4442  1.4427
 1122SOL     OW15001   1.021   4.058   1.998 -0.3428  0.6097 -0.0143
 1122SOL    HW115002   1.036   3.996   2.069  2.2694  0.1703 -0.9253
 1122SOL    HW215003   0.994   4.135   2.047  0.1466 -0.0893  1.3529
 1123SOL     OW15004   0.766   4.104   0.409  0.4321  0.2564  0.2982
 1123SOL    HW115005   0.732   4.182   0.367  1.6680  0.3834 -0.4498
 1123SOL    HW215006   0.694   4.043   0.392 -0.0947  1.3484 -1.3476
 1124SOL     OW15007   2.163   1.076   2.870 -0.3456 -0.0538  0.0463
 1124SOL    HW115008   2.079   1.030   2.864 -0.6367  0.4852  0.0590
 1124SOL    HW215009   2.214   1.039   2.798 -1.8119 -1.7932 -0.1031
 1125SOL     OW15010   0.922   4.568   3.583 -0.1064 -0.0040 -0.5230
 1125SOL    HW115011   0.894   4.653   3.547  2.0373  1.2291  0.6978
 1125SOL    HW215012   1.012   4.587   3.612 -1.4095  0.8938  3.0021
 1126SOL     OW15013   3.471   2.217  14.337 -0.0871 -0.8088 -0.4479
 1126SOL    HW115014   3.488   2.142  14.280 -0.1116 -0.1001 -1.3789
 1126SOL    HW215015   3.538   2.270  14.294  0.6666 -1.3143  0.0979
 1127SOL     OW15016   1.016   4.656   2.414 -0.4186  0.6111 -0.0556
 1127SOL    HW115017   1.102   4.633   2.378  0.2915  0.1806  1.8608
 1127SOL    HW215018   0.963   4.613   2.347  1.5396  0.9590 -1.8401
 1128SOL     OW15019   3.444   3.768   6.855  0.5383  0.3125 -0.5186
 1128SOL    HW115020   3.353   3.778   6.826  0.1091  1.6563  1.3479
 1128SOL    HW215021   3.425   3.736   6.943  0.5968  1.6189 -0.0320
 1129SOL     OW15022   4.168   2.512   8.979  0.1731 -0.2115  0.1973
 1129SOL    HW115023   4.262   2.504   8.996  0.3000  2.3117  0.5529
 1129SOL    HW215024   4.134   2.434   9.024  0.1751 -1.6104 -2.2221
 1130SOL     OW15025   0.819   4.419   6.071  0.1437 -0.5735 -0.4780
 1130SOL    HW115026   0.846   4.417   6.162 -0.2227  0.9892 -0.3383
 1130SOL    HW215027   0.836   4.327   6.049  1.4121 -0.5524  0.4051
 1131SOL     OW15028   0.342   0.270   2.618  0.5140 -0.3715  0.5237
 1131SOL    HW115029   0.382   0.190   2.652  2.5909 -0.1254 -1.3214
 1131SOL    HW215030   0.414   0.308   2.568  1.0028  0.8430  2.1328
 1132SOL     OW15031   4.689   2.090  17.535 -0.4034  0.8534 -0.1105
 1132SOL    HW115032   4.687   2.084  17.439 -2.0732 -0.7266  0.0171
 1132SOL    HW215033   4.629   2.018  17.557 -0.5114  0.9066 -0.2320
 1133SOL     OW15034   1.413   1.409  10.940 -0.1169  0.6155 -0.0155
 1133SOL    HW115035   1.357   1.487  10.938 -1.5561 -0.4205  0.0647
 1133SOL    HW215036   1.388   1.376  10.854 -3.0401  2.6295  0.0506
 1134SOL     OW15037   0.986   1.276  14.693  0.5498 -0.2786 -0.0582
 1134SOL    HW115038   1.004   1.370  14.689  0.8685 -0.3322  0.0620
 1134SOL    HW215039   1.066   1.249  14.740  1.4046 -0.0955 -1.4134
 1135SOL     OW15040   2.907   4.216   2.404 -0.3174  0.4000  0.1359
 1135SOL    HW115041   2.926   4.215   2.498  1.2469  1.4191 -0.1646
 1135SOL    HW215042   2.861   4.300   2.403 -0.2908  0.4141  0.0983
 1136SOL     OW15043   2.509   0.952   8.026 -0.1457  0.0857  0.7307
 1136SOL    HW115044   2.542   0.946   7.937  0.9811 -0.9338  1.2194
 1136SOL    HW215045   2.565   1.022   8.060  2.6042 -0.9950 -1.6606
 1137SOL     OW15046   1.484   3.541  15.714  0.1102  0.4257 -0.0938
 1137SOL    HW115047   1.504   3.587  15.632  0.5904 -0.5721 -0.5307
 1137SOL    HW215048   1.572   3.532  15.750  0.1361 -2.1800 -0.8347
 1138SOL     OW15049   1.885   0.082   4.497 -0.1030  0.6390 -0.3230
 1138SOL    HW115050   1.792   0.097   4.513 -0.5773 -0.8109 -1.7569
 1138SOL    HW215051   1.921   0.056   4.582 -1.1399 -1.7332 -0.6087
 1139SOL     OW15052   3.317   0.354   8.370 -0.2588 -0.2328  0.3500
 1139SOL    HW115053   3.258   0.428   8.355 -0.3129  0.4406  3.8163
 1139SOL    HW215054   3.378   0.388   8.436  0.0017  0.7397 -0.3825
 1140SOL     OW15055   2.154   0.707   8.018  0.2786  0.0643 -0.1548
 1140SOL    HW115056   2.138   0.762   8.095 -1.6986 -1.9902  0.8916
 1140SOL    HW215057   2.183   0.764   7.947  0.0780 -1.8544 -1.7632
 1141SOL     OW15058   4.293   3.177   7.903  0.0305  0.3468 -0.7978
 1141SOL    HW115059   4.280   3.241   7.833  0.6176  2.1859  0.7987
 1141SOL    HW215060   4.383   3.158   7.877  0.9874  1.7344  1.5210
 1142SOL     OW15061   2.124   0.169   2.521 -0.2021 -0.4958 -0.4444
 1142SOL    HW115062   2.164   0.137   2.602  1.4843  0.6589 -0.8186
 1142SOL    HW215063   2.031   0.148   2.528 -0.3044  0.3908  0.8554
 1143SOL     OW15064   4.267   4.514   1.358  0.3748  0.3700  0.1490
 1143SOL    HW115065   4.220   4.463   1.423  0.4511  0.3880  0.2182
 1143SOL    HW215066   4.350   4.512   1.405 -0.3210 -1.4926  1.2918
 1144SOL     OW15067   3.850   0.998   3.671 -0.3407  0.7199 -0.0818
 1144SOL    HW115068   3.878   0.940   3.600 -1.0537  0.5206 -0.1957
 1144SOL    HW215069   3.758   0.978   3.655  0.2603 -2.0101 -0.0713
 1145SOL     OW15070   0.397   0.883   6.895  0.3065  0.0703 -0.7206
 1145SOL    HW115071   0.478   0.927   6.868  0.5495  1.1983  1.7744
 1145SOL    HW215072   0.381   0.852   6.806  0.8397  1.4015 -1.2894
 1146SOL     OW15073   1.700   0.477  12.414  0.0694 -0.3045  0.5703
 1146SOL    HW115074   1.725   0.554  12.464  0.8701  0.8951 -1.7094
 1146SOL    HW215075   1.695   0.511  12.324  1.3082  0.6471  0.8774
 1147SOL     OW15076   4.008   1.552   3.884  0.1198 -0.4711  0.0005
 1147SOL    HW115077   4.099   1.522   3.884  0.6367  1.0673 -0.7827
 1147SOL    HW215078   4.015   1.633   3.935  0.3991 -0.2524 -0.3811
 1148SOL     OW15079   2.863   1.928  12.796 -0.3662  0.1977  0.4629
 1148SOL    HW115080   2.800   1.959  12.730 -1.4786 -1.0241  0.9540
 1148SOL    HW215081   2.904   2.013  12.814  0.1957 -0.3351  1.6290
 1149SOL     OW15082   4.728   3.888   7.293 -0.0009 -0.1641 -0.2539
 1149SOL    HW115083   4.718   3.811   7.238 -0.7830 -1.3480  1.5450
 1149SOL    HW215084   0.046   3.936   7.229 -0.6477  1.2788  0.2802
 1150SOL     OW15085   1.522   3.490   4.255 -0.5488 -0.4972 -0.3982
 1150SOL    HW115086   1.502   3.479   4.348  2.1862  0.0621  0.2463
 1150SOL    HW215087   1.609   3.530   4.260 -0.6291  0.3018 -4.7487
 1151SOL     OW15088   4.116   0.404   5.735  1.0590 -0.3882  0.3616
 1151SOL    HW115089   4.093   0.331   5.793  0.4662 -1.6100 -1.4228
 1151SOL    HW215090   4.163   0.462   5.795  0.7140  0.1779  0.0843
 1152SOL     OW15091   3.561   0.566   5.797 -0.2518 -0.3020  0.5373
 1152SOL    HW115092   3.498   0.499   5.826  1.2579 -0.8602  2.5151
 1152SOL    HW215093   3.606   0.532   5.720  0.3464 -0.6549  1.0356
 1153SOL     OW15094   2.634   4.276   8.030  0.1462  0.0990 -0.3187
 1153SOL    HW115095   2.566   4.317   7.976  0.5941  0.4620 -0.6044
 1153SOL    HW215096   2.677   4.351   8.071  0.9699  0.8926 -2.6078
 1154SOL     OW15097   1.570   4.254   0.628  0.2442  0.0666 -0.2791
 1154SOL    HW115098   1.543   4.346   0.633 -2.5772 -0.8599  1.7990
 1154SOL    HW215099   1.492   4.198   0.634  0.6890 -0.6149 -0.9008
 1155SOL     OW15100   3.864   0.917  15.258 -0.4856 -0.5473 -0.5042
 1155SOL    HW115101   3.846   0.839  15.311 -0.1218  1.0889  2.0449
 1155SOL    HW215102   3.879   0.978  15.330  0.3261 -0.7170 -0.5380
 1156SOL     OW15103   3.725   3.401   6.340 -0.5665 -0.4147 -1.0364
 1156SOL    HW115104   3.770   3.343   6.401 -0.0290  0.6640 -0.4181
 1156SOL    HW215105   3.670   3.343   6.287  0.6188  0.1650 -2.9112
 1157SOL     OW15106   4.710   3.388   5.500  0.3809  0.6534  0.0976
 1157SOL    HW115107   0.020   3.325   5.556 -1.7287  0.1466  1.2153
 1157SOL    HW215108   4.624   3.347   5.492  0.6911 -0.4878  2.8317
 1158SOL     OW15109   0.003   0.296   8.034 -0.4537 -0.0759 -0.0060
 1158SOL    HW115110   0.051   0.242   8.096 -1.2447 -1.8938 -0.9767
 1158SOL    HW215111   0.033   0.248   7.957  1.3236  1.9229 -0.5817
 1159SOL     OW15112   3.748   2.108   1.050 -0.4321  0.2088 -0.1559
 1159SOL    HW115113   3.844   2.116   1.054 -0.4718  1.1608 -1.0014
 1159SOL    HW215114   3.730   2.029   1.100 -1.1419 -0.8012 -2.0317
 1160SOL     OW15115   3.493   3.878   7.956 -0.3469 -0.0609 -0.4447
 1160SOL    HW115116   3.427   3.866   8.024 -0.4136 -0.5502 -0.5950
 1160SOL    HW215117   3.566   3.835   8.001 -1.3519  0.6531  1.8820
 1161SOL     OW15118   4.252   2.461   8.300  0.1420  0.3650 -0.0251
 1161SOL    HW115119   4.233   2.532   8.362  2.0364  0.3862  0.5423
 1161SOL    HW215120   4.340   2.429   8.322  0.3281 -0.9169 -2.6719
 1162SOL     OW15121   4.094   0.768   6.604 -0.3585  0.4363 -0.5508
 1162SOL    HW115122   4.142   0.749   6.523  1.4019  2.2690  0.0901
 1162SOL    HW215123   4.033   0.837   6.577 -1.8592 -0.6095  0.1294
 1163SOL     OW15124   4.059   0.149   7.412  0.6681  0.3784  0.0005
 1163SOL    HW115125   4.150   0.120   7.421  1.0756  1.6225 -0.0346
 1163SOL    HW215126   4.055   0.151   7.316  2.2100 -0.2909 -0.0848
 1164SOL     OW15127   0.413   0.285  15.295  0.3050  0.2208 -0.4778
 1164SOL    HW115128   0.371   0.212  15.249 -0.6668  0.8748 -0.6524
 1164SOL    HW215129   0.491   0.305  15.244  1.7304  0.0986  1.6962
 1165SOL     OW15130   0.770   2.908   2.533 -0.1755 -0.8287  0.5099
 1165SOL    HW115131   0.703   2.848   2.500 -0.1369 -0.3785 -0.3934
 1165SOL    HW215132   0.849   2.862   2.504 -0.7112 -2.9512  2.4419
 1166SOL     OW15133   3.649   1.616  12.098  1.1317 -0.9506  0.5627
 1166SOL    HW115134   3.617   1.702  12.125  0.6478 -0.4603 -1.5628
 1166SOL    HW215135   3.703   1.595  12.174  0.8856 -0.1628  0.9489
 1167SOL     OW15136   1.175   3.963   5.244 -0.3105 -0.1597  0.2568
 1167SOL    HW115137   1.095   3.958   5.192  0.0755 -0.0282 -0.3557
 1167SOL    HW215138   1.188   4.058   5.251  0.9042 -0.1120 -2.9606
 1168SOL     OW15139   0.846   0.111   3.707  0.3238 -0.3093 -0.0141
 1168SOL    HW115140   0.822   0.026   3.744  0.4963  0.2308  1.3484
 1168SOL    HW215141   0.808   0.167   3.775 -0.7352 -1.9029  0.7055
 1169SOL     OW15142   2.536   1.650   7.036 -1.3432 -0.0891 -0.2665
 1169SOL    HW115143   2.610   1.621   7.088 -2.7610  1.1545  2.4200
 1169SOL    HW215144   2.523   1.574   6.978 -0.6352  0.6372 -1.3821
 1170SOL     OW15145   2.053   4.008   9.942 -0.6252 -0.0684 -0.6480
 1170SOL    HW115146   2.102   3.998   9.861  0.2856  0.4250 -0.1635
 1170SOL    HW215147   2.089   3.937   9.995 -1.4265 -0.5390 -0.7367
 1171SOL     OW15148   3.767   1.264   7.815 -0.2115  0.3502 -0.4150
 1171SOL    HW115149   3.734   1.341   7.862 -0.5744 -0.8581  1.3336
 1171SOL    HW215150   3.796   1.207   7.886  4.0034  1.2222 -1.3883
 1172SOL     OW15151   4.517   1.489  17.403 -0.5410 -0.0503  0.1287
 1172SOL    HW115152   4.529   1.584  17.394 -0.3378  0.0154  1.1631
 1172SOL    HW215153   4.607   1.456  17.401 -0.7623 -0.4810 -2.5253
 1173SOL     OW15154   1.941   4.288   8.357  0.0704 -0.6798 -0.1602
 1173SOL    HW115155   2.007   4.241   8.407 -1.1661 -0.1447  1.9543
 1173SOL    HW215156   1.907   4.224   8.295 -1.0896  0.6299 -0.8771
 1174SOL     OW15157   3.867   4.319   8.662 -0.3970 -0.1834  0.7633
 1174SOL    HW115158   3.920   4.398   8.648 -0.6856 -0.4352 -1.7463
 1174SOL    HW215159   3.881   4.276   8.578 -0.9598  3.6713 -1.3311
 1175SOL     OW15160   3.430   0.494   9.353 -0.0722 -0.5844 -0.2686
 1175SOL    HW115161   3.347   0.449   9.341  0.2815 -1.5844  1.1290
 1175SOL    HW215162   3.415   0.588   9.344  0.3796 -0.2715  2.3020
 1176SOL     OW15163   1.263   3.387  14.569  0.6273  0.2326  0.0815
 1176SOL    HW115164   1.278   3.371  14.476  0.1731 -0.0341  0.0492
 1176SOL    HW215165   1.216   3.305  14.587 -0.8346  0.4288 -2.8317
 1177SOL     OW15166   0.628   0.340   4.207 -0.3963 -0.2490 -0.5185
 1177SOL    HW115167   0.552   0.394   4.227 -0.1142 -0.3284  0.8061
 1177SOL    HW215168   0.608   0.261   4.257  0.0340 -0.3102 -0.4459
 1178SOL     OW15169   2.939   2.790   6.457 -0.0242 -0.2689 -0.2737
 1178SOL    HW115170   3.014   2.758   6.407  0.2080 -1.9715  1.1703
 1178SOL    HW215171   2.954   2.767   6.549 -3.2167  1.0683  0.5775
 1179SOL     OW15172   4.683   0.552   3.198 -0.0499 -0.3054 -0.0010
 1179SOL    HW115173   4.730   0.484   3.149  1.3766 -0.7992  2.0320
 1179SOL    HW215174   4.596   0.512   3.201 -1.6458  3.2080 -0.1255
 1180SOL     OW15175   2.082   3.244  10.824 -0.0485  0.6157 -0.1606
 1180SOL    HW115176   2.050   3.267  10.911  2.4805  0.3319  0.8756
 1180SOL    HW215177   2.007   3.227  10.767  0.8135 -1.2178 -0.7917
 1181SOL     OW15178   1.312   3.096  16.462 -0.1009 -0.1804  0.0544
 1181SOL    HW115179   1.285   3.121  16.373 -0.6937  1.3510  0.6596
 1181SOL    HW215180   1.398   3.139  16.459 -0.3257  0.1289 -2.7676
 1182SOL     OW15181   1.071   0.060   7.913  0.0997  0.6867 -0.1022
 1182SOL    HW115182   1.099   4.712   7.952 -1.6506  0.7950  1.3820
 1182SOL    HW215183   0.987   0.073   7.957  0.2842  0.2995  0.3655
 1183SOL     OW15184   4.545   1.264   6.679  0.0626  0.8273  0.1915
 1183SOL    HW115185   4.512   1.241   6.766 -0.9860  1.3893 -0.0598
 1183SOL    HW215186   4.481   1.327   6.646 -1.8073 -0.4341  1.4571
 1184SOL     OW15187   0.111   3.213   5.313  0.0438 -0.3455 -0.4411
 1184SOL    HW115188   0.112   3.286   5.376  0.2290  0.0194 -0.8709
 1184SOL    HW215189   0.084   3.142   5.372 -2.4768 -1.0840 -2.5003
 1185SOL     OW15190   2.441   2.082  16.616  0.4657 -0.0669  0.0375
 1185SOL    HW115191   2.532   2.055  16.622 -0.0402 -1.8091 -0.2696
 1185SOL    HW215192   2.436   2.096  16.522 -0.9872 -0.8013  0.0005
 1186SOL     OW15193   2.895   4.681  12.910  0.9540  0.1897 -0.3941
 1186SOL    HW115194   2.933   0.033  12.920  1.7016 -0.0957 -0.7165
 1186SOL    HW215195   2.971   4.632  12.877 -0.3801 -0.6605 -2.1950
 1187SOL     OW15196   4.030   2.293   2.399  0.1807 -0.1743  0.2287
 1187SOL    HW115197   3.971   2.231   2.357  0.4995  0.8041 -1.6657
 1187SOL    HW215198   4.074   2.238   2.463 -0.7445 -0.2673  0.7752
 1188SOL     OW15199   3.985   3.562   3.032  0.4740  0.7423  0.2235
 1188SOL    HW115200   3.904   3.562   3.083  1.3020 -0.1945  1.5446
 1188SOL    HW215201   3.984   3.648   2.990 -1.3973  0.1998 -0.8083
 1189SOL     OW15202   3.957   0.395   6.394  0.0867  0.0271 -0.3443
 1189SOL    HW115203   3.925   0.480   6.425 -0.5993 -0.4868  0.3416
 1189SOL    HW215204   3.870   0.367   6.363 -0.0232  2.1253 -2.0037
 1190SOL     OW15205   4.253   4.213   5.958 -0.1405 -0.8238  0.2934
 1190SOL    HW115206   4.183   4.150   5.938 -0.5549 -0.5989  1.0370
 1190SOL    HW215207   4.230   4.286   5.901 -3.0437 -1.2383  0.9271
 1191SOL     OW15208   3.629   0.268   4.052  0.2561 -0.0302 -0.1719
 1191SOL    HW115209   3.675   0.210   3.992  2.3295  0.4061  0.9965
 1191SOL    HW215210   3.695   0.276   4.121 -0.2561 -0.1732  0.3367
 1192SOL     OW15211   4.160   4.391   5.738 -0.1340 -1.0444 -0.1613
 1192SOL    HW115212   4.121   4.364   5.655 -0.3854  1.3696 -0.8293
 1192SOL    HW215213   4.223   4.458   5.711 -1.1778  1.0804  2.6478
 1193SOL     OW15214   3.862   1.139   1.163 -0.1896 -0.1969  0.3600
 1193SOL    HW115215   3.947   1.101   1.143  1.2326  2.5808  1.0769
 1193SOL    HW215216   3.840   1.151   1.070 -1.7548 -0.0318  0.7607
 1194SOL     OW15217   1.312   0.542  12.243 -0.4236 -0.1060 -0.3165
 1194SOL    HW115218   1.309   0.450  12.272 -0.5729  0.6033  1.9367
 1194SOL    HW215219   1.404   0.547  12.217 -0.8379 -0.1805 -1.7931
 1195SOL     OW15220   4.546   1.446   3.530 -0.0197  0.0297  0.4635
 1195SOL    HW115221   4.491   1.369   3.546 -0.2580  0.3399  1.1414
 1195SOL    HW215222   4.579   1.468   3.617  1.8100  1.4931 -0.6086
 1196SOL     OW15223   1.293   0.005   0.707  0.0227  0.3404 -0.5670
 1196SOL    HW115224   1.318   0.095   0.725  0.3085 -0.1087  1.3784
 1196SOL    HW215225   1.197   0.002   0.707 -0.0816  3.9504 -0.8758
 1197SOL     OW15226   1.330   1.483   3.653  0.1065  0.2665 -0.1013
 1197SOL    HW115227   1.308   1.410   3.595 -0.8584  0.5702 -0.1108
 1197SOL    HW215228   1.321   1.441   3.738  0.8044 -0.0880 -0.2002
 1198SOL     OW15229   0.010   3.972  11.743  0.2315 -0.1730 -0.0915
 1198SOL    HW115230   0.022   3.932  11.657  0.6360 -1.2419  0.4633
 1198SOL    HW215231   0.101   3.979  11.771  0.6023  1.0717 -1.6191
 1199SOL     OW15232   2.711   4.125  11.273 -0.2471 -0.3135 -0.0251
 1199SOL    HW115233   2.745   4.215  11.275 -1.8720  0.2593  1.2509
 1199SOL    HW215234   2.737   4.103  11.362 -1.4874 -1.0772  0.1416
 1200SOL     OW15235   2.061   1.124   3.114 -0.0982  0.0771 -0.1616
 1200SOL    HW115236   1.997   1.053   3.114 -0.4698  0.4100 -0.8680
 1200SOL    HW215237   2.102   1.108   3.029  1.4663 -0.1331  0.6411
 1201SOL     OW15238   1.526   2.831  17.346 -0.0591  0.2395  0.4002
 1201SOL    HW115239   1.572   2.747  17.342 -0.0835  0.2636 -0.4020
 1201SOL    HW215240   1.454   2.824  17.283 -1.1702  0.1379  1.6617
 1202SOL     OW15241   4.352   2.774   2.776  0.6272  0.0161  0.2947
 1202SOL    HW115242   4.397   2.840   2.723  1.6511  0.5694  1.8307
 1202SOL    HW215243   4.274   2.827   2.793  0.8765  0.4136  0.2007
 1203SOL     OW15244   0.629   1.420  11.865  0.3319  1.0670 -0.1832
 1203SOL    HW115245   0.638   1.341  11.812 -0.4126  0.6046  0.3790
 1203SOL    HW215246   0.707   1.397  11.915  0.3700 -0.3600 -0.9136
 1204SOL     OW15247   2.515   0.526   8.617  0.1446 -0.2470  0.5556
 1204SOL    HW115248   2.504   0.476   8.537 -0.0234 -0.9648  1.0280
 1204SOL    HW215249   2.422   0.546   8.628 -0.5502 -1.4943 -3.1401
 1205SOL     OW15250   4.501   2.703   3.685  0.0788 -0.4867 -0.1523
 1205SOL    HW115251   4.577   2.749   3.647 -0.3339 -0.2358 -0.6758
 1205SOL    HW215252   4.510   2.609   3.670  0.8465 -0.5852  0.9588
 1206SOL     OW15253   0.051   3.328   7.980 -0.0091  0.5594 -0.0139
 1206SOL    HW115254   0.108   3.343   7.904  0.2963  0.5725  0.2175
 1206SOL    HW215255   0.042   3.233   7.990 -1.0033  0.6619  0.0099
 1207SOL     OW15256   3.838   0.157   9.249  0.1155 -0.3882  0.0207
 1207SOL    HW115257   3.817   0.224   9.184  2.1888  0.5356  0.3229
 1207SOL    HW215258   3.755   0.141   9.295 -0.3170  0.1614 -0.5696
 1208SOL     OW15259   3.770   1.386  16.788  0.7107 -0.7090  0.2351
 1208SOL    HW115260   3.757   1.360  16.879  2.2049  0.7807  0.8732
 1208SOL    HW215261   3.686   1.363  16.750  1.7986 -2.2432 -1.2286
 1209SOL     OW15262   2.296   0.928   5.929 -0.4214 -0.4916  0.0487
 1209SOL    HW115263   2.207   0.927   5.895 -0.6151 -1.5026  0.5743
 1209SOL    HW215264   2.349   0.876   5.868 -0.4414 -2.1801  1.4694
 1210SOL     OW15265   3.530   3.498  15.473 -0.1791 -0.4157 -0.3068
 1210SOL    HW115266   3.491   3.516  15.387  0.2333  1.7774 -0.0344
 1210SOL    HW215267   3.491   3.554  15.540 -1.1230 -1.0135 -0.3530
 1211SOL     OW15268   4.046   1.443   7.686  0.2319  0.4292  0.6550
 1211SOL    HW115269   4.032   1.352   7.712  2.4418  0.6876  2.8251
 1211SOL    HW215270   3.964   1.490   7.700 -0.0719 -0.2207  1.0480
 1212SOL     OW15271   3.120   2.730   6.235 -0.0814 -0.1691  0.0279
 1212SOL    HW115272   3.202   2.730   6.285 -1.0248 -0.8019  1.5597
 1212SOL    HW215273   3.163   2.716   6.150 -0.9051  0.2121 -0.4438
 1213SOL     OW15274   1.838   0.041   2.444  0.0602  0.6699  0.1480
 1213SOL    HW115275   1.814   4.696   2.491 -0.7488  0.2841 -0.9073
 1213SOL    HW215276   1.836   0.006   2.354  1.8122  1.4726 -0.1972
 1214SOL     OW15277   2.311   2.808   6.729  0.8363  0.2181  0.3301
 1214SOL    HW115278   2.335   2.814   6.637  0.5827  0.8582  0.3067
 1214SOL    HW215279   2.288   2.716   6.740  0.4354  0.1504 -1.0363
 1215SOL     OW15280   4.640   3.637   3.726  0.0235 -0.6702 -0.2550
 1215SOL    HW115281   4.596   3.643   3.641 -0.9333  2.1619  0.4466
 1215SOL    HW215282   4.596   3.557   3.755 -0.1564  0.4096  2.5173
 1216SOL     OW15283   4.273   1.659  13.100  0.3454  0.0994 -0.2192
 1216SOL    HW115284   4.306   1.725  13.040  1.5382 -0.3076 -0.0058
 1216SOL    HW215285   4.206   1.712  13.143 -1.0567 -2.1405  0.4118
 1217SOL     OW15286   2.398   4.362   7.561 -0.0698 -0.3781 -0.4228
 1217SOL    HW115287   2.411   4.364   7.466 -0.8343 -2.7490 -0.5819
 1217SOL    HW215288   2.458   4.288   7.573 -2.2909 -1.7627  2.2083
 1218SOL     OW15289   0.801   3.626   6.295  0.1270 -0.3946  0.5178
 1218SOL    HW115290   0.720   3.608   6.247  0.8835 -2.9827  0.1957
 1218SOL    HW215291   0.773   3.651   6.383 -0.4600  0.2350  0.1489
 1219SOL     OW15292   1.441   1.917   4.403 -0.3057  0.3625 -0.2487
 1219SOL    HW115293   1.502   1.918   4.477 -0.0747  0.2124 -0.4366
 1219SOL    HW215294   1.368   1.955   4.451 -0.7093  1.1715 -1.5017
 1220SOL     OW15295   3.556   4.140   9.237  0.5096 -0.4439 -0.3018
 1220SOL    HW115296   3.510   4.168   9.158  1.2120  1.2608 -0.1016
 1220SOL    HW215297   3.629   4.104   9.186 -0.7609 -1.4591 -1.4196
 1221SOL     OW15298   2.361   4.108   3.697 -0.1687  0.0039  0.1214
 1221SOL    HW115299   2.438   4.161   3.717  1.3965 -1.5380 -1.8504
 1221SOL    HW215300   2.388   4.047   3.628  0.5679 -0.2501  0.6410
 1222SOL     OW15301   3.410   4.720  11.054 -0.0687  0.1320 -0.6403
 1222SOL    HW115302   3.451   4.675  10.980  1.2600 -0.1044  0.2269
 1222SOL    HW215303   3.359   4.645  11.082 -0.6282  0.2689 -1.3026
 1223SOL     OW15304   3.830   0.969   0.423  0.5381  0.2700  0.5664
 1223SOL    HW115305   3.809   1.052   0.464  1.7422  1.9020 -2.0800
 1223SOL    HW215306   3.787   0.914   0.488  0.9961  1.3516  1.7771
 1224SOL     OW15307   3.280   4.040  10.067  0.2489 -0.0697  0.4417
 1224SOL    HW115308   3.224   4.078  10.136  1.0976  1.0648  0.4896
 1224SOL    HW215309   3.238   3.954  10.057 -1.4478  1.1021 -2.5608
 1225SOL     OW15310   4.287   3.100   2.381 -0.0432 -0.1056 -0.3503
 1225SOL    HW115311   4.211   3.089   2.437 -2.1366  2.9553 -2.5683
 1225SOL    HW215312   4.347   3.038   2.421  0.0781 -1.1901 -2.1915
 1226SOL     OW15313   2.683   3.541  13.158  0.5753 -0.1978 -0.5919
 1226SOL    HW115314   2.599   3.527  13.114  0.1865 -1.3174  0.4831
 1226SOL    HW215315   2.655   3.559  13.248 -0.2245 -0.4485 -0.7856
 1227SOL     OW15316   4.576   4.326   6.376  0.0932 -0.7737 -0.2831
 1227SOL    HW115317   4.492   4.369   6.392  0.9756  2.1537 -3.3217
 1227SOL    HW215318   4.561   4.235   6.402 -1.1664 -0.2628  0.7600
 1228SOL     OW15319   3.862   2.367   8.740 -0.0210  0.1419 -0.1531
 1228SOL    HW115320   3.903   2.296   8.789  0.8650  0.8064  0.0776
 1228SOL    HW215321   3.926   2.389   8.673 -1.9304 -0.9036 -2.3254
 1229SOL     OW15322   4.230   4.366   7.093 -0.3032 -0.0693  0.0743
 1229SOL    HW115323   4.264   4.436   7.037  1.3542 -0.3986  0.6560
 1229SOL    HW215324   4.279   4.298   7.047  2.2422  1.0700  1.0357
 1230SOL     OW15325   3.838   3.195   7.831 -0.2245  0.5450 -0.0680
 1230SOL    HW115326   3.834   3.099   7.829 -0.4051  0.5735 -1.0273
 1230SOL    HW215327   3.809   3.201   7.922 -0.3410 -0.1066 -0.0644
 1231SOL     OW15328   3.441   1.762   4.449  0.2587 -0.3791  0.6215
 1231SOL    HW115329   3.448   1.854   4.474 -1.1646 -0.1862  0.3597
 1231SOL    HW215330   3.355   1.743   4.488  0.3891 -1.8184  0.2230
 1232SOL     OW15331   4.414   1.155   2.605  0.5250 -0.5062  0.8771
 1232SOL    HW115332   4.426   1.250   2.594 -0.3409 -0.7089 -1.7046
 1232SOL    HW215333   4.338   1.147   2.548  0.1720 -0.6893  1.3728
 1233SOL     OW15334   2.437   1.702   1.287 -0.2269  0.4635 -0.3979
 1233SOL    HW115335   2.507   1.767   1.292  0.7252 -0.6711  0.7993
 1233SOL    HW215336   2.376   1.730   1.355  1.1480  0.0095  1.0205
 1234SOL     OW15337   1.059   4.488   1.834 -0.2254  0.1276  0.0748
 1234SOL    HW115338   1.083   4.557   1.773 -0.1749  2.8028  3.1705
 1234SOL    HW215339   0.964   4.479   1.825 -0.0535 -2.5348  0.8950
 1235SOL     OW15340   3.136   3.609   6.244 -0.3930  0.7465 -0.3773
 1235SOL    HW115341   3.125   3.566   6.159  2.6964  0.5823 -0.7172
 1235SOL    HW215342   3.075   3.566   6.304  2.5932 -1.5648  1.0442
 1236SOL     OW15343   2.396   2.921   7.188 -0.3212 -0.0821 -0.1146
 1236SOL    HW115344   2.373   3.007   7.153 -1.2790 -0.8912 -1.4504
 1236SOL    HW215345   2.366   2.918   7.279  1.8694 -3.2608  0.5248
 1237SOL     OW15346   2.050   0.600   6.061  0.4129 -0.3873  0.5430
 1237SOL    HW115347   2.117   0.621   5.995 -2.1510 -1.7294 -2.4639
 1237SOL    HW215348   1.984   0.661   6.029  0.7904 -0.8908 -1.2327
 1238SOL     OW15349   4.008   2.340  15.166  0.7297 -0.1039 -0.5108
 1238SOL    HW115350   4.082   2.281  15.155  2.4405  2.4225 -2.4642
 1238SOL    HW215351   3.975   2.324  15.078 -3.3671  1.0811  0.7982
 1239SOL     OW15352   3.333   4.174   4.009 -0.3543  0.0415 -0.1435
 1239SOL    HW115353   3.278   4.123   3.949 -1.3298  1.7746 -0.7163
 1239SOL    HW215354   3.414   4.182   3.958 -0.2097 -0.7262 -0.0350
 1240SOL     OW15355   4.150   3.965   6.920 -0.3736 -0.4778 -0.8876
 1240SOL    HW115356   4.162   3.882   6.873 -2.1751  0.1108 -2.3839
 1240SOL    HW215357   4.241   3.990   6.936 -0.4763  1.5747 -3.3926
 1241SOL     OW15358   3.157   0.063   7.040 -0.1445  0.2974  0.6677
 1241SOL    HW115359   3.171   0.004   6.965 -1.4741  0.5510  0.2249
 1241SOL    HW215360   3.090   0.017   7.090 -1.1703  0.2577 -0.7362
 1242SOL     OW15361   1.164   4.064   8.310  0.2722  0.1184  0.0504
 1242SOL    HW115362   1.238   4.011   8.342 -1.3720 -0.2951  3.1991
 1242SOL    HW215363   1.095   3.998   8.320  1.0741 -0.8731 -0.9436
 1243SOL     OW15364   1.513   1.024   1.071 -0.5958  0.3502  0.4315
 1243SOL    HW115365   1.570   1.065   1.006  0.7881 -0.9757  0.8258
 1243SOL    HW215366   1.575   1.012   1.143 -1.0114 -0.5272  0.6423
 1244SOL     OW15367   3.935   4.650   9.143 -0.1439 -0.5197  0.4150
 1244SOL    HW115368   3.901   4.727   9.189 -0.2085  0.4561 -1.2701
 1244SOL    HW215369   3.850   4.612   9.122 -0.1588  0.8156 -1.9442
 1245SOL     OW15370   3.128   4.017   7.381  0.3878 -0.7443  0.6466
 1245SOL    HW115371   3.216   3.987   7.358  0.7914 -0.9884  2.4641
 1245SOL    HW215372   3.094   3.941   7.429  0.2391 -1.1915 -0.1650
 1246SOL     OW15373   1.125   0.301   9.680 -0.4528  0.7558 -0.0170
 1246SOL    HW115374   1.042   0.258   9.702  1.0267 -2.3383 -0.5072
 1246SOL    HW215375   1.158   0.325   9.766 -1.3748 -1.7495  1.0571
 1247SOL     OW15376   0.003   3.801   6.190  0.7735 -0.3748  0.1368
 1247SOL    HW115377   4.667   3.750   6.151 -2.8940  3.7758  1.3366
 1247SOL    HW215378   0.067   3.785   6.121 -0.1777 -0.7725 -0.6550
 1248SOL     OW15379   3.323   2.111   3.005  0.0969  0.3825  0.0936
 1248SOL    HW115380   3.245   2.146   3.047  1.3994  0.7839  2.1328
 1248SOL    HW215381   3.363   2.081   3.087  0.1766  3.5140  1.1708
 1249SOL     OW15382   2.848   3.444   2.744 -0.1037  0.1797 -0.3454
 1249SOL    HW115383   2.860   3.455   2.649  1.6644 -0.1296 -0.1574
 1249SOL    HW215384   2.942   3.436   2.763 -0.0491  0.9748 -0.2895
 1250SOL     OW15385   0.395   1.218   4.681  0.1000  0.1898  0.0200
 1250SOL    HW115386   0.314   1.256   4.713  0.3180 -0.9011  1.8457
 1250SOL    HW215387   0.423   1.289   4.623 -2.6885  1.0746 -0.2230
 1251SOL     OW15388   0.364   1.626   8.883  0.1258 -0.3266 -0.3026
 1251SOL    HW115389   0.445   1.676   8.896 -0.0517  0.0066 -0.4753
 1251SOL    HW215390   0.311   1.704   8.865 -1.2926 -1.1646  0.3040
 1252SOL     OW15391   2.402   3.860   5.899 -0.6311 -0.1572 -0.1670
 1252SOL    HW115392   2.338   3.896   5.838  0.8787  2.3343 -0.3222
 1252SOL    HW215393   2.486   3.907   5.890 -1.6241  1.1360 -2.7659
 1253SOL     OW15394   2.393   0.337  11.976 -0.3614 -0.1128 -0.6184
 1253SOL    HW115395   2.422   0.410  11.922  2.2702 -0.7650 -0.1165
 1253SOL    HW215396   2.464   0.278  11.952  1.3633  2.0641 -0.8987
 1254SOL     OW15397   1.186   4.171   6.613 -0.6807  0.1547 -0.1263
 1254SOL    HW115398   1.104   4.210   6.584 -0.3605 -0.6208 -2.0887
 1254SOL    HW215399   1.154   4.149   6.700 -0.1782  0.3888  0.1204
 1255SOL     OW15400   2.236   0.618   5.855 -0.2109 -0.0540  0.0999
 1255SOL    HW115401   2.285   0.641   5.777  3.1282  0.8607  2.4539
 1255SOL    HW215402   2.293   0.600   5.930  2.6776  0.2366 -2.0094
 1256SOL     OW15403   1.489   2.174   2.162  0.3074  0.0871  0.1359
 1256SOL    HW115404   1.527   2.258   2.135  0.6166  0.0370  0.4259
 1256SOL    HW215405   1.487   2.129   2.078 -2.1455 -1.8504  1.2340
 1257SOL     OW15406   1.177   0.235   8.584 -0.4962 -0.2136  0.0303
 1257SOL    HW115407   1.210   0.325   8.580  1.6887 -0.9000  2.1346
 1257SOL    HW215408   1.177   0.210   8.492 -2.2435  0.2954 -0.1013
 1258SOL     OW15409   1.509   4.038  16.812  0.1467 -0.3235  0.1744
 1258SOL    HW115410   1.548   3.997  16.890  2.4679  0.5323 -0.5286
 1258SOL    HW215411   1.573   4.107  16.793 -1.7718  2.1740  2.5803
 1259SOL     OW15412   3.690   2.859   2.421  0.3884 -0.7079  0.2849
 1259SOL    HW115413   3.628   2.789   2.398 -2.2146  1.7432 -0.1839
 1259SOL    HW215414   3.773   2.828   2.385  0.0987 -0.0708 -0.9538
 1260SOL     OW15415   4.407   2.117   5.158 -0.1798 -0.1758 -0.5921
 1260SOL    HW115416   4.474   2.137   5.093 -0.6746  0.4131 -0.9103
 1260SOL    HW215417   4.354   2.051   5.114  2.1679 -1.9790 -0.7282
 1261SOL     OW15418   4.519   2.903   0.511  0.3419 -0.2704 -0.3247
 1261SOL    HW115419   4.516   2.942   0.423 -0.3469 -1.8932 -1.0215
 1261SOL    HW215420   4.611   2.878   0.520  0.6338  1.0326  0.3300
 1262SOL     OW15421   0.630   4.035   9.393 -0.4878  0.3031  0.0000
 1262SOL    HW115422   0.659   4.045   9.483 -1.6915  1.8430  0.2263
 1262SOL    HW215423   0.657   4.119   9.357 -1.2269  1.5488  2.3603
 1263SOL     OW15424   1.336   4.500   0.115  0.0454  0.6275  0.4117
 1263SOL    HW115425   1.277   4.568   0.147 -2.1892 -1.4845  0.8146
 1263SOL    HW215426   1.422   4.529   0.145 -0.2954 -0.2977  2.3316
 1264SOL     OW15427   4.001   1.034   9.796  0.1771 -0.5800 -0.0512
 1264SOL    HW115428   3.994   1.115   9.847  1.7237 -0.0932 -0.5890
 1264SOL    HW215429   3.966   0.972   9.859  2.3904  0.2673  1.9882
 1265SOL     OW15430   2.408   3.434  13.645 -0.0691 -0.5633  0.0148
 1265SOL    HW115431   2.344   3.402  13.709  0.4767 -0.8393  0.4248
 1265SOL    HW215432   2.463   3.355  13.644  1.8774  0.8440 -1.5358
 1266SOL     OW15433   1.233   0.511   8.560  0.0222  0.4483  0.6052
 1266SOL    HW115434   1.174   0.579   8.529  1.0109  0.7782 -0.5771
 1266SOL    HW215435   1.197   0.500   8.648 -0.5676  0.8399  0.4078
 1267SOL     OW15436   1.463   4.653   3.462 -0.1893  0.4688  0.5004
 1267SOL    HW115437   1.391   4.707   3.429 -1.1896  0.8202  3.2024
 1267SOL    HW215438   1.417   4.592   3.519  0.4698  0.4316  0.9905
 1268SOL     OW15439   1.918   1.620   4.889  0.0024  0.0932 -0.5784
 1268SOL    HW115440   1.883   1.550   4.834 -1.6640 -0.5744  1.3528
 1268SOL    HW215441   1.872   1.600   4.970  1.1173  2.5269  0.6643
 1269SOL     OW15442   4.546   4.379  15.820 -0.9900 -0.1534  0.0290
 1269SOL    HW115443   4.575   4.367  15.911 -2.8363 -0.9791  0.5153
 1269SOL    HW215444   4.534   4.474  15.820  1.6797  0.1683  0.1232
 1270SOL     OW15445   1.143   3.334  16.554 -0.3849  0.7507 -0.0542
 1270SOL    HW115446   1.226   3.351  16.598  0.6576  0.3032 -1.8437
 1270SOL    HW215447   1.159   3.296  16.467 -0.2353  0.0403  0.2859
 1271SOL     OW15448   2.403   0.293   5.985  0.3265 -0.2070 -0.2493
 1271SOL    HW115449   2.413   0.388   5.981 -0.9159 -0.0791 -0.0708
 1271SOL    HW215450   2.310   0.293   6.006  0.0097  1.5317 -1.7154
 1272SOL     OW15451   0.240   3.231   3.690 -0.2589  0.3886  0.5069
 1272SOL    HW115452   0.335   3.241   3.692 -0.4139  2.0346 -0.6955
 1272SOL    HW215453   0.208   3.307   3.739 -3.6421  0.6368 -2.1159
 1273SOL     OW15454   2.025   1.577   1.564  0.0100  0.0166  0.1388
 1273SOL    HW115455   1.975   1.538   1.493 -0.2155 -0.6990  0.6913
 1273SOL    HW215456   1.957   1.601   1.627 -2.9520 -0.8765 -2.7553
 1274SOL     OW15457   2.079   3.690  11.658  1.0161  0.0699 -0.2057
 1274SOL    HW115458   2.123   3.666  11.577  1.2884  2.2980 -0.7189
 1274SOL    HW215459   2.125   3.771  11.682 -1.4779  1.1882  0.9579
 1275SOL     OW15460   3.002   1.248   3.686 -0.4865  0.0487  0.2759
 1275SOL    HW115461   3.081   1.195   3.679 -0.0069  0.9335 -0.9481
 1275SOL    HW215462   2.994   1.284   3.598  0.1386 -0.7637 -0.1110
 1276SOL     OW15463   3.553   2.063  10.067  0.1006  0.0073  0.4913
 1276SOL    HW115464   3.544   2.120  10.143 -0.8450  1.2361 -0.5424
 1276SOL    HW215465   3.539   2.127   9.998  2.9863 -2.5241 -2.4649
 1277SOL     OW15466   1.404   3.144  12.323  0.4471 -0.8805 -0.0551
 1277SOL    HW115467   1.375   3.053  12.310 -3.2203  0.1301  1.1222
 1277SOL    HW215468   1.360   3.164  12.406  1.6914  1.5148  0.0116
 1278SOL     OW15469   0.225   4.475  10.221 -0.6209  0.3290  0.1772
 1278SOL    HW115470   0.181   4.506  10.142 -2.1849  0.0848  0.9566
 1278SOL    HW215471   0.287   4.416  10.179 -1.1173 -0.6480  0.8222
 1279SOL     OW15472   0.443   3.282   8.400  0.2891 -0.0179 -0.7437
 1279SOL    HW115473   0.426   3.290   8.494  0.7889 -2.3293 -0.4693
 1279SOL    HW215474   0.376   3.219   8.374  1.4009 -2.8911  3.4258
 1280SOL     OW15475   0.750   1.209  16.147 -0.3070  0.3266  0.2714
 1280SOL    HW115476   0.825   1.233  16.092 -1.0635 -0.3654 -1.0715
 1280SOL    HW215477   0.714   1.140  16.092  0.9405 -1.5365  1.7799
 1281SOL     OW15478   0.574   2.951   3.280 -0.6049 -0.2096  0.0693
 1281SOL    HW115479   0.651   3.007   3.288 -1.0205  0.1004  2.0616
 1281SOL    HW215480   0.515   3.024   3.263 -1.0317 -0.4636  0.4508
 1282SOL     OW15481   2.642   2.007  14.884  0.0551  0.0672 -0.2909
 1282SOL    HW115482   2.692   1.981  14.807 -0.4542  1.3167 -1.0407
 1282SOL    HW215483   2.681   2.093  14.900  0.1035 -0.1109  0.5740
 1283SOL     OW15484   0.976   3.945  16.643 -0.0447  0.5129 -0.3302
 1283SOL    HW115485   1.040   3.981  16.704 -0.3370  0.2367  0.1399
 1283SOL    HW215486   1.028   3.945  16.563  0.5547  2.7784  0.0675
 1284SOL     OW15487   0.518   0.637   4.723  0.2154 -0.1602 -0.1600
 1284SOL    HW115488   0.473   0.602   4.646 -0.9725  0.5627  0.2093
 1284SOL    HW215489   0.470   0.594   4.794 -1.2262  3.3450  0.9881
 1285SOL     OW15490   2.173   0.356   6.330 -0.0190  0.5651  0.4386
 1285SOL    HW115491   2.100   0.382   6.386 -1.3673 -0.9805 -0.5994
 1285SOL    HW215492   2.242   0.340   6.395  0.9362  2.3971 -0.1119
 1286SOL     OW15493   0.335   3.015   2.655 -0.0942  0.7741 -0.2381
 1286SOL    HW115494   0.429   3.033   2.651 -0.5820  3.2474 -1.0613
 1286SOL    HW215495   0.297   3.032   2.569  0.3660  1.3796 -0.3233
 1287SOL     OW15496   0.728   0.157   5.156 -0.0175 -1.0144 -0.0637
 1287SOL    HW115497   0.663   0.223   5.180  0.0067 -1.0759  0.1666
 1287SOL    HW215498   0.807   0.210   5.160 -0.3940 -0.5983  1.6386
 1288SOL     OW15499   0.152   3.569  12.864 -0.1822 -0.4933 -0.3790
 1288SOL    HW115500   0.137   3.566  12.958  0.2930 -2.0270 -0.3690
 1288SOL    HW215501   0.074   3.521  12.837 -1.7918  1.3827  0.9140
 1289SOL     OW15502   1.923   4.688  13.650 -0.3583  0.3687 -0.2645
 1289SOL    HW115503   1.989   0.023  13.649  1.2499 -1.1723 -1.2970
 1289SOL    HW215504   1.963   4.627  13.588  0.9418 -1.7556  2.6758
 1290SOL     OW15505   1.765   3.924   4.533 -0.1629  0.0940  0.2640
 1290SOL    HW115506   1.773   3.839   4.575 -1.8048  0.0700  0.5088
 1290SOL    HW215507   1.705   3.964   4.596 -1.9051  0.9992 -1.9758
 1291SOL     OW15508   2.343   1.074   7.298  0.5115 -0.0083 -0.3560
 1291SOL    HW115509   2.277   1.096   7.233  0.5226  0.4996 -0.1984
 1291SOL    HW215510   2.409   1.012   7.268  2.6492  1.5038  1.1286
 1292SOL     OW15511   3.578   3.937   2.457 -0.2780  0.7503 -0.0045
 1292SOL    HW115512   3.596   3.883   2.379 -1.0121  1.4101 -0.6196
 1292SOL    HW215513   3.612   4.024   2.435 -2.4024  1.7788  0.8768
 1293SOL     OW15514   1.763   1.367  11.586  0.2474  0.5582  0.9167
 1293SOL    HW115515   1.806   1.385  11.502  1.1461 -0.9214  1.0651
 1293SOL    HW215516   1.684   1.420  11.570 -0.2481 -0.0118  1.4520
 1294SOL     OW15517   4.477   3.274   4.190  0.5557  0.1187  0.4416
 1294SOL    HW115518   4.391   3.300   4.225 -0.3219 -0.8553 -1.0167
 1294SOL    HW215519   4.541   3.320   4.245 -0.0750 -2.0247  2.9457
 1295SOL     OW15520   1.431   1.012   7.765 -0.2027 -0.1475  0.1360
 1295SOL    HW115521   1.447   1.042   7.855  2.1947 -1.0660  0.0143
 1295SOL    HW215522   1.353   0.964   7.792 -1.1609  0.4015 -1.6935
 1296SOL     OW15523   2.122   1.402   2.085  0.1275 -0.1631 -0.4405
 1296SOL    HW115524   2.080   1.482   2.053 -1.5054 -0.4393  1.0118
 1296SOL    HW215525   2.209   1.409   2.045  1.3034 -2.2564  1.7430
 1297SOL     OW15526   2.726   0.513   1.914 -0.0473 -0.0411 -0.6484
 1297SOL    HW115527   2.641   0.545   1.946  0.0636 -0.2337 -0.1704
 1297SOL    HW215528   2.765   0.590   1.872 -0.6569  0.9446  0.5986
 1298SOL     OW15529   0.340   0.834   6.629  0.2336 -0.7469  0.3920
 1298SOL    HW115530   0.304   0.850   6.542 -0.1435  1.5958  0.9794
 1298SOL    HW215531   0.420   0.789   6.602 -0.1105 -0.1637 -1.5931
 1299SOL     OW15532   1.654   3.528   3.087 -0.4079  0.2899 -0.1317
 1299SOL    HW115533   1.581   3.530   3.149  0.4427  1.9881  0.8013
 1299SOL    HW215534   1.657   3.619   3.057  0.7615 -0.2340 -1.6397
 1300SOL     OW15535   0.555   1.629   5.839  0.0232  0.0851  0.0717
 1300SOL    HW115536   0.575   1.705   5.785  0.3103 -0.1156 -0.1033
 1300SOL    HW215537   0.521   1.560   5.781 -1.5598  0.1230  0.9378
 1301SOL     OW15538   2.539   3.656  13.374  0.0980  0.0830 -0.2001
 1301SOL    HW115539   2.501   3.725  13.319 -1.2821  0.8844  1.7400
 1301SOL    HW215540   2.552   3.701  13.458 -3.8401  0.2847  0.3134
 1302SOL     OW15541   0.814   0.568   5.320 -0.6213  0.1954 -0.4467
 1302SOL    HW115542   0.820   0.661   5.345  0.0189 -0.1390  0.6313
 1302SOL    HW215543   0.803   0.523   5.403  1.1228  0.0676 -0.2937
 1303SOL     OW15544   0.387   4.526   1.404  0.1276  0.0878 -0.0898
 1303SOL    HW115545   0.308   4.484   1.371  1.2162 -1.3373 -0.8918
 1303SOL    HW215546   0.403   4.589   1.334 -1.7659  1.3065  0.5755
 1304SOL     OW15547   3.776   2.928   6.515 -0.0141  0.1429 -0.6273
 1304SOL    HW115548   3.761   2.835   6.532 -1.6697  0.8202  1.7455
 1304SOL    HW215549   3.869   2.931   6.494  0.4716  0.3785  1.4785
 1305SOL     OW15550   1.950   2.284   0.726  0.2390  0.8437  0.1476
 1305SOL    HW115551   1.957   2.214   0.791 -2.3798 -0.0804 -0.5539
 1305SOL    HW215552   2.022   2.335   0.762  1.4591 -1.3494  0.8298
 1306SOL     OW15553   3.616   2.780   2.962 -0.2677  0.0323 -0.6976
 1306SOL    HW115554   3.711   2.787   2.959 -0.1501 -0.5318  1.4125
 1306SOL    HW215555   3.612   2.716   3.033  2.3281  2.5485  1.7441
 1307SOL     OW15556   1.326   2.335   5.714 -0.3304 -0.2630 -0.4772
 1307SOL    HW115557   1.419   2.319   5.703 -0.1091  0.2024  0.6879
 1307SOL    HW215558   1.328   2.397   5.787 -0.0955  0.3274 -0.9859
 1308SOL     OW15559   0.770   3.813   4.031 -0.0477  0.1355  0.4472
 1308SOL    HW115560   0.694   3.812   4.090  0.3910 -0.2971  0.9992
 1308SOL    HW215561   0.732   3.828   3.944 -0.3146 -0.6926  0.4167
 1309SOL     OW15562   2.582   2.369   4.349  0.1143  0.3641 -0.3391
 1309SOL    HW115563   2.546   2.281   4.363 -0.4192  0.7421  0.6718
 1309SOL    HW215564   2.508   2.415   4.310  0.0805 -0.4543 -1.2370
 1310SOL     OW15565   0.483   4.533   7.164 -0.6285  0.3135  0.5530
 1310SOL    HW115566   0.533   4.458   7.132 -0.2525  1.5655 -1.7866
 1310SOL    HW215567   0.559   4.591   7.169 -1.4693  1.5126 -0.5437
 1311SOL     OW15568   4.333   2.995   1.970  0.2836 -0.5884 -0.5638
 1311SOL    HW115569   4.287   2.942   1.906 -0.8182 -0.8044  0.4239
 1311SOL    HW215570   4.282   3.004   2.050  1.0733 -1.7551  0.0753
 1312SOL     OW15571   3.688   4.649   4.581  0.2070 -0.3082 -0.1272
 1312SOL    HW115572   3.612   4.650   4.522 -0.4185 -2.0494  0.6761
 1312SOL    HW215573   3.736   4.727   4.553 -0.4000 -0.9615 -3.0214
 1313SOL     OW15574   0.641   4.250   2.457  0.0909 -0.1563 -0.1808
 1313SOL    HW115575   0.650   4.280   2.548  0.1839  1.1354 -0.6154
 1313SOL    HW215576   0.726   4.206   2.448 -0.6932 -2.0854  2.0890
 1314SOL     OW15577   4.190   4.212   4.317  0.0443  0.3519  0.6038
 1314SOL    HW115578   4.243   4.260   4.254 -0.3213 -2.9593 -2.2078
 1314SOL    HW215579   4.253   4.147   4.348 -0.5034 -0.4005  0.1397
 1315SOL     OW15580   0.881   4.478  15.248  0.2288  0.3171 -0.2963
 1315SOL    HW115581   0.913   4.489  15.338 -0.6054 -0.7818  0.1460
 1315SOL    HW215582   0.922   4.551  15.202  1.1219  1.1018  1.7437
 1316SOL     OW15583   3.724   2.003   5.991  0.0424 -0.0291 -0.4539
 1316SOL    HW115584   3.634   1.981   6.012 -0.8686  1.4885 -2.7991
 1316SOL    HW215585   3.699   2.075   5.934 -1.2165 -0.3130 -0.2498
 1317SOL     OW15586   1.603   1.274   7.443  0.2633  0.0205  0.4967
 1317SOL    HW115587   1.688   1.315   7.460 -0.1648  0.3199  1.9209
 1317SOL    HW215588   1.565   1.333   7.377 -3.0835  0.0774  2.4809
 1318SOL     OW15589   0.053   4.319   5.539 -0.1839 -0.1247  0.0613
 1318SOL    HW115590   0.001   4.342   5.616 -1.7206  0.4646 -1.1545
 1318SOL    HW215591   0.117   4.389   5.550  1.4588 -1.6076 -0.1127
 1319SOL     OW15592   1.788   4.424  15.489 -0.6416 -0.4955 -0.0361
 1319SOL    HW115593   1.793   4.520  15.488  0.2026 -0.5204  0.7896
 1319SOL    HW215594   1.698   4.412  15.518 -0.9983 -1.4165 -1.5561
 1320SOL     OW15595   2.558   0.109  14.694  0.0581 -0.4119 -0.2315
 1320SOL    HW115596   2.525   0.107  14.605  1.7426  1.6943 -0.8949
 1320SOL    HW215597   2.651   0.106  14.672 -0.2412  2.3038 -1.8408
 1321SOL     OW15598   3.683   1.808  17.286  0.2423  0.2458  0.2402
 1321SOL    HW115599   3.621   1.738  17.264 -0.2652  1.7133 -3.0390
 1321SOL    HW215600   3.643   1.847  17.364 -0.0541 -0.0737  0.2488
 1322SOL     OW15601   3.562   4.601   2.674 -0.0571  0.3116  0.5226
 1322SOL    HW115602   3.586   4.652   2.597  1.2896  0.0018  0.7339
 1322SOL    HW215603   3.475   4.564   2.658  0.3124  0.5230 -1.9164
 1323SOL     OW15604   4.317   1.413   6.346  0.1908 -0.2765 -0.6574
 1323SOL    HW115605   4.306   1.502   6.314  2.1915  0.5915  1.1498
 1323SOL    HW215606   4.235   1.375   6.313 -0.3905  0.0447  0.4063
 1324SOL     OW15607   3.627   1.350  11.274 -0.1684 -0.8844 -0.3956
 1324SOL    HW115608   3.586   1.334  11.359  0.3660 -1.8464 -0.3184
 1324SOL    HW215609   3.560   1.352  11.206  0.0681 -1.1107 -0.6345
 1325SOL     OW15610   4.339   0.961   3.058 -0.0296  0.2983  0.2300
 1325SOL    HW115611   4.376   0.968   2.970 -1.1676 -3.3902 -0.5473
 1325SOL    HW215612   4.353   0.866   3.067 -1.2426 -0.0012 -1.0817
 1326SOL     OW15613   0.113   1.437   6.197 -0.7955 -0.3173  0.4849
 1326SOL    HW115614   0.132   1.481   6.280 -0.7996  1.0914 -0.2613
 1326SOL    HW215615   0.190   1.465   6.148 -1.4819  0.6229 -0.0533
 1327SOL     OW15616   0.365   2.770   6.166  0.0634  0.0135 -0.0720
 1327SOL    HW115617   0.411   2.690   6.192  1.5418  0.4046 -1.5339
 1327SOL    HW215618   0.398   2.834   6.230 -1.1840  1.6733 -1.1030
 1328SOL     OW15619   0.464   2.857  17.147  0.1163  0.7642  0.2585
 1328SOL    HW115620   0.381   2.863  17.100  1.6295 -1.4977 -2.6735
 1328SOL    HW215621   0.467   2.949  17.172  2.9409  0.7839 -0.1908
 1329SOL     OW15622   0.366   4.365  12.095 -0.1883 -0.6971  0.3234
 1329SOL    HW115623   0.288   4.361  12.151 -1.5009  0.6013 -1.4476
 1329SOL    HW215624   0.376   4.277  12.058  1.2724  0.4999 -2.1252
 1330SOL     OW15625   1.582   3.766   8.905  0.3452 -0.0071 -0.3742
 1330SOL    HW115626   1.541   3.723   8.980  0.7335  0.2027 -0.0383
 1330SOL    HW215627   1.605   3.698   8.842  1.6646  1.1870 -1.1856
 1331SOL     OW15628   3.032   4.689   7.255 -0.3475 -0.0383 -0.5931
 1331SOL    HW115629   2.978   0.033   7.255 -0.3969 -0.0779 -1.6850
 1331SOL    HW215630   3.077   4.683   7.339 -3.1939  1.3764  1.0438
 1332SOL     OW15631   1.763   3.691   1.508  0.1008 -0.7921 -0.3784
 1332SOL    HW115632   1.806   3.620   1.554 -0.5334 -0.1335  1.2245
 1332SOL    HW215633   1.801   3.673   1.422 -1.2833  0.2033 -1.2075
 1333SOL     OW15634   2.843   3.907   7.161 -0.0850 -0.0811  0.0504
 1333SOL    HW115635   2.840   3.840   7.229  0.4353 -0.8262 -0.6700
 1333SOL    HW215636   2.751   3.927   7.175 -0.1144  0.3208 -0.7156
 1334SOL     OW15637   4.167   4.008  11.061  0.2529  0.5397 -0.2279
 1334SOL    HW115638   4.254   3.973  11.083 -0.3175 -1.9980 -2.0842
 1334SOL    HW215639   4.124   3.924  11.075  0.9248  0.4203  1.0799
 1335SOL     OW15640   3.861   1.660  12.833  0.4682  0.2778  0.2814
 1335SOL    HW115641   3.835   1.582  12.883 -1.9152  0.7619 -0.1993
 1335SOL    HW215642   3.847   1.620  12.747  1.3476  1.6844 -0.5023
 1336SOL     OW15643   4.310   2.736  15.936 -0.3843  1.0743  0.0831
 1336SOL    HW115644   4.262   2.755  15.856 -0.5107 -0.2482 -0.1463
 1336SOL    HW215645   4.273   2.653  15.966  1.5160  0.1710 -0.1425
 1337SOL     OW15646   3.891   0.776   0.630  0.5537  0.5265 -0.6170
 1337SOL    HW115647   3.907   0.864   0.665  1.4221 -1.0202  2.8563
 1337SOL    HW215648   3.970   0.739   0.669  0.1562  0.3122 -0.0177
 1338SOL     OW15649   1.452   1.727   8.441 -0.4025 -0.5485 -0.1458
 1338SOL    HW115650   1.402   1.660   8.396 -0.8530 -0.5477  0.3538
 1338SOL    HW215651   1.512   1.747   8.369  3.3005 -2.0213  2.5645
 1339SOL     OW15652   1.008   4.010   4.015  0.4208 -0.2260 -0.3075
 1339SOL    HW115653   0.934   3.950   4.026 -0.2195  0.6826  0.3067
 1339SOL    HW215654   1.077   3.952   3.982 -0.5246 -0.3545 -2.0710
 1340SOL     OW15655   1.663   3.525   6.754 -0.3398  0.6519  0.7722
 1340SOL    HW115656   1.695   3.487   6.835  2.2848 -1.4314 -1.2852
 1340SOL    HW215657   1.581   3.554   6.795 -0.3695 -0.5863  1.5552
 1341SOL     OW15658   2.250   3.183  12.813 -0.1825  0.0570  0.2469
 1341SOL    HW115659   2.240   3.098  12.771  2.6174  1.0338 -2.4255
 1341SOL    HW215660   2.157   3.207  12.809 -0.2632  0.1078  2.7132
 1342SOL     OW15661   2.787   0.098   7.077  0.2868 -0.3084 -0.1884
 1342SOL    HW115662   2.729   0.024   7.094 -1.8739  1.7241  1.2817
 1342SOL    HW215663   2.805   0.081   6.984  0.7314  1.4122 -0.4210
 1343SOL     OW15664   0.292   4.338   2.772  0.3475  0.2896 -0.1713
 1343SOL    HW115665   0.327   4.423   2.800  0.5268  0.1992 -0.1194
 1343SOL    HW215666   0.236   4.324   2.848 -1.6514  2.7364 -1.2029
 1344SOL     OW15667   0.376   1.492  10.464  0.0464 -0.5088  0.5214
 1344SOL    HW115668   0.297   1.541  10.486 -0.7982 -1.9092  0.6303
 1344SOL    HW215669   0.439   1.516  10.532 -2.0236 -0.1329  2.3388
 1345SOL     OW15670   3.374   0.205   1.286  0.7019 -0.0979 -0.4537
 1345SOL    HW115671   3.285   0.192   1.254  0.0535  0.5919  1.0472
 1345SOL    HW215672   3.411   0.255   1.214 -0.3783  2.3656  0.6965
 1346SOL     OW15673   0.516   3.394   7.218 -0.2520  0.1923 -0.0734
 1346SOL    HW115674   0.564   3.447   7.154 -2.5778  0.1534 -1.8657
 1346SOL    HW215675   0.437   3.445   7.235 -0.7035 -1.2547  2.1485
 1347SOL     OW15676   3.667   1.566  12.613 -0.0125 -0.8208 -0.0191
 1347SOL    HW115677   3.604   1.635  12.630 -0.5656 -1.3970  0.2671
 1347SOL    HW215678   3.614   1.486  12.619  2.1661 -2.2467  0.1319
 1348SOL     OW15679   2.946   0.976  15.861  0.3331  0.1871  0.1241
 1348SOL    HW115680   3.028   0.929  15.850  1.2304  1.6448  0.6277
 1348SOL    HW215681   2.902   0.931  15.932 -0.6283  1.0493  0.0713
 1349SOL     OW15682   0.225   2.548   3.322  0.0889  0.0991  0.1119
 1349SOL    HW115683   0.206   2.458   3.295 -1.2334  0.9202 -1.6735
 1349SOL    HW215684   0.321   2.554   3.327 -0.0154  1.0244  0.9350
 1350SOL     OW15685   4.721   2.741   0.127  0.4026 -0.4492 -0.0967
 1350SOL    HW115686   0.074   2.709   0.109  0.2401 -1.4304  0.8584
 1350SOL    HW215687   4.712   2.822   0.077  0.5672 -1.0519 -1.1024
 1351SOL     OW15688   4.263   1.446   8.414  0.3018  0.2914  0.7449
 1351SOL    HW115689   4.204   1.406   8.477  2.5111  0.1398  2.6970
 1351SOL    HW215690   4.199   1.507   8.377 -1.7661 -0.4661  3.0781
 1352SOL     OW15691   0.759   4.018   8.162 -0.2192  0.1443 -0.0536
 1352SOL    HW115692   0.665   4.034   8.154 -0.6082 -1.8861  0.3436
 1352SOL    HW215693   0.781   4.088   8.223  0.6528  0.5384 -0.8223
 1353SOL     OW15694   4.006   0.691   8.560  0.4864 -0.3746 -0.5786
 1353SOL    HW115695   3.913   0.695   8.537  0.5487  0.6294 -0.6604
 1353SOL    HW215696   4.011   0.729   8.648 -1.0368 -4.8192  1.4516
 1354SOL     OW15697   3.777   2.184   2.437  0.1328 -0.2420  0.6095
 1354SOL    HW115698   3.761   2.254   2.500 -2.2692 -0.6418  0.4446
 1354SOL    HW215699   3.840   2.131   2.486  0.3158 -1.0859 -0.5287
 1355SOL     OW15700   3.403   0.243   4.295 -0.1091  0.5194 -0.0903
 1355SOL    HW115701   3.439   0.227   4.207 -1.7155 -1.3370 -0.3979
 1355SOL    HW215702   3.312   0.258   4.270  0.0725  0.6788 -0.6655
 1356SOL     OW15703   0.830   3.810  10.021  0.3839 -0.1490 -0.4316
 1356SOL    HW115704   0.745   3.788   9.984  0.9645 -0.8803 -1.3143
 1356SOL    HW215705   0.806   3.833  10.111  1.4835 -2.1696  0.3810
 1357SOL     OW15706   2.513   3.043   6.268 -0.3917 -0.1162  0.0493
 1357SOL    HW115707   2.526   2.994   6.349 -1.6334 -0.0374  0.2990
 1357SOL    HW215708   2.442   3.100   6.296 -0.6684 -0.7876  0.7112
 1358SOL     OW15709   1.153   2.523   5.634  0.3191 -0.4018 -0.2841
 1358SOL    HW115710   1.182   2.607   5.668 -0.6072 -0.7644  1.4022
 1358SOL    HW215711   1.215   2.458   5.667 -0.5497 -1.5068 -0.8176
 1359SOL     OW15712   3.559   1.527   7.036  0.0015  0.3267  0.2636
 1359SOL    HW115713   3.562   1.559   7.126  0.5119  0.0456  0.3448
 1359SOL    HW215714   3.608   1.447   7.055 -0.3970 -0.4957 -2.1223
 1360SOL     OW15715   2.745   1.897  17.490  0.3471  0.4865  0.0697
 1360SOL    HW115716   2.717   1.925  17.578  1.7910  2.2334 -0.0251
 1360SOL    HW215717   2.796   1.969  17.455 -0.9090  0.7652 -1.2135
 1361SOL     OW15718   2.820   1.030   4.068 -0.4793  0.5395 -0.3986
 1361SOL    HW115719   2.850   0.981   3.991 -0.1557  2.0760 -1.2518
 1361SOL    HW215720   2.727   1.007   4.064 -0.7876  1.6506  0.5814
 1362SOL     OW15721   3.755   3.731   5.393  0.6105  0.3981  0.0514
 1362SOL    HW115722   3.749   3.693   5.480  0.0572  1.8766  0.6595
 1362SOL    HW215723   3.801   3.811   5.418  0.9866 -0.3466  1.7245
 1363SOL     OW15724   3.718   2.354  15.581 -0.5264 -0.3670 -0.0849
 1363SOL    HW115725   3.723   2.278  15.523  1.4363  1.0632 -1.7765
 1363SOL    HW215726   3.783   2.414  15.544 -1.4224  0.0344 -0.9961
 1364SOL     OW15727   2.238   2.298   4.672  0.2067  0.5250  0.5196
 1364SOL    HW115728   2.219   2.384   4.709 -0.8569  1.7695 -2.9139
 1364SOL    HW215729   2.169   2.244   4.711  0.0805  0.7207  0.5703
 1365SOL     OW15730   2.084   4.325   5.625  0.0748 -0.2793 -0.3271
 1365SOL    HW115731   2.078   4.245   5.677 -1.1965  1.1474  1.7001
 1365SOL    HW215732   2.084   4.388   5.697  0.4967 -2.8855  1.9888
 1366SOL     OW15733   2.797   3.741  14.211 -0.8528  0.6086 -0.0642
 1366SOL    HW115734   2.852   3.762  14.287 -1.5915  1.3229  0.2768
 1366SOL    HW215735   2.715   3.706  14.248 -0.3223  0.1350  0.6624
 1367SOL     OW15736   3.165   0.865   3.025 -0.2577  0.4699  0.1556
 1367SOL    HW115737   3.095   0.848   3.088 -0.2674 -1.3713 -0.3443
 1367SOL    HW215738   3.178   0.959   3.022 -1.4420  0.6230  0.0608
 1368SOL     OW15739   3.540   3.950   1.266  0.0732  0.5088  0.3470
 1368SOL    HW115740   3.597   3.949   1.343  0.0197  1.7254  0.3997
 1368SOL    HW215741   3.505   3.861   1.270  0.0544  0.3853 -2.2890
 1369SOL     OW15742   1.578   1.322   3.535  0.4592  0.0814  0.2845
 1369SOL    HW115743   1.483   1.330   3.524  0.5823  0.6907 -0.2938
 1369SOL    HW215744   1.591   1.279   3.450 -0.5539  1.0160 -0.3480
 1370SOL     OW15745   1.257   3.949   7.688 -0.3326  0.7513  0.0935
 1370SOL    HW115746   1.309   3.869   7.678 -0.1349  1.0336 -1.1323
 1370SOL    HW215747   1.297   4.003   7.757  0.6091 -0.4550  0.4846
 1371SOL     OW15748   0.572   3.641   5.391 -0.4122 -0.0918  0.3616
 1371SOL    HW115749   0.532   3.555   5.378 -1.3161  0.5514 -1.0817
 1371SOL    HW215750   0.531   3.688   5.319 -0.2347  0.4112  0.5860
 1372SOL     OW15751   1.037   3.406   5.086 -0.3272  0.0711  0.4433
 1372SOL    HW115752   1.074   3.334   5.137  0.4404  0.1275 -0.0474
 1372SOL    HW215753   1.026   3.364   5.001  1.0869  0.7377 -0.0628
 1373SOL     OW15754   0.451   2.610   8.956  0.3135 -0.2254  0.5471
 1373SOL    HW115755   0.541   2.592   8.930 -0.0809 -1.6677  0.1572
 1373SOL    HW215756   0.453   2.705   8.965  1.5409 -0.2308  0.2469
 1374SOL     OW15757   2.328   2.976   8.042 -1.4006  0.2502 -0.2867
 1374SOL    HW115758   2.297   3.043   7.982 -0.8668 -1.9823 -3.0611
 1374SOL    HW215759   2.264   2.997   8.111  0.6903  1.9105  1.1450
 1375SOL     OW15760   0.405   2.842  16.276 -0.0805 -0.1624 -0.3035
 1375SOL    HW115761   0.475   2.901  16.302  0.3154 -0.4541 -0.6871
 1375SOL    HW215762   0.333   2.895  16.309 -0.9709 -1.0696 -0.7918
 1376SOL     OW15763   4.160   0.561   4.308 -0.6472 -0.5879 -0.0960
 1376SOL    HW115764   4.066   0.576   4.317 -0.2263  1.1173  1.5677
 1376SOL    HW215765   4.194   0.616   4.379  0.7269  2.5851 -3.2148
 1377SOL     OW15766   0.307   4.656   2.871  0.5193  0.1416 -0.5312
 1377SOL    HW115767   0.346   4.678   2.956  2.8488 -1.2252 -1.2704
 1377SOL    HW215768   0.216   4.684   2.880  0.7872  0.3241  1.7449
 1378SOL     OW15769   3.802   1.551   8.531 -0.3775 -0.6551  0.4072
 1378SOL    HW115770   3.750   1.498   8.471  1.2879  0.4331 -2.0146
 1378SOL    HW215771   3.740   1.597   8.587 -0.2835 -0.4024  0.3070
 1379SOL     OW15772   2.493   2.062  12.402  0.3790  0.3296  0.7367
 1379SOL    HW115773   2.514   1.982  12.355 -0.2260  0.5851  0.0192
 1379SOL    HW215774   2.496   2.118  12.324  1.1622 -2.1816 -1.0185
 1380SOL     OW15775   2.886   2.096   0.133  0.5622 -0.1558 -0.4456
 1380SOL    HW115776   2.790   2.094   0.127  0.4788 -1.6088  1.5308
 1380SOL    HW215777   2.916   2.006   0.142 -0.6680 -0.6848 -1.6855
 1381SOL     OW15778   1.950   2.346   8.103 -0.1270  0.3399  0.4149
 1381SOL    HW115779   1.942   2.392   8.186 -2.2087 -0.9847  0.9699
 1381SOL    HW215780   2.001   2.414   8.060  0.8009  0.0879  1.1039
 1382SOL     OW15781   0.314   0.915   7.636  0.4343 -0.0387 -0.3090
 1382SOL    HW115782   0.254   0.988   7.620 -0.8528 -0.4426  2.6558
 1382SOL    HW215783   0.256   0.849   7.674 -0.6297 -0.0591 -1.9300
 1383SOL     OW15784   2.797   1.225   5.545 -0.1349 -0.1365  0.3800
 1383SOL    HW115785   2.838   1.140   5.563 -0.2858 -0.7381 -2.2189
 1383SOL    HW215786   2.726   1.230   5.610  0.2129  1.7695  0.6200
 1384SOL     OW15787   0.787   4.144   0.782 -0.1390  0.0892 -0.1508
 1384SOL    HW115788   0.789   4.080   0.711  2.9093 -0.1806  0.1907
 1384SOL    HW215789   0.877   4.150   0.815 -1.0751  1.7122  2.1208
 1385SOL     OW15790   2.622   1.145   6.626 -0.2061 -0.1309  0.5098
 1385SOL    HW115791   2.576   1.164   6.708  0.4493  0.6205  0.7075
 1385SOL    HW215792   2.555   1.086   6.592  0.4370 -0.2904 -0.4586
 1386SOL     OW15793   0.601   2.036   0.905 -0.0597 -0.0579  0.1574
 1386SOL    HW115794   0.597   1.969   0.973 -0.0557  0.7539  0.9586
 1386SOL    HW215795   0.555   2.113   0.938  0.5034 -0.6164  2.2396
 1387SOL     OW15796   3.719   0.560  15.991 -0.2641  0.2979  0.2857
 1387SOL    HW115797   3.809   0.546  16.022 -0.4454 -2.0789 -0.2954
 1387SOL    HW215798   3.736   0.603  15.907 -1.0902  0.1120  0.0298
 1388SOL     OW15799   3.271   0.421   6.021  0.2382  0.8049  0.2589
 1388SOL    HW115800   3.274   0.437   6.115  1.6125 -0.0829  0.3633
 1388SOL    HW215801   3.184   0.461   6.017 -0.8889 -1.6401  0.3707
 1389SOL     OW15802   3.545   3.851   6.593 -0.0731 -0.3352 -0.1214
 1389SOL    HW115803   3.526   3.844   6.687  0.2924  1.2020  0.0682
 1389SOL    HW215804   3.458   3.866   6.555 -0.9281 -1.5659  1.3226
 1390SOL     OW15805   3.366   4.627  15.502  0.0518 -0.0211 -0.0409
 1390SOL    HW115806   3.299   4.588  15.446  0.7489 -0.1654 -0.7814
 1390SOL    HW215807   3.438   4.570  15.475 -0.3172 -0.0653 -0.9324
 1391SOL     OW15808   1.998   1.064   2.021 -0.3267 -0.0342 -0.4013
 1391SOL    HW115809   1.907   1.065   1.993  0.6416  0.3610 -3.5386
 1391SOL    HW215810   2.001   1.115   2.102  0.9217  1.8122 -1.6063
 1392SOL     OW15811   2.607   0.510   5.553 -0.7880  0.0280 -0.2777
 1392SOL    HW115812   2.622   0.601   5.579  0.8165 -0.2151 -0.3329
 1392SOL    HW215813   2.697   0.480   5.538 -0.6880 -0.5902  1.4984
 1393SOL     OW15814   3.523   0.025   2.419  0.5402  0.4796  0.4537
 1393SOL    HW115815   3.446   0.053   2.371  0.2664 -1.0773 -0.0212
 1393SOL    HW215816   3.544   4.678   2.373  0.6154  0.9662 -0.3772
 1394SOL     OW15817   2.336   0.190   6.905 -0.0465 -0.1718 -0.1441
 1394SOL    HW115818   2.286   0.122   6.861  2.3235 -1.6047 -0.6237
 1394SOL    HW215819   2.349   0.153   6.993  0.4007  0.8691  0.2273
 1395SOL     OW15820   4.391   0.828   3.646 -0.0740  0.2092 -0.1497
 1395SOL    HW115821   4.334   0.751   3.645 -0.9970  0.8805  1.8427
 1395SOL    HW215822   4.337   0.902   3.617 -0.5516  0.4662  1.4341
 1396SOL     OW15823   3.367   4.349   4.558  0.3670  0.4117 -0.2202
 1396SOL    HW115824   3.326   4.435   4.559 -0.7461 -0.0696 -2.8681
 1396SOL    HW215825   3.357   4.319   4.467 -1.1647 -0.1075  0.1223
 1397SOL     OW15826   2.778   4.111   4.608 -0.4614 -0.7610 -0.4148
 1397SOL    HW115827   2.727   4.192   4.613 -0.9227 -0.9856 -1.2985
 1397SOL    HW215828   2.828   4.129   4.528  0.2486 -1.1915 -0.0634
 1398SOL     OW15829   3.251   0.920   9.781  0.6793 -0.0033 -0.3918
 1398SOL    HW115830   3.246   0.843   9.724 -3.4383 -0.4744  0.5910
 1398SOL    HW215831   3.294   0.974   9.716 -1.2408  1.0935 -0.7586
 1399SOL     OW15832   1.389   2.471  14.562 -0.1476  0.4173 -0.1674
 1399SOL    HW115833   1.450   2.399  14.545 -2.5381 -0.9736 -2.9891
 1399SOL    HW215834   1.382   2.492  14.468 -3.1015 -0.7034 -0.2087
 1400SOL     OW15835   3.699   1.316   5.565 -0.0685  0.3767  0.2908
 1400SOL    HW115836   3.749   1.375   5.508  0.7096 -0.5555 -0.0044
 1400SOL    HW215837   3.634   1.372   5.606 -0.7959 -1.4640  1.6457
 1401SOL     OW15838   3.232   4.716   2.815  0.0754 -0.1259  0.3656
 1401SOL    HW115839   3.161   0.030   2.858  0.6312  1.9531 -1.1051
 1401SOL    HW215840   3.308   0.028   2.849 -0.6509  1.1435  0.2508
 1402SOL     OW15841   3.533   2.989   7.448  0.2995  0.4153  0.2083
 1402SOL    HW115842   3.614   2.938   7.455  0.0150 -0.1380 -0.5200
 1402SOL    HW215843   3.526   3.020   7.538  1.7157 -1.1687  0.8636
 1403SOL     OW15844   2.569   0.667   7.711 -0.1121  0.0441  0.7070
 1403SOL    HW115845   2.655   0.705   7.731  0.8015 -0.7569 -1.7685
 1403SOL    HW215846   2.549   0.724   7.637 -0.2030  0.5772  1.1351
 1404SOL     OW15847   2.205   1.016   7.055 -0.2925 -0.2671 -0.1479
 1404SOL    HW115848   2.111   1.012   7.039 -0.8132  0.4372  2.6728
 1404SOL    HW215849   2.226   0.926   7.030  0.4662 -0.1385  0.0037
 1405SOL     OW15850   4.550   2.188   2.046  0.2369 -0.1135 -0.2845
 1405SOL    HW115851   4.582   2.212   1.959  0.7482 -2.4363 -0.7197
 1405SOL    HW215852   4.628   2.210   2.096 -0.3921  0.9012  0.2720
 1406SOL     OW15853   1.598   1.369   1.087 -0.3783 -0.6442  0.0762
 1406SOL    HW115854   1.626   1.418   1.010  1.3160  0.1365  1.1894
 1406SOL    HW215855   1.519   1.330   1.049  0.1364 -2.4165  0.8527
 1407SOL     OW15856   3.702   0.512   9.289  0.0942 -0.4234 -0.1022
 1407SOL    HW115857   3.729   0.572   9.358 -0.4995 -0.2943  0.0123
 1407SOL    HW215858   3.607   0.512   9.302  0.1670 -0.4642  0.4358
 1408SOL     OW15859   2.326   3.375   4.448  0.6829  0.5125 -0.1973
 1408SOL    HW115860   2.411   3.342   4.474  1.2955  0.7654 -1.8664
 1408SOL    HW215861   2.337   3.466   4.478  0.0068  0.5176  0.0397
 1409SOL     OW15862   2.965   3.753   1.677 -0.6144  0.0401  0.7759
 1409SOL    HW115863   2.873   3.766   1.699 -1.0090  3.8826 -3.0336
 1409SOL    HW215864   2.981   3.832   1.625  1.8855 -1.6776 -1.0242
 1410SOL     OW15865   3.781   0.369   9.582  0.3890 -0.0400  0.2700
 1410SOL    HW115866   3.798   0.456   9.545 -0.7385  1.0102  2.1734
 1410SOL    HW215867   3.788   0.388   9.676  0.8405 -0.2118  0.2705
 1411SOL     OW15868   1.544   2.047  16.960  0.2032  0.3900  0.0416
 1411SOL    HW115869   1.519   2.049  16.868 -1.1114  2.5041  0.4571
 1411SOL    HW215870   1.468   2.087  17.003 -1.0804 -1.5332 -0.4247
 1412SOL     OW15871   1.014   1.471  13.263 -0.1303 -0.3949 -0.6893
 1412SOL    HW115872   0.986   1.442  13.176  0.8582 -1.7388 -0.5577
 1412SOL    HW215873   0.940   1.442  13.315 -0.2735 -0.8495 -1.1499
 1413SOL     OW15874   4.589   1.874   3.900 -0.2527 -0.0215  0.2317
 1413SOL    HW115875   4.511   1.841   3.943 -0.9351 -0.9017 -1.7035
 1413SOL    HW215876   4.655   1.863   3.968  0.2196  0.7151 -0.1074
 1414SOL     OW15877   0.443   0.330   9.757  0.1652 -0.1146 -0.4050
 1414SOL    HW115878   0.528   0.324   9.713  0.6689  1.8539  0.3277
 1414SOL    HW215879   0.469   0.379   9.835  1.1601 -2.5397  0.8006
 1415SOL     OW15880   4.051   1.894   5.677  0.1108 -0.6967 -0.0577
 1415SOL    HW115881   3.957   1.874   5.676 -0.2066  0.8157 -0.5252
 1415SOL    HW215882   4.074   1.867   5.765 -1.3385  0.0486  0.5472
 1416SOL     OW15883   0.157   4.184   8.849  0.1490  0.0092 -0.2868
 1416SOL    HW115884   0.131   4.271   8.878  0.2589 -0.0562  0.0129
 1416SOL    HW215885   0.209   4.147   8.921 -0.4828  2.7265  1.5742
 1417SOL     OW15886   1.966   2.047   9.869 -0.1056  0.4640  0.6088
 1417SOL    HW115887   2.031   2.069   9.936 -2.5982 -0.2638  3.2555
 1417SOL    HW215888   2.012   1.971   9.834  0.8899  0.9158  0.9130
 1418SOL     OW15889   0.901   2.545  11.253 -0.3880 -0.1704  0.3790
 1418SOL    HW115890   0.979   2.503  11.289  1.7590  2.9148 -0.6306
 1418SOL    HW215891   0.866   2.484  11.188 -2.2207 -0.3365  1.5480
 1419SOL     OW15892   4.425   4.095   6.124  0.5420 -0.2861  0.1273
 1419SOL    HW115893   4.357   4.144   6.078 -1.0975 -4.1275 -1.5995
 1419SOL    HW215894   4.436   4.030   6.054 -2.2757 -0.5178 -0.1103
 1420SOL     OW15895   3.010   3.160   1.427 -0.3004  0.3358 -0.9821
 1420SOL    HW115896   3.059   3.198   1.354  2.8756 -0.2862  0.7973
 1420SOL    HW215897   3.018   3.068   1.401 -1.7061 -0.7082  2.2736
 1421SOL     OW15898   2.703   2.603   4.346 -0.1949 -0.5192  0.7495
 1421SOL    HW115899   2.660   2.518   4.335 -1.2045 -0.0834  1.3572
 1421SOL    HW215900   2.653   2.622   4.426  1.0634  0.3060  1.3332
 1422SOL     OW15901   0.901   2.592   4.921  0.3317  0.2473 -0.1624
 1422SOL    HW115902   0.821   2.629   4.961  0.0016 -1.7112  0.9539
 1422SOL    HW215903   0.865   2.504   4.910 -0.2129  0.5255 -0.6362
 1423SOL     OW15904   0.073   3.199   1.023 -0.1872  0.0303 -0.0364
 1423SOL    HW115905   0.007   3.265   1.006  0.1767  0.8933  1.9281
 1423SOL    HW215906   0.079   3.156   0.938 -0.8234  1.6633 -0.9101
 1424SOL     OW15907   3.501   3.832   5.750 -0.4838 -0.3411  0.4012
 1424SOL    HW115908   3.443   3.773   5.703  1.2568  0.6060 -2.9794
 1424SOL    HW215909   3.499   3.786   5.834  1.9244 -1.9073 -0.3968
 1425SOL     OW15910   4.521   0.770   5.983  0.3943 -0.2933  0.8806
 1425SOL    HW115911   4.607   0.736   5.956 -0.7859 -0.5147 -2.5976
 1425SOL    HW215912   4.509   0.826   5.906  0.2612 -1.4400  0.0674
 1426SOL     OW15913   1.451   2.914   9.057  0.0623 -0.2490 -0.0085
 1426SOL    HW115914   1.506   2.968   9.000  0.5388 -1.1041 -0.3575
 1426SOL    HW215915   1.480   2.828   9.027 -1.2018 -0.9767  0.8538
 1427SOL     OW15916   2.986   0.465  15.451 -0.0807  0.1474  0.0177
 1427SOL    HW115917   3.037   0.545  15.433 -0.6478  0.0946 -1.7788
 1427SOL    HW215918   2.947   0.485  15.536  0.6705  0.6693  0.2520
 1428SOL     OW15919   0.237   2.927  15.413  0.1347 -0.0059 -0.2240
 1428SOL    HW115920   0.204   2.839  15.397  0.3232 -0.2676  0.8843
 1428SOL    HW215921   0.324   2.911  15.376 -0.6867  0.0714 -2.2020
 1429SOL     OW15922   4.486   1.923   2.098  0.8145 -0.6332  0.2779
 1429SOL    HW115923   4.493   1.941   2.192  2.0361 -1.3292  0.3127
 1429SOL    HW215924   4.508   2.008   2.061 -1.6919 -0.9018 -1.8407
 1430SOL     OW15925   1.305   0.869   2.780  0.3070  0.4289 -0.5559
 1430SOL    HW115926   1.246   0.822   2.839  0.0298 -1.3342 -2.2109
 1430SOL    HW215927   1.302   0.958   2.815 -2.9346 -0.5199  1.6311
 1431SOL     OW15928   4.723   0.581   7.102  0.1165 -0.1125  0.5712
 1431SOL    HW115929   4.671   0.646   7.148 -1.1459 -1.6657  1.3608
 1431SOL    HW215930   4.657   0.513   7.084  0.4759 -0.7806  1.7626
 1432SOL     OW15931   0.222   3.076   6.869  0.3401  0.5454 -0.7077
 1432SOL    HW115932   0.296   3.135   6.855  0.7456  0.4821  1.2548
 1432SOL    HW215933   0.243   3.037   6.954  1.3411  0.2349 -1.0880
 1433SOL     OW15934   2.202   0.536   4.441  0.2509  0.1284 -0.4140
 1433SOL    HW115935   2.226   0.627   4.424 -0.6692  0.3496 -0.5433
 1433SOL    HW215936   2.110   0.538   4.414 -0.2353  1.7216  1.3534
 1434SOL     OW15937   1.002   2.962   5.417  0.5413  0.2756  0.1549
 1434SOL    HW115938   0.924   2.948   5.363  0.1394  1.1807  0.4848
 1434SOL    HW215939   1.062   3.012   5.360 -0.1459  0.3142 -0.5350
 1435SOL     OW15940   2.400   1.624   8.555 -0.1886  0.4282 -0.1196
 1435SOL    HW115941   2.436   1.536   8.563 -1.7000 -0.0022  2.1172
 1435SOL    HW215942   2.312   1.605   8.521 -0.2911 -0.2891  0.5536
 1436SOL     OW15943   0.325   1.011   1.802 -0.0417  0.1869  0.3581
 1436SOL    HW115944   0.294   0.976   1.886 -1.2494  2.1610  0.7163
 1436SOL    HW215945   0.241   1.024   1.759 -0.0941 -0.1041  0.3704
 1437SOL     OW15946   1.955   2.572   3.693  0.3577  0.2821  0.2280
 1437SOL    HW115947   1.957   2.480   3.666 -0.0956  0.1494  0.6718
 1437SOL    HW215948   1.911   2.600   3.612 -2.3106 -0.6924  1.3614
 1438SOL     OW15949   1.812   1.530   4.636  0.0145 -0.2104  0.2637
 1438SOL    HW115950   1.753   1.457   4.618  0.5979 -0.4822 -0.5406
 1438SOL    HW215951   1.746   1.599   4.632  0.6782  0.3464 -1.3655
 1439SOL     OW15952   0.823   4.592   1.286 -0.2770  0.0150 -0.0877
 1439SOL    HW115953   0.852   4.598   1.377  4.4736  0.5426 -1.6431
 1439SOL    HW215954   0.879   4.654   1.238  0.8860 -0.3492  0.8119
 1440SOL     OW15955   3.309   0.699  12.918 -0.5767 -0.1692  0.8217
 1440SOL    HW115956   3.226   0.660  12.888  1.3313 -1.9035 -2.1976
 1440SOL    HW215957   3.367   0.653  12.858  1.1338 -0.5258  2.7527
 1441SOL     OW15958   1.928   2.672   3.182  0.3971  0.0580 -0.2496
 1441SOL    HW115959   2.017   2.636   3.176  0.9717  1.4576 -0.0990
 1441SOL    HW215960   1.893   2.650   3.095  0.6082  0.5867 -0.4707
 1442SOL     OW15961   0.574   2.917   6.312  0.4202  0.0142  0.1867
 1442SOL    HW115962   0.641   2.964   6.363 -0.7304  0.8454  0.9343
 1442SOL    HW215963   0.618   2.832   6.311  1.0205  0.3222  0.5948
 1443SOL     OW15964   4.525   1.167  16.744  0.1608 -0.3936 -0.5401
 1443SOL    HW115965   4.437   1.204  16.747  0.1847 -0.3653 -0.1283
 1443SOL    HW215966   4.506   1.073  16.742 -2.8130  0.1649  0.9635
 1444SOL     OW15967   1.674   2.062   2.324  0.4726  0.3274  0.0055
 1444SOL    HW115968   1.614   2.093   2.257 -0.8694 -2.5921 -0.1581
 1444SOL    HW215969   1.614   2.027   2.390 -0.9576  1.7169 -0.5595
 1445SOL     OW15970   4.405   1.502  12.257 -0.0437  0.4119 -0.6758
 1445SOL    HW115971   4.446   1.454  12.330  3.6490  1.2392 -2.2133
 1445SOL    HW215972   4.315   1.502  12.290 -0.3767 -1.3728 -1.5651
 1446SOL     OW15973   3.560   2.585  15.309 -0.0216 -0.0550  0.2090
 1446SOL    HW115974   3.515   2.670  15.317  1.7820  0.9832 -0.6671
 1446SOL    HW215975   3.609   2.603  15.228 -2.7431  2.2137 -0.9388
 1447SOL     OW15976   4.730   3.368   4.294 -0.3770 -0.4903 -0.8531
 1447SOL    HW115977   0.051   3.398   4.364  0.4021  0.0847 -1.7235
 1447SOL    HW215978   0.019   3.277   4.272  0.0125 -0.6203  0.1341
 1448SOL     OW15979   4.353   0.089   9.435 -0.7429 -0.3882 -0.1199
 1448SOL    HW115980   4.358   0.052   9.523  2.8087 -0.0154 -0.1447
 1448SOL    HW215981   4.333   0.178   9.464 -0.6738 -0.0056 -1.2308
 1449SOL     OW15982   3.409   4.084   8.791  0.0381 -0.1202  0.2437
 1449SOL    HW115983   3.486   4.142   8.790  0.6635 -0.9502  0.3549
 1449SOL    HW215984   3.347   4.157   8.799 -0.2660 -0.3221 -0.3176
 1450SOL     OW15985   4.263   2.387   3.892 -0.0761 -0.1987  0.2459
 1450SOL    HW115986   4.275   2.380   3.797  0.7919  0.2497  0.3240
 1450SOL    HW215987   4.352   2.374   3.924  0.3067  0.2239 -0.6283
 1451SOL     OW15988   1.475   1.510   0.643  0.2929  0.1970  0.2489
 1451SOL    HW115989   1.469   1.431   0.588 -1.0225 -0.8215  1.8499
 1451SOL    HW215990   1.539   1.479   0.707  0.2339 -0.5184 -0.0367
 1452SOL     OW15991   1.340   0.122   1.435 -0.8223  0.4810  0.4884
 1452SOL    HW115992   1.356   0.213   1.410  1.1984  0.5398  2.0359
 1452SOL    HW215993   1.324   0.137   1.529 -3.8799 -0.5269  0.1359
 1453SOL     OW15994   2.315   2.340   3.086 -0.5520  0.1670  0.1991
 1453SOL    HW115995   2.301   2.311   3.176 -1.4078  1.6658  0.5299
 1453SOL    HW215996   2.231   2.384   3.073  1.4313  3.5478 -1.0398
 1454SOL     OW15997   2.696   2.779  10.381  0.1287  0.0731 -0.3549
 1454SOL    HW115998   2.611   2.761  10.420 -1.5192  0.8731 -3.5499
 1454SOL    HW215999   2.673   2.803  10.291 -1.5223  1.6252  0.5127
 1455SOL     OW16000   1.582   3.363   1.430 -0.3466  0.3860 -0.1501
 1455SOL    HW116001   1.582   3.397   1.519 -0.3184 -0.1135  0.0435
 1455SOL    HW216002   1.675   3.341   1.421 -0.3408  0.5506 -0.4979
 1456SOL     OW16003   0.640   4.686   2.083 -0.3616 -0.4304 -0.7144
 1456SOL    HW116004   0.560   4.720   2.124  0.6280 -0.0570  0.9236
 1456SOL    HW216005   0.706   0.013   2.112 -2.0487  0.1648  1.9028
 1457SOL     OW16006   0.207   3.686   4.751 -0.1032  0.2217  0.2711
 1457SOL    HW116007   0.191   3.752   4.817 -0.9533  1.5419 -1.2551
 1457SOL    HW216008   0.187   3.727   4.667  0.8061 -2.5862 -1.3373
 1458SOL     OW16009   0.707   3.225  17.062 -0.4719 -0.0744  0.6967
 1458SOL    HW116010   0.759   3.160  17.015  0.7977  0.1701  1.7630
 1458SOL    HW216011   0.739   3.310  17.030  1.3519 -0.6991  0.8512
 1459SOL     OW16012   0.472   2.560  14.646  0.1979 -0.1954  0.1123
 1459SOL    HW116013   0.503   2.483  14.597  1.1846 -1.9176  3.4254
 1459SOL    HW216014   0.475   2.528  14.736 -3.1293  1.7029  0.8674
 1460SOL     OW16015   1.695   4.102   5.620  0.1409 -0.2545  0.6646
 1460SOL    HW116016   1.763   4.049   5.662 -0.7042 -1.8331  0.0221
 1460SOL    HW216017   1.749   4.161   5.567  0.2447 -0.0286  1.0228
 1461SOL     OW16018   2.890   2.060   2.891 -0.5465 -0.0111  0.0444
 1461SOL    HW116019   2.841   2.089   2.814 -0.5320  2.1915  0.8552
 1461SOL    HW216020   2.836   2.092   2.963 -0.7330 -2.7045  1.0701
 1462SOL     OW16021   2.327   3.312   6.069  0.3818 -0.0180  0.1598
 1462SOL    HW116022   2.418   3.339   6.076  1.2811 -3.1502  0.5932
 1462SOL    HW216023   2.349   3.224   6.036 -2.7532 -0.1165 -1.7410
 1463SOL     OW16024   1.888   2.631  17.370  0.7402 -0.2006 -0.4981
 1463SOL    HW116025   1.803   2.595  17.344 -0.1470  1.0258  0.7203
 1463SOL    HW216026   1.861   2.720  17.392  0.3353  0.2325 -2.8096
 1464SOL     OW16027   0.665   4.561  11.170 -0.2161  0.0420 -0.1838
 1464SOL    HW116028   0.715   4.538  11.092  2.9706 -0.3065  1.9720
 1464SOL    HW216029   0.660   4.481  11.222  0.6816 -0.5145 -0.9575
 1465SOL     OW16030   1.322   2.656   1.116  0.0339 -0.4098  0.6148
 1465SOL    HW116031   1.402   2.708   1.114 -0.3988  0.2586  0.7011
 1465SOL    HW216032   1.269   2.693   1.187  0.1467  1.1837 -0.1438
 1466SOL     OW16033   0.884   3.691   7.170  0.1965  0.1449 -0.2319
 1466SOL    HW116034   0.923   3.761   7.223  2.2945  0.3839 -2.0914
 1466SOL    HW216035   0.791   3.710   7.185 -0.3213  0.1920 -3.4855
 1467SOL     OW16036   4.002   1.654  17.246 -0.3458 -0.5213  0.1049
 1467SOL    HW116037   3.911   1.675  17.267 -0.8606 -0.8866 -1.7277
 1467SOL    HW216038   3.993   1.560  17.229 -1.0838 -0.3560 -0.4085
 1468SOL     OW16039   0.706   4.464   3.042  0.0283 -0.6950  0.4686
 1468SOL    HW116040   0.778   4.502   2.992  0.0046 -0.1036  0.8794
 1468SOL    HW216041   0.656   4.413   2.979  0.3397  0.6434 -0.8478
 1469SOL     OW16042   0.034   0.077  12.964 -0.6194 -0.3633 -0.0906
 1469SOL    HW116043   0.030   0.123  12.880  0.1299  0.9202  0.5700
 1469SOL    HW216044   4.684   0.033  12.962 -1.3133  0.9441  0.7380
 1470SOL     OW16045   2.437   0.457   4.323  0.3995 -0.5775 -0.0240
 1470SOL    HW116046   2.361   0.461   4.381  1.7199  1.4348  1.5834
 1470SOL    HW216047   2.505   0.493   4.380  0.2519 -0.7391  0.2569
 1471SOL     OW16048   4.547   4.057   5.320 -0.1189 -0.4902 -0.8765
 1471SOL    HW116049   4.487   3.985   5.300  3.3393 -2.7612 -3.0942
 1471SOL    HW216050   4.572   4.045   5.411 -1.8747  0.6685 -0.2350
 1472SOL     OW16051   4.333   0.774   0.081 -0.0217 -0.3782  0.0193
 1472SOL    HW116052   4.427   0.757   0.077  0.7417  3.7056 -0.1650
 1472SOL    HW216053   4.312   0.781  17.727  0.5432 -0.0206 -0.0826
 1473SOL     OW16054   4.498   4.000   5.863 -0.1649 -0.1088 -0.2302
 1473SOL    HW116055   4.492   3.905   5.850 -2.1136  0.1402 -1.1398
 1473SOL    HW216056   4.588   4.006   5.830 -0.0792 -1.1429 -0.1827
 1474SOL     OW16057   4.500   0.428   3.728  0.1087 -0.4308 -0.0263
 1474SOL    HW116058   4.473   0.354   3.782  3.2139 -1.6454 -0.1323
 1474SOL    HW216059   4.463   0.493   3.787 -0.0304 -0.7891  0.2794
 1475SOL     OW16060   3.796   3.685   5.699  0.0304  0.0794  0.2866
 1475SOL    HW116061   3.777   3.778   5.688 -0.6874 -0.1881 -0.7429
 1475SOL    HW216062   3.802   3.689   5.795 -1.7441 -0.0276  0.4123
 1476SOL     OW16063   1.927   1.516   2.815  0.2402  0.0477  0.0217
 1476SOL    HW116064   1.966   1.503   2.729 -1.2701  1.9736 -0.9424
 1476SOL    HW216065   1.990   1.471   2.872 -1.4194 -2.1457  0.0825
 1477SOL     OW16066   2.700   3.582   8.771  0.0212  1.4027  0.4468
 1477SOL    HW116067   2.756   3.649   8.812 -0.0027  1.7220 -0.0492
 1477SOL    HW216068   2.678   3.537   8.853  0.7509  2.1836  1.0775
 1478SOL     OW16069   1.494   1.196   0.749  0.6896  0.4471  0.1244
 1478SOL    HW116070   1.485   1.209   0.654  1.2562  0.5786  0.0881
 1478SOL    HW216071   1.588   1.181   0.752  0.9828  2.3215  0.3496
 1479SOL     OW16072   0.322   0.098   5.663  0.3372  0.1131 -0.0118
 1479SOL    HW116073   0.300   0.115   5.755 -2.5891 -1.2231 -0.4707
 1479SOL    HW216074   0.317   0.188   5.630 -0.4506  0.1992  0.3472
 1480SOL     OW16075   4.239   3.803   0.400  0.0483 -0.1738 -0.2267
 1480SOL    HW116076   4.287   3.818   0.318  1.2133  0.5122  0.5840
 1480SOL    HW216077   4.153   3.773   0.371  0.2468  0.1911 -1.1924
 1481SOL     OW16078   2.017   0.115   6.188 -0.3416  0.2998  0.2444
 1481SOL    HW116079   2.067   0.071   6.256  2.2290  1.3254 -0.9770
 1481SOL    HW216080   1.943   0.144   6.241  0.4972 -0.5108  1.8419
 1482SOL     OW16081   1.278   3.433   7.771 -0.1198 -0.0284  0.2958
 1482SOL    HW116082   1.215   3.424   7.843  0.5925  1.0382  1.0554
 1482SOL    HW216083   1.293   3.527   7.765 -1.3647  0.3958  3.7491
 1483SOL     OW16084   0.388   0.013   3.591  0.3804  0.1696  0.3264
 1483SOL    HW116085   0.458   4.692   3.625  1.5022  0.0038 -2.2761
 1483SOL    HW216086   0.312   4.721   3.642 -0.5658  0.6942 -0.7874
 1484SOL     OW16087   4.440   2.313  11.650  0.4218  0.0565 -0.0764
 1484SOL    HW116088   4.448   2.383  11.714  0.2427 -0.8970  0.9816
 1484SOL    HW216089   4.531   2.314  11.621 -0.1554  0.5977 -1.8679
 1485SOL     OW16090   1.228   3.386   4.522  0.1916  0.2577 -0.0791
 1485SOL    HW116091   1.319   3.417   4.530  0.2714 -0.0776  0.2842
 1485SOL    HW216092   1.202   3.426   4.439 -0.4967  0.6283  0.3209
 1486SOL     OW16093   3.815   1.602   7.724  0.0004  1.3401  0.2599
 1486SOL    HW116094   3.770   1.685   7.738 -0.1520  1.7003 -2.4315
 1486SOL    HW216095   3.784   1.566   7.808 -0.9550  1.2027 -0.1548
 1487SOL     OW16096   0.372   3.807   7.273 -0.4246 -0.3600 -0.2614
 1487SOL    HW116097   0.379   3.896   7.239 -1.9865  0.6469  2.0859
 1487SOL    HW216098   0.342   3.818   7.363 -0.4087  0.6138 -0.3757
 1488SOL     OW16099   4.514   2.839   9.803 -0.4299  0.0216 -0.0728
 1488SOL    HW116100   4.483   2.926   9.777  1.9836  1.6282  2.4517
 1488SOL    HW216101   4.583   2.849   9.868  0.8141 -0.0673 -1.3751
 1489SOL     OW16102   4.048   0.660   2.343  1.0840  0.0617 -0.6150
 1489SOL    HW116103   3.952   0.663   2.346  1.1995  0.9813  1.6999
 1489SOL    HW216104   4.064   0.587   2.402 -3.7280  1.3012  2.2315
 1490SOL     OW16105   0.445   1.009   2.971 -0.3356  0.0997 -0.7185
 1490SOL    HW116106   0.459   0.978   2.881  1.6742 -2.2499  0.4057
 1490SOL    HW216107   0.450   1.104   2.962  0.6512  0.0225 -0.9644
 1491SOL     OW16108   2.587   0.592   8.956  0.6871  0.1408 -0.1039
 1491SOL    HW116109   2.601   0.676   8.911 -2.4150  0.3442 -0.6475
 1491SOL    HW216110   2.636   0.538   8.894 -0.6355 -0.9154 -0.2220
 1492SOL     OW16111   1.048   3.978  14.933  0.2989 -0.3030  0.1837
 1492SOL    HW116112   0.981   3.979  15.001 -1.3854  3.0106 -1.5143
 1492SOL    HW216113   1.100   3.901  14.958  1.7152 -0.1231 -2.2312
 1493SOL     OW16114   2.125   2.465   7.539  0.0577  0.0418 -0.5842
 1493SOL    HW116115   2.037   2.439   7.511  0.3664  1.4447 -2.8856
 1493SOL    HW216116   2.111   2.560   7.546 -1.4224 -0.2174 -0.0672
 1494SOL     OW16117   2.422   0.143   8.484 -0.3690 -0.5858 -0.1433
 1494SOL    HW116118   2.435   0.227   8.441  0.7510 -0.4174  0.5257
 1494SOL    HW216119   2.486   0.091   8.436  1.1436  0.4397  0.7784
 1495SOL     OW16120   0.324   1.376   4.078 -0.2394 -0.0266  0.3368
 1495SOL    HW116121   0.342   1.465   4.108 -2.3050  0.9969 -1.5021
 1495SOL    HW216122   0.237   1.391   4.042  0.3196 -0.8478 -1.3479
 1496SOL     OW16123   0.067   4.096  16.116 -1.2691  0.1137  0.0586
 1496SOL    HW116124   0.099   4.052  16.037  2.0405  0.1653  1.3600
 1496SOL    HW216125   0.094   4.186  16.099  0.3164  0.1121  2.5114
 1497SOL     OW16126   4.602   1.949   7.858 -0.0549  0.5134  0.2478
 1497SOL    HW116127   4.600   2.009   7.783  0.7360  1.1996  0.7772
 1497SOL    HW216128   4.657   1.874   7.836  1.0921  1.2259  0.6529
 1498SOL     OW16129   2.182   2.163   5.902 -0.2277  0.5136 -0.0492
 1498SOL    HW116130   2.132   2.222   5.847 -1.0245 -1.1768 -1.1507
 1498SOL    HW216131   2.257   2.219   5.924 -0.6873  0.6855  1.1025
 1499SOL     OW16132   2.078   3.549   7.990 -0.3147 -0.3467  0.1853
 1499SOL    HW116133   2.135   3.499   7.931 -0.2042  2.0993 -1.7842
 1499SOL    HW216134   2.037   3.468   8.020 -0.0054 -1.2133 -1.7209
 1500SOL     OW16135   1.485   3.229   6.684 -0.1891 -0.1159  0.2854
 1500SOL    HW116136   1.569   3.223   6.638 -0.7829  0.5156 -0.8973
 1500SOL    HW216137   1.459   3.137   6.688  0.4082 -0.3251 -0.6003
 1501SOL     OW16138   1.216   2.445   5.372 -0.6112 -0.1429 -0.1195
 1501SOL    HW116139   1.306   2.475   5.386 -0.4582 -0.1995 -0.9739
 1501SOL    HW216140   1.181   2.461   5.459  2.0286  3.4164  0.2776
 1502SOL     OW16141   3.637   1.477  13.433  0.6422  0.2536  0.2108
 1502SOL    HW116142   3.633   1.441  13.521 -2.2532  0.7179  0.2562
 1502SOL    HW216143   3.606   1.567  13.439 -2.2271 -0.4277 -3.7857
 1503SOL     OW16144   0.979   2.106   2.826  0.8547 -0.3984 -0.1886
 1503SOL    HW116145   0.939   2.193   2.832  0.4688 -0.6262  0.5605
 1503SOL    HW216146   0.940   2.070   2.746  0.3531  0.8260 -0.5024
 1504SOL     OW16147   1.879   4.557   6.937  0.3326 -0.0786 -0.3994
 1504SOL    HW116148   1.820   4.628   6.915  0.9854 -0.0259 -1.9702
 1504SOL    HW216149   1.857   4.490   6.872  1.0204 -1.3033  0.6196
 1505SOL     OW16150   0.950   0.991   5.236 -0.1127  0.3237 -0.1579
 1505SOL    HW116151   0.864   1.019   5.267 -1.0250 -2.9047  0.2554
 1505SOL    HW216152   0.923   0.966   5.148 -2.7016  1.2753  0.3651
 1506SOL     OW16153   1.106   3.217  15.550 -0.4386  0.1679 -0.5063
 1506SOL    HW116154   1.172   3.149  15.541  1.8237  2.4313 -0.9819
 1506SOL    HW216155   1.165   3.274  15.600 -0.8507  0.4684 -0.3642
 1507SOL     OW16156   2.495   1.265   5.472  0.0869  0.1924 -0.4996
 1507SOL    HW116157   2.445   1.191   5.440  0.4401 -0.2812  0.0424
 1507SOL    HW216158   2.578   1.250   5.426 -0.8440  0.6004 -2.3286
 1508SOL     OW16159   4.172   1.763  12.248  0.1405  0.2102 -0.1237
 1508SOL    HW116160   4.238   1.782  12.315 -0.1987 -0.4760  0.4024
 1508SOL    HW216161   4.179   1.852  12.213 -0.7147  1.0872  1.8742
 1509SOL     OW16162   1.422   3.240  12.066 -0.3483 -0.2460  0.7669
 1509SOL    HW116163   1.483   3.190  12.011 -3.0356 -2.2320 -0.3906
 1509SOL    HW216164   1.430   3.205  12.155  0.8300 -0.7027  0.4867
 1510SOL     OW16165   1.607   3.626   7.467 -0.3396 -0.2783 -0.3444
 1510SOL    HW116166   1.675   3.569   7.503 -0.3740 -0.8300 -1.1374
 1510SOL    HW216167   1.667   3.692   7.434  1.8345 -0.8317  2.5523
 1511SOL     OW16168   1.532   2.585   6.961 -0.0749  0.5099 -0.6706
 1511SOL    HW116169   1.457   2.645   6.955 -1.9174 -1.7867 -0.6785
 1511SOL    HW216170   1.581   2.613   7.038 -0.5508  0.8902 -0.5084
 1512SOL     OW16171   0.228   2.045   3.616  0.0469  0.4374  0.0012
 1512SOL    HW116172   0.133   2.052   3.609 -0.0567  1.2653  2.0708
 1512SOL    HW216173   0.228   2.068   3.709 -0.2313  0.3757  0.0165
 1513SOL     OW16174   0.436   1.984   0.689 -0.3295 -0.2728 -0.0296
 1513SOL    HW116175   0.382   2.064   0.688  0.1706  0.1000  1.9542
 1513SOL    HW216176   0.505   1.993   0.754 -0.3640  0.6065 -0.1071
 1514SOL     OW16177   3.630   2.471   0.463 -0.1827 -0.2799 -0.1116
 1514SOL    HW116178   3.539   2.468   0.492  0.3898 -3.5146  1.3481
 1514SOL    HW216179   3.661   2.385   0.492  1.3879  0.8914  1.7015
 1515SOL     OW16180   1.197   4.442  13.636 -0.2055 -0.5145 -0.2943
 1515SOL    HW116181   1.253   4.498  13.690  0.0686 -0.7716 -0.3139
 1515SOL    HW216182   1.157   4.519  13.594  2.6229 -0.5146 -3.0444
 1516SOL     OW16183   3.998   2.813   7.670  0.0993  0.2517  0.1843
 1516SOL    HW116184   3.999   2.755   7.745  0.9869  1.2261  0.9247
 1516SOL    HW216185   4.092   2.831   7.669  0.0097  0.7584  1.2762
 1517SOL     OW16186   3.088   1.846   4.965 -0.5172 -0.1908 -0.2882
 1517SOL    HW116187   3.050   1.759   4.949 -0.4728  0.0096 -1.4360
 1517SOL    HW216188   3.175   1.809   4.952 -0.0338  0.9634 -0.3269
 1518SOL     OW16189   4.131   3.982   5.778 -0.2212 -0.2160  0.2929
 1518SOL    HW116190   4.174   4.059   5.741 -0.0110 -0.4457  0.0561
 1518SOL    HW216191   4.169   3.911   5.726  1.1050  0.8551 -0.1965
 1519SOL     OW16192   0.212   3.612   2.619 -0.1567  0.2682 -0.7203
 1519SOL    HW116193   0.226   3.519   2.633  0.0358  0.7538  2.2708
 1519SOL    HW216194   0.146   3.603   2.550 -2.3847 -2.8514  1.8586
 1520SOL     OW16195   0.748   2.335   6.473 -0.0787  0.1975 -0.1365
 1520SOL    HW116196   0.831   2.367   6.438  0.4785  0.0570  1.0377
 1520SOL    HW216197   0.735   2.253   6.425  2.3733  0.2838 -0.9450
 1521SOL     OW16198   3.037   2.196   7.614 -0.9128 -0.1493 -1.0332
 1521SOL    HW116199   3.132   2.193   7.609 -0.7695  1.3949  0.6934
 1521SOL    HW216200   3.018   2.234   7.528 -1.8905  1.6027 -0.0598
 1522SOL     OW16201   3.412   2.196  15.123 -0.9295  0.1798  0.3918
 1522SOL    HW116202   3.377   2.224  15.208 -0.3364  1.0424  0.3570
 1522SOL    HW216203   3.503   2.215  15.145 -0.1649 -2.8006 -0.2742
 1523SOL     OW16204   3.334   0.542   3.415 -0.8614 -0.1317  0.1094
 1523SOL    HW116205   3.349   0.611   3.350 -0.4982  0.7518  1.1497
 1523SOL    HW216206   3.408   0.492   3.382  1.0602  1.1132  2.5505
 1524SOL     OW16207   2.874   2.567   9.613 -0.5691 -0.2755  0.4109
 1524SOL    HW116208   2.819   2.582   9.690  0.2230  0.2403  0.8827
 1524SOL    HW216209   2.805   2.544   9.552 -0.3558 -0.3555  0.2000
 1525SOL     OW16210   1.096   3.878  14.484  0.7756  0.0093 -0.0155
 1525SOL    HW116211   1.131   3.808  14.429  1.1438  0.3691 -0.2433
 1525SOL    HW216212   1.178   3.900  14.529 -0.0173 -2.5404  2.6478
 1526SOL     OW16213   2.918   1.498   5.664 -0.1158 -0.5989 -0.4196
 1526SOL    HW116214   2.901   1.575   5.610 -3.0556 -1.7376 -1.0972
 1526SOL    HW216215   2.829   1.471   5.689  0.3998 -1.6102  0.3565
 1527SOL     OW16216   2.104   2.308  17.646 -0.3090 -0.2496  0.3533
 1527SOL    HW116217   2.075   2.281  17.733 -1.4323 -1.2835 -0.3470
 1527SOL    HW216218   2.192   2.270  17.646  0.0432  0.5589 -1.8194
 1528SOL     OW16219   0.027   1.938   5.991  0.4121  0.3009 -0.1593
 1528SOL    HW116220   0.090   1.998   6.031  1.1529 -0.8394  0.3897
 1528SOL    HW216221   0.079   1.872   5.945 -1.1140 -0.7781 -0.3202
 1529SOL     OW16222   2.754   1.753   2.824 -0.0935  0.4371  0.6104
 1529SOL    HW116223   2.725   1.673   2.867  1.0307 -0.6493 -0.6661
 1529SOL    HW216224   2.680   1.810   2.849  0.1705  0.6945  0.8030
 1530SOL     OW16225   1.566   3.686  16.682 -0.4496 -0.1931 -0.0276
 1530SOL    HW116226   1.577   3.727  16.768  0.9370  1.7670 -1.1436
 1530SOL    HW216227   1.537   3.761  16.630  1.8096  1.1942  0.6891
 1531SOL     OW16228   2.536   3.884   9.199  0.4371  0.1820 -0.2396
 1531SOL    HW116229   2.486   3.810   9.166 -2.2816  1.7270  0.3791
 1531SOL    HW216230   2.575   3.901   9.113 -2.5798 -0.3325 -1.7175
 1532SOL     OW16231   2.601   3.305   6.087  0.1829 -0.0433  0.2102
 1532SOL    HW116232   2.662   3.373   6.057 -0.5131  0.6378  0.3315
 1532SOL    HW216233   2.666   3.237   6.102  2.6806  2.2874 -0.1085
 1533SOL     OW16234   3.361   2.401  15.381 -0.0551  0.2451  0.6061
 1533SOL    HW116235   3.407   2.425  15.461 -2.0153 -0.3112  1.8937
 1533SOL    HW216236   3.380   2.479  15.328 -0.0202  0.6437  1.2049
 1534SOL     OW16237   2.288   2.579   4.768  0.0267 -0.1162  0.1390
 1534SOL    HW116238   2.351   2.588   4.839  0.1117  1.0700 -0.0758
 1534SOL    HW216239   2.288   2.665   4.726 -1.1995 -0.5556 -0.7474
 1535SOL     OW16240   4.523   0.534   5.759 -0.2038  0.1169 -0.2190
 1535SOL    HW116241   4.568   0.530   5.844  0.5291  0.0817 -0.6127
 1535SOL    HW216242   4.532   0.627   5.739  0.1776  0.1289  0.0133
 1536SOL     OW16243   1.545   4.687   1.784 -0.6851 -0.6634 -0.5417
 1536SOL    HW116244   1.583   4.686   1.696  1.7657  0.3996  0.5104
 1536SOL    HW216245   1.553   0.046   1.798 -1.1243 -0.7696  0.3911
 1537SOL     OW16246   2.936   0.928   1.801 -0.0827 -0.1689  0.2238
 1537SOL    HW116247   2.923   0.983   1.878 -0.7426  1.7274 -1.2315
 1537SOL    HW216248   2.845   0.899   1.794  0.0565 -0.6044  0.2530
 1538SOL     OW16249   2.021   1.847   7.921 -0.5438  0.2713  0.1641
 1538SOL    HW116250   2.003   1.940   7.933 -0.8208  0.2351  0.0141
 1538SOL    HW216251   2.006   1.838   7.827  1.2318  0.2812 -0.1142
 1539SOL     OW16252   0.623   0.179   8.435  0.1450 -0.0823  0.4334
 1539SOL    HW116253   0.701   0.124   8.433 -0.5664 -1.1009  0.7611
 1539SOL    HW216254   0.619   0.216   8.347  0.6290  1.2585  0.9789
 1540SOL     OW16255   4.330   0.020   9.701  0.2282  0.6284 -0.3257
 1540SOL    HW116256   4.374   4.670   9.713 -0.2836  0.3819 -0.1889
 1540SOL    HW216257   4.320   0.051   9.791  1.2234  0.3838 -0.1248
 1541SOL     OW16258   0.947   0.591   7.926 -0.5651  0.0786  1.0590
 1541SOL    HW116259   0.888   0.520   7.898 -1.5440  0.4874  2.0720
 1541SOL    HW216260   1.019   0.586   7.863 -1.5551  2.6196 -0.2953
 1542SOL     OW16261   3.725   0.750  15.789 -0.4741  0.7139 -0.1461
 1542SOL    HW116262   3.741   0.840  15.761  1.1019  0.2046 -0.9398
 1542SOL    HW216263   3.630   0.750  15.792 -0.4183  1.4479  1.4222
 1543SOL     OW16264   0.456   1.216   8.414  0.2002  0.6478 -0.2628
 1543SOL    HW116265   0.395   1.248   8.347 -0.5422  2.4316  1.2726
 1543SOL    HW216266   0.479   1.135   8.367 -0.8297  0.4769 -0.4896
 1544SOL     OW16267   3.201   0.466   6.281 -0.3128 -0.6625 -0.0610
 1544SOL    HW116268   3.191   0.376   6.310 -1.7633 -1.1571 -2.1350
 1544SOL    HW216269   3.191   0.515   6.363  2.4967 -3.6060  2.0304
 1545SOL     OW16270   2.602   3.560  14.328 -0.1977 -0.0635 -0.5284
 1545SOL    HW116271   2.548   3.507  14.386  1.5430 -1.1130  0.1057
 1545SOL    HW216272   2.538   3.599  14.267 -0.8166 -0.4060 -0.0939
 1546SOL     OW16273   0.543   4.728  13.389  0.2687 -0.4916 -0.8279
 1546SOL    HW116274   0.562   4.696  13.477 -0.9733  3.5416  0.9101
 1546SOL    HW216275   0.485   0.063  13.417 -0.0185 -1.0381 -0.0643
 1547SOL     OW16276   1.663   0.479  13.326 -0.5666  0.1117 -0.2992
 1547SOL    HW116277   1.666   0.421  13.250  1.8789 -1.4399  0.9894
 1547SOL    HW216278   1.745   0.453  13.368 -1.2839 -0.3170  0.8295
 1548SOL     OW16279   3.008   0.207   2.822  0.5939  0.1914  0.1062
 1548SOL    HW116280   2.947   0.179   2.890 -0.2654 -0.5233 -0.9612
 1548SOL    HW216281   3.014   0.302   2.816  0.4174  0.0885 -1.5488
 1549SOL     OW16282   0.656   2.349   9.096  0.2484  0.4453 -0.0210
 1549SOL    HW116283   0.722   2.357   9.028  1.4568  0.1582  1.1237
 1549SOL    HW216284   0.677   2.408   9.169  1.0241 -1.3101  1.1666
 1550SOL     OW16285   2.575   1.550  14.467 -0.3992 -0.1911  0.1066
 1550SOL    HW116286   2.658   1.517  14.502  0.1213  0.0713 -0.8887
 1550SOL    HW216287   2.563   1.499  14.387 -0.1889  0.9029 -0.6112
 1551SOL     OW16288   2.303   4.073   5.733  0.6695  0.1128  0.6212
 1551SOL    HW116289   2.371   4.137   5.709  1.0752 -1.1685 -1.6423
 1551SOL    HW216290   2.228   4.104   5.681  0.0230  1.1958  2.1871
 1552SOL     OW16291   2.538   3.002   3.175  0.3364 -0.0313 -0.7680
 1552SOL    HW116292   2.595   3.029   3.247  1.8177  1.2619 -2.4147
 1552SOL    HW216293   2.448   3.017   3.206  0.7124  1.0030 -0.1580
 1553SOL     OW16294   1.090   1.360   6.370  0.2927 -0.4471 -0.0892
 1553SOL    HW116295   1.182   1.387   6.361  0.4493 -0.6068  0.9850
 1553SOL    HW216296   1.076   1.390   6.460 -2.2546  1.1222 -0.9966
 1554SOL     OW16297   1.113   1.831   8.473  0.6548 -0.0083 -0.4710
 1554SOL    HW116298   1.129   1.767   8.542  0.6475 -0.3724 -0.8061
 1554SOL    HW216299   1.104   1.762   8.406  0.2367 -1.5149  1.1285
 1555SOL     OW16300   2.993   4.180   7.110  0.6665  0.0663 -0.0350
 1555SOL    HW116301   2.960   4.267   7.132 -0.4888 -0.0296 -1.3614
 1555SOL    HW216302   2.937   4.120   7.160  1.7294 -0.4568  0.5304
 1556SOL     OW16303   0.910   3.073   3.957  0.3846 -0.4641 -0.4293
 1556SOL    HW116304   0.954   3.063   4.042 -2.6832 -1.1512  1.0851
 1556SOL    HW216305   0.821   3.087   3.990 -0.0916 -1.9289 -1.0645
 1557SOL     OW16306   3.071   2.093   3.341  0.0745 -0.4425  0.2121
 1557SOL    HW116307   3.039   2.172   3.384  0.3445  0.6900 -1.6545
 1557SOL    HW216308   3.088   2.138   3.258 -1.3179  0.3239  0.3540
 1558SOL     OW16309   1.299   2.801   8.011 -0.3782  0.2031  0.9709
 1558SOL    HW116310   1.309   2.707   7.995 -0.3724  0.2850  0.4807
 1558SOL    HW216311   1.336   2.846   7.935  1.1842  1.1332  2.2874
 1559SOL     OW16312   3.176   4.720   7.524  0.4105 -0.4324  0.2873
 1559SOL    HW116313   3.115   4.661   7.569 -0.9640  0.4435 -0.4358
 1559SOL    HW216314   3.256   4.669   7.518  0.0059 -0.9655 -0.6841
 1560SOL     OW16315   1.928   3.481   3.722 -0.4416  0.3757  0.1376
 1560SOL    HW116316   1.892   3.397   3.750  1.1944 -0.6180 -0.6704
 1560SOL    HW216317   1.912   3.472   3.628  1.9621  0.3131 -0.2779
 1561SOL     OW16318   4.445   3.158   6.089 -0.1141 -0.3365  0.3221
 1561SOL    HW116319   4.402   3.169   6.174 -2.1625  1.4060 -0.9536
 1561SOL    HW216320   4.421   3.067   6.075  2.1755 -0.7514 -0.9162
 1562SOL     OW16321   1.697   1.416   2.911 -0.1880  0.3495 -0.2364
 1562SOL    HW116322   1.777   1.457   2.878 -0.4797  1.9748  1.0906
 1562SOL    HW216323   1.638   1.440   2.839 -0.4085  1.6544  0.3836
 1563SOL     OW16324   4.557   4.376   2.350 -0.0414  0.3396  0.1549
 1563SOL    HW116325   4.557   4.344   2.260 -0.8546  0.4584  0.1105
 1563SOL    HW216326   4.563   4.296   2.403  1.7300 -1.6033 -2.9208
 1564SOL     OW16327   4.259   3.084   3.994 -0.7732 -0.1613 -0.2557
 1564SOL    HW116328   4.259   3.021   3.922 -1.4435 -1.3801  0.8131
 1564SOL    HW216329   4.344   3.058   4.030  0.8349  0.6371 -3.4299
 1565SOL     OW16330   2.147   3.968   9.694 -0.9487  0.4957 -0.2262
 1565SOL    HW116331   2.207   3.982   9.621 -0.4550 -1.3295 -0.1701
 1565SOL    HW216332   2.090   3.909   9.645  0.2640  0.8340 -2.0334
 1566SOL     OW16333   3.186   3.554   3.710  0.0103 -1.0836  0.6865
 1566SOL    HW116334   3.126   3.569   3.783  1.0659 -2.5373  1.8411
 1566SOL    HW216335   3.258   3.520   3.762  1.3084  1.6096  0.6652
 1567SOL     OW16336   3.928   3.346   5.390 -0.2783 -0.6793 -0.3082
 1567SOL    HW116337   3.879   3.271   5.358  0.5469 -1.2053 -0.3310
 1567SOL    HW216338   3.863   3.382   5.451 -2.7490 -2.2217 -2.0615
 1568SOL     OW16339   4.140   1.269   4.748 -0.0542  0.1627 -0.4830
 1568SOL    HW116340   4.048   1.287   4.728 -0.1758  0.6304  0.4894
 1568SOL    HW216341   4.185   1.286   4.666 -1.2032  1.6670 -0.8073
 1569SOL     OW16342   0.644   1.629  14.358 -0.4879 -0.5642 -0.5650
 1569SOL    HW116343   0.666   1.721  14.343 -0.1707 -0.8681 -1.9697
 1569SOL    HW216344   0.577   1.638  14.426  0.6434  0.5534  0.3965
 1570SOL     OW16345   1.689   1.058   2.686 -0.4784  0.1624 -0.0829
 1570SOL    HW116346   1.782   1.059   2.708  0.0682 -0.9911 -2.2979
 1570SOL    HW216347   1.658   1.064   2.776  1.1112 -1.9554  0.6075
 1571SOL     OW16348   4.525   2.984   2.715  0.9989 -0.3023  0.5182
 1571SOL    HW116349   4.526   3.019   2.804 -0.1444 -1.1373  0.8549
 1571SOL    HW216350   4.531   3.064   2.662  0.2976 -1.4462 -1.2720
 1572SOL     OW16351   0.838   3.929  11.455 -0.1040 -0.0705 -0.2480
 1572SOL    HW116352   0.815   3.843  11.492  3.5471 -0.6935  0.5762
 1572SOL    HW216353   0.920   3.901  11.414  0.1640  2.0988 -1.1708
 1573SOL     OW16354   3.221   4.016   1.650  0.2503  0.2793 -0.4742
 1573SOL    HW116355   3.262   4.056   1.726  1.8075 -0.5550 -0.8891
 1573SOL    HW216356   3.260   4.064   1.577  0.9877 -1.9250 -1.5378
 1574SOL     OW16357   3.436   4.189   1.130 -0.6292  0.5379  0.0044
 1574SOL    HW116358   3.482   4.109   1.155 -0.5245  0.6921  0.3135
 1574SOL    HW216359   3.502   4.258   1.136 -0.3011  0.2462 -0.2527
 1575SOL     OW16360   2.838   3.998   2.256  0.0755  0.1368 -0.2743
 1575SOL    HW116361   2.743   4.004   2.260  0.0046 -1.7461  0.9160
 1575SOL    HW216362   2.871   4.071   2.310  0.7878 -0.4355  0.0590
 1576SOL     OW16363   0.636   0.585  12.473 -0.1930 -0.7572 -0.2281
 1576SOL    HW116364   0.681   0.505  12.501  0.2075  0.3981  2.4310
 1576SOL    HW216365   0.648   0.585  12.378  1.8566 -2.0096  0.0258
 1577SOL     OW16366   1.950   1.558  10.338 -0.3599 -0.2579  0.5519
 1577SOL    HW116367   1.974   1.592  10.252  0.3417 -2.6645 -0.1929
 1577SOL    HW216368   1.942   1.464  10.324 -0.6346 -0.2524  0.6605
 1578SOL     OW16369   1.396   3.389   7.105 -0.0476  0.0123 -0.5031
 1578SOL    HW116370   1.413   3.425   7.191  1.0482 -0.2805 -0.6033
 1578SOL    HW216371   1.330   3.449   7.071  0.1363  0.2772 -0.3853
 1579SOL     OW16372   1.671   3.466   6.271  0.3544  0.3386  0.8874
 1579SOL    HW116373   1.630   3.504   6.193  1.5811 -1.0078 -0.4182
 1579SOL    HW216374   1.606   3.480   6.339 -1.8279  2.2346 -1.5523
 1580SOL     OW16375   1.403   2.421   8.753 -0.3589  0.0203  0.0513
 1580SOL    HW116376   1.351   2.341   8.760 -1.1539  0.5347  0.1011
 1580SOL    HW216377   1.472   2.386   8.697  1.2948  2.0779  0.8343
 1581SOL     OW16378   2.985   4.735   3.173 -0.2066 -0.2063  0.2996
 1581SOL    HW116379   3.046   4.671   3.210  0.4371 -0.9278 -2.0065
 1581SOL    HW216380   3.051   0.052   3.128  2.3333 -3.6161  0.0628
 1582SOL     OW16381   4.077   1.913   2.381  0.0735 -0.3259  0.0520
 1582SOL    HW116382   4.027   1.838   2.413 -2.6982  0.2913 -2.8886
 1582SOL    HW216383   4.063   1.969   2.458  1.7523 -0.3123  0.3401
 1583SOL     OW16384   1.636   4.249   5.162  0.0759  0.1334  0.1352
 1583SOL    HW116385   1.730   4.256   5.179  0.4833 -1.6734 -1.3957
 1583SOL    HW216386   1.609   4.163   5.193  0.2592 -0.2668 -0.8228
 1584SOL     OW16387   0.922   4.110   2.496 -0.2396  0.1330 -0.3430
 1584SOL    HW116388   0.966   4.188   2.531  0.7850  0.4736 -2.3549
 1584SOL    HW216389   1.006   4.066   2.487  0.6301  1.4763  1.1381
 1585SOL     OW16390   3.292   1.757   3.924 -0.2464  0.3026  0.1067
 1585SOL    HW116391   3.335   1.823   3.978  2.9689 -1.0184 -0.8512
 1585SOL    HW216392   3.283   1.804   3.841 -1.6793  0.6079  0.4304
 1586SOL     OW16393   4.138   2.768   3.483 -0.2118  0.9011 -0.5180
 1586SOL    HW116394   4.192   2.765   3.562 -0.0940 -1.6719 -0.6746
 1586SOL    HW216395   4.182   2.837   3.434  1.9084 -0.4814 -0.5361
 1587SOL     OW16396   2.696   2.058  12.609  0.2528  0.3692  0.2144
 1587SOL    HW116397   2.760   2.099  12.552 -1.2064 -1.1247 -2.4880
 1587SOL    HW216398   2.620   2.053  12.551 -0.2479  2.3457  0.7045
 1588SOL     OW16399   2.247   1.268   6.188  0.2108  0.0155 -0.9144
 1588SOL    HW116400   2.287   1.291   6.272 -1.4682 -0.5282  0.0389
 1588SOL    HW216401   2.283   1.186   6.155 -1.2476 -1.6518  1.6301
 1589SOL     OW16402   1.212   0.548  11.578  0.6573 -0.0404  0.3585
 1589SOL    HW116403   1.237   0.605  11.505  0.2072  1.2924  1.2395
 1589SOL    HW216404   1.247   0.601  11.649  1.4407  0.2140 -0.2083
 1590SOL     OW16405   3.118   2.589   2.916 -0.1021 -0.1384 -0.3927
 1590SOL    HW116406   3.039   2.536   2.920 -0.5809  0.5949 -0.1863
 1590SOL    HW216407   3.172   2.538   2.855  0.0066 -0.3979 -0.0838
 1591SOL     OW16408   4.657   3.543  16.611 -0.1204  0.2994  0.0593
 1591SOL    HW116409   4.643   3.537  16.706 -1.6427 -2.7576 -0.3430
 1591SOL    HW216410   4.644   3.636  16.594 -0.6885  0.1083 -0.5693
 1592SOL     OW16411   0.267   0.477   9.245  0.0435  0.2362  0.2111
 1592SOL    HW116412   0.353   0.462   9.285  0.4715  2.1211 -0.0211
 1592SOL    HW216413   0.257   0.572   9.251 -2.6482 -0.0019 -0.5644
 1593SOL     OW16414   2.706   1.132   2.302 -0.5204 -0.1571  0.8055
 1593SOL    HW116415   2.645   1.174   2.242  1.0562  0.1776 -0.5780
 1593SOL    HW216416   2.729   1.212   2.350  1.5848  0.5698 -1.3589
 1594SOL     OW16417   4.079   2.170  16.960  0.2804  0.0507 -0.8366
 1594SOL    HW116418   4.167   2.207  16.954  0.2857  0.0617 -0.6778
 1594SOL    HW216419   4.067   2.155  17.053 -2.4907  2.0212 -0.8927
 1595SOL     OW16420   3.089   3.236   4.375  0.5540 -0.0826 -0.4801
 1595SOL    HW116421   3.136   3.169   4.424  2.2455  1.1447 -0.3917
 1595SOL    HW216422   3.165   3.291   4.355  2.0039 -1.8189  0.3149
 1596SOL     OW16423   2.404   0.621  11.561 -0.4881  0.2587 -0.6534
 1596SOL    HW116424   2.342   0.560  11.522  0.0207 -0.3639 -0.4949
 1596SOL    HW216425   2.365   0.706  11.539 -1.6965 -0.0431  0.2905
 1597SOL     OW16426   2.256   3.724  16.769  0.6131  0.7753 -0.8906
 1597SOL    HW116427   2.194   3.743  16.840 -0.3961 -0.3922 -1.4419
 1597SOL    HW216428   2.196   3.728  16.695  0.8185 -1.6952 -1.1973
 1598SOL     OW16429   4.173   1.935   2.833  0.4119  0.2144 -0.2296
 1598SOL    HW116430   4.163   1.840   2.822  1.8377 -0.2632  2.7904
 1598SOL    HW216431   4.179   1.947   2.927 -0.4777 -0.0775 -0.1361
 1599SOL     OW16432   4.500   4.065   3.130 -0.1858 -0.0011  0.2966
 1599SOL    HW116433   4.546   4.131   3.079  0.2521 -0.1404  0.5178
 1599SOL    HW216434   4.569   4.009   3.165  0.8999 -0.1225 -2.0317
 1600SOL     OW16435   4.143   1.782   3.522  0.0781  0.4963 -0.1747
 1600SOL    HW116436   4.225   1.744   3.552  0.3974  0.0875 -1.5863
 1600SOL    HW216437   4.163   1.875   3.510  1.4666  0.6302  3.0329
 1601SOL     OW16438   1.205   1.063   2.947  0.1367  0.2151  0.0147
 1601SOL    HW116439   1.181   1.146   2.989  0.4934  0.5618 -0.4665
 1601SOL    HW216440   1.135   1.011   2.985  1.2709 -1.8998 -0.8379
 1602SOL     OW16441   0.611   3.101   2.633  0.5264 -0.0615 -0.0395
 1602SOL    HW116442   0.629   3.187   2.594 -0.3850  0.5397  0.8815
 1602SOL    HW216443   0.676   3.039   2.599  1.0887  1.1936 -1.2410
 1603SOL     OW16444   4.151   2.649  12.329 -0.1614 -0.2247  0.2025
 1603SOL    HW116445   4.187   2.592  12.397 -0.1023 -0.9981 -0.4828
 1603SOL    HW216446   4.199   2.607  12.258 -3.1720  0.8260 -2.4331
 1604SOL     OW16447   2.084   3.739   9.241 -0.4658  0.0305 -0.1574
 1604SOL    HW116448   2.047   3.681   9.175  2.2452 -1.8159 -0.0627
 1604SOL    HW216449   2.159   3.684   9.267  0.8132  2.1987  0.8025
 1605SOL     OW16450   2.606   0.375   9.378 -0.3703  0.3602 -0.0148
 1605SOL    HW116451   2.514   0.370   9.353 -0.3818 -2.6600  0.6243
 1605SOL    HW216452   2.594   0.340   9.466  1.0126 -0.8350 -0.3046
 1606SOL     OW16453   0.341   0.922   4.532 -0.2241 -0.3454  0.1406
 1606SOL    HW116454   0.333   1.010   4.496  0.3004  0.2790  1.5796
 1606SOL    HW216455   0.431   0.913   4.562 -0.2237  0.5903  0.4262
 1607SOL     OW16456   1.196   4.185   4.403 -0.2568 -0.3836 -0.0112
 1607SOL    HW116457   1.106   4.161   4.382  0.1701 -1.4741 -0.5864
 1607SOL    HW216458   1.235   4.100   4.384 -0.4395 -0.5289  0.2719
 1608SOL     OW16459   4.308   4.529   4.884 -0.0786 -0.4220 -0.2990
 1608SOL    HW116460   4.323   4.611   4.836  1.0887 -0.0860  0.6415
 1608SOL    HW216461   4.282   4.560   4.970 -1.5842 -1.9326 -0.2032
 1609SOL     OW16462   0.661   2.375   1.478 -0.3330 -0.2086 -0.2357
 1609SOL    HW116463   0.633   2.422   1.399  2.4244  0.1809 -0.9794
 1609SOL    HW216464   0.588   2.318   1.502  0.9307 -2.1427 -0.9991
 1610SOL     OW16465   2.284   0.750   3.946 -0.1704 -0.0158  0.2695
 1610SOL    HW116466   2.347   0.760   4.018 -0.1680 -0.5398  0.3401
 1610SOL    HW216467   2.299   0.656   3.934 -1.1057 -0.3706  1.8784
 1611SOL     OW16468   1.724   0.052  17.092  0.0487  0.1917 -0.2159
 1611SOL    HW116469   1.726   4.732  17.014 -0.0210  1.1691 -0.9152
 1611SOL    HW216470   1.644   0.104  17.087 -0.3117 -0.3395  0.0796
 1612SOL     OW16471   1.271   1.432   7.420 -0.5360  0.0385  0.1367
 1612SOL    HW116472   1.341   1.402   7.362 -0.0189 -0.2894  0.9353
 1612SOL    HW216473   1.289   1.390   7.504  1.0103 -0.0613 -0.2503
 1613SOL     OW16474   0.713   0.784  16.845 -0.0022 -0.5451  0.5542
 1613SOL    HW116475   0.801   0.757  16.870  0.1816  0.5269  1.0493
 1613SOL    HW216476   0.726   0.870  16.805  1.2498 -1.3091 -0.6884
 1614SOL     OW16477   1.031   2.205   5.377 -0.5064  0.0713 -0.5924
 1614SOL    HW116478   1.102   2.183   5.438 -0.9079 -1.5576 -0.7350
 1614SOL    HW216479   1.033   2.301   5.375  0.9603  0.0453 -0.5462
 1615SOL     OW16480   1.986   1.490  15.475  0.0046  0.3403  0.1966
 1615SOL    HW116481   1.993   1.536  15.558  0.0319 -0.1600  0.4735
 1615SOL    HW216482   2.055   1.532  15.424  0.1961 -1.1213 -0.7591
 1616SOL     OW16483   2.501   0.244   3.539 -0.2581 -0.2894  0.6263
 1616SOL    HW116484   2.583   0.228   3.491 -0.6065  0.9651 -0.3720
 1616SOL    HW216485   2.492   0.337   3.517 -0.8609 -0.1578  1.4440
 1617SOL     OW16486   0.970   0.357  16.752 -0.2640  0.5931 -0.2088
 1617SOL    HW116487   1.042   0.404  16.710  0.9612 -1.3775 -0.2987
 1617SOL    HW216488   1.001   0.333  16.839 -3.1043 -1.8929  0.1145
 1618SOL     OW16489   0.514   2.495   2.158  0.2075 -0.4033 -0.2432
 1618SOL    HW116490   0.486   2.409   2.127 -2.1385 -0.0562  0.8890
 1618SOL    HW216491   0.449   2.513   2.226  2.1736  0.8428  1.2811
 1619SOL     OW16492   4.075   4.286   9.083 -0.3470 -0.0378  0.0015
 1619SOL    HW116493   4.042   4.258   8.998 -0.2808 -0.5496  0.1420
 1619SOL    HW216494   4.168   4.270   9.067 -0.1917 -0.9495  1.8237
 1620SOL     OW16495   2.149   0.822   7.443  0.1593 -0.0216  0.0946
 1620SOL    HW116496   2.097   0.896   7.473 -2.0748 -0.8692 -1.6643
 1620SOL    HW216497   2.160   0.843   7.350  1.3730  0.8900  0.4482
 1621SOL     OW16498   4.364   4.119   4.577 -0.8114  0.1666 -0.5427
 1621SOL    HW116499   4.337   4.206   4.605  0.0923  0.2018  0.2224
 1621SOL    HW216500   4.397   4.142   4.490 -2.1822  0.9130 -0.8648
 1622SOL     OW16501   0.095   0.606   0.288 -0.0828  0.3232 -0.0538
 1622SOL    HW116502   0.015   0.590   0.339 -0.3581  0.6440 -0.3897
 1622SOL    HW216503   0.148   0.545   0.340  1.5978 -0.4567 -2.7135
 1623SOL     OW16504   0.522   3.807  10.726 -0.4531  0.3967  0.6434
 1623SOL    HW116505   0.526   3.711  10.720 -2.0392  0.3590  0.1850
 1623SOL    HW216506   0.616   3.814  10.741  0.1161  0.2251 -2.6824
 1624SOL     OW16507   3.375   4.559   4.055  0.3998 -0.6785  0.0083
 1624SOL    HW116508   3.384   4.572   3.960  1.8489 -0.0068  0.2524
 1624SOL    HW216509   3.457   4.519   4.082  0.3502 -0.1663  0.9088
 1625SOL     OW16510   0.157   1.157   6.237 -0.1662  0.1540 -0.0025
 1625SOL    HW116511   0.145   1.231   6.178 -0.4868 -0.1823 -0.3593
 1625SOL    HW216512   0.125   1.186   6.322 -2.8664  0.1798 -1.0131
 1626SOL     OW16513   1.100   0.768   8.675  0.1582 -0.0654 -0.6106
 1626SOL    HW116514   1.188   0.770   8.710 -0.5315  2.4558  0.9736
 1626SOL    HW216515   1.045   0.824   8.730  1.4560 -0.7637  1.3561
 1627SOL     OW16516   4.311   1.852   7.951 -0.2476  0.3216  0.0066
 1627SOL    HW116517   4.333   1.941   7.924 -0.1241  0.6039  1.0588
 1627SOL    HW216518   4.281   1.822   7.865  0.3754  2.4251 -0.9349
 1628SOL     OW16519   4.196   3.360  10.260 -0.4448 -0.0519  0.5800
 1628SOL    HW116520   4.168   3.428  10.321 -0.2474  1.8299 -1.4509
 1628SOL    HW216521   4.183   3.279  10.310 -0.4674  1.4360  2.9982
 1629SOL     OW16522   3.522   4.318  17.169 -0.0736  0.2321  0.5098
 1629SOL    HW116523   3.435   4.354  17.151  0.6318  2.8328  2.3545
 1629SOL    HW216524   3.498   4.228  17.192 -3.9658  1.1312  0.0638
 1630SOL     OW16525   4.488   0.738   3.385 -0.4605  0.0037  0.7818
 1630SOL    HW116526   4.491   0.803   3.455  1.0527  2.2398 -1.3483
 1630SOL    HW216527   4.397   0.715   3.367 -0.4803 -0.3198  1.2789
 1631SOL     OW16528   3.040   2.067   6.281 -0.2140 -0.0721 -0.2161
 1631SOL    HW116529   2.976   2.038   6.346 -1.8027  2.3198 -0.7234
 1631SOL    HW216530   3.115   2.016   6.310 -0.9506 -1.2584 -0.3674
 1632SOL     OW16531   2.146   3.765   2.056 -0.1945 -0.1422  0.3476
 1632SOL    HW116532   2.079   3.784   1.990 -0.8916  0.0873  1.1194
 1632SOL    HW216533   2.209   3.714   2.007  1.4435  0.9832  1.2746
 1633SOL     OW16534   2.801   0.825  10.970 -0.2587 -0.1645  0.4347
 1633SOL    HW116535   2.782   0.811  10.878  0.1471 -0.9643  0.4673
 1633SOL    HW216536   2.747   0.901  10.988 -0.4653  0.1636 -1.6823
 1634SOL     OW16537   3.058   1.584   8.027  0.1740  0.2858 -0.2861
 1634SOL    HW116538   2.999   1.603   7.955  0.5589 -1.0466 -0.9672
 1634SOL    HW216539   3.040   1.495   8.058  0.0200 -0.4756 -2.5750
 1635SOL     OW16540   3.334   3.686   4.671 -0.4120  0.4678  0.5918
 1635SOL    HW116541   3.252   3.641   4.692 -0.1645 -0.2763 -0.0262
 1635SOL    HW216542   3.371   3.701   4.758 -2.5146 -0.6915  1.6832
 1636SOL     OW16543   0.673   1.817   5.632  0.5553  0.1961  0.4297
 1636SOL    HW116544   0.655   1.908   5.608  0.3523 -0.2541 -1.1484
 1636SOL    HW216545   0.634   1.776   5.554 -1.9422  0.0158  1.7728
 1637SOL     OW16546   3.446   3.171   8.676  0.0526 -0.4471 -0.8271
 1637SOL    HW116547   3.461   3.145   8.767  0.1321  0.7531 -0.5015
 1637SOL    HW216548   3.354   3.198   8.674  0.2533  0.2121 -1.0964
 1638SOL     OW16549   2.113   1.569   4.603  0.2281 -0.1217 -0.1321
 1638SOL    HW116550   2.026   1.535   4.625  0.4099  1.0418  2.4052
 1638SOL    HW216551   2.096   1.663   4.602  2.5819  0.3203  1.3006
 1639SOL     OW16552   4.624   0.695   5.117  0.0411 -0.7356 -0.1146
 1639SOL    HW116553   4.544   0.727   5.159  1.2115  1.1632  0.7009
 1639SOL    HW216554   4.587   0.678   5.031 -0.0875 -0.1134 -0.1861
 1640SOL     OW16555   0.918   4.127   5.723 -0.6870  0.1108 -0.2394
 1640SOL    HW116556   0.829   4.158   5.736  0.2243  1.3744  2.9684
 1640SOL    HW216557   0.936   4.191   5.653  2.3935 -0.0799  0.3600
 1641SOL     OW16558   0.164   3.744  11.948  0.4159  0.1895  0.1325
 1641SOL    HW116559   0.191   3.759  12.038  0.4418  3.8249 -0.5050
 1641SOL    HW216560   0.077   3.710  11.970  0.1170  0.8619 -0.0143
 1642SOL     OW16561   0.615   0.281   2.515  0.7275  0.1647  0.0007
 1642SOL    HW116562   0.575   0.270   2.429 -2.6169 -1.9886  1.8561
 1642SOL    HW216563   0.696   0.232   2.502  1.2076  0.7657  0.7166
 1643SOL     OW16564   1.899   0.236   2.153 -0.7239  0.2090 -0.1491
 1643SOL    HW116565   1.910   0.174   2.225  0.3569  0.8448  0.2511
 1643SOL    HW216566   1.877   0.316   2.202 -1.4528  0.0104 -0.1577
 1644SOL     OW16567   0.245   4.476   6.430 -0.1400 -0.4828 -0.4158
 1644SOL    HW116568   0.330   4.432   6.435 -0.0150 -0.3237 -1.1229
 1644SOL    HW216569   0.225   4.432   6.347 -1.3368 -0.2561 -0.2420
 1645SOL     OW16570   2.149   0.727   1.295 -0.0647 -0.3837 -0.5888
 1645SOL    HW116571   2.171   0.794   1.359  1.0883 -0.2792 -1.0975
 1645SOL    HW216572   2.235   0.698   1.265  0.1594  0.8538 -1.1694
 1646SOL     OW16573   3.640   2.337  15.163  0.2354  0.1302  0.2459
 1646SOL    HW116574   3.630   2.397  15.238 -0.2064  0.0382  0.2612
 1646SOL    HW216575   3.685   2.396  15.102 -0.6431  1.2351  0.6671
 1647SOL     OW16576   0.927   2.041   6.783  0.3787  0.9506 -0.2212
 1647SOL    HW116577   0.870   1.992   6.723  0.2277  1.8261 -0.7908
 1647SOL    HW216578   0.886   2.031   6.869 -1.3422  1.5183 -0.9707
 1648SOL     OW16579   1.592   4.003   5.247 -0.2929  0.0214 -0.4606
 1648SOL    HW116580   1.680   3.966   5.238 -0.0863  0.1724  0.8674
 1648SOL    HW216581   1.550   3.941   5.306 -0.1858  0.8844  0.5321
 1649SOL     OW16582   4.252   0.191   9.931 -0.1943  0.3723 -0.6059
 1649SOL    HW116583   4.167   0.149   9.922 -0.6377  1.0661  0.3305
 1649SOL    HW216584   4.269   0.155  10.018  3.2964  1.4027 -0.8493
 1650SOL     OW16585   2.764   2.448   3.577 -0.5163  0.4971 -0.8668
 1650SOL    HW116586   2.812   2.523   3.541 -1.1852  2.9951  3.5371
 1650SOL    HW216587   2.680   2.493   3.588 -1.7508 -2.0393 -0.0701
 1651SOL     OW16588   3.967   1.971  13.622 -0.0386 -0.7506  0.6218
 1651SOL    HW116589   4.035   1.983  13.688  0.7665 -3.8321  0.3883
 1651SOL    HW216590   3.916   2.051  13.612  0.7989 -0.1080  1.4728
 1652SOL     OW16591   4.531   0.708   3.034 -0.5038 -0.0734  0.3470
 1652SOL    HW116592   4.597   0.757   2.985 -0.4057 -1.0675 -0.5196
 1652SOL    HW216593   4.586   0.671   3.104 -1.2733  0.1822  1.0881
 1653SOL     OW16594   4.340   4.095  14.995  0.0266  0.1069 -0.0958
 1653SOL    HW116595   4.317   4.002  14.998 -0.3624  0.1818 -0.7961
 1653SOL    HW216596   4.417   4.088  15.052  0.0920 -4.4744 -0.6896
 1654SOL     OW16597   1.239   3.682  16.351 -0.4436  0.2944  0.3521
 1654SOL    HW116598   1.195   3.645  16.275  0.7089 -2.0698  0.8226
 1654SOL    HW216599   1.323   3.702  16.310 -1.3949  1.6444 -0.9095
 1655SOL     OW16600   1.704   3.507   3.897 -0.5613 -0.1215  0.2498
 1655SOL    HW116601   1.720   3.598   3.923 -1.4142  0.5988 -1.7759
 1655SOL    HW216602   1.780   3.493   3.841  0.9860 -3.3428  3.1205
 1656SOL     OW16603   0.250   3.263  16.387  0.0616 -0.6687 -0.1497
 1656SOL    HW116604   0.252   3.169  16.404  0.8221 -0.8610 -1.2537
 1656SOL    HW216605   0.180   3.291  16.446  1.7213 -0.9298  1.9301
 1657SOL     OW16606   2.336   0.733   8.382  0.2218 -0.4078 -0.4959
 1657SOL    HW116607   2.299   0.645   8.392  1.2408 -0.6851  0.8527
 1657SOL    HW216608   2.261   0.779   8.345  0.2882 -0.1768 -0.3418
 1658SOL     OW16609   1.428   2.681   0.564  0.1000  0.7020 -0.3144
 1658SOL    HW116610   1.478   2.604   0.537 -0.5698  0.3629 -0.6048
 1658SOL    HW216611   1.385   2.650   0.644  0.0429  0.5987 -0.3854
 1659SOL     OW16612   1.657   2.270   7.784 -0.5735 -0.3684 -0.0525
 1659SOL    HW116613   1.580   2.213   7.782 -0.7737 -0.1172  0.5616
 1659SOL    HW216614   1.647   2.301   7.873  3.9395  1.6050 -0.2504
 1660SOL     OW16615   4.446   3.580  17.509  0.0981  0.3556  0.3876
 1660SOL    HW116616   4.486   3.506  17.555  1.2460  0.2191 -0.8328
 1660SOL    HW216617   4.495   3.574  17.427 -1.4107 -0.6754 -0.4146
 1661SOL     OW16618   1.283   3.161   4.009  0.0010 -0.3843 -0.1703
 1661SOL    HW116619   1.254   3.238   4.057 -0.1585 -1.5057  1.5164
 1661SOL    HW216620   1.378   3.170   4.014  0.2112 -1.6227 -1.7134
 1662SOL     OW16621   3.302   1.949   5.225  0.4923  0.3156 -0.2552
 1662SOL    HW116622   3.210   1.972   5.239  0.3708  0.9303 -2.0632
 1662SOL    HW216623   3.332   1.930   5.314 -2.6816  1.2248  1.0272
 1663SOL     OW16624   2.398   4.543  15.898 -0.4056 -0.1122 -0.3180
 1663SOL    HW116625   2.429   4.624  15.856 -1.5121  1.6000  2.1580
 1663SOL    HW216626   2.446   4.468  15.864 -1.3972 -1.1871  0.6832
 1664SOL     OW16627   3.094   0.434  17.304  0.2800  0.1620  0.4297
 1664SOL    HW116628   3.177   0.477  17.326 -0.2809  0.3168  2.1992
 1664SOL    HW216629   3.027   0.496  17.333 -0.4846 -0.2204 -0.5344
 1665SOL     OW16630   0.174   3.885   2.615 -0.1291  0.4643 -0.3670
 1665SOL    HW116631   0.225   3.902   2.536  1.9876  0.3194  0.9517
 1665SOL    HW216632   0.197   3.793   2.632 -1.3935  0.3227  0.5258
 1666SOL     OW16633   1.256   0.918   1.852  0.1108  0.0326 -0.0839
 1666SOL    HW116634   1.188   0.896   1.915  1.3857  0.7057  1.5336
 1666SOL    HW216635   1.223   0.874   1.774  0.0327 -1.3668  0.7278
 1667SOL     OW16636   1.691   2.688  10.378  0.5067 -0.4093 -0.1161
 1667SOL    HW116637   1.705   2.700  10.472  0.1015  0.1302 -0.1221
 1667SOL    HW216638   1.613   2.632  10.373 -1.0749  1.6162  1.4372
 1668SOL     OW16639   4.435   2.644   7.225 -0.1723 -0.5209  0.2693
 1668SOL    HW116640   4.477   2.566   7.187 -2.0727 -1.0190 -0.8023
 1668SOL    HW216641   4.458   2.641   7.318  0.3976  1.4354  0.1941
 1669SOL     OW16642   1.774   1.154  17.412 -0.6209 -0.2287  0.2488
 1669SOL    HW116643   1.771   1.060  17.427  0.1497 -0.3318 -0.2323
 1669SOL    HW216644   1.695   1.167  17.359 -0.6354 -0.7690  0.1451
 1670SOL     OW16645   1.034   2.717   4.070 -0.2043 -0.0741  0.4229
 1670SOL    HW116646   1.064   2.797   4.113 -1.0595  1.5725 -2.0808
 1670SOL    HW216647   1.110   2.659   4.078 -0.0035 -0.0727 -1.6136
 1671SOL     OW16648   0.316   4.078  16.761 -0.1491 -0.4884  0.8183
 1671SOL    HW116649   0.266   4.041  16.688  0.1516  0.0569  0.3302
 1671SOL    HW216650   0.384   4.012  16.775  0.1496 -0.7879 -1.9595
 1672SOL     OW16651   1.072   1.115  17.362 -0.8815  0.0949 -0.2087
 1672SOL    HW116652   1.164   1.140  17.346 -0.4879 -1.2966 -0.1749
 1672SOL    HW216653   1.072   1.028  17.320  2.6716 -0.4067  0.8269
 1673SOL     OW16654   3.000   1.434   6.899  0.0399  0.3448  0.3602
 1673SOL    HW116655   3.059   1.481   6.840  0.0510  0.5053  0.4998
 1673SOL    HW216656   2.967   1.507   6.952  0.9279  0.4267  0.7862
 1674SOL     OW16657   2.716   3.278   2.893 -0.1409 -0.3015 -0.4941
 1674SOL    HW116658   2.694   3.341   2.961 -0.7868 -0.3873 -0.6289
 1674SOL    HW216659   2.765   3.333   2.831 -0.6099 -1.0681 -1.5458
 1675SOL     OW16660   2.675   1.518   5.092  0.1884 -0.3209 -0.0754
 1675SOL    HW116661   2.623   1.439   5.078  1.1132 -1.1215  1.0510
 1675SOL    HW216662   2.699   1.505   5.184 -1.4114  0.1288  0.4079
 1676SOL     OW16663   0.727   1.745  15.003  0.0807  0.2446  0.3614
 1676SOL    HW116664   0.714   1.805  14.930  0.5902 -0.9514 -0.7148
 1676SOL    HW216665   0.822   1.734  15.005  0.2583  1.5347 -1.6980
 1677SOL     OW16666   0.260   1.603   3.433  0.2493  0.0080 -0.1363
 1677SOL    HW116667   0.287   1.631   3.345  1.5905  0.0786  0.3029
 1677SOL    HW216668   0.165   1.610   3.441  0.0271 -0.4627 -2.2349
 1678SOL     OW16669   3.393   2.317   7.421  0.2756  0.5190 -0.5532
 1678SOL    HW116670   3.344   2.388   7.379  0.0818  0.0226 -1.1765
 1678SOL    HW216671   3.482   2.337   7.390  0.1390 -0.2631 -1.4822
 1679SOL     OW16672   3.949   3.499   6.433  0.0560  0.0509 -0.1048
 1679SOL    HW116673   3.912   3.517   6.520  1.4845 -0.2980  0.5829
 1679SOL    HW216674   3.868   3.490   6.383  0.6775 -0.7389 -0.9783
 1680SOL     OW16675   4.001   0.684   7.469 -0.0198  0.6513  0.2568
 1680SOL    HW116676   3.959   0.726   7.394  2.2849  1.4425 -0.6183
 1680SOL    HW216677   4.012   0.595   7.437  1.7592  0.0988  2.3586
 1681SOL     OW16678   1.719   0.357   8.504  0.1098  0.2582 -0.1840
 1681SOL    HW116679   1.792   0.295   8.499 -2.3241 -2.4374 -1.7477
 1681SOL    HW216680   1.675   0.323   8.582 -0.9332  2.0273 -0.0023
 1682SOL     OW16681   1.286   0.694   7.530 -0.1361 -0.1960 -0.4112
 1682SOL    HW116682   1.348   0.698   7.457  1.9304  2.3235  1.4921
 1682SOL    HW216683   1.256   0.785   7.529 -0.3180 -0.2484  0.8549
 1683SOL     OW16684   3.424   1.830   2.907 -0.3315 -0.2145  0.7452
 1683SOL    HW116685   3.390   1.888   2.839  1.0089 -0.2300  0.0564
 1683SOL    HW216686   3.510   1.864   2.933  0.2386  0.1087 -1.5823
 1684SOL     OW16687   4.079   4.475   9.302  0.1560  0.0533 -0.6373
 1684SOL    HW116688   4.066   4.416   9.228 -0.5324  0.1893 -0.6337
 1684SOL    HW216689   4.054   4.559   9.264 -1.8550 -0.0562  0.4225
 1685SOL     OW16690   1.621   2.089  16.157  0.3097 -0.3851 -0.0740
 1685SOL    HW116691   1.571   2.136  16.090 -1.1057 -0.1648  1.1266
 1685SOL    HW216692   1.689   2.151  16.183  1.6407 -2.4520  1.3831
 1686SOL     OW16693   0.639   4.467   8.512  0.6985 -0.7731  0.5202
 1686SOL    HW116694   0.608   4.408   8.581  1.7207 -1.9344 -0.0221
 1686SOL    HW216695   0.606   4.420   8.435 -0.2854 -0.4517  0.7446
 1687SOL     OW16696   1.543   0.364   6.553 -0.4352 -0.4506 -0.2257
 1687SOL    HW116697   1.595   0.422   6.496 -2.0358  1.4914  0.2930
 1687SOL    HW216698   1.455   0.400   6.560 -0.0499  0.1379  1.5697
 1688SOL     OW16699   0.976   2.982   3.337 -0.1368 -0.1434  0.0014
 1688SOL    HW116700   1.059   3.030   3.343 -0.3640  0.3225 -0.6923
 1688SOL    HW216701   0.909   3.039   3.300 -0.0710  0.6336  1.0706
 1689SOL     OW16702   3.813   2.530   2.435 -0.5772 -0.4935 -0.4825
 1689SOL    HW116703   3.782   2.455   2.485  2.2399 -1.8605 -0.7931
 1689SOL    HW216704   3.735   2.561   2.388 -0.9936  1.7759  1.6697
 1690SOL     OW16705   3.286   0.638  17.234 -0.4217 -0.0044 -0.3434
 1690SOL    HW116706   3.308   0.617  17.325 -1.2038 -2.5603 -0.7429
 1690SOL    HW216707   3.368   0.678  17.205  0.0774 -0.3549  0.5575
 1691SOL     OW16708   2.777   3.564   5.656  0.0270 -0.5360 -0.1494
 1691SOL    HW116709   2.699   3.613   5.630  0.0223 -0.5574 -0.1756
 1691SOL    HW216710   2.745   3.478   5.630 -1.7211  0.0380  0.1527
 1692SOL     OW16711   4.646   0.367   7.458 -0.0956 -0.1143 -0.4829
 1692SOL    HW116712   4.626   0.368   7.552 -0.2540  0.8623 -0.5264
 1692SOL    HW216713   4.651   0.461   7.441 -0.8561 -0.6102 -3.4050
 1693SOL     OW16714   0.013   1.183  12.309  0.2634  0.2631 -0.2382
 1693SOL    HW116715   4.671   1.218  12.264 -0.9857  0.3233  1.8912
 1693SOL    HW216716   0.088   1.227  12.269 -1.1946  1.2202 -1.9148
 1694SOL     OW16717   3.988   1.883  14.262 -0.1948  0.0416  0.3536
 1694SOL    HW116718   4.068   1.877  14.209 -0.1075  0.3187  0.4544
 1694SOL    HW216719   3.978   1.791  14.289  0.4754 -0.3009 -0.5634
 1695SOL     OW16720   0.315   0.878   5.151 -0.3909 -0.0510 -0.1098
 1695SOL    HW116721   0.261   0.925   5.088 -0.8396  0.4587  0.6529
 1695SOL    HW216722   0.266   0.799   5.173 -2.4207  0.5927 -2.3131
 1696SOL     OW16723   0.566   0.904   2.287 -0.6947  0.4949  0.0400
 1696SOL    HW116724   0.575   0.998   2.296  0.5574  0.2087  1.7324
 1696SOL    HW216725   0.527   0.891   2.201  0.0680  0.0426 -0.2377
 1697SOL     OW16726   2.534   0.988   4.080 -0.6623  0.1092 -0.6683
 1697SOL    HW116727   2.456   1.042   4.069 -1.3375 -0.6209  0.4597
 1697SOL    HW216728   2.493   0.908   4.113  0.6783 -0.0398  0.6213
 1698SOL     OW16729   2.281   4.410  13.498  0.3679 -0.4355  0.3181
 1698SOL    HW116730   2.191   4.441  13.491  1.2007  2.1438  0.8987
 1698SOL    HW216731   2.336   4.468  13.445 -0.0066 -0.4679 -0.1085
 1699SOL     OW16732   3.701   2.262   2.151 -0.1117  0.0557 -0.0263
 1699SOL    HW116733   3.732   2.171   2.148  1.4466  0.6262 -0.9367
 1699SOL    HW216734   3.718   2.269   2.245  2.1878  0.1747 -0.4420
 1700SOL     OW16735   1.785   1.984  10.072 -0.2852  0.4681 -0.3658
 1700SOL    HW116736   1.783   2.078  10.091 -1.2887 -0.0469  2.0340
 1700SOL    HW216737   1.840   1.990   9.994 -0.3935 -1.2276 -0.5668
 1701SOL     OW16738   3.006   0.720  13.026 -0.2828  0.0883  0.1043
 1701SOL    HW116739   3.059   0.766  12.961 -0.2938 -0.5951 -0.3816
 1701SOL    HW216740   3.021   0.775  13.104 -2.2194  0.1120  0.4751
 1702SOL     OW16741   4.273   2.772  13.539  0.2430 -0.2189  0.3806
 1702SOL    HW116742   4.324   2.727  13.472  0.9167 -0.0256  0.7575
 1702SOL    HW216743   4.185   2.739  13.522 -0.7462  2.3977  0.4286
 1703SOL     OW16744   3.341   0.048  11.673  0.0486 -0.2965  0.3836
 1703SOL    HW116745   3.418   0.105  11.676 -0.8088  0.9058 -0.7800
 1703SOL    HW216746   3.368   4.699  11.711 -0.7781 -0.3505  0.8574
 1704SOL     OW16747   4.207   0.511   0.044  0.0485  0.1379  0.3760
 1704SOL    HW116748   4.285   0.498  17.730  1.1291 -0.8330  2.2098
 1704SOL    HW216749   4.183   0.595   0.005 -0.1665  0.2631  0.7771
 1705SOL     OW16750   0.382   2.540  13.264 -0.0467  0.0396 -0.5047
 1705SOL    HW116751   0.396   2.606  13.197 -0.6504 -1.3418 -1.9916
 1705SOL    HW216752   0.438   2.468  13.234  0.2308  0.5963 -1.3231
 1706SOL     OW16753   2.298   2.994   3.848  0.2864 -0.0727  0.1622
 1706SOL    HW116754   2.291   2.989   3.943  0.0021 -2.2030  0.0139
 1706SOL    HW216755   2.240   3.064   3.818 -0.2428 -0.2055  0.8617
 1707SOL     OW16756   3.626   0.409  17.291  0.0588 -0.3438  0.4785
 1707SOL    HW116757   3.609   0.473  17.361 -2.5925  0.9341 -1.3533
 1707SOL    HW216758   3.545   0.359  17.292  0.5494 -1.1375  1.4169
 1708SOL     OW16759   1.950   1.778   0.041 -0.1693 -0.2165  0.2286
 1708SOL    HW116760   1.984   1.691   0.016 -1.4758 -0.5379 -0.4269
 1708SOL    HW216761   1.884   1.748   0.102  0.6122 -1.1133  0.6300
 1709SOL     OW16762   4.531   1.744   2.949  0.2478  0.5913  0.4155
 1709SOL    HW116763   4.601   1.809   2.956 -0.8993  2.0163 -1.1854
 1709SOL    HW216764   4.530   1.740   2.853  1.3967  0.2661  0.4147
 1710SOL     OW16765   0.359   3.205  14.030  0.1412 -0.0055  0.2816
 1710SOL    HW116766   0.451   3.184  14.019  0.0971 -0.5730  0.9681
 1710SOL    HW216767   0.350   3.215  14.125 -1.7379 -2.6639  0.3895
 1711SOL     OW16768   1.004   3.815   6.965 -0.2879 -0.3381  0.1532
 1711SOL    HW116769   0.994   3.762   7.044 -0.0464  0.2747  0.5906
 1711SOL    HW216770   0.940   3.884   6.986  0.1584  0.3006 -0.5891
 1712SOL     OW16771   2.093   1.886   3.334  0.1356 -0.1415 -0.2010
 1712SOL    HW116772   2.138   1.887   3.419 -2.1946  1.8882  1.0384
 1712SOL    HW216773   2.067   1.794   3.338 -0.6659  0.0808 -0.2099
 1713SOL     OW16774   0.067   3.256  14.191 -0.6225  0.6396  0.3365
 1713SOL    HW116775   0.063   3.236  14.097  1.2888  0.7441  0.2461
 1713SOL    HW216776   0.040   3.348  14.189 -1.1750  0.4541 -0.9912
 1714SOL     OW16777   2.304   3.114  14.858  0.2542  0.1071 -0.1712
 1714SOL    HW116778   2.211   3.097  14.842  0.5762 -1.0544 -0.8142
 1714SOL    HW216779   2.296   3.176  14.931 -1.2310 -1.1663  0.7601
 1715SOL     OW16780   0.556   3.954   2.536 -0.3177  0.0515  0.4929
 1715SOL    HW116781   0.475   4.001   2.520 -0.0385  0.6605  0.8740
 1715SOL    HW216782   0.533   3.867   2.569  0.2453 -0.5226 -0.6199
 1716SOL     OW16783   1.864   4.713   4.106 -0.0513 -1.0053 -0.2253
 1716SOL    HW116784   1.873   0.041   4.035  0.4176  1.2654  1.8345
 1716SOL    HW216785   1.771   4.714   4.129 -0.0348 -0.9497 -0.1620
 1717SOL     OW16786   0.363   1.305   2.528  0.2558 -0.6013  0.7254
 1717SOL    HW116787   0.441   1.272   2.574  0.8899  0.9843  0.8073
 1717SOL    HW216788   0.316   1.222   2.522  0.5215 -0.6533 -0.5721
 1718SOL     OW16789   3.091   3.904  15.831 -0.3700  0.5321  0.3065
 1718SOL    HW116790   3.018   3.890  15.891 -2.0805  0.1895 -1.8748
 1718SOL    HW216791   3.046   3.957  15.765 -1.6218 -0.1571  0.6002
 1719SOL     OW16792   1.249   1.503   7.038  0.1445  0.3459 -0.2840
 1719SOL    HW116793   1.174   1.531   7.091 -0.0311 -2.2063  0.8541
 1719SOL    HW216794   1.259   1.413   7.071  1.4028  0.4932 -0.2896
 1720SOL     OW16795   0.513   3.699   6.231  0.5114 -0.2099  0.2923
 1720SOL    HW116796   0.513   3.648   6.150  1.5636  0.0414  0.1339
 1720SOL    HW216797   0.449   3.662   6.292  1.1345 -1.2155  0.3355
 1721SOL     OW16798   1.937   2.274   9.721 -0.6490 -0.2957 -0.2133
 1721SOL    HW116799   1.997   2.229   9.661 -0.0617  0.0461  0.1266
 1721SOL    HW216800   1.930   2.203   9.785  0.8553  0.4948  0.8183
 1722SOL     OW16801   2.331   0.357   8.067 -0.2004 -0.1558  0.5369
 1722SOL    HW116802   2.316   0.444   8.029 -2.1075 -0.2159  1.1641
 1722SOL    HW216803   2.303   0.306   7.991 -1.6539 -0.2009  1.1010
 1723SOL     OW16804   4.473   0.344  10.286  0.4732 -0.3382 -0.2475
 1723SOL    HW116805   4.493   0.333  10.193  2.4637  2.8170 -0.1808
 1723SOL    HW216806   4.412   0.272  10.306  0.2397  0.6379  2.5218
 1724SOL     OW16807   1.680   0.190   4.686  0.3109 -0.0296  0.1426
 1724SOL    HW116808   1.636   0.241   4.754  0.4279 -0.3889  0.4877
 1724SOL    HW216809   1.654   0.101   4.710  0.6842  0.2299  1.4657
 1725SOL     OW16810   1.087   0.280   1.055 -0.1984 -0.0053 -0.2978
 1725SOL    HW116811   1.162   0.273   0.996 -0.4352 -0.9665 -0.4847
 1725SOL    HW216812   1.118   0.231   1.131 -2.0350 -0.4348  0.1931
 1726SOL     OW16813   1.898   4.544   1.338  0.3461 -0.9537  0.0041
 1726SOL    HW116814   1.824   4.494   1.373  0.4540 -0.8745  0.3441
 1726SOL    HW216815   1.856   4.630   1.344  0.7025 -0.8023  0.2846
 1727SOL     OW16816   4.724   2.236   6.279 -0.7775  0.3193  0.5232
 1727SOL    HW116817   0.015   2.327   6.293 -1.4862  0.1347  2.9989
 1727SOL    HW216818   0.015   2.196   6.362 -2.4850 -3.8913 -0.9732
 1728SOL     OW16819   4.600   1.793  17.300  0.0046 -0.0763  0.2949
 1728SOL    HW116820   4.553   1.874  17.279 -0.5472 -0.4504  0.1008
 1728SOL    HW216821   4.690   1.810  17.273 -1.5836  1.6834 -3.8251
 1729SOL     OW16822   2.982   1.598   4.677 -0.1676  0.1033 -0.3006
 1729SOL    HW116823   2.963   1.506   4.664 -0.5060  0.1475 -0.1144
 1729SOL    HW216824   2.960   1.594   4.770 -0.8741  0.7166 -0.4462
 1730SOL     OW16825   0.226   2.856   6.614  0.4480 -0.4444 -0.1699
 1730SOL    HW116826   0.266   2.903   6.687  2.3109 -1.9469 -0.2201
 1730SOL    HW216827   0.290   2.786   6.599  1.4148  0.3451  0.2668
 1731SOL     OW16828   1.647   2.038   8.104  0.2967 -0.2125 -0.2833
 1731SOL    HW116829   1.595   2.075   8.033  0.0154  0.4659  0.2750
 1731SOL    HW216830   1.735   2.069   8.085  0.9916 -1.1850  1.3449
 1732SOL     OW16831   0.791   3.896  10.769  0.1693 -0.0949 -0.2865
 1732SOL    HW116832   0.747   3.959  10.827  0.3802 -0.8239  0.6774
 1732SOL    HW216833   0.806   3.823  10.829  1.7320  0.2228 -0.2948
 1733SOL     OW16834   2.423   1.501   3.095  0.0758 -0.2416  0.4807
 1733SOL    HW116835   2.387   1.423   3.138  1.2570 -2.0415 -1.7918
 1733SOL    HW216836   2.413   1.564   3.166  0.8738  1.3684 -0.8231
 1734SOL     OW16837   4.469   0.123   5.018  0.4399  1.1757  0.0083
 1734SOL    HW116838   4.504   0.161   4.937 -1.7604  0.4248 -1.3130
 1734SOL    HW216839   4.552   0.107   5.062 -0.9840 -0.7497  2.0488
 1735SOL     OW16840   3.417   4.289   3.480  0.1689 -0.9955  0.4557
 1735SOL    HW116841   3.502   4.321   3.449 -0.7626 -0.2149 -1.2394
 1735SOL    HW216842   3.358   4.327   3.415  0.2018 -0.4937  0.7202
 1736SOL     OW16843   3.305   4.208  12.601 -0.1001 -0.3491  0.1708
 1736SOL    HW116844   3.327   4.294  12.638 -1.7941 -0.5547  1.6120
 1736SOL    HW216845   3.229   4.187  12.655  1.1050 -1.3036  1.5245
 1737SOL     OW16846   3.929   4.455   3.339 -0.0604  0.4094  0.1364
 1737SOL    HW116847   4.023   4.473   3.336 -0.0310  0.1693 -0.4334
 1737SOL    HW216848   3.911   4.377   3.286 -1.9412  1.9465 -1.4947
 1738SOL     OW16849   1.386   3.732   8.144  0.1568 -0.1714 -0.6844
 1738SOL    HW116850   1.292   3.716   8.144  0.1432 -0.0792 -1.2146
 1738SOL    HW216851   1.410   3.706   8.233 -0.5142 -1.0960 -0.7736
 1739SOL     OW16852   1.169   2.583   4.873 -0.7439 -0.4813  0.1456
 1739SOL    HW116853   1.078   2.612   4.865 -0.5045  0.0004 -0.8431
 1739SOL    HW216854   1.179   2.572   4.967  0.8909 -1.0585 -0.0884
 1740SOL     OW16855   3.469   1.322   7.451 -0.4408  0.1094 -0.3028
 1740SOL    HW116856   3.428   1.339   7.536  0.6205  1.7665 -0.1113
 1740SOL    HW216857   3.535   1.391   7.454  1.4007 -1.6488  0.4846
 1741SOL     OW16858   1.880   1.532   5.585  0.5472 -0.7286  0.0912
 1741SOL    HW116859   1.810   1.483   5.542 -0.3601  0.8478 -0.2297
 1741SOL    HW216860   1.882   1.475   5.661  0.8692 -0.6444  0.1441
 1742SOL     OW16861   1.256   1.418  10.683  0.1944  0.4841  0.3697
 1742SOL    HW116862   1.276   1.431  10.590 -0.5461 -1.9821 -0.1527
 1742SOL    HW216863   1.200   1.494  10.693 -0.0044  0.6083 -1.6033
 1743SOL     OW16864   3.475   1.711   3.333  0.1696 -0.0305 -0.2800
 1743SOL    HW116865   3.510   1.790   3.290  1.1299  0.3047  1.1134
 1743SOL    HW216866   3.385   1.719   3.302  0.1447  0.3950 -0.0962
 1744SOL     OW16867   4.428   1.517   4.670  0.0035 -0.3745 -0.6327
 1744SOL    HW116868   4.361   1.558   4.616 -1.0391  1.5756  2.1168
 1744SOL    HW216869   4.435   1.583   4.739 -0.7954 -2.0418  1.0479
 1745SOL     OW16870   3.652   2.998  10.529  0.5545  0.8224 -0.3588
 1745SOL    HW116871   3.575   2.979  10.475  0.1240 -0.5653  0.7535
 1745SOL    HW216872   3.653   2.922  10.587  2.3573  0.3608 -0.9926
 1746SOL     OW16873   2.887   3.368  13.119 -0.1054 -0.5350 -0.2297
 1746SOL    HW116874   2.897   3.408  13.032  0.4648  0.4670  0.2891
 1746SOL    HW216875   2.804   3.405  13.146  2.0682  2.1140  2.8211
 1747SOL     OW16876   3.029   2.055  10.433 -0.8020 -0.5295  0.3247
 1747SOL    HW116877   3.051   2.029  10.522  0.6302 -3.4064 -0.8587
 1747SOL    HW216878   2.955   2.111  10.456 -1.1337 -0.4360 -0.9828
 1748SOL     OW16879   4.529   3.875   9.764 -0.6668  0.2004  0.5526
 1748SOL    HW116880   4.601   3.824   9.726 -0.6334  0.3914  0.3612
 1748SOL    HW216881   4.476   3.872   9.685  0.5435  0.9771 -0.2822
 1749SOL     OW16882   1.299   3.765  11.827 -0.3286 -0.4542  0.3589
 1749SOL    HW116883   1.350   3.686  11.811  0.7216 -0.0907  1.9297
 1749SOL    HW216884   1.209   3.736  11.839 -0.9029  1.0167 -0.2847
 1750SOL     OW16885   3.467   2.013   7.294  0.4804  0.2466 -0.3657
 1750SOL    HW116886   3.414   2.009   7.214  0.2554  1.2205 -0.2678
 1750SOL    HW216887   3.529   2.079   7.262 -1.2917  0.7706 -2.6929
 1751SOL     OW16888   1.541   0.083   4.448  0.6114  0.4640  0.5810
 1751SOL    HW116889   1.536   0.159   4.506  0.8508  1.6325 -0.9278
 1751SOL    HW216890   1.501   0.012   4.498  0.3243  0.1780 -0.0634
 1752SOL     OW16891   1.472   4.620  10.979 -0.0638  0.4863  0.4656
 1752SOL    HW116892   1.563   4.630  11.008 -0.0588 -2.1185  1.2813
 1752SOL    HW216893   1.465   4.527  10.962  1.9660  0.3688  0.2771
 1753SOL     OW16894   3.566   3.136   8.918 -0.4160 -0.2507  0.6404
 1753SOL    HW116895   3.563   3.211   8.978  2.8228  0.9108 -0.6304
 1753SOL    HW216896   3.576   3.065   8.981  1.0574 -1.3136 -0.7908
 1754SOL     OW16897   2.555   4.649   2.828 -0.0309  0.0567 -0.0571
 1754SOL    HW116898   2.639   4.612   2.800 -1.1369 -2.5698  0.0225
 1754SOL    HW216899   2.578   4.674   2.917  2.6169 -2.3227 -0.0341
 1755SOL     OW16900   0.138   2.117  11.403  0.1019 -0.0876 -0.1190
 1755SOL    HW116901   0.182   2.069  11.333  1.6198 -1.5658  1.8551
 1755SOL    HW216902   0.063   2.062  11.425 -0.0091  1.1093  2.4949
 1756SOL     OW16903   3.369   3.636   7.347 -0.1734  0.3135 -0.1758
 1756SOL    HW116904   3.308   3.633   7.420  0.3017  0.0251  0.2019
 1756SOL    HW216905   3.419   3.708   7.386  0.1032  0.0629 -0.0692
 1757SOL     OW16906   4.611   0.924   6.236 -0.1962 -0.4774  0.0600
 1757SOL    HW116907   4.611   0.850   6.177  1.6132  0.7171 -1.4290
 1757SOL    HW216908   4.623   0.884   6.322  2.2707 -0.6969 -0.3694
 1758SOL     OW16909   2.752   2.304   0.430 -0.8974 -0.4372 -0.0883
 1758SOL    HW116910   2.754   2.210   0.410 -1.4630 -0.3708 -0.4587
 1758SOL    HW216911   2.845   2.327   0.435 -0.7165 -1.6309  2.0509
 1759SOL     OW16912   0.069   4.575  10.012  0.2505 -0.1652 -0.3467
 1759SOL    HW116913   0.059   4.614   9.925 -0.2817 -0.1346 -0.2665
 1759SOL    HW216914   0.088   4.658  10.056  2.5902 -0.8766 -0.0099
 1760SOL     OW16915   1.324   4.721   1.150  0.5368 -0.1674  0.3914
 1760SOL    HW116916   1.344   4.733   1.243  1.2860 -1.8866  0.4451
 1760SOL    HW216917   1.334   0.076   1.119  0.1085  0.8575  3.1723
 1761SOL     OW16918   3.790   1.313   9.252 -0.2690 -0.2026 -0.2573
 1761SOL    HW116919   3.869   1.346   9.209  0.5481 -0.1262  1.2968
 1761SOL    HW216920   3.818   1.228   9.285 -0.6599  0.0160  0.6216
 1762SOL     OW16921   3.748   4.019   3.203  0.0165 -0.0497  0.0023
 1762SOL    HW116922   3.678   4.067   3.249  1.0379  1.8032 -0.3797
 1762SOL    HW216923   3.810   4.014   3.276 -0.5312  1.8372  0.6051
 1763SOL     OW16924   4.393   1.373   2.259  0.0027 -0.1356 -0.0908
 1763SOL    HW116925   4.335   1.321   2.204  2.0467 -2.6181  0.0840
 1763SOL    HW216926   4.470   1.390   2.204  0.2722 -0.7593  0.0926
 1764SOL     OW16927   0.537   1.058   7.729 -0.0486  0.1375  0.3966
 1764SOL    HW116928   0.473   0.996   7.696  0.5128 -0.2241 -0.0144
 1764SOL    HW216929   0.609   0.995   7.735 -0.5843 -0.6453 -1.4351
 1765SOL     OW16930   2.680   0.446  11.465 -0.2897  0.9663  0.2446
 1765SOL    HW116931   2.756   0.491  11.502  1.0384  0.4513 -1.8745
 1765SOL    HW216932   2.634   0.519  11.422  0.0589  1.7572  1.2023
 1766SOL     OW16933   1.174   4.114   3.677 -0.3166  0.0763  0.0357
 1766SOL    HW116934   1.126   4.040   3.640 -0.4352  0.5601 -0.7672
 1766SOL    HW216935   1.111   4.155   3.736  0.7750 -0.4662  1.6142
 1767SOL     OW16936   3.560   0.909   0.520  0.0991  0.5574 -0.3590
 1767SOL    HW116937   3.511   0.955   0.588  1.0685  1.3422 -0.1918
 1767SOL    HW216938   3.498   0.867   0.460  0.0932  0.7324 -0.4744
 1768SOL     OW16939   0.057   1.585   4.126  0.1105  0.3052 -0.1039
 1768SOL    HW116940   0.041   1.545   4.041 -0.0469  1.0050 -0.4071
 1768SOL    HW216941   0.042   1.679   4.113  2.1718  0.6731  0.1901
 1769SOL     OW16942   3.587   1.958   3.291  0.6129 -0.1063  0.0991
 1769SOL    HW116943   3.493   1.977   3.289  0.6181 -0.0759  0.1422
 1769SOL    HW216944   3.609   2.007   3.370 -1.5105 -1.2664  1.4123
 1770SOL     OW16945   3.636   4.692   9.332 -0.2799 -0.5239  0.0162
 1770SOL    HW116946   3.639   4.633   9.257 -1.6611 -1.5312  0.7545
 1770SOL    HW216947   3.585   0.032   9.303  0.0659 -0.5381 -0.6377
 1771SOL     OW16948   3.679   2.788   1.997 -0.3163  0.3387 -0.6985
 1771SOL    HW116949   3.674   2.693   2.004 -1.1277  0.4670  0.4491
 1771SOL    HW216950   3.771   2.807   2.014 -0.5015  0.7376 -0.1281
 1772SOL     OW16951   0.870   1.335  12.585  0.2651  0.2073  0.2891
 1772SOL    HW116952   0.942   1.283  12.620 -0.0943 -0.1237  0.5367
 1772SOL    HW216953   0.838   1.277  12.515 -0.9961 -2.8173  3.3424
 1773SOL     OW16954   0.412   2.553   2.878  0.4264 -0.2646  0.1869
 1773SOL    HW116955   0.439   2.629   2.930 -0.1640 -1.0778  1.7013
 1773SOL    HW216956   0.418   2.487   2.948 -1.0016 -0.2865  0.2819
 1774SOL     OW16957   1.492   0.667   2.766  0.2350  0.2008 -0.1879
 1774SOL    HW116958   1.434   0.737   2.738  0.1566  0.5418  0.8488
 1774SOL    HW216959   1.554   0.662   2.693  1.1598  1.4654  0.5133
 1775SOL     OW16960   4.317   3.534  15.886  0.4414 -0.4483 -0.3778
 1775SOL    HW116961   4.279   3.601  15.829  1.8782  0.9595  0.2992
 1775SOL    HW216962   4.250   3.517  15.952  0.5750 -0.1478 -0.1618
 1776SOL     OW16963   2.496   2.917  12.807 -0.2195 -0.5937  0.7875
 1776SOL    HW116964   2.542   2.992  12.770  1.2677 -2.5157 -1.2171
 1776SOL    HW216965   2.561   2.847  12.807  0.6926  0.2673 -0.4902
 1777SOL     OW16966   2.196   0.338   4.639  0.2574 -0.0381 -0.2277
 1777SOL    HW116967   2.236   0.403   4.581 -1.2803  1.2682  0.1489
 1777SOL    HW216968   2.121   0.391   4.668 -1.2110 -2.0986 -0.3115
 1778SOL     OW16969   0.933   0.850   2.853  0.6379 -0.1722  0.0844
 1778SOL    HW116970   0.890   0.766   2.838  0.0580  0.0181  0.6691
 1778SOL    HW216971   0.882   0.896   2.786 -0.1339 -0.6976  0.3164
 1779SOL     OW16972   0.077   2.766   7.022  0.1452  0.9228 -0.0554
 1779SOL    HW116973   0.117   2.694   6.973  0.2257  1.8182 -1.3102
 1779SOL    HW216974   0.069   2.838   6.959  1.3019 -0.1348 -1.4071
 1780SOL     OW16975   4.032   2.734   8.062  0.7732  0.9807 -0.3667
 1780SOL    HW116976   4.098   2.802   8.046  0.8141  0.5686 -1.9832
 1780SOL    HW216977   3.983   2.776   8.133 -2.0393 -1.8938 -0.6319
 1781SOL     OW16978   2.029   2.196   6.251  0.2441 -0.7669  0.7381
 1781SOL    HW116979   1.993   2.194   6.340 -0.2543 -0.7903  0.5354
 1781SOL    HW216980   1.985   2.119   6.215  0.3956 -1.2288  1.5529
 1782SOL     OW16981   2.412   4.126  14.271 -0.2896 -0.1705  0.2550
 1782SOL    HW116982   2.328   4.119  14.225 -0.2871 -0.6793  0.3294
 1782SOL    HW216983   2.468   4.091  14.202 -0.6044 -1.3135  0.5766
 1783SOL     OW16984   3.508   1.119   7.267  0.2793 -0.0696  0.3405
 1783SOL    HW116985   3.515   1.205   7.309 -0.0955  1.3021 -2.4268
 1783SOL    HW216986   3.431   1.130   7.212  0.2401 -0.7322  0.2590
 1784SOL     OW16987   2.092   1.017  12.825  0.5856  0.9103 -0.3091
 1784SOL    HW116988   2.148   1.089  12.855 -1.0339  1.1720  2.0770
 1784SOL    HW216989   2.151   0.942  12.828  1.8257  1.9647  2.0466
 1785SOL     OW16990   4.351   3.626  13.628 -0.1421 -0.5866 -0.8387
 1785SOL    HW116991   4.404   3.677  13.689  0.6781 -3.2396  0.6505
 1785SOL    HW216992   4.317   3.563  13.691 -0.2510  0.1527 -0.1675
 1786SOL     OW16993   4.684   1.237   4.262 -0.0550  0.0923 -0.6092
 1786SOL    HW116994   4.610   1.231   4.202 -0.7502  0.8069  0.1807
 1786SOL    HW216995   0.025   1.206   4.212 -1.0066  0.3109 -2.2125
 1787SOL     OW16996   0.234   2.950   7.805  0.2460  0.1297 -0.4625
 1787SOL    HW116997   0.216   2.857   7.793 -0.4627  0.0221  1.4497
 1787SOL    HW216998   0.314   2.962   7.754 -0.3564  2.6738 -0.7816
 1788SOL     OW16999   1.945   0.893   2.572 -0.2908  0.5120  0.1775
 1788SOL    HW117000   2.036   0.893   2.541 -0.5224  1.6476 -0.4974
 1788SOL    HW217001   1.920   0.982   2.547  3.0764  1.5161  0.3600
 1789SOL     OW17002   2.608   4.616  11.549 -0.0914  0.0575 -0.3481
 1789SOL    HW117003   2.534   4.597  11.606  0.9369  0.0393  0.9800
 1789SOL    HW217004   2.657   4.534  11.558 -2.0576 -0.9139  1.5967
 1790SOL     OW17005   3.272   1.191   5.821  0.0539  0.1179 -0.1730
 1790SOL    HW117006   3.247   1.265   5.876 -0.5366  1.9506 -2.8776
 1790SOL    HW217007   3.252   1.230   5.735 -0.1504  1.0794  0.3106
 1791SOL     OW17008   1.748   3.218  16.390  0.0877  0.6341  0.4889
 1791SOL    HW117009   1.666   3.189  16.430  0.8334 -1.2382  0.6391
 1791SOL    HW217010   1.727   3.311  16.378 -1.0518  0.4395  1.0290
 1792SOL     OW17011   3.790   2.270  13.509 -0.0897  0.6762  0.0813
 1792SOL    HW117012   3.756   2.228  13.588  1.4146 -1.6217 -0.4893
 1792SOL    HW217013   3.712   2.320  13.486  0.1405  0.2792 -1.5223
 1793SOL     OW17014   3.452   1.483   7.670 -0.2655  0.2693  0.3415
 1793SOL    HW117015   3.384   1.499   7.736 -1.4664 -0.9505 -0.6007
 1793SOL    HW217016   3.516   1.438   7.724 -0.2534  0.2460  0.3074
 1794SOL     OW17017   2.813   3.432  16.459 -0.3033  0.4964 -0.5019
 1794SOL    HW117018   2.746   3.369  16.485 -0.0243  0.3976 -0.0398
 1794SOL    HW217019   2.886   3.397  16.510 -1.6762 -3.1880 -1.0943
 1795SOL     OW17020   1.362   1.144   1.251 -0.5287  0.0126  0.0700
 1795SOL    HW117021   1.288   1.164   1.193  1.6015  0.8472 -2.3310
 1795SOL    HW217022   1.418   1.105   1.184  0.7637  0.8601  0.6794
 1796SOL     OW17023   3.534   0.321  11.941  0.5254  0.8270  0.6273
 1796SOL    HW117024   3.520   0.412  11.916 -1.9866 -0.0831 -1.1449
 1796SOL    HW217025   3.566   0.335  12.031  2.8338  0.3617 -0.1218
 1797SOL     OW17026   3.554   1.178   3.680 -0.0896  0.1491 -0.1690
 1797SOL    HW117027   3.532   1.208   3.592  0.2568 -0.1995 -0.3780
 1797SOL    HW217028   3.530   1.249   3.740 -1.2247 -0.3878  0.0236
 1798SOL     OW17029   3.049   1.910   8.534  0.1279 -0.2909 -0.1382
 1798SOL    HW117030   3.107   1.960   8.591 -0.6233  2.5868 -1.9052
 1798SOL    HW217031   3.082   1.934   8.448 -0.6664 -0.7448 -0.5718
 1799SOL     OW17032   0.583   3.069  13.358  0.0632  0.1661  0.1384
 1799SOL    HW117033   0.676   3.082  13.344 -0.0594 -0.3274 -1.1489
 1799SOL    HW217034   0.585   3.002  13.426 -1.3332  0.1045  0.1333
 1800SOL     OW17035   2.474   2.636   4.042  0.2861 -0.3379  0.3711
 1800SOL    HW117036   2.398   2.580   4.059  1.0502 -1.3135  0.5897
 1800SOL    HW217037   2.475   2.701   4.111 -0.0330  0.2360 -0.1612
 1801SOL     OW17038   1.820   3.181   1.125  0.2809 -0.5494 -0.2666
 1801SOL    HW117039   1.732   3.214   1.102 -0.7885 -2.6715  0.8368
 1801SOL    HW217040   1.808   3.093   1.090  0.4542  0.3293 -2.5744
 1802SOL     OW17041   1.995   4.508  17.106 -0.5482 -0.0411  0.1117
 1802SOL    HW117042   1.913   4.538  17.066  0.5401  0.0624 -2.0391
 1802SOL    HW217043   1.960   4.459  17.181 -0.8452  0.5218  0.3407
 1803SOL     OW17044   0.328   3.947   6.016  0.1764 -0.3309  0.7979
 1803SOL    HW117045   0.415   3.949   5.976 -0.6612  1.1679 -0.9744
 1803SOL    HW217046   0.291   4.029   5.984  1.6524 -0.7713 -2.0042
 1804SOL     OW17047   2.674   4.356   8.857  0.1983  0.2027  0.1670
 1804SOL    HW117048   2.719   4.320   8.781  2.4011  1.6671  0.7498
 1804SOL    HW217049   2.742   4.395   8.913  1.1729 -0.6002 -0.4439
 1805SOL     OW17050   0.544   4.131   8.911  0.3511  0.2439 -0.0044
 1805SOL    HW117051   0.575   4.146   9.000 -1.5354 -0.1449  0.7175
 1805SOL    HW217052   0.451   4.146   8.928  0.1609  0.1612 -0.9781
 1806SOL     OW17053   0.058   3.041   6.140 -0.0609 -0.2223  0.3022
 1806SOL    HW117054   0.087   3.073   6.226 -3.6524  1.8406  0.7592
 1806SOL    HW217055   4.703   3.017   6.164 -0.2295  0.5346  0.4193
 1807SOL     OW17056   1.813   3.923  14.475 -0.0514 -0.2851  0.0911
 1807SOL    HW117057   1.727   3.940  14.512 -0.6787 -4.5436  0.5740
 1807SOL    HW217058   1.853   4.003  14.511  0.2581  0.8523 -2.8051
 1808SOL     OW17059   4.627   1.773   0.247 -0.6162  0.0084  0.2682
 1808SOL    HW117060   4.634   1.831   0.323  0.1303 -0.4640  0.5540
 1808SOL    HW217061   4.618   1.683   0.279 -3.7317  0.8963  1.9697
 1809SOL     OW17062   3.487   4.408   5.616  1.0257 -0.2135 -0.0166
 1809SOL    HW117063   3.392   4.406   5.600  1.0759  0.7578 -0.4173
 1809SOL    HW217064   3.488   4.365   5.702 -0.2901 -1.2024 -0.4770
 1810SOL     OW17065   0.672   2.191   4.263 -0.9293  0.1083 -0.1211
 1810SOL    HW117066   0.678   2.197   4.359 -1.1298 -2.2327  0.0266
 1810SOL    HW217067   0.755   2.151   4.238 -0.9366 -1.5738  2.4771
 1811SOL     OW17068   2.606   4.341   2.715 -0.0170  0.1546  0.0663
 1811SOL    HW117069   2.678   4.397   2.745  0.4256 -0.1231 -0.4805
 1811SOL    HW217070   2.547   4.343   2.790 -0.2308 -0.6932 -0.0825
 1812SOL     OW17071   4.310   0.518   9.164 -0.1368 -0.0587 -0.1832
 1812SOL    HW117072   4.372   0.452   9.194 -0.1261 -0.0048 -0.0874
 1812SOL    HW217073   4.362   0.597   9.153 -1.1582  0.7343  0.5730
 1813SOL     OW17074   0.993   0.034   7.642  0.7025 -0.7770  0.1965
 1813SOL    HW117075   1.003   4.677   7.619 -1.3403 -0.8419 -0.4400
 1813SOL    HW217076   1.037   0.044   7.726  0.8200  2.6136 -0.2509
 1814SOL     OW17077   3.634   0.605   5.385  0.0967  0.1565  0.4201
 1814SOL    HW117078   3.674   0.681   5.427  2.3607 -2.1534  2.3904
 1814SOL    HW217079   3.657   0.541   5.452 -2.3740 -1.3167 -0.1403
 1815SOL     OW17080   1.684   2.297   2.636 -0.4645  0.3185 -0.1507
 1815SOL    HW117081   1.686   2.202   2.641  0.6193  0.3023 -0.8724
 1815SOL    HW217082   1.707   2.315   2.545 -0.0406  1.8261  0.2503
 1816SOL     OW17083   1.550   1.095  10.035 -0.3536 -0.2391 -0.1563
 1816SOL    HW117084   1.461   1.129  10.037 -1.7405 -3.9224  0.7629
 1816SOL    HW217085   1.602   1.169  10.005  1.9758 -0.6051  3.0090
 1817SOL     OW17086   3.753   1.411   2.503  0.0134  0.0481  1.2371
 1817SOL    HW117087   3.707   1.492   2.528 -1.4202 -0.7747  1.2843
 1817SOL    HW217088   3.840   1.433   2.535 -0.2514  1.7556  0.8004
 1818SOL     OW17089   0.421   1.733   1.603 -0.1411 -0.1132 -0.9968
 1818SOL    HW117090   0.514   1.732   1.581 -0.7834  1.4080 -3.7298
 1818SOL    HW217091   0.423   1.801   1.671 -2.2774 -0.1929 -0.8477
 1819SOL     OW17092   2.062   0.147   9.731  0.2795 -0.0028  0.0970
 1819SOL    HW117093   1.980   0.183   9.698 -0.5829 -1.2446  0.9134
 1819SOL    HW217094   2.057   0.057   9.700 -2.2489  0.4023 -0.6738
 1820SOL     OW17095   2.096   0.433   7.477  0.1522  0.0479 -0.0431
 1820SOL    HW117096   2.119   0.512   7.526  0.8372  0.1601 -0.5358
 1820SOL    HW217097   2.135   0.450   7.392  0.6811 -1.0426 -0.0290
 1821SOL     OW17098   1.487   1.927   3.828  0.1922 -0.1793 -1.0644
 1821SOL    HW117099   1.489   1.941   3.734  0.4644  2.1012 -0.7057
 1821SOL    HW217100   1.565   1.972   3.861 -0.9744  0.3451  0.9522
 1822SOL     OW17101   2.835   3.982   5.328 -0.1699 -0.6322 -0.4031
 1822SOL    HW117102   2.888   4.015   5.255 -0.0366  3.0373  1.3461
 1822SOL    HW217103   2.866   3.894   5.349  0.4009 -1.0582 -3.0410
 1823SOL     OW17104   3.464   4.722   0.352  0.2015  0.3783  0.2299
 1823SOL    HW117105   3.522   0.056   0.320  1.1439 -0.5978 -0.1589
 1823SOL    HW217106   3.408   4.715   0.274 -0.5097 -0.1089  0.7850
 1824SOL     OW17107   0.287   3.339   2.572  0.3202  0.0037 -0.2727
 1824SOL    HW117108   0.235   3.270   2.613  1.3028 -1.3353 -1.2756
 1824SOL    HW217109   0.321   3.284   2.501  2.1719 -1.2248  1.5578
 1825SOL     OW17110   0.385   2.183  14.481  1.0173 -0.2655 -0.4575
 1825SOL    HW117111   0.346   2.251  14.536  2.2558 -0.2233  0.3595
 1825SOL    HW217112   0.340   2.190  14.397 -0.4995 -2.7975  0.1370
 1826SOL     OW17113   0.474   2.275   4.481  0.3092 -0.0193 -0.3825
 1826SOL    HW117114   0.403   2.302   4.423  1.0496  0.7230 -0.9341
 1826SOL    HW217115   0.538   2.344   4.463  0.5253  0.1072  0.8865
 1827SOL     OW17116   3.767   0.407   8.727 -0.0739  0.3806  0.4698
 1827SOL    HW117117   3.814   0.481   8.766  0.7143 -0.4346  1.0342
 1827SOL    HW217118   3.832   0.354   8.681  0.6232  2.8211 -1.3500
 1828SOL     OW17119   0.270   3.881   8.370  0.0144  0.0736 -0.4250
 1828SOL    HW117120   0.310   3.929   8.443 -0.5551  0.3446 -0.2943
 1828SOL    HW217121   0.312   3.796   8.379  0.5746  0.5628  1.5371
 1829SOL     OW17122   1.546   3.134   1.915  0.5391  0.7673 -0.3735
 1829SOL    HW117123   1.620   3.189   1.888  2.3661 -2.0700 -1.1774
 1829SOL    HW217124   1.557   3.054   1.863 -5.3367  0.4644 -1.1712
 1830SOL     OW17125   3.015   4.165   1.268  0.2170  0.0302 -0.2012
 1830SOL    HW117126   3.080   4.234   1.283  0.5083 -1.0642  3.6265
 1830SOL    HW217127   3.044   4.117   1.191  0.0576  3.5800 -2.4954
 1831SOL     OW17128   2.571   0.069   9.346  0.4922  0.0849  0.3330
 1831SOL    HW117129   2.493   0.014   9.337 -0.1926  1.0835  0.1564
 1831SOL    HW217130   2.558   0.133   9.416  1.6149 -0.7981  1.3272
 1832SOL     OW17131   0.613   3.153   5.299 -0.0125 -0.0072  0.3608
 1832SOL    HW117132   0.534   3.174   5.249  1.7819  0.2364 -2.3515
 1832SOL    HW217133   0.586   3.063   5.318 -1.0395  0.0584 -0.7763
 1833SOL     OW17134   1.401   4.011   3.440  0.0658  0.1132 -0.5874
 1833SOL    HW117135   1.474   4.061   3.404  0.2542 -0.0644 -0.4489
 1833SOL    HW217136   1.336   4.081   3.446  0.3156  0.3949 -1.1747
 1834SOL     OW17137   2.745   0.083   6.760 -0.3394 -0.0757 -0.2195
 1834SOL    HW117138   2.723   0.049   6.673 -0.3716 -1.3573  0.2925
 1834SOL    HW217139   2.684   0.029   6.809 -0.7327  0.4153 -0.1725
 1835SOL     OW17140   3.173   1.670   0.430  0.0777 -0.6244  0.5803
 1835SOL    HW117141   3.116   1.709   0.363  1.4627 -0.5189 -0.5494
 1835SOL    HW217142   3.248   1.729   0.434  0.4183 -1.0724  0.7531
 1836SOL     OW17143   1.492   1.801   5.609  0.0236  0.3917 -0.3470
 1836SOL    HW117144   1.579   1.792   5.649 -0.4976 -0.0536  0.6616
 1836SOL    HW217145   1.467   1.710   5.596 -0.3485  0.4834 -0.2588
 1837SOL     OW17146   3.644   2.050   6.515 -0.6794 -0.5212  0.6356
 1837SOL    HW117147   3.683   1.995   6.446  1.5066  1.1525  0.5394
 1837SOL    HW217148   3.726   2.055   6.565 -0.3893  0.5165  0.0614
 1838SOL     OW17149   1.026   4.220   5.947  0.0374  0.5444 -0.4184
 1838SOL    HW117150   0.981   4.184   5.870  1.2595 -2.5234  0.3092
 1838SOL    HW217151   1.088   4.264   5.889  1.3633  1.1135  1.4434
 1839SOL     OW17152   0.470   3.639   2.798  0.6541  0.1345 -0.1831
 1839SOL    HW117153   0.408   3.687   2.742 -0.2389  0.6970  1.2813
 1839SOL    HW217154   0.537   3.706   2.807  0.4877  0.3856 -0.7920
 1840SOL     OW17155   1.313   3.017   3.620  0.7597  0.4279  0.0886
 1840SOL    HW117156   1.339   2.930   3.590  0.5283  0.4358 -0.1298
 1840SOL    HW217157   1.230   2.988   3.660  0.5107  1.6996  0.5118
 1841SOL     OW17158   3.769   1.113   7.126 -0.1266  0.1016  0.0773
 1841SOL    HW117159   3.701   1.104   7.193  0.9477 -0.1598  1.1419
 1841SOL    HW217160   3.848   1.131   7.178 -0.2946 -1.2607  0.8133
 1842SOL     OW17161   1.528   0.824   5.870  0.4726 -0.0453  0.3839
 1842SOL    HW117162   1.537   0.909   5.828 -2.0228  0.0463  0.0266
 1842SOL    HW217163   1.567   0.844   5.955  1.5434 -2.1207  0.3676
 1843SOL     OW17164   2.226   0.635   7.644  0.0343 -0.2617  0.1038
 1843SOL    HW117165   2.270   0.699   7.701 -1.5308 -0.6874  1.7870
 1843SOL    HW217166   2.222   0.694   7.569 -2.4414  0.2698  0.6707
 1844SOL     OW17167   2.233   0.447   6.929 -0.1769 -0.5424  0.4257
 1844SOL    HW117168   2.230   0.355   6.904  0.5293 -0.8703  1.5555
 1844SOL    HW217169   2.318   0.438   6.973  0.4198 -1.0670 -0.8329
 1845SOL     OW17170   3.136   3.141   7.423  0.1287  0.7051  0.3831
 1845SOL    HW117171   3.098   3.059   7.455  2.3024  0.6807  2.9554
 1845SOL    HW217172   3.164   3.181   7.506  1.7513  0.5212 -0.0764
 1846SOL     OW17173   1.565   4.677   0.123 -0.0461  0.6506 -0.0374
 1846SOL    HW117174   1.542   4.670   0.215  1.0189 -2.4080 -0.0027
 1846SOL    HW217175   1.657   4.650   0.116 -0.6064 -1.6377  1.5424
 1847SOL     OW17176   3.235   3.852  16.790  0.3090  0.1956  0.3068
 1847SOL    HW117177   3.215   3.877  16.880  1.7534  1.2495  0.3295
 1847SOL    HW217178   3.237   3.757  16.799 -0.3963  0.0937 -0.5474
 1848SOL     OW17179   3.536   1.329   8.976  0.2999 -0.0723  0.0706
 1848SOL    HW117180   3.483   1.326   8.896 -1.0047 -1.7112  0.9844
 1848SOL    HW217181   3.619   1.363   8.943  0.2607  1.0944  1.1839
 1849SOL     OW17182   0.060   3.187   5.661  0.2976  0.1077 -1.0581
 1849SOL    HW117183   0.020   3.196   5.748 -0.8511 -1.6597 -1.4261
 1849SOL    HW217184   0.071   3.093   5.651  1.5661 -0.0665  1.8190
 1850SOL     OW17185   0.562   1.722   7.123  0.3321 -0.2047 -0.1707
 1850SOL    HW117186   0.632   1.657   7.136 -0.6164 -1.1356  0.2716
 1850SOL    HW217187   0.578   1.797   7.180  0.1771 -0.2969 -0.0062
 1851SOL     OW17188   1.209   1.428  15.711 -0.0337 -0.0208 -0.1380
 1851SOL    HW117189   1.303   1.443  15.724 -0.5891  1.5893  1.9624
 1851SOL    HW217190   1.174   1.483  15.781  0.1091  0.8074 -0.7234
 1852SOL     OW17191   4.312   3.846   6.469  0.4837  0.3757  0.0504
 1852SOL    HW117192   4.234   3.877   6.514  0.6092  1.8671 -0.7563
 1852SOL    HW217193   4.285   3.775   6.411  2.5602 -0.9782  0.7288
 1853SOL     OW17194   1.298   2.584   9.303 -0.8622 -0.1920  0.4888
 1853SOL    HW117195   1.270   2.585   9.212 -0.1353 -0.3974  0.2636
 1853SOL    HW217196   1.334   2.671   9.320 -2.8352  0.6091  0.6093
 1854SOL     OW17197   3.510   1.349   5.076 -0.2509  0.6753  0.4698
 1854SOL    HW117198   3.544   1.371   4.989 -1.1120 -1.2001 -0.3491
 1854SOL    HW217199   3.419   1.375   5.063 -1.0402 -1.4265  1.6611
 1855SOL     OW17200   0.629   0.387   3.663  0.0366  0.0901 -0.3475
 1855SOL    HW117201   0.547   0.390   3.713  0.0611 -0.5556 -0.2725
 1855SOL    HW217202   0.689   0.391   3.737 -2.8220 -1.0476  2.0214
 1856SOL     OW17203   4.348   3.867   2.397 -0.4910  0.0974 -0.7076
 1856SOL    HW117204   4.262   3.887   2.360 -0.1727 -3.0631 -3.1892
 1856SOL    HW217205   4.318   3.789   2.443  0.7439 -0.6660 -1.2087
 1857SOL     OW17206   4.167   3.448   4.117  0.5350  0.3265  0.0984
 1857SOL    HW117207   4.247   3.452   4.064  0.2448 -0.5291 -0.4007
 1857SOL    HW217208   4.197   3.436   4.207 -2.8663  0.6850  1.2884
 1858SOL     OW17209   1.509   4.156  14.563 -0.6984 -0.6655  0.2019
 1858SOL    HW117210   1.539   4.231  14.511 -1.1426 -2.3594 -2.4969
 1858SOL    HW217211   1.416   4.149  14.542  0.0103  0.1851 -3.1399
 1859SOL     OW17212   3.194   1.255   0.781 -0.3610  0.1872 -0.2926
 1859SOL    HW117213   3.171   1.327   0.722 -0.1511 -0.8140 -1.5857
 1859SOL    HW217214   3.111   1.210   0.795  1.2185 -2.4837  0.5862
 1860SOL     OW17215   1.947   0.111  11.285  0.7515  0.2931 -0.3175
 1860SOL    HW117216   1.897   0.157  11.352  1.1324 -0.6727  0.6330
 1860SOL    HW217217   1.909   0.023  11.287  0.8957  0.2232 -0.6005
 1861SOL     OW17218   2.782   2.230  14.852 -0.2175  0.0380 -0.4197
 1861SOL    HW117219   2.725   2.291  14.899  1.8678  1.5201  0.1730
 1861SOL    HW217220   2.759   2.251  14.761  2.0910 -2.5724 -1.6021
 1862SOL     OW17221   1.356   0.195   8.788 -0.2441 -0.2329  0.4200
 1862SOL    HW117222   1.294   0.179   8.717 -1.7283 -0.0164  1.6632
 1862SOL    HW217223   1.378   0.106   8.815 -0.7451 -0.3330  0.4974
 1863SOL     OW17224   3.374   1.181   4.236  0.5511 -0.3081 -0.0942
 1863SOL    HW117225   3.378   1.156   4.328 -1.3840 -1.0747 -0.2300
 1863SOL    HW217226   3.462   1.187   4.198  0.2261 -1.2346 -0.9919
 1864SOL     OW17227   2.670   4.617   6.943 -0.4304  0.2206 -0.2995
 1864SOL    HW117228   2.723   4.546   6.907 -0.2938  0.2490 -0.1564
 1864SOL    HW217229   2.585   4.584   6.915 -0.3407  0.2171 -0.5631
 1865SOL     OW17230   1.157   1.067   9.305  0.8435  0.0254  0.6138
 1865SOL    HW117231   1.156   1.117   9.386  2.0112 -0.5628  0.9922
 1865SOL    HW217232   1.246   1.076   9.270  0.4027  1.7539 -0.0360
 1866SOL     OW17233   1.994   1.262   8.342  0.2874 -0.7174 -0.1431
 1866SOL    HW117234   2.006   1.256   8.248 -0.4233 -0.2559 -0.2578
 1866SOL    HW217235   2.023   1.175   8.369  0.7034 -0.5617 -0.0883
 1867SOL     OW17236   2.259   0.160   3.625  0.0237  0.1258  0.4831
 1867SOL    HW117237   2.342   0.190   3.590  0.8559 -0.8050  1.6657
 1867SOL    HW217238   2.298   0.125   3.705  0.9903  0.1970  0.0402
 1868SOL     OW17239   4.405   2.265   6.010  0.4852 -0.2643 -0.1331
 1868SOL    HW117240   4.410   2.301   6.099 -1.1070 -2.0518  0.6731
 1868SOL    HW217241   4.471   2.196   6.019  1.4691  0.7625  0.5199
 1869SOL     OW17242   0.559   4.592   9.111 -0.3226  0.3897  0.3966
 1869SOL    HW117243   0.478   4.549   9.082  0.0022  0.9801 -1.3591
 1869SOL    HW217244   0.557   4.678   9.070  0.7768  0.8712  1.3325
 1870SOL     OW17245   1.249   1.307   2.388 -0.7512  0.4884 -0.1539
 1870SOL    HW117246   1.281   1.286   2.475 -0.0531 -1.0038 -0.7693
 1870SOL    HW217247   1.306   1.379   2.360 -0.5357 -0.4025 -2.0579
 1871SOL     OW17248   2.232   4.508   4.744 -0.1322  0.2889 -0.1671
 1871SOL    HW117249   2.229   4.446   4.817 -0.8057  0.9927  0.4076
 1871SOL    HW217250   2.210   4.461   4.664  0.5110 -0.8423  0.3163
 1872SOL     OW17251   3.321   1.073   9.529 -0.2365 -0.3291  0.0265
 1872SOL    HW117252   3.370   1.151   9.552  1.1864 -1.1311 -0.3145
 1872SOL    HW217253   3.378   1.042   9.458 -0.3651 -1.4419  0.4156
 1873SOL     OW17254   4.013   0.583  12.035 -0.3828 -0.0676 -0.4227
 1873SOL    HW117255   3.992   0.662  11.986 -2.7579 -0.2182  0.3516
 1873SOL    HW217256   3.940   0.566  12.094 -0.6378 -0.0333 -0.7317
 1874SOL     OW17257   0.920   2.396   4.060  0.2704 -0.0612  0.2442
 1874SOL    HW117258   0.863   2.355   3.994  1.6338 -0.3363 -0.7658
 1874SOL    HW217259   0.993   2.412   3.999 -0.4119 -1.4727 -0.9546
 1875SOL     OW17260   0.670   2.701   5.021  0.3779 -0.5475 -0.1720
 1875SOL    HW117261   0.632   2.710   4.933 -2.1140 -0.2854  0.9189
 1875SOL    HW217262   0.607   2.740   5.081 -0.5106  0.1501 -1.5504
 1876SOL     OW17263   2.486   3.397  11.506  0.2910 -0.0620 -0.8018
 1876SOL    HW117264   2.410   3.373  11.560  0.8920  1.6324  0.8004
 1876SOL    HW217265   2.544   3.322  11.513  0.7791  0.1818 -2.4498
 1877SOL     OW17266   4.553   2.686   0.324  0.2291 -0.8673  0.4699
 1877SOL    HW117267   4.626   2.681   0.262  0.9416  0.7571  1.2015
 1877SOL    HW217268   4.525   2.777   0.316 -2.1302 -1.5558  0.9428
 1878SOL     OW17269   3.093   0.660   1.138 -0.2986 -0.0617  0.3054
 1878SOL    HW117270   3.140   0.581   1.111  0.8224  1.0662 -1.0497
 1878SOL    HW217271   3.166   0.723   1.134  0.9439 -1.4770  0.5880
 1879SOL     OW17272   4.646   0.960   1.989  0.8978 -0.2841 -0.5760
 1879SOL    HW117273   4.562   0.950   2.034  0.5516 -2.0179 -1.5790
 1879SOL    HW217274   4.625   0.901   1.916  0.4041 -0.1051 -0.5760
 1880SOL     OW17275   1.201   1.046   3.240 -0.2124  0.1199  0.1435
 1880SOL    HW117276   1.190   0.968   3.293  0.3061 -0.7734 -1.0532
 1880SOL    HW217277   1.128   1.106   3.257 -0.9963 -0.5141 -1.0257
 1881SOL     OW17278   4.471   4.701   6.793 -0.5725  0.0943  0.7061
 1881SOL    HW117279   4.409   4.698   6.865 -0.1411 -1.8672  0.9761
 1881SOL    HW217280   4.514   0.049   6.815  0.0323  0.1079 -0.5307
 1882SOL     OW17281   2.453   0.674   1.611 -1.0164 -0.3222 -0.6242
 1882SOL    HW117282   2.394   0.608   1.646 -0.5045 -0.2713  0.3315
 1882SOL    HW217283   2.397   0.751   1.611 -0.3493  0.1731  1.3695
 1883SOL     OW17284   0.893   3.194   5.820 -0.2677 -0.1619 -0.4443
 1883SOL    HW117285   0.929   3.121   5.770 -0.2287 -1.8418  2.0475
 1883SOL    HW217286   0.950   3.267   5.795  0.0080 -1.4835 -3.6712
 1884SOL     OW17287   1.020   4.547  12.252  0.0453 -0.2636 -0.1039
 1884SOL    HW117288   1.058   4.611  12.192  2.1927 -2.3219 -0.9603
 1884SOL    HW217289   0.938   4.530  12.205  0.0462  2.6481 -1.1573
 1885SOL     OW17290   1.199   3.516   3.925 -0.5528 -0.1642  0.2305
 1885SOL    HW117291   1.283   3.479   3.899 -0.4390  0.0945  0.2344
 1885SOL    HW217292   1.169   3.458   3.996  0.4115  0.2169  0.9409
 1886SOL     OW17293   1.012   0.205  14.167  0.2619  0.8240  0.3147
 1886SOL    HW117294   0.964   0.273  14.119  1.9129  1.1071 -0.9470
 1886SOL    HW217295   1.093   0.215  14.117 -0.4941 -0.2101 -1.1197
 1887SOL     OW17296   3.816   4.324  11.285 -0.4014  0.4214  0.6577
 1887SOL    HW117297   3.810   4.370  11.368 -0.4809  2.3617 -0.4385
 1887SOL    HW217298   3.829   4.401  11.230  1.5202  0.4987  1.2095
 1888SOL     OW17299   1.855   4.691  13.902 -0.2038 -0.3743  0.1444
 1888SOL    HW117300   1.856   4.709  13.808  0.5461  0.4128  0.3091
 1888SOL    HW217301   1.947   4.665  13.905 -0.1274 -0.1727 -0.5201
 1889SOL     OW17302   2.474   1.314   5.028 -0.2491  0.2157  0.0154
 1889SOL    HW117303   2.505   1.237   5.076  0.3506  0.7223  0.4374
 1889SOL    HW217304   2.382   1.288   5.016 -0.0362 -0.4756 -0.0696
 1890SOL     OW17305   2.097   1.200   0.182  0.2765  0.4444 -1.0100
 1890SOL    HW117306   2.184   1.160   0.183  0.6250  1.2226  0.2709
 1890SOL    HW217307   2.045   1.145   0.123  0.4423 -0.5074 -0.2590
 1891SOL     OW17308   1.858   4.392  15.183 -0.1232  0.3143  0.2117
 1891SOL    HW117309   1.793   4.447  15.140  0.6035  0.9087 -0.1385
 1891SOL    HW217310   1.872   4.447  15.261 -0.2758 -1.3163  1.3924
 1892SOL     OW17311   3.636   3.994   9.740  0.2220 -0.0099  0.2914
 1892SOL    HW117312   3.697   3.959   9.804 -0.1223  0.6896  0.9989
 1892SOL    HW217313   3.602   4.069   9.788  2.5032  2.6123 -2.2187
 1893SOL     OW17314   0.236   2.033  13.092 -1.0348  0.8972 -0.0247
 1893SOL    HW117315   0.156   1.989  13.121 -1.5924  2.1014  0.2258
 1893SOL    HW217316   0.230   2.116  13.138  0.4659  0.6438  0.6394
 1894SOL     OW17317   0.725   1.829   6.314 -0.2770  0.3842 -0.6014
 1894SOL    HW117318   0.693   1.826   6.224  0.4031 -1.1364 -0.8035
 1894SOL    HW217319   0.703   1.742   6.347  1.2904  0.9202  1.8880
 1895SOL     OW17320   1.548   2.602   4.800  0.4627 -0.2897 -0.7196
 1895SOL    HW117321   1.612   2.672   4.801  0.4441 -0.2451 -2.4824
 1895SOL    HW217322   1.513   2.616   4.888 -0.8724  0.4267 -1.3640
 1896SOL     OW17323   4.286   0.282   7.139  0.3779 -0.6487 -0.5303
 1896SOL    HW117324   4.251   0.348   7.198 -0.6452 -0.1196 -1.7410
 1896SOL    HW217325   4.359   0.258   7.197  1.1554  0.1122 -1.1991
 1897SOL     OW17326   2.154   1.017   1.433 -0.6757  0.3145  0.0727
 1897SOL    HW117327   2.192   1.082   1.374 -0.0326  0.2530  0.4225
 1897SOL    HW217328   2.065   1.053   1.431 -1.3286 -1.2609  0.2814
 1898SOL     OW17329   0.626   3.441   3.874  0.1736  0.1682 -0.7637
 1898SOL    HW117330   0.657   3.410   3.959 -0.0785  2.0096 -0.0135
 1898SOL    HW217331   0.700   3.489   3.839  1.5335 -1.2018  0.2267
 1899SOL     OW17332   2.892   2.666   2.716 -0.1018  0.4738  0.4434
 1899SOL    HW117333   2.931   2.748   2.745 -0.0871  0.2109  1.1692
 1899SOL    HW217334   2.818   2.671   2.776  0.7321  1.0715  1.4136
 1900SOL     OW17335   2.088   2.745   3.840 -0.3447  0.2381  0.3195
 1900SOL    HW117336   2.031   2.688   3.788  2.7480 -1.4954 -1.1998
 1900SOL    HW217337   2.176   2.725   3.808 -0.2275  0.2816  0.6181
 1901SOL     OW17338   2.418   4.265   1.696  0.1064 -0.6341 -0.1217
 1901SOL    HW117339   2.478   4.256   1.771  2.0399 -4.3358 -2.1263
 1901SOL    HW217340   2.487   4.223   1.644  0.5869  0.2861 -0.2459
 1902SOL     OW17341   2.984   0.992   6.903 -0.3274 -0.7554 -0.1302
 1902SOL    HW117342   2.975   1.042   6.822 -1.0357 -1.4668 -0.4870
 1902SOL    HW217343   2.891   0.985   6.928 -0.3379  0.9270  0.3085
 1903SOL     OW17344   4.596   3.408  13.414 -0.1319  0.9116 -0.2566
 1903SOL    HW117345   4.512   3.432  13.374  0.2840  1.2012 -0.9483
 1903SOL    HW217346   4.650   3.486  13.401 -0.4962  1.2567  0.2913
 1904SOL     OW17347   4.478   4.452   9.187 -0.7686 -0.4346 -0.6944
 1904SOL    HW117348   4.428   4.371   9.196 -1.6321  0.2306  0.4060
 1904SOL    HW217349   4.470   4.476   9.095  2.8742  0.0717 -0.9126
 1905SOL     OW17350   1.425   3.428   2.084  0.8616  0.2459  0.1263
 1905SOL    HW117351   1.366   3.382   2.143  0.2394  1.1169  0.1825
 1905SOL    HW217352   1.500   3.370   2.097 -0.2743 -1.2165  0.0511
 1906SOL     OW17353   2.273   4.347   5.382  0.1737 -0.3533 -0.4677
 1906SOL    HW117354   2.258   4.435   5.346 -1.6120 -0.6487 -0.4750
 1906SOL    HW217355   2.212   4.335   5.455  0.3213  0.6314 -0.1796
 1907SOL     OW17356   1.403   0.515   2.262 -0.1677 -0.1899 -0.2048
 1907SOL    HW117357   1.439   0.598   2.229 -0.0898  0.1404  0.7112
 1907SOL    HW217358   1.331   0.551   2.313  0.8617 -0.2713  1.2929
 1908SOL     OW17359   1.115   3.289   1.586 -0.9484 -0.1196 -0.5447
 1908SOL    HW117360   1.109   3.373   1.541  2.3585  0.7626  0.6454
 1908SOL    HW217361   1.209   3.269   1.589 -0.6524  1.2848 -0.4646
 1909SOL     OW17362   3.497   3.581  17.253 -0.5753  0.8315 -1.3667
 1909SOL    HW117363   3.587   3.591  17.222 -0.2517  0.9929 -0.3571
 1909SOL    HW217364   3.447   3.557  17.175 -1.6904  0.4857 -0.5538
 1910SOL     OW17365   0.754   3.594   3.041 -0.1395 -0.4323  0.3279
 1910SOL    HW117366   0.718   3.515   3.080 -1.3113 -1.2507 -2.4607
 1910SOL    HW217367   0.755   3.579   2.947  2.5925  0.4208  0.2289
 1911SOL     OW17368   1.811   0.698   4.874  0.2821 -0.2683 -0.4716
 1911SOL    HW117369   1.850   0.611   4.872 -2.2321 -1.4284  1.0592
 1911SOL    HW217370   1.738   0.679   4.934  0.2338 -1.6295 -0.9588
 1912SOL     OW17371   4.028   1.383   8.590 -0.2842  0.1483 -0.1053
 1912SOL    HW117372   3.965   1.425   8.531 -2.2153 -2.6478 -0.0067
 1912SOL    HW217373   3.988   1.301   8.617  1.1413  0.3387  2.6281
 1913SOL     OW17374   0.045   2.894  14.587  0.1706 -0.4296 -0.5751
 1913SOL    HW117375   0.062   2.941  14.506  1.3225  0.9145  0.4532
 1913SOL    HW217376   0.081   2.807  14.569 -0.1215 -1.1664  2.3938
 1914SOL     OW17377   4.256   1.660   7.762  0.2126 -0.0742 -0.3092
 1914SOL    HW117378   4.185   1.616   7.715  0.5090 -0.5793 -0.2874
 1914SOL    HW217379   4.289   1.579   7.803 -1.0894  0.3901  1.6890
 1915SOL     OW17380   3.871   1.386   5.888 -0.1318  0.2034  0.5719
 1915SOL    HW117381   3.810   1.450   5.851  0.1103 -0.1204 -0.3818
 1915SOL    HW217382   3.819   1.306   5.880 -1.0774  1.0231 -1.2413
 1916SOL     OW17383   1.334   0.613  14.984 -0.3347 -0.5386 -0.2662
 1916SOL    HW117384   1.251   0.606  15.032  0.6154 -2.0064  1.1715
 1916SOL    HW217385   1.355   0.520  14.974  1.2152  0.0482 -2.4244
 1917SOL     OW17386   1.309   3.917   4.367  0.3301 -0.4115  0.4068
 1917SOL    HW117387   1.319   3.870   4.284  1.4445 -2.7640  1.8728
 1917SOL    HW217388   1.374   3.880   4.427 -0.1869  0.8605  1.7373
 1918SOL     OW17389   1.695   3.443  16.694  0.5506 -0.1513 -0.2049
 1918SOL    HW117390   1.680   3.537  16.702  0.5523 -0.3049  1.5214
 1918SOL    HW217391   1.789   3.439  16.674 -0.2075  0.0599 -3.7955
 1919SOL     OW17392   2.809   4.360   9.841  0.3384 -0.2779 -0.2232
 1919SOL    HW117393   2.800   4.432   9.904 -1.5489 -0.6468 -0.0878
 1919SOL    HW217394   2.828   4.288   9.901 -1.0006 -1.8261 -1.6727
 1920SOL     OW17395   1.154   3.841  12.579  0.3184 -0.1749 -0.6891
 1920SOL    HW117396   1.087   3.793  12.531 -0.6877  1.4597 -0.9157
 1920SOL    HW217397   1.179   3.907  12.514  0.4779 -0.5624 -1.0177
 1921SOL     OW17398   1.508   3.192  13.887 -0.0521  0.0470  0.0861
 1921SOL    HW117399   1.518   3.212  13.793 -0.1822  0.0482  0.0731
 1921SOL    HW217400   1.598   3.161  13.902  0.3516  1.0117 -0.3316
 1922SOL     OW17401   0.034   0.064  11.436 -0.1334  0.6428  0.2470
 1922SOL    HW117402   0.126   0.088  11.423 -0.0828  0.3604  0.0789
 1922SOL    HW217403   0.012   0.048  11.344 -2.9980  2.0519  0.7029
 1923SOL     OW17404   3.549   0.735   7.546 -0.3115  0.0116 -0.1707
 1923SOL    HW117405   3.580   0.665   7.604 -0.8954  0.1939  0.3641
 1923SOL    HW217406   3.582   0.817   7.584  2.5201 -0.4578 -1.6439
 1924SOL     OW17407   4.629   3.750   1.566  0.5517 -0.0227 -0.5044
 1924SOL    HW117408   4.725   3.747   1.567  0.4432 -2.6951  2.6766
 1924SOL    HW217409   4.618   3.655   1.571  1.8834 -0.1945 -0.6110
 1925SOL     OW17410   2.847   0.421   9.724 -0.1548 -0.2883 -0.2953
 1925SOL    HW117411   2.820   0.347   9.669 -0.5284 -2.2064  2.4309
 1925SOL    HW217412   2.797   0.484   9.673  0.0897  1.1180  1.2107
 1926SOL     OW17413   2.974   4.205  11.408  0.2011  0.0630 -0.2588
 1926SOL    HW117414   2.999   4.294  11.433 -2.8246  0.8296  0.0577
 1926SOL    HW217415   3.023   4.184  11.329  1.4530  1.0089  0.2760
 1927SOL     OW17416   3.035   1.418   7.697 -0.3304 -0.6115  0.2505
 1927SOL    HW117417   3.098   1.470   7.646 -0.5797  0.1395  0.7012
 1927SOL    HW217418   2.957   1.436   7.645 -0.4790 -1.3267  0.2282
 1928SOL     OW17419   3.922   0.573  15.240  0.0094 -0.3272  0.5018
 1928SOL    HW117420   3.916   0.615  15.155 -2.4489  0.4263  1.0550
 1928SOL    HW217421   4.003   0.522  15.233  0.6715  0.7784  0.1841
 1929SOL     OW17422   1.246   1.171   8.292  0.4084 -1.1097  0.1150
 1929SOL    HW117423   1.208   1.235   8.352  0.2061 -1.9318  0.8570
 1929SOL    HW217424   1.263   1.236   8.224  0.9988  0.4767  1.7782
 1930SOL     OW17425   3.639   4.061   1.855  0.3124  0.2350  0.1069
 1930SOL    HW117426   3.643   4.004   1.931 -2.7649  0.6671  0.5978
 1930SOL    HW217427   3.614   3.993   1.792  0.2468 -1.6008  2.1281
 1931SOL     OW17428   2.008   2.263   7.185 -0.0671  0.0333  0.1429
 1931SOL    HW117429   1.946   2.235   7.118 -0.4598 -0.0076  0.5295
 1931SOL    HW217430   2.043   2.179   7.213 -0.3658 -0.1911 -0.1633
 1932SOL     OW17431   3.808   1.163  16.158 -0.4292  0.2389 -0.3151
 1932SOL    HW117432   3.819   1.250  16.197  1.2983 -1.1068  2.1693
 1932SOL    HW217433   3.811   1.191  16.067  0.9391 -3.7690 -1.5060
 1933SOL     OW17434   3.446   2.529   8.661 -0.8438 -0.4638 -0.4360
 1933SOL    HW117435   3.409   2.530   8.749 -0.1360 -0.2733 -0.1406
 1933SOL    HW217436   3.515   2.464   8.672 -0.5366  0.0534  0.6690
 1934SOL     OW17437   2.473   0.810   9.384  0.5336  0.5120 -0.2787
 1934SOL    HW117438   2.411   0.874   9.418 -1.2769 -1.5046  0.2678
 1934SOL    HW217439   2.493   0.836   9.295 -0.5361 -2.4711 -1.4132
 1935SOL     OW17440   3.734   2.106   5.601  0.3901  0.0286 -0.5659
 1935SOL    HW117441   3.759   2.021   5.638 -0.3658 -0.0565 -0.2639
 1935SOL    HW217442   3.641   2.112   5.619  0.6342  1.8545  0.1260
 1936SOL     OW17443   2.715   3.581   3.479  0.1817 -0.1762  0.6370
 1936SOL    HW117444   2.692   3.531   3.558  0.1355 -1.0330  0.0884
 1936SOL    HW217445   2.772   3.517   3.436  0.5521  0.6126 -0.0373
 1937SOL     OW17446   2.226   4.619   0.408 -0.0560 -0.1764 -0.3303
 1937SOL    HW117447   2.308   4.577   0.381 -1.3853  0.5471 -5.5963
 1937SOL    HW217448   2.212   4.669   0.327  0.6287  0.4413 -0.0638
 1938SOL     OW17449   1.133   1.917  10.218  0.2563  0.0351 -0.2479
 1938SOL    HW117450   1.214   1.963  10.238  0.5112 -0.2209 -0.6734
 1938SOL    HW217451   1.068   1.982  10.192 -1.4467 -0.9262  1.5273
 1939SOL     OW17452   3.490   2.654   3.676  0.4186  0.7144 -0.2972
 1939SOL    HW117453   3.409   2.705   3.669 -1.3199 -2.0575 -0.1267
 1939SOL    HW217454   3.530   2.700   3.602  1.8767 -0.8965 -0.5126
 1940SOL     OW17455   0.897   3.189  16.126 -0.6719 -0.2095  0.2970
 1940SOL    HW117456   0.817   3.240  16.135 -1.2327 -0.7072 -1.9258
 1940SOL    HW217457   0.880   3.168  16.034 -2.6676  1.1194  0.3671
 1941SOL     OW17458   3.275   0.926  17.502 -0.5111 -0.0984  0.1580
 1941SOL    HW117459   3.202   0.948  17.444 -0.6857 -2.0479 -0.3565
 1941SOL    HW217460   3.321   1.010  17.499 -0.1219 -0.2590  1.8719
 1942SOL     OW17461   0.087   1.183   3.343 -0.5967 -0.0586  0.2933
 1942SOL    HW117462   0.022   1.114   3.326  0.5238 -1.0169 -0.0551
 1942SOL    HW217463   0.044   1.263   3.311  0.2001  0.8955  1.6137
 1943SOL     OW17464   3.887   3.478   8.087  0.0615 -0.1266 -0.4623
 1943SOL    HW117465   3.959   3.518   8.136 -0.0727  1.4952 -1.5723
 1943SOL    HW217466   3.835   3.444   8.160  1.7023  0.4480  0.9873
 1944SOL     OW17467   1.806   1.595   3.953  0.2565 -0.1246  0.2972
 1944SOL    HW117468   1.713   1.584   3.932  0.2588  3.6595 -1.7423
 1944SOL    HW217469   1.837   1.510   3.921 -0.9516 -1.1639  1.8714
 1945SOL     OW17470   4.198   4.611  16.396 -0.1561  0.2518  0.4303
 1945SOL    HW117471   4.163   4.677  16.456  1.4843 -0.8054  2.5692
 1945SOL    HW217472   4.136   4.617  16.323  1.6423  1.3321 -0.9911
 1946SOL     OW17473   3.683   1.449  14.599  0.0864 -0.7166 -0.3853
 1946SOL    HW117474   3.774   1.445  14.569  0.4513 -1.5057  0.8502
 1946SOL    HW217475   3.641   1.485  14.521 -2.6299 -0.6543  1.1153
 1947SOL     OW17476   0.155   4.097  12.068  0.5141  1.2940 -0.2754
 1947SOL    HW117477   0.065   4.065  12.061  1.2430 -0.1550 -2.6172
 1947SOL    HW217478   0.147   4.181  12.114  0.0606  1.2268 -0.2292
 1948SOL     OW17479   0.983   1.902   0.523  0.3349  0.1907  0.3016
 1948SOL    HW117480   1.003   1.947   0.605 -1.4694 -0.0219  0.8377
 1948SOL    HW217481   1.062   1.848   0.514 -0.1024 -0.3741 -0.1405
 1949SOL     OW17482   3.702   0.913   3.326 -0.1905  0.4266 -0.1886
 1949SOL    HW117483   3.653   0.936   3.405  2.5136 -1.0448  1.9257
 1949SOL    HW217484   3.636   0.926   3.259 -1.5197  0.0162  1.0301
 1950SOL     OW17485   4.566   1.850   1.791  0.0678 -0.1248  0.9062
 1950SOL    HW117486   4.536   1.765   1.758  3.0111 -0.1416 -1.7776
 1950SOL    HW217487   4.482   1.867   1.833 -0.2009  0.7336  0.0197
 1951SOL     OW17488   1.026   4.377   7.761 -0.0849 -0.4465 -0.0677
 1951SOL    HW117489   1.000   4.318   7.832 -1.3876  1.3396  0.9342
 1951SOL    HW217490   1.120   4.369   7.778  0.1895 -1.0561 -1.9059
 1952SOL     OW17491   3.868   2.201  16.798 -0.3565 -0.5218 -0.1577
 1952SOL    HW117492   3.934   2.211  16.866 -0.4935  1.3026 -0.3122
 1952SOL    HW217493   3.905   2.130  16.745 -1.2462 -1.0847 -0.0299
 1953SOL     OW17494   0.076   0.966   3.845  0.2510  0.5623  0.3049
 1953SOL    HW117495   0.134   0.894   3.818 -1.1132 -1.3126  2.3682
 1953SOL    HW217496   0.052   1.002   3.760  1.2408 -3.2277 -1.5827
 1954SOL     OW17497   0.537   4.065   3.919 -0.3610  0.6910 -0.4998
 1954SOL    HW117498   0.490   4.035   3.997  1.9666 -0.2338  0.5733
 1954SOL    HW217499   0.515   3.993   3.861 -0.2034  1.2294 -1.2215
 1955SOL     OW17500   4.719   0.042   2.699 -0.3341 -0.0626  0.0831
 1955SOL    HW117501   4.717   4.683   2.685  1.9338 -0.0183 -0.4158
 1955SOL    HW217502   4.630   0.066   2.671 -0.1303  2.1030  1.2659
 1956SOL     OW17503   2.565   0.306   1.842 -0.4796  0.5659  0.0471
 1956SOL    HW117504   2.650   0.344   1.865 -0.0755 -0.4469  0.2694
 1956SOL    HW217505   2.514   0.373   1.888 -0.3820 -0.6456  1.9187
 1957SOL     OW17506   4.586   0.511   9.787  0.0303 -0.0903 -0.0082
 1957SOL    HW117507   4.640   0.575   9.740  0.3290  0.3263  0.8873
 1957SOL    HW217508   4.500   0.549   9.771 -0.1648  0.8822  3.2769
 1958SOL     OW17509   2.179   3.443  11.463 -0.1707  0.1786  0.1541
 1958SOL    HW117510   2.190   3.398  11.547 -1.0660  0.6494  0.5201
 1958SOL    HW217511   2.136   3.377  11.407  2.3511  0.4869 -2.1449
 1959SOL     OW17512   4.422   0.390   3.148  0.4789 -0.3282 -0.0793
 1959SOL    HW117513   4.377   0.459   3.198 -0.6785 -1.4350  0.3954
 1959SOL    HW217514   4.350   0.327   3.143 -0.2717  0.6246 -1.6429
 1960SOL     OW17515   1.326   4.580   1.600  0.1912  0.3799 -0.2186
 1960SOL    HW117516   1.389   4.639   1.559  0.4047  0.9670  0.9593
 1960SOL    HW217517   1.337   4.590   1.694  1.0969  1.0347 -0.3975
 1961SOL     OW17518   2.747   3.995   3.337  0.3092 -0.2183  0.4009
 1961SOL    HW117519   2.721   3.988   3.245 -1.3358 -1.1085  0.9334
 1961SOL    HW217520   2.800   3.915   3.345  0.9513  0.1218 -0.4174
 1962SOL     OW17521   1.724   0.690   2.528  0.5955  0.0892  0.1470
 1962SOL    HW117522   1.696   0.774   2.491 -0.2791  0.7719  2.3598
 1962SOL    HW217523   1.800   0.719   2.578  3.0516 -1.5933 -2.5800
 1963SOL     OW17524   2.974   1.220   7.092 -0.6397 -0.5094 -0.2383
 1963SOL    HW117525   2.993   1.143   7.038 -1.5289 -0.2080 -0.9685
 1963SOL    HW217526   2.957   1.284   7.023 -0.4572  1.1119  1.2214
 1964SOL     OW17527   4.029   0.432   7.358 -0.2461  0.0328  0.3696
 1964SOL    HW117528   4.022   0.438   7.262  2.7241  0.0101  0.1508
 1964SOL    HW217529   3.995   0.345   7.375  0.2186 -0.2933 -0.3572
 1965SOL     OW17530   3.893   0.679  12.774  0.2531  0.0175 -0.1887
 1965SOL    HW117531   3.884   0.699  12.680 -1.9904  0.0972  0.0637
 1965SOL    HW217532   3.800   0.689  12.793  0.7359 -0.1506  2.2338
 1966SOL     OW17533   4.679   4.252  11.845 -0.1669 -0.5390  0.2811
 1966SOL    HW117534   0.034   4.251  11.812  0.5665  1.7592  2.2553
 1966SOL    HW217535   4.678   4.166  11.888  1.5462 -1.2987 -1.1945
 1967SOL     OW17536   0.583   0.061   6.395 -0.3597 -0.7867 -0.3456
 1967SOL    HW117537   0.561   4.703   6.402 -3.1687 -0.0583  0.9241
 1967SOL    HW217538   0.678   0.049   6.397 -0.2861 -0.1517 -0.1424
 1968SOL     OW17539   3.281   3.119  13.661 -0.3692  0.2472  0.0541
 1968SOL    HW117540   3.358   3.072  13.629  0.2609  0.6835  0.9318
 1968SOL    HW217541   3.282   3.199  13.609 -2.7141 -0.2709 -0.7691
 1969SOL     OW17542   2.175   0.024  16.151  0.0421  0.0576 -0.5955
 1969SOL    HW117543   2.216   0.022  16.237 -0.7266  1.1798 -0.2102
 1969SOL    HW217544   2.210   0.105  16.115 -0.2435  0.7962  0.7919
 1970SOL     OW17545   1.793   2.867   6.837  0.1192  0.4297  0.0213
 1970SOL    HW117546   1.837   2.941   6.796  0.0836 -0.3066 -1.3374
 1970SOL    HW217547   1.735   2.915   6.897  1.4081  1.6519  0.2794
 1971SOL     OW17548   2.330   0.175   7.400  0.3369  0.5164 -0.6009
 1971SOL    HW117549   2.327   0.207   7.491  3.5178  0.5521 -0.5005
 1971SOL    HW217550   2.277   0.097   7.414 -0.7671  1.4482  0.4439
 1972SOL     OW17551   0.680   0.463   3.405 -0.3816  0.7069  0.0109
 1972SOL    HW117552   0.650   0.463   3.496 -0.0969  1.0695  0.1024
 1972SOL    HW217553   0.767   0.428   3.427  0.5301  2.1481 -1.3212
 1973SOL     OW17554   3.588   1.383   4.234  0.2036 -0.7793  0.3586
 1973SOL    HW117555   3.612   1.472   4.206 -2.5175 -0.0690  0.2611
 1973SOL    HW217556   3.494   1.401   4.242  0.2201 -0.4247 -0.2161
 1974SOL     OW17557   2.189   4.488  16.904 -0.1690 -0.3402 -0.1047
 1974SOL    HW117558   2.164   4.396  16.899  0.6565 -0.5760  0.1327
 1974SOL    HW217559   2.125   4.523  16.966 -0.0119 -0.5344  0.1656
 1975SOL     OW17560   3.263   3.171   7.685  0.5124 -0.0550 -0.2671
 1975SOL    HW117561   3.358   3.167   7.699  0.4546 -0.2473  0.0832
 1975SOL    HW217562   3.229   3.120   7.759 -1.1329  1.3277 -0.0786
 1976SOL     OW17563   0.628   4.197   0.996  0.6681  0.3372  0.2024
 1976SOL    HW117564   0.618   4.289   1.020 -1.4317 -0.0319  0.7126
 1976SOL    HW217565   0.708   4.200   0.944 -0.4620  2.4963 -1.4002
 1977SOL     OW17566   0.223   3.602   0.207 -0.4423 -0.3825 -0.4234
 1977SOL    HW117567   0.231   3.680   0.262  2.3245 -1.4635  0.7186
 1977SOL    HW217568   0.132   3.598   0.177 -0.7152  2.7790 -0.0891
 1978SOL     OW17569   4.464   1.358   0.276  0.1623  0.0727  0.5026
 1978SOL    HW117570   4.509   1.314   0.204  1.0816  1.3223  0.3086
 1978SOL    HW217571   4.541   1.401   0.314 -0.7459  2.7675 -0.6549
 1979SOL     OW17572   4.022   2.246  14.368  0.3991 -0.5952  0.1951
 1979SOL    HW117573   3.972   2.223  14.446 -1.5409 -0.6492 -1.0546
 1979SOL    HW217574   4.101   2.191  14.375  0.4840 -0.4580  0.3072
 1980SOL     OW17575   4.446   1.989   4.464  0.2733  0.2035  0.0939
 1980SOL    HW117576   4.522   1.931   4.456 -0.8370 -1.0511 -1.3374
 1980SOL    HW217577   4.453   2.057   4.397 -3.4900 -0.6488 -1.1662
 1981SOL     OW17578   0.972   1.545   6.548  0.2060 -0.0561 -0.6393
 1981SOL    HW117579   0.977   1.577   6.638  1.0354 -0.0286 -0.6968
 1981SOL    HW217580   1.006   1.622   6.502 -0.5732 -0.9997 -2.7722
 1982SOL     OW17581   3.705   3.515   3.157  0.7334 -0.1719 -0.1744
 1982SOL    HW117582   3.622   3.480   3.123  1.1190 -2.2051  0.9226
 1982SOL    HW217583   3.724   3.448   3.223 -0.3965 -0.5760 -0.2653
 1983SOL     OW17584   2.463   4.408  11.890  0.5023  0.9971  0.0440
 1983SOL    HW117585   2.459   4.325  11.842  0.5451  1.0259 -0.0086
 1983SOL    HW217586   2.395   4.458  11.846 -1.1011 -1.8353 -0.6730
 1984SOL     OW17587   3.629   4.226   9.486  0.3515  0.6221  0.0422
 1984SOL    HW117588   3.599   4.211   9.396 -1.3888  0.9673  0.5491
 1984SOL    HW217589   3.687   4.302   9.480 -0.3635  1.2104  0.4849
 1985SOL     OW17590   1.611   2.565  17.347  1.2042  0.0109  0.1234
 1985SOL    HW117591   1.601   2.504  17.420  0.8317  2.0694  1.8178
 1985SOL    HW217592   1.569   2.516  17.277 -0.8590  2.3651 -0.2621
 1986SOL     OW17593   1.053   0.802   1.994  0.8216 -0.1524 -0.1305
 1986SOL    HW117594   0.969   0.848   1.987  1.5326  1.2295  0.2505
 1986SOL    HW217595   1.068   0.801   2.089  2.1190 -2.4465 -0.3761
 1987SOL     OW17596   2.517   4.125  17.456  0.4472  0.2886 -0.5599
 1987SOL    HW117597   2.537   4.049  17.511  0.0614  1.8389  1.7000
 1987SOL    HW217598   2.546   4.197  17.512  1.5667  0.0500 -0.8363
 1988SOL     OW17599   0.749   3.744   7.583 -0.0876  0.3377 -0.3660
 1988SOL    HW117600   0.756   3.759   7.677 -0.0239  1.6066 -0.5714
 1988SOL    HW217601   0.824   3.687   7.566  0.6777  0.7340  1.6875
 1989SOL     OW17602   2.000   2.443   1.808 -0.6655 -0.4776  0.3688
 1989SOL    HW117603   1.995   2.501   1.731 -1.9061 -0.7459  0.2503
 1989SOL    HW217604   2.011   2.510   1.875  0.7208 -0.9644  0.6402
 1990SOL     OW17605   0.558   2.627   0.595 -0.2346 -0.0638  0.4416
 1990SOL    HW117606   0.608   2.645   0.515 -0.9753 -1.7900 -0.4266
 1990SOL    HW217607   0.585   2.539   0.622  0.1316  0.9510  3.3661
 1991SOL     OW17608   0.147   3.925  13.490 -0.6289 -0.1233  0.1988
 1991SOL    HW117609   0.144   3.837  13.453 -3.0488 -0.3120  0.8118
 1991SOL    HW217610   0.053   3.935  13.510 -0.2823  0.3752  1.5885
 1992SOL     OW17611   0.053   3.597   2.372  0.2160  0.2900  0.2559
 1992SOL    HW117612   0.016   3.685   2.374 -1.2662 -0.4080  2.2170
 1992SOL    HW217613   0.135   3.630   2.333 -2.3288  1.9146 -3.7463
 1993SOL     OW17614   4.346   1.554   3.307  0.0218  0.1969 -0.6719
 1993SOL    HW117615   4.367   1.638   3.348  0.2625  0.7237 -1.8772
 1993SOL    HW217616   4.415   1.506   3.352 -1.3893 -0.3656  0.8874
 1994SOL     OW17617   1.273   0.084   9.048 -0.3408 -0.1457  0.1324
 1994SOL    HW117618   1.250   0.002   9.006  2.0590 -0.6929 -0.0869
 1994SOL    HW217619   1.199   0.140   9.023  0.4449  0.4158 -0.9170
 1995SOL     OW17620   2.356   0.331   6.569 -0.3144  0.4305  0.1587
 1995SOL    HW117621   2.410   0.349   6.645  2.7457 -0.2396 -1.8675
 1995SOL    HW217622   2.271   0.347   6.611 -0.4676  0.7059 -0.2606
 1996SOL     OW17623   2.327   0.323   3.159 -0.5839  0.7181 -0.2410
 1996SOL    HW117624   2.366   0.236   3.159  0.5396  1.2024  1.8766
 1996SOL    HW217625   2.257   0.322   3.224 -0.9900 -0.2308 -0.6971
 1997SOL     OW17626   2.421   0.074   6.491  0.4762  1.0499  0.0646
 1997SOL    HW117627   2.516   0.065   6.488  0.8125  3.3622  3.8203
 1997SOL    HW217628   2.420   0.158   6.537  0.4445  0.8098  0.5087
 1998SOL     OW17629   1.517   3.330   3.557  0.4805  0.0155  0.7023
 1998SOL    HW117630   1.612   3.337   3.541  0.3807 -0.2195 -0.0052
 1998SOL    HW217631   1.500   3.251   3.506 -1.8579  0.7558  0.3717
 1999SOL     OW17632   0.267   2.965   1.518 -0.2407  0.2461  0.5742
 1999SOL    HW117633   0.293   2.883   1.562 -1.9575 -0.7819 -0.3217
 1999SOL    HW217634   0.336   3.030   1.529 -1.0855  1.5471 -1.7700
 2000SOL     OW17635   2.595   3.157  16.284  0.3904 -0.2984  0.4045
 2000SOL    HW117636   2.681   3.116  16.269  0.5564  0.7044 -1.3713
 2000SOL    HW217637   2.609   3.237  16.234  0.0962  0.5162  1.6223
 2001SOL     OW17638   1.209   0.714   3.972  0.3567  0.6646  0.2286
 2001SOL    HW117639   1.116   0.692   3.966  0.3386  0.4096  1.3823
 2001SOL    HW217640   1.228   0.706   4.066 -0.2139  1.1614  0.3833
 2002SOL     OW17641   4.353   1.149  15.565  0.1552  0.5589 -0.4809
 2002SOL    HW117642   4.326   1.090  15.495  0.6239  0.8678 -0.9238
 2002SOL    HW217643   4.401   1.091  15.625 -1.8350 -0.6451 -0.0486
 2003SOL     OW17644   4.496   1.733  12.169 -0.1519 -0.4296 -0.0835
 2003SOL    HW117645   4.473   1.645  12.199  3.7409 -2.2461 -2.5221
 2003SOL    HW217646   4.475   1.783  12.248 -0.1831  0.7274 -0.8229
 2004SOL     OW17647   3.500   3.868  11.427 -0.0861  0.3856 -0.4269
 2004SOL    HW117648   3.592   3.865  11.403 -0.4055 -0.3555 -1.5998
 2004SOL    HW217649   3.500   3.954  11.469 -2.4345  0.7709 -1.2069
 2005SOL     OW17650   1.452   3.535  13.731  0.1112  0.2864 -0.4728
 2005SOL    HW117651   1.483   3.607  13.677 -1.1206  1.5821  0.5613
 2005SOL    HW217652   1.449   3.465  13.666 -1.9935 -0.5766  0.5614
 2006SOL     OW17653   2.961   1.106   5.258 -0.0717 -0.6138  0.1955
 2006SOL    HW117654   3.055   1.108   5.274  0.0677  0.2294 -0.7258
 2006SOL    HW217655   2.941   1.196   5.233  1.0994 -0.7690 -1.3242
 2007SOL     OW17656   2.021   0.468   5.443  0.2675 -0.6526  0.1127
 2007SOL    HW117657   2.089   0.439   5.503 -0.5010  0.4264  1.5409
 2007SOL    HW217658   1.944   0.459   5.500 -0.9902 -1.4535 -1.6913
 2008SOL     OW17659   3.454   0.767   0.099 -0.4795 -0.0254 -0.2297
 2008SOL    HW117660   3.470   0.858   0.073  1.5973 -0.6966 -1.3195
 2008SOL    HW217661   3.365   0.758   0.066 -1.3264  2.1119  1.4824
 2009SOL     OW17662   1.869   3.489   8.820 -0.2241  0.4991 -0.1600
 2009SOL    HW117663   1.882   3.582   8.802 -1.7910  0.3695 -1.9244
 2009SOL    HW217664   1.774   3.479   8.819 -0.0928 -0.9339  2.1640
 2010SOL     OW17665   1.479   0.672  13.192 -0.1196 -0.1578  0.6193
 2010SOL    HW117666   1.499   0.600  13.252 -0.6089 -0.0941  0.8561
 2010SOL    HW217667   1.523   0.640  13.113  0.2281  0.2628  0.6452
 2011SOL     OW17668   2.374   3.992   1.386 -0.4629  0.3646 -0.3759
 2011SOL    HW117669   2.361   4.055   1.457 -0.6238 -1.6047  1.3367
 2011SOL    HW217670   2.333   4.033   1.310 -0.9948 -1.7419 -1.2076
 2012SOL     OW17671   2.479   0.525  16.256 -0.3588  0.5499  0.9530
 2012SOL    HW117672   2.507   0.466  16.326 -1.2739  0.4294  1.2212
 2012SOL    HW217673   2.492   0.607  16.303  0.1535  1.6672 -1.1643
 2013SOL     OW17674   4.050   0.886   8.325  0.2045 -0.3264 -1.1632
 2013SOL    HW117675   4.098   0.842   8.256  0.8452  0.0703 -0.9674
 2013SOL    HW217676   4.044   0.814   8.389  0.6674  0.5776 -0.1024
 2014SOL     OW17677   1.459   0.223  14.674 -0.2867  0.1728  0.1671
 2014SOL    HW117678   1.515   0.164  14.623  1.2898  1.7606  0.0602
 2014SOL    HW217679   1.406   0.263  14.605 -0.8705 -2.0408 -0.6516
 2015SOL     OW17680   3.993   1.593   5.477  0.2146  0.6311 -0.7329
 2015SOL    HW117681   4.083   1.620   5.460  0.8218 -2.2207 -1.9825
 2015SOL    HW217682   3.986   1.511   5.428  1.2820  0.5913 -0.8192
 2016SOL     OW17683   1.061   1.234   1.146 -0.1770  0.7514  0.1669
 2016SOL    HW117684   1.004   1.296   1.100  0.5341  0.4534 -1.1113
 2016SOL    HW217685   1.083   1.279   1.228  0.4359 -1.8672  1.4385
 2017SOL     OW17686   1.019   3.673  12.082 -0.4681  0.1089 -0.1455
 2017SOL    HW117687   1.096   3.728  12.071  0.3725 -1.0640 -0.1033
 2017SOL    HW217688   0.953   3.717  12.027 -0.8814  1.4529  1.4473
 2018SOL     OW17689   2.993   0.779   3.641 -0.5089  0.2285  0.7377
 2018SOL    HW117690   3.043   0.814   3.567  0.0063 -1.2550  0.3830
 2018SOL    HW217691   2.936   0.854   3.656 -1.2797 -0.0644 -0.7174
 2019SOL     OW17692   2.040   1.170   4.775  0.0782  0.8356  0.2119
 2019SOL    HW117693   2.066   1.081   4.799 -2.6203 -0.3255 -1.1293
 2019SOL    HW217694   1.985   1.152   4.698  0.2984  0.8983  0.0412
 2020SOL     OW17695   2.132   0.670   6.361 -0.1513  0.1952  0.2351
 2020SOL    HW117696   2.091   0.675   6.275  0.1770  0.9371  0.1249
 2020SOL    HW217697   2.167   0.581   6.358  0.6513  0.5124  0.1900
 2021SOL     OW17698   1.486   4.648  14.710  0.2242 -0.3913 -0.4880
 2021SOL    HW117699   1.544   4.689  14.646  0.2145 -0.9130 -0.8348
 2021SOL    HW217700   1.505   4.560  14.677  2.4645 -0.7761  1.8364
 2022SOL     OW17701   2.934   3.637  16.689  0.3758 -0.3855 -0.3703
 2022SOL    HW117702   2.852   3.617  16.735 -1.0643  3.7278 -1.1307
 2022SOL    HW217703   2.961   3.558  16.642  0.8210 -0.7429  0.4874
 2023SOL     OW17704   1.631   1.386   1.582 -0.4196  0.1209  1.2119
 2023SOL    HW117705   1.583   1.310   1.614  0.5382 -0.1901  1.9028
 2023SOL    HW217706   1.626   1.364   1.489  0.2674 -1.6469  1.5950
 2024SOL     OW17707   3.200   0.635  15.324 -0.0399  0.0883 -0.1295
 2024SOL    HW117708   3.241   0.698  15.383  0.8839  1.2873 -2.0445
 2024SOL    HW217709   3.222   0.679  15.242 -0.7662 -1.9663 -1.4290
 2025SOL     OW17710   4.311   2.589   8.682  0.4292  0.1953 -0.2699
 2025SOL    HW117711   4.240   2.603   8.746  1.7700  0.5393  1.1338
 2025SOL    HW217712   4.283   2.502   8.654  1.3891 -1.1142  2.9169
 2026SOL     OW17713   0.110   3.559  17.577 -0.0450 -0.0627  0.2936
 2026SOL    HW117714   0.191   3.597  17.612 -0.6985  1.7890 -0.1737
 2026SOL    HW217715   0.108   3.597  17.489  0.2518  2.6156  1.4365
 2027SOL     OW17716   2.303   3.290  15.422 -0.0626 -0.3560 -0.3120
 2027SOL    HW117717   2.234   3.355  15.439 -0.4968 -1.0685  0.6731
 2027SOL    HW217718   2.353   3.286  15.504 -0.8421 -2.3382  0.0647
 2028SOL     OW17719   0.845   3.802   5.987 -0.3337 -0.1914  0.2459
 2028SOL    HW117720   0.873   3.860   5.916  0.5826 -3.3544 -1.9705
 2028SOL    HW217721   0.865   3.715   5.953 -1.9601 -1.0848  1.5859
 2029SOL     OW17722   4.588   3.361  16.013  0.4003 -0.3077  0.3533
 2029SOL    HW117723   4.568   3.453  16.032 -2.8918 -0.5483 -1.9076
 2029SOL    HW217724   4.617   3.323  16.095  0.2142  1.6082  1.3128
 2030SOL     OW17725   2.343   0.802   2.985 -0.0353  0.0284  0.4304
 2030SOL    HW117726   2.328   0.709   2.966 -2.7883  0.1120  2.1951
 2030SOL    HW217727   2.255   0.831   3.009 -0.3829 -0.7664  0.1199
 2031SOL     OW17728   1.789   4.173  15.017 -0.7666  0.4153  0.1302
 2031SOL    HW117729   1.799   4.218  14.933  0.5754 -1.5010 -0.7384
 2031SOL    HW217730   1.813   4.242  15.078 -2.1661  1.5227 -0.5877
 2032SOL     OW17731   4.666   4.720   9.789  0.0126 -0.1348 -0.3295
 2032SOL    HW117732   4.730   0.052   9.810  0.9434 -1.2507  0.4245
 2032SOL    HW217733   4.648   0.019   9.702  4.5579  1.0991 -0.7611
 2033SOL     OW17734   1.026   0.774   2.299 -0.2749 -0.3080  0.0075
 2033SOL    HW117735   1.032   0.817   2.384 -0.9873  0.0364 -0.1167
 2033SOL    HW217736   1.070   0.689   2.312  1.2426  0.4634 -0.1049
 2034SOL     OW17737   0.601   0.363   6.505  0.2506 -0.1429  0.4724
 2034SOL    HW117738   0.572   0.291   6.449  1.2126  1.5192 -2.1836
 2034SOL    HW217739   0.520   0.401   6.539 -0.1799  1.2907 -2.1598
 2035SOL     OW17740   3.632   3.043   6.174 -0.4198  0.0709  0.3356
 2035SOL    HW117741   3.620   3.090   6.257  0.3448 -0.5293  0.7916
 2035SOL    HW217742   3.716   3.000   6.189 -0.8049 -0.2728  1.5308
 2036SOL     OW17743   2.039   3.727   6.113 -0.6277  0.4469 -0.5413
 2036SOL    HW117744   2.105   3.658   6.102 -1.3004 -0.2009 -0.5430
 2036SOL    HW217745   2.040   3.755   6.021 -3.5135 -1.6142 -1.1948
 2037SOL     OW17746   3.849   0.602   8.204 -0.3844  0.6304 -0.8988
 2037SOL    HW117747   3.930   0.580   8.251 -1.5051 -1.2009  0.1652
 2037SOL    HW217748   3.801   0.522   8.224 -2.0439  2.0027  0.6832
 2038SOL     OW17749   1.155   1.573   8.656  0.3006 -0.5410  0.7144
 2038SOL    HW117750   1.199   1.535   8.732 -1.9405  0.1293  2.3452
 2038SOL    HW217751   1.093   1.627   8.704 -0.3940 -0.3321 -0.4319
 2039SOL     OW17752   2.051   0.433   2.986 -0.2240  0.1038 -0.0898
 2039SOL    HW117753   2.066   0.357   3.043 -2.2997 -0.9289 -0.8998
 2039SOL    HW217754   2.029   0.384   2.906 -1.0928  1.6053 -0.7686
 2040SOL     OW17755   0.797   2.463  15.284 -0.4578 -0.7894 -0.4351
 2040SOL    HW117756   0.722   2.475  15.342 -1.1680  0.5335 -1.6393
 2040SOL    HW217757   0.867   2.455  15.348 -0.7083 -0.3699 -0.1069
 2041SOL     OW17758   2.981   2.717   6.746 -0.9116  0.3979  0.6011
 2041SOL    HW117759   3.059   2.663   6.758 -0.0124  0.5187 -4.5344
 2041SOL    HW217760   2.995   2.764   6.828  2.9569  0.5454 -0.1120
 2042SOL     OW17761   1.545   1.635   8.719  0.4185 -0.1022 -0.0082
 2042SOL    HW117762   1.638   1.658   8.714  0.4841 -0.3524  0.0729
 2042SOL    HW217763   1.500   1.671   8.643  1.1044 -0.7761 -0.7242
 2043SOL     OW17764   1.237   2.633   3.178  0.1136 -0.0080 -0.0328
 2043SOL    HW117765   1.241   2.713   3.230 -0.6501 -0.1824  0.3053
 2043SOL    HW217766   1.200   2.579   3.248  1.0799  1.1890  1.3943
 2044SOL     OW17767   4.533   4.677  10.035 -0.7860 -0.2083 -0.0696
 2044SOL    HW117768   4.595   4.640  10.097 -0.2381 -1.1142 -1.1565
 2044SOL    HW217769   4.581   4.703   9.956  1.1197 -0.9991  0.8331
 2045SOL     OW17770   3.430   0.679   2.365 -0.2700 -0.2072 -0.5013
 2045SOL    HW117771   3.353   0.715   2.320  0.9465  2.3819 -0.5363
 2045SOL    HW217772   3.475   0.633   2.294 -0.6998 -0.1050 -0.8424
 2046SOL     OW17773   1.405   0.289   5.198 -0.0954  0.5947 -0.3398
 2046SOL    HW117774   1.389   0.353   5.267  0.2043  0.3520 -0.0455
 2046SOL    HW217775   1.328   0.301   5.142 -0.4533  2.8819  0.6684
 2047SOL     OW17776   2.124   1.668   1.986 -0.2332  0.2712  0.0162
 2047SOL    HW117777   2.184   1.673   1.911  0.4034  0.6405  0.5565
 2047SOL    HW217778   2.081   1.751   1.966 -0.7395  0.0760  0.2820
 2048SOL     OW17779   2.719   2.729  16.848 -0.3339 -0.5271 -0.5852
 2048SOL    HW117780   2.678   2.725  16.934  0.0040  1.7609 -0.3260
 2048SOL    HW217781   2.736   2.636  16.830  0.4038 -0.3932 -0.5872
 2049SOL     OW17782   2.673   3.736  17.110  0.3186 -0.0766  0.1866
 2049SOL    HW117783   2.704   3.683  17.183  0.9447  0.7310  0.5112
 2049SOL    HW217784   2.653   3.821  17.148 -3.7192 -0.9850  0.1253
 2050SOL     OW17785   3.751   2.742   7.049  0.1244 -0.2555  0.3766
 2050SOL    HW117786   3.704   2.778   6.973 -0.8171  2.6964  2.3473
 2050SOL    HW217787   3.741   2.647   7.051  4.2192 -0.6537  0.3775
 2051SOL     OW17788   1.762   4.399  13.537  0.4809 -0.5170 -0.1619
 2051SOL    HW117789   1.720   4.335  13.479  1.3510 -0.2330 -1.1120
 2051SOL    HW217790   1.758   4.362  13.625  2.4151 -2.6042 -0.9720
 2052SOL     OW17791   1.164   3.981  12.850  0.5047  0.8303 -0.0725
 2052SOL    HW117792   1.117   4.051  12.804 -0.3911  1.6118  2.0316
 2052SOL    HW217793   1.178   3.918  12.779 -2.0798 -1.7576  1.7337
 2053SOL     OW17794   0.946   2.918   4.674 -0.0817  0.0126  0.3522
 2053SOL    HW117795   0.961   3.008   4.701  0.2130 -1.6485  5.6376
 2053SOL    HW217796   1.016   2.910   4.609 -2.1850  1.1509 -2.0662
 2054SOL     OW17797   4.032   3.604   5.302 -0.0256 -0.5862  0.0323
 2054SOL    HW117798   3.948   3.645   5.324  0.0127 -0.0728 -0.7909
 2054SOL    HW217799   4.014   3.510   5.312  1.9834 -0.9926 -0.2559
 2055SOL     OW17800   2.888   1.127   0.613  0.1523  0.1133  0.3286
 2055SOL    HW117801   2.822   1.059   0.627  0.9413 -0.5883  0.7024
 2055SOL    HW217802   2.907   1.143   0.706  0.2060  0.3214  0.2826
 2056SOL     OW17803   1.493   3.961  12.086 -0.0185 -0.0338 -0.4680
 2056SOL    HW117804   1.509   3.877  12.128 -0.4042  0.3386  0.4122
 2056SOL    HW217805   1.555   4.012  12.139 -1.0909  2.4110 -1.5752
 2057SOL     OW17806   1.645   2.665  14.492 -0.3969  0.5508  0.2110
 2057SOL    HW117807   1.634   2.592  14.431  1.5256  1.1277 -0.8129
 2057SOL    HW217808   1.587   2.646  14.566  1.4912 -0.1475  1.5004
 2058SOL     OW17809   2.321   0.341   5.265 -0.3635 -0.1219  0.2342
 2058SOL    HW117810   2.253   0.275   5.253  0.5023 -0.8680 -0.5691
 2058SOL    HW217811   2.276   0.425   5.253  1.6524  1.0284  0.7254
 2059SOL     OW17812   1.016   1.599  12.107  0.3426  0.7046  0.3796
 2059SOL    HW117813   1.099   1.646  12.102  0.5657  0.5450  2.2117
 2059SOL    HW217814   1.030   1.547  12.187 -1.1160 -0.9590 -0.4410
 2060SOL     OW17815   1.572   1.476   6.526 -0.0010  0.0994  0.1075
 2060SOL    HW117816   1.566   1.417   6.601 -1.6884 -0.0069 -0.1081
 2060SOL    HW217817   1.598   1.559   6.566 -0.2173  0.5840 -0.7512
 2061SOL     OW17818   0.230   2.768  11.543 -0.1845 -0.0085 -0.2765
 2061SOL    HW117819   0.167   2.701  11.570 -1.0871  0.0606 -2.2198
 2061SOL    HW217820   0.315   2.725  11.554 -1.2854 -2.2861 -0.5717
 2062SOL     OW17821   4.042   2.279   7.851 -0.3846  0.1538  0.6939
 2062SOL    HW117822   4.086   2.316   7.928 -0.5680 -0.2866  1.0088
 2062SOL    HW217823   3.952   2.306   7.869 -0.4674  0.9085 -0.8657
 2063SOL     OW17824   3.934   2.036   4.469  0.3331  0.3949  0.4375
 2063SOL    HW117825   4.027   2.039   4.447  0.2276  2.3274  0.2236
 2063SOL    HW217826   3.896   2.075   4.390 -0.8256 -0.2358  0.6867
 2064SOL     OW17827   0.424   0.662  13.947  0.1608 -0.1140  0.2803
 2064SOL    HW117828   0.437   0.641  14.040  1.4930 -0.3790  0.0378
 2064SOL    HW217829   0.386   0.749  13.958  0.3446 -0.1216  1.0124
 2065SOL     OW17830   0.510   2.405   3.081 -0.0030 -0.0403 -0.3763
 2065SOL    HW117831   0.570   2.458   3.134  1.0263  1.0709 -2.6753
 2065SOL    HW217832   0.560   2.339   3.034  2.6695 -0.1205  2.5228
 2066SOL     OW17833   0.494   4.634   5.713  0.1177  0.3265  0.5974
 2066SOL    HW117834   0.489   4.654   5.807 -0.0818 -0.0956  0.6780
 2066SOL    HW217835   0.436   4.700   5.675  1.2484  1.0636  0.1658
 2067SOL     OW17836   2.813   0.719   6.071 -0.3981  0.2433 -0.1094
 2067SOL    HW117837   2.747   0.666   6.116  1.8995 -2.0401  0.6240
 2067SOL    HW217838   2.758   0.751   6.000  0.3043  0.3394 -0.6145
 2068SOL     OW17839   2.611   3.172  11.516 -0.0395  0.5019 -0.8679
 2068SOL    HW117840   2.686   3.157  11.460  0.0133  2.4419 -1.3217
 2068SOL    HW217841   2.614   3.088  11.562 -3.6447 -0.2582 -2.0043
 2069SOL     OW17842   3.782   2.528   5.173 -0.2620 -0.0065 -0.2663
 2069SOL    HW117843   3.819   2.510   5.259 -4.0218  1.6267  1.6916
 2069SOL    HW217844   3.726   2.452   5.157 -0.3877 -0.2170  1.1465
 2070SOL     OW17845   3.234   0.963   5.565  0.9808 -0.6354 -0.1352
 2070SOL    HW117846   3.313   0.928   5.605  0.1662 -0.2675  1.7994
 2070SOL    HW217847   3.191   0.985   5.648 -0.5013  1.4516 -1.4645
 2071SOL     OW17848   3.119   0.388  10.395  0.3045  0.1965  0.4376
 2071SOL    HW117849   3.045   0.437  10.432 -2.1281 -1.5575 -2.1152
 2071SOL    HW217850   3.115   0.403  10.301 -1.4826 -0.1997  0.4405
 2072SOL     OW17851   4.626   3.819  16.652  0.5349  0.1008  0.0596
 2072SOL    HW117852   4.539   3.826  16.614  1.3701  1.2468 -1.6545
 2072SOL    HW217853   4.614   3.845  16.743 -1.7315  0.7577 -0.4210
 2073SOL     OW17854   1.181   4.112   1.783  0.2916 -0.1736 -0.4572
 2073SOL    HW117855   1.116   4.102   1.853 -1.4897 -0.9892 -2.2468
 2073SOL    HW217856   1.243   4.042   1.803 -0.0996 -0.8017 -1.4912
 2074SOL     OW17857   2.524   1.732   0.095 -0.3770  0.1090 -0.1565
 2074SOL    HW117858   2.503   1.821   0.123 -1.4563 -0.8907  2.1943
 2074SOL    HW217859   2.558   1.753   0.008 -1.8639  0.1632 -0.7273
 2075SOL     OW17860   1.445   3.039   2.944  0.4051  0.2990 -0.3916
 2075SOL    HW117861   1.387   2.974   2.902 -0.9579  1.0373  0.3556
 2075SOL    HW217862   1.393   3.115   2.969 -0.9373 -1.2663  1.5854
 2076SOL     OW17863   4.062   3.129   2.550  0.0665 -0.1002  0.7835
 2076SOL    HW117864   4.024   3.197   2.605  2.0129  0.4877  1.4287
 2076SOL    HW217865   3.989   3.112   2.490  0.0062  1.6383  0.3780
 2077SOL     OW17866   0.376   0.403  17.052  0.4271  0.0019 -0.3668
 2077SOL    HW117867   0.423   0.330  17.011 -2.6244 -2.0864 -0.1736
 2077SOL    HW217868   0.302   0.355  17.091 -1.6349  1.4955 -2.4720
 2078SOL     OW17869   2.445   3.477   2.756 -0.0544  0.6849 -0.0075
 2078SOL    HW117870   2.421   3.423   2.831  0.1905 -0.4521 -0.7352
 2078SOL    HW217871   2.364   3.527   2.751 -0.0571  0.8770  2.0559
 2079SOL     OW17872   2.352   3.917   4.545  0.1247  0.0609 -0.5911
 2079SOL    HW117873   2.399   3.938   4.464  0.2826  0.5178 -0.3810
 2079SOL    HW217874   2.332   4.002   4.584  2.0808  0.2782 -0.0797
 2080SOL     OW17875   1.099   0.511   5.765 -0.7064  0.1438 -0.2725
 2080SOL    HW117876   1.123   0.603   5.781  0.3426 -0.4576  1.6083
 2080SOL    HW217877   1.055   0.494   5.848 -1.2833  2.2276 -0.1541
 2081SOL     OW17878   2.387   3.536   3.351 -0.0609  0.1718 -0.4942
 2081SOL    HW117879   2.440   3.613   3.371 -0.5553  0.7366 -1.3598
 2081SOL    HW217880   2.305   3.550   3.398 -1.3293 -2.4759 -1.8390
 2082SOL     OW17881   2.188   0.464   7.844  0.5234 -0.1325 -0.1821
 2082SOL    HW117882   2.213   0.531   7.780  2.4272 -1.9182 -1.3089
 2082SOL    HW217883   2.146   0.505   7.919  3.0112 -0.9766  1.6725
 2083SOL     OW17884   2.796   3.005  11.402 -0.0463  0.0459  0.2465
 2083SOL    HW117885   2.797   2.945  11.327  1.2856  0.2946  0.0586
 2083SOL    HW217886   2.752   2.949  11.465  1.9473 -3.2428 -1.2705
 2084SOL     OW17887   4.431   3.864   7.122  0.5561  0.5576 -0.5699
 2084SOL    HW117888   4.369   3.852   7.193  0.7401 -0.2078 -0.5399
 2084SOL    HW217889   4.459   3.955   7.135  1.7022 -0.0324  1.0015
 2085SOL     OW17890   3.738   4.212   6.975 -0.7758 -0.1955 -0.2545
 2085SOL    HW117891   3.826   4.223   7.013 -0.6383 -2.2893  0.0253
 2085SOL    HW217892   3.703   4.146   7.034  0.0679 -0.1040  0.3504
 2086SOL     OW17893   3.131   0.842  14.787  0.3045 -0.2667  0.8494
 2086SOL    HW117894   3.062   0.848  14.721  1.2780 -0.5105 -0.1975
 2086SOL    HW217895   3.126   0.746  14.794  1.7503 -0.4924 -1.3699
 2087SOL     OW17896   2.540   2.678   7.136 -0.0668  0.5348  0.5016
 2087SOL    HW117897   2.583   2.669   7.050 -1.7201  1.5067 -0.4291
 2087SOL    HW217898   2.481   2.752   7.122 -1.0851  0.0798  2.3805
 2088SOL     OW17899   1.226   2.738   2.632  0.6905  0.1491 -0.3063
 2088SOL    HW117900   1.209   2.667   2.694  0.1580  0.6783  0.1539
 2088SOL    HW217901   1.222   2.806   2.700 -0.4313 -1.6005  1.3930
 2089SOL     OW17902   4.125   1.139   6.540 -0.0068  0.3706  0.5043
 2089SOL    HW117903   4.217   1.152   6.517 -0.0265  1.1532  0.8407
 2089SOL    HW217904   4.098   1.098   6.458 -0.2669  1.8197 -0.1371
 2090SOL     OW17905   2.701   4.085  11.553 -0.2471 -0.5003 -0.0509
 2090SOL    HW117906   2.650   4.009  11.525  0.0868 -0.2727 -1.2873
 2090SOL    HW217907   2.740   4.052  11.634  0.6582 -0.2617 -0.3916
 2091SOL     OW17908   4.555   1.900  10.495 -0.1182  0.0250 -1.1664
 2091SOL    HW117909   4.581   1.962  10.428 -0.5596 -0.1884 -1.5377
 2091SOL    HW217910   4.629   1.916  10.554 -2.0916  0.3956  1.2391
 2092SOL     OW17911   2.551   4.293   3.716 -0.3583  0.1176 -0.4832
 2092SOL    HW117912   2.600   4.234   3.659 -1.0777 -0.4135 -0.5499
 2092SOL    HW217913   2.483   4.328   3.657  1.7916  2.3067 -1.6796
 2093SOL     OW17914   3.087   1.919  16.510  0.0309  0.1170 -0.1310
 2093SOL    HW117915   3.024   1.989  16.524  0.8814  0.3432  2.5860
 2093SOL    HW217916   3.166   1.971  16.496 -0.7469  1.7535  1.6106
 2094SOL     OW17917   2.925   2.710   5.364  1.1757  0.2219 -0.5829
 2094SOL    HW117918   3.009   2.729   5.323  2.6268  1.3374  2.8745
 2094SOL    HW217919   2.941   2.642   5.430 -3.3020 -0.3872 -0.1037
 2095SOL     OW17920   1.555   1.944  15.037 -0.1962  0.1092  0.0359
 2095SOL    HW117921   1.613   1.970  14.966 -0.8237  2.3018  0.3316
 2095SOL    HW217922   1.531   1.855  15.010 -0.5059  1.1237 -2.9593
 2096SOL     OW17923   2.773   0.142   5.460 -0.3229 -0.2583 -0.7052
 2096SOL    HW117924   2.703   0.091   5.419 -1.2327  0.0029  0.5191
 2096SOL    HW217925   2.837   0.071   5.471  0.9000  1.2529  2.1536
 2097SOL     OW17926   1.270   1.303   4.117 -0.1612  0.4306 -0.5017
 2097SOL    HW117927   1.296   1.244   4.188  0.4052 -1.0283 -1.9369
 2097SOL    HW217928   1.267   1.385   4.167 -0.8743  1.4882 -2.2651
 2098SOL     OW17929   0.096   0.375   2.773  0.1953  0.3149 -0.3301
 2098SOL    HW117930   0.009   0.369   2.733 -0.1694 -0.7850  0.6016
 2098SOL    HW217931   0.149   0.346   2.699 -1.3617 -1.5262 -0.7265
 2099SOL     OW17932   4.029   0.493   4.597  0.4596  0.1005 -0.1026
 2099SOL    HW117933   3.951   0.536   4.633  1.0463  1.9029 -1.0039
 2099SOL    HW217934   4.086   0.569   4.582  1.0741 -0.0143  1.5770
 2100SOL     OW17935   3.806   3.400   7.421 -0.2945  0.0439  0.6078
 2100SOL    HW117936   3.824   3.314   7.459  0.4993 -0.5403 -1.0931
 2100SOL    HW217937   3.711   3.405   7.432 -0.2001 -0.4459  1.6361
 2101SOL     OW17938   0.595   4.543   2.426 -0.2635  0.3151 -0.5262
 2101SOL    HW117939   0.675   4.551   2.375  1.4029 -0.8603  1.9094
 2101SOL    HW217940   0.634   4.494   2.499  0.4419  1.7591  0.0607
 2102SOL     OW17941   2.494   2.027   0.203  0.4976 -0.3048  0.1281
 2102SOL    HW117942   2.483   2.121   0.189 -0.1873 -0.4119 -0.0589
 2102SOL    HW217943   2.430   2.011   0.273 -0.1454 -0.4232 -0.4830
 2103SOL     OW17944   4.256   2.832   7.392 -0.1265 -0.1435  0.0422
 2103SOL    HW117945   4.228   2.764   7.331 -1.7207 -1.3390  2.1128
 2103SOL    HW217946   4.179   2.888   7.403 -0.0483  0.2830 -1.5415
 2104SOL     OW17947   0.615   2.050   6.575 -0.6842 -0.3179  0.3837
 2104SOL    HW117948   0.584   2.130   6.617  1.9604 -0.8511  3.3210
 2104SOL    HW217949   0.537   2.002   6.545 -2.6816  2.5262  0.9820
 2105SOL     OW17950   2.761   4.094  15.139 -0.4633  0.0767 -0.2956
 2105SOL    HW117951   2.786   4.180  15.175  1.0328 -0.3005 -0.4647
 2105SOL    HW217952   2.727   4.126  15.056 -1.5936  2.5953  1.1068
 2106SOL     OW17953   4.508   2.743   8.812  0.1851  0.4609  0.1724
 2106SOL    HW117954   4.490   2.652   8.834 -4.5227  1.2365 -0.6091
 2106SOL    HW217955   4.427   2.759   8.764  0.5756  0.2326 -0.5724
 2107SOL     OW17956   1.253   4.231  14.492  0.3076  0.4588 -0.1117
 2107SOL    HW117957   1.167   4.267  14.469  0.4196  0.6364 -0.2500
 2107SOL    HW217958   1.295   4.204  14.411  1.8121  0.3429  0.7062
 2108SOL     OW17959   2.418   4.384  17.217  0.5629  0.0798 -0.3034
 2108SOL    HW117960   2.409   4.289  17.214  1.6222 -0.0474  0.5644
 2108SOL    HW217961   2.444   4.409  17.129 -0.1129 -0.0184 -0.5333
 2109SOL     OW17962   2.400   4.045  14.785 -0.0966 -0.3760 -0.4223
 2109SOL    HW117963   2.412   3.953  14.810 -1.9214 -0.1700  1.2545
 2109SOL    HW217964   2.333   4.045  14.718  1.0711  0.2617 -1.5804
 2110SOL     OW17965   0.705   0.716  13.994  0.5201  0.1221  0.2382
 2110SOL    HW117966   0.711   0.802  13.952 -1.2855  0.6125  0.9916
 2110SOL    HW217967   0.632   0.673  13.950 -0.5282  0.5597  1.5427
 2111SOL     OW17968   0.472   2.508  11.796 -0.0256 -0.2872  0.2555
 2111SOL    HW117969   0.380   2.482  11.795 -0.2336  0.4889 -4.8428
 2111SOL    HW217970   0.473   2.544  11.707  0.3352 -0.2281  0.2839
 2112SOL     OW17971   2.597   4.208   0.443 -0.1020 -0.2492  0.2135
 2112SOL    HW117972   2.568   4.261   0.369 -0.3411 -1.8662 -0.8386
 2112SOL    HW217973   2.686   4.244   0.451 -0.0288 -0.0907 -1.2813
 2113SOL     OW17974   1.379   0.919   4.523  0.2203  0.3208 -0.2059
 2113SOL    HW117975   1.422   0.895   4.605  0.5015 -0.6031 -0.6305
 2113SOL    HW217976   1.297   0.871   4.534 -0.2522  1.0629 -0.4753
 2114SOL     OW17977   0.578   2.908   5.443  0.1688 -0.0441  0.0959
 2114SOL    HW117978   0.490   2.934   5.471  0.1632 -0.7160  0.7106
 2114SOL    HW217979   0.612   2.874   5.526 -0.6149  1.6476  1.1081
 2115SOL     OW17980   2.321   4.466  12.644 -0.2587 -0.4341 -0.4025
 2115SOL    HW117981   2.376   4.494  12.571 -0.1579  0.2921 -0.0562
 2115SOL    HW217982   2.249   4.528  12.633  0.2141  0.3007  0.5627
 2116SOL     OW17983   0.535   4.145   0.228  0.7651  0.7766 -0.2412
 2116SOL    HW117984   0.547   4.231   0.189  1.4511  1.7054  2.0059
 2116SOL    HW217985   0.448   4.158   0.265  0.2607  1.0592 -1.5437
 2117SOL     OW17986   0.858   1.444  16.515  0.0764  0.1128 -0.3679
 2117SOL    HW117987   0.853   1.413  16.605  1.1991  0.3397 -0.2309
 2117SOL    HW217988   0.764   1.445  16.497 -0.2930 -2.7003  1.2841
 2118SOL     OW17989   2.586   4.172   9.986  0.2506 -0.0049 -0.7917
 2118SOL    HW117990   2.678   4.164  10.014 -0.8632 -1.0977  2.5745
 2118SOL    HW217991   2.571   4.093   9.933  0.7809  0.8332 -2.1954
 2119SOL     OW17992   3.873   0.302   4.192  0.5815  0.0690 -0.4194
 2119SOL    HW117993   3.923   0.228   4.226 -0.0239 -0.5419 -0.8566
 2119SOL    HW217994   3.835   0.335   4.273  0.1698 -0.1968 -0.5036
 2120SOL     OW17995   2.573   2.520   8.524  0.2284  0.1501 -0.5684
 2120SOL    HW117996   2.596   2.589   8.463  1.4552  1.5036  1.4050
 2120SOL    HW217997   2.479   2.537   8.518  0.3025  0.7921  0.0888
 2121SOL     OW17998   3.697   2.077  15.691 -0.0926  0.2613 -0.5034
 2121SOL    HW117999   3.654   2.105  15.610  0.4341 -0.7848 -1.1471
 2121SOL    HW218000   3.742   2.158  15.712  0.4597 -0.6829  1.9254
 2122SOL     OW18001   0.971   0.108   4.104  0.0855 -0.0783  0.4568
 2122SOL    HW118002   0.893   0.071   4.144  0.4952 -2.0027 -0.5400
 2122SOL    HW218003   1.007   0.154   4.180 -0.9635  1.1508  0.2223
 2123SOL     OW18004   1.272   4.352   9.396  0.1326  0.3157 -0.4506
 2123SOL    HW118005   1.293   4.418   9.330 -1.9846  1.1732 -0.2795
 2123SOL    HW218006   1.286   4.275   9.341  1.2048 -0.7604  1.2956
 2124SOL     OW18007   1.363   3.674  17.071 -0.4102 -0.3438 -0.3348
 2124SOL    HW118008   1.320   3.590  17.057 -2.9971  1.1111 -1.2124
 2124SOL    HW218009   1.297   3.739  17.045 -0.6022 -0.1839  0.5493
 2125SOL     OW18010   2.398   0.768   1.976  0.3191 -0.4708 -0.0074
 2125SOL    HW118011   2.472   0.811   2.019 -0.7521  0.8679  0.5095
 2125SOL    HW218012   2.331   0.835   1.965 -0.0504 -0.6458  1.1297
 2126SOL     OW18013   0.551   1.824   1.987 -0.1955 -0.2456  0.1022
 2126SOL    HW118014   0.493   1.833   1.912  1.4247  1.1306 -0.9930
 2126SOL    HW218015   0.618   1.764   1.953  0.3064  0.8953 -0.9074
 2127SOL     OW18016   1.119   3.256   3.391 -0.2043  0.4375 -0.2576
 2127SOL    HW118017   1.177   3.275   3.465 -0.2610  2.0401 -0.6238
 2127SOL    HW218018   1.040   3.302   3.420 -0.2108 -0.1221  0.5948
 2128SOL     OW18019   4.458   1.070   4.429 -0.0203 -0.6727  0.5555
 2128SOL    HW118020   4.480   1.068   4.336  0.0886 -1.6295  0.6046
 2128SOL    HW218021   4.391   1.139   4.430 -0.4306 -1.0704  0.2430
 2129SOL     OW18022   2.514   1.809   3.151 -0.7594 -0.2711  0.7187
 2129SOL    HW118023   2.456   1.881   3.173 -1.7021 -1.1778  1.2097
 2129SOL    HW218024   2.476   1.780   3.068  1.4097 -0.2440 -0.2750
 2130SOL     OW18025   1.106   3.525   1.435 -0.4455  0.0126 -0.1122
 2130SOL    HW118026   1.198   3.526   1.410 -0.1068  2.7135  1.1699
 2130SOL    HW218027   1.055   3.545   1.357  0.1876  0.5277 -0.3981
 2131SOL     OW18028   2.961   3.612   6.934 -0.1198  0.0650 -0.4019
 2131SOL    HW118029   3.021   3.594   6.862 -0.0894 -1.2234 -0.0389
 2131SOL    HW218030   2.984   3.701   6.959 -0.7130 -0.1682  0.9464
 2132SOL     OW18031   1.303   1.278   3.462 -0.0464 -0.2620 -0.5332
 2132SOL    HW118032   1.339   1.191   3.446 -0.5470 -0.4380 -0.6919
 2132SOL    HW218033   1.214   1.269   3.430 -0.3669 -0.0694  0.3166
 2133SOL     OW18034   3.236   2.039   8.768  0.0485 -0.4236 -0.4316
 2133SOL    HW118035   3.194   1.964   8.812 -1.7661 -0.3761 -2.0730
 2133SOL    HW218036   3.250   2.103   8.839  0.5093 -1.0111  0.0062
 2134SOL     OW18037   1.593   2.867   6.389 -0.7373 -0.0737 -0.0215
 2134SOL    HW118038   1.659   2.901   6.450 -0.4605 -0.8739  0.1269
 2134SOL    HW218039   1.520   2.927   6.403 -1.6167 -0.8057 -1.5103
 2135SOL     OW18040   3.529   2.498   1.575 -0.5828  0.5483 -0.8787
 2135SOL    HW118041   3.468   2.571   1.578  1.0803  1.9509 -1.3276
 2135SOL    HW218042   3.462   2.431   1.557  0.0664 -0.3531  0.0362
 2136SOL     OW18043   0.781   0.820   2.435  0.2791 -0.2645  0.6813
 2136SOL    HW118044   0.831   0.821   2.353 -0.5745 -0.4990  0.1440
 2136SOL    HW218045   0.698   0.854   2.401  2.0018  3.5631  0.3600
 2137SOL     OW18046   2.695   1.917  12.079  0.5946  0.0230 -0.0982
 2137SOL    HW118047   2.740   1.959  12.005  2.7479 -2.1792 -0.0327
 2137SOL    HW218048   2.764   1.897  12.141  0.9733  1.7131  0.0238
 2138SOL     OW18049   0.202   3.082   3.322  0.3449 -0.4944  0.4731
 2138SOL    HW118050   0.117   3.090   3.280 -0.1034 -0.3183  1.4185
 2138SOL    HW218051   0.201   3.164   3.371  0.7572  1.0759 -2.1106
 2139SOL     OW18052   0.205   0.968   8.887 -0.0186  0.2759  0.0843
 2139SOL    HW118053   0.130   1.004   8.839 -0.4657 -1.7682 -0.7496
 2139SOL    HW218054   0.189   1.013   8.970  1.8549 -0.4056  0.8243
 2140SOL     OW18055   0.294   0.341  11.875  0.1505  0.4531 -0.7085
 2140SOL    HW118056   0.359   0.317  11.809  1.1192  0.7747  0.1385
 2140SOL    HW218057   0.288   0.258  11.924 -0.5455  0.1169 -1.3681
 2141SOL     OW18058   0.788   0.548   2.535 -0.1562 -0.2477  0.1570
 2141SOL    HW118059   0.782   0.642   2.523 -2.2850 -0.6693 -2.1576
 2141SOL    HW218060   0.722   0.508   2.479 -0.7134 -0.2407  0.8127
 2142SOL     OW18061   2.596   2.134   7.883  0.4635 -0.0892 -0.1555
 2142SOL    HW118062   2.674   2.170   7.841 -0.1078  2.1590  0.7410
 2142SOL    HW218063   2.532   2.200   7.858  1.4167  0.5792 -0.8370
 2143SOL     OW18064   2.571   4.671  11.282 -0.3159 -0.9499  0.0465
 2143SOL    HW118065   2.568   4.654  11.376  3.7135 -2.8402 -0.1895
 2143SOL    HW218066   2.633   4.602  11.260 -0.4824 -0.4595 -1.9661
 2144SOL     OW18067   1.429   3.108  15.762 -0.3169 -0.0894 -0.4180
 2144SOL    HW118068   1.379   3.050  15.704 -1.5672 -0.0816  0.6495
 2144SOL    HW218069   1.383   3.192  15.752 -0.7399 -0.3078 -0.2909
 2145SOL     OW18070   3.468   3.014   5.831 -0.1958 -0.0714 -0.2077
 2145SOL    HW118071   3.394   3.013   5.892 -0.8064  3.7409 -0.8688
 2145SOL    HW218072   3.494   2.923   5.817  0.0076 -0.2383  1.2376
 2146SOL     OW18073   0.443   3.232   6.808  1.0794 -0.4928  0.1441
 2146SOL    HW118074   0.486   3.317   6.819 -0.0387  0.1974 -0.8049
 2146SOL    HW218075   0.441   3.235   6.712  1.5091 -2.8977  0.0586
 2147SOL     OW18076   1.524   2.425   0.508 -0.0456 -0.1315  0.4767
 2147SOL    HW118077   1.540   2.398   0.598 -2.0121 -2.5549  0.1078
 2147SOL    HW218078   1.600   2.390   0.461 -2.2956 -3.4143 -0.7008
 2148SOL     OW18079   3.954   0.020   3.470 -0.4504  0.2646 -0.6552
 2148SOL    HW118080   3.922   4.713   3.550 -1.2373  0.3841 -0.8971
 2148SOL    HW218081   3.925   4.688   3.407  0.1803 -1.5259  0.9622
 2149SOL     OW18082   2.348   2.314  12.937  0.6803  0.4764 -0.1635
 2149SOL    HW118083   2.347   2.247  12.868  1.0616 -0.1038  0.3922
 2149SOL    HW218084   2.278   2.375  12.913  2.4171  1.6788 -2.0779
 2150SOL     OW18085   4.568   4.345   8.793 -0.3541 -0.0678 -0.1133
 2150SOL    HW118086   4.595   4.289   8.721  1.8341  0.8477  0.0015
 2150SOL    HW218087   4.617   4.427   8.786 -1.9542  1.2343  4.1348
 2151SOL     OW18088   2.156   1.078   7.718  0.1759  0.2044 -0.1329
 2151SOL    HW118089   2.160   1.106   7.626 -0.3488  0.6333 -0.0300
 2151SOL    HW218090   2.061   1.087   7.731 -0.0135 -0.8254 -0.8269
 2152SOL     OW18091   2.076   2.837   6.376 -0.1170  0.1161 -0.0796
 2152SOL    HW118092   2.156   2.798   6.342 -1.2364 -1.1590 -1.2801
 2152SOL    HW218093   2.114   2.896   6.441  3.1108 -1.4442 -0.5793
 2153SOL     OW18094   3.500   4.594  12.994 -0.0482  0.1906 -0.0232
 2153SOL    HW118095   3.520   4.592  13.087 -1.1909 -2.1484  0.1474
 2153SOL    HW218096   3.469   4.685  12.990 -0.3552  0.1477  1.6449
 2154SOL     OW18097   0.436   0.359   7.471  0.2122  0.3524 -0.3422
 2154SOL    HW118098   0.434   0.439   7.418 -0.9805  0.0800 -0.7148
 2154SOL    HW218099   0.471   0.285   7.421 -2.5140 -1.7424  0.8544
 2155SOL     OW18100   0.057   4.404   3.497 -0.3305  0.1747 -0.1753
 2155SOL    HW118101   0.145   4.391   3.461  0.2820 -1.2462  1.8763
 2155SOL    HW218102   0.060   4.499   3.507  0.6710  0.2372 -1.1388
 2156SOL     OW18103   0.529   1.510  10.188  0.4500 -0.3092 -0.2549
 2156SOL    HW118104   0.466   1.489  10.257 -1.0340  0.2721 -1.4119
 2156SOL    HW218105   0.534   1.603  10.209 -1.0750 -0.1847 -0.4161
 2157SOL     OW18106   0.924   0.946   9.456  0.4214 -0.0119 -0.5919
 2157SOL    HW118107   0.839   0.986   9.434  0.3736  0.6348  0.7024
 2157SOL    HW218108   0.986   0.977   9.390  0.4838 -0.6344 -0.8242
 2158SOL     OW18109   2.345   4.364   7.273 -0.3782  0.1731  0.2313
 2158SOL    HW118110   2.369   4.271   7.273  0.4340  0.3777 -0.9182
 2158SOL    HW218111   2.266   4.360   7.219 -0.5275 -0.1609  0.4744
 2159SOL     OW18112   4.560   1.331   7.430  0.1494  0.2246  0.1720
 2159SOL    HW118113   4.513   1.250   7.410  0.1086  0.3875 -0.3931
 2159SOL    HW218114   4.500   1.388   7.478 -0.7528 -1.7893  1.4673
 2160SOL     OW18115   1.097   1.060  15.798  0.4272 -0.1526 -0.0543
 2160SOL    HW118116   1.080   1.022  15.712  0.1448  0.8086 -0.4300
 2160SOL    HW218117   1.184   1.095  15.780  0.9530 -1.3433  0.1612
 2161SOL     OW18118   2.728   2.034  11.190 -0.2866 -0.2917  0.2159
 2161SOL    HW118119   2.804   2.083  11.160 -1.6729  0.0457 -2.6789
 2161SOL    HW218120   2.769   1.957  11.229  0.7678  0.0976 -0.1470
 2162SOL     OW18121   1.532   4.561   5.721  0.3021  0.8183  0.4329
 2162SOL    HW118122   1.479   4.588   5.647  0.0693  0.9023  0.6297
 2162SOL    HW218123   1.616   4.595   5.691 -0.4927  3.1904  0.9079
 2163SOL     OW18124   3.528   4.246   2.408  0.4954 -0.0085  0.2530
 2163SOL    HW118125   3.480   4.206   2.335 -0.3599  0.8294  0.3521
 2163SOL    HW218126   3.619   4.227   2.384  0.6955  0.7291  0.4390
 2164SOL     OW18127   2.051   1.690   3.540  0.2369 -0.1582 -0.3138
 2164SOL    HW118128   1.959   1.669   3.553 -0.2769  2.2713 -0.0953
 2164SOL    HW218129   2.077   1.739   3.618  2.2386 -0.2051 -0.9387
 2165SOL     OW18130   1.734   3.985  13.418  0.0642  0.1647  0.3590
 2165SOL    HW118131   1.687   4.068  13.430 -1.0094  0.0697 -2.9435
 2165SOL    HW218132   1.683   3.959  13.341  2.3628 -1.2024 -0.6709
 2166SOL     OW18133   1.865   1.631   6.418 -0.3763  0.2643  0.7066
 2166SOL    HW118134   1.945   1.681   6.405 -0.5909  0.1661 -0.9314
 2166SOL    HW218135   1.874   1.584   6.501 -0.3942 -1.3067 -0.1754
 2167SOL     OW18136   3.399   4.603  13.704  0.4502  0.0768 -0.7519
 2167SOL    HW118137   3.494   4.606  13.704  0.4584 -0.3476  2.1586
 2167SOL    HW218138   3.380   4.683  13.654 -1.0673  1.5131  2.1072
 2168SOL     OW18139   0.172   3.660   9.398  0.2491 -0.3670 -0.1833
 2168SOL    HW118140   0.194   3.568   9.416  2.3565 -0.3737 -2.9498
 2168SOL    HW218141   0.106   3.643   9.332 -0.8079 -1.1113  1.0614
 2169SOL     OW18142   4.328   3.009   5.334  0.1809 -0.1339 -0.1199
 2169SOL    HW118143   4.287   2.929   5.367  0.4857 -0.7019 -1.1152
 2169SOL    HW218144   4.386   3.035   5.406 -0.6911 -0.6139  0.7505
 2170SOL     OW18145   0.285   2.691  14.499  0.0894  0.0942  0.1796
 2170SOL    HW118146   0.359   2.653  14.547  1.1614  1.3672 -0.4569
 2170SOL    HW218147   0.297   2.648  14.414  0.6878 -0.8185  0.7312
 2171SOL     OW18148   4.079   1.595   8.810  0.3748  0.4699  0.0328
 2171SOL    HW118149   4.006   1.657   8.812 -1.9332 -2.2410 -0.2383
 2171SOL    HW218150   4.048   1.523   8.755  1.4626  0.3366 -0.4178
 2172SOL     OW18151   1.406   1.899   4.907  0.3493  0.0999  0.6885
 2172SOL    HW118152   1.382   1.950   4.985 -2.5895 -0.4567  0.1619
 2172SOL    HW218153   1.321   1.870   4.874  0.6668  0.6655 -0.6471
 2173SOL     OW18154   2.376   1.815  12.876 -0.0413  0.2421 -0.0038
 2173SOL    HW118155   2.300   1.763  12.903 -0.5205  0.5754 -0.7225
 2173SOL    HW218156   2.363   1.810  12.782  0.9164  1.1039 -0.1774
 2174SOL     OW18157   2.021   0.344   3.804 -0.0313  0.2167  0.4959
 2174SOL    HW118158   2.049   0.311   3.718 -1.4742  0.9992 -0.2792
 2174SOL    HW218159   2.008   0.437   3.783  2.0798  0.0038 -1.7296
 2175SOL     OW18160   3.503   2.585  10.011  0.1284  0.0392  0.0750
 2175SOL    HW118161   3.471   2.639  10.083 -2.4816  0.4655 -1.3987
 2175SOL    HW218162   3.460   2.630   9.938  0.8165  1.3236  0.4507
 2176SOL     OW18163   1.516   3.878   6.036 -0.0291 -0.4804 -0.2676
 2176SOL    HW118164   1.522   3.929   6.117 -0.4751 -0.6932 -0.1031
 2176SOL    HW218165   1.465   3.944   5.989 -1.7267 -1.6426 -0.0477
 2177SOL     OW18166   4.452   2.185   4.664  0.2889  0.6042  0.2475
 2177SOL    HW118167   4.484   2.252   4.605 -1.2226  0.9792 -0.1357
 2177SOL    HW218168   4.471   2.109   4.608 -0.7440  1.1723 -0.8705
 2178SOL     OW18169   2.734   1.452   6.397  0.0193 -0.0927 -1.1356
 2178SOL    HW118170   2.648   1.424   6.367 -0.8906  0.4959  0.8629
 2178SOL    HW218171   2.709   1.540   6.427  1.8792  1.2202 -3.4476
 2179SOL     OW18172   3.369   1.495  12.774 -0.2462 -0.5482  0.3971
 2179SOL    HW118173   3.368   1.479  12.868  1.7938 -0.7440  0.3869
 2179SOL    HW218174   3.422   1.575  12.774  1.1153 -1.4723 -3.3043
 2180SOL     OW18175   4.206   3.750  15.711 -0.3668  0.0768 -0.5952
 2180SOL    HW118176   4.152   3.683  15.668 -0.0264 -1.5784  1.5359
 2180SOL    HW218177   4.270   3.768  15.643 -0.8923 -1.4378 -1.4922
 2181SOL     OW18178   4.553   2.457   5.135 -0.4944  0.5549 -0.3990
 2181SOL    HW118179   4.554   2.453   5.039 -0.9908  1.0677 -0.4261
 2181SOL    HW218180   4.482   2.520   5.147 -1.3195 -0.2905 -0.8892
 2182SOL     OW18181   1.322   2.842   3.328  0.3146 -0.1346 -0.1094
 2182SOL    HW118182   1.311   2.935   3.311 -2.2829 -0.4360 -0.1659
 2182SOL    HW218183   1.392   2.840   3.394 -0.2953  1.3065  0.5734
 2183SOL     OW18184   4.131   2.020  13.885  0.3798  0.4509 -0.0045
 2183SOL    HW118185   4.212   2.058  13.921 -0.4059  0.2432  1.9816
 2183SOL    HW218186   4.165   1.932  13.870 -0.3215  0.2475 -0.3820
 2184SOL     OW18187   0.814   1.328   6.900 -0.2101  0.0284  0.2454
 2184SOL    HW118188   0.742   1.305   6.842 -0.3080  1.6928 -0.2673
 2184SOL    HW218189   0.895   1.328   6.849  0.4452 -4.0749  1.2782
 2185SOL     OW18190   4.364   0.779   8.853 -1.3321  0.5118  0.3425
 2185SOL    HW118191   4.447   0.810   8.889 -0.5857 -0.1224 -0.8314
 2185SOL    HW218192   4.339   0.858   8.806  0.5550  0.7998 -0.1907
 2186SOL     OW18193   4.645   4.477   1.932 -0.4421 -0.2259 -0.1194
 2186SOL    HW118194   4.729   4.482   1.977 -0.7676  1.9910  0.2887
 2186SOL    HW218195   4.599   4.506   2.011 -0.5698 -0.9438  0.0612
 2187SOL     OW18196   3.779   4.400   3.568  0.1212  0.7288 -0.2466
 2187SOL    HW118197   3.840   4.433   3.501 -0.3362  0.9848 -0.5406
 2187SOL    HW218198   3.833   4.333   3.610 -2.1084 -0.2831  0.9985
 2188SOL     OW18199   1.020   3.199   2.616 -0.0707 -0.5200  0.0748
 2188SOL    HW118200   1.024   3.170   2.525 -1.0165  1.2255 -0.5123
 2188SOL    HW218201   1.025   3.294   2.605 -2.4718 -0.6321 -1.8413
 2189SOL     OW18202   0.066   1.717   7.525  0.1904  0.1512  0.4479
 2189SOL    HW118203   0.116   1.638   7.545  1.2617  0.8127  0.3277
 2189SOL    HW218204   0.121   1.788   7.557  2.6144 -1.0941 -0.9990
 2190SOL     OW18205   2.122   4.307   7.110 -0.1979  0.6999 -0.4557
 2190SOL    HW118206   2.125   4.213   7.126 -0.4356  0.8001  0.1783
 2190SOL    HW218207   2.151   4.303   7.019  0.6081  0.8095 -0.1973
 2191SOL     OW18208   4.308   2.834   9.126 -0.4363 -0.2018 -0.2775
 2191SOL    HW118209   4.249   2.875   9.062  2.5089 -0.3151 -3.0254
 2191SOL    HW218210   4.240   2.806   9.188 -0.1453 -0.3028 -0.0041
 2192SOL     OW18211   1.281   2.808   7.590 -0.0219  0.4631 -0.1366
 2192SOL    HW118212   1.231   2.886   7.565 -0.7040  0.1960  0.3884
 2192SOL    HW218213   1.207   2.754   7.617  1.4019 -1.0967  0.6178
 2193SOL     OW18214   3.343   3.334  15.688  0.0239 -0.3639  0.0425
 2193SOL    HW118215   3.258   3.338  15.646  0.8502  0.2795 -1.5550
 2193SOL    HW218216   3.397   3.405  15.653 -0.5183  0.0277 -0.0009
 2194SOL     OW18217   0.944   2.493   6.977 -0.2219 -0.6094 -0.1343
 2194SOL    HW118218   1.015   2.507   6.914 -0.1579 -0.9784 -0.1445
 2194SOL    HW218219   0.898   2.576   6.975  0.5980 -0.1384  0.5898
 2195SOL     OW18220   2.521   2.139  12.143 -0.0588 -0.1047 -0.1419
 2195SOL    HW118221   2.602   2.160  12.188  0.5603  0.5783 -1.5532
 2195SOL    HW218222   2.545   2.059  12.096 -2.6142 -1.1889  0.3637
 2196SOL     OW18223   2.616   4.628  11.914 -0.4369 -0.0372  0.2943
 2196SOL    HW118224   2.682   4.560  11.928  0.7185  0.9607 -0.2801
 2196SOL    HW218225   2.539   4.572  11.920 -0.7770  0.3587 -0.3085
 2197SOL     OW18226   2.053   0.108   1.406 -0.1123 -0.3080  0.4491
 2197SOL    HW118227   2.002   0.184   1.433  1.2007  0.5341  0.5233
 2197SOL    HW218228   1.983   0.054   1.369 -1.3326  1.6275 -0.0801
 2198SOL     OW18229   2.279   3.351   9.405  0.6772 -0.3106  0.0768
 2198SOL    HW118230   2.193   3.388   9.387  0.2346 -0.7412  1.2461
 2198SOL    HW218231   2.323   3.353   9.321  0.8531  0.4986  0.1895
 2199SOL     OW18232   2.198   3.072   7.789  0.4276 -0.1227 -0.1335
 2199SOL    HW118233   2.153   3.147   7.749 -0.9997 -1.8953 -1.8642
 2199SOL    HW218234   2.279   3.086   7.740  0.2667 -1.1407 -0.7016
 2200SOL     OW18235   0.636   1.970  14.049  0.3323 -0.6201  0.1787
 2200SOL    HW118236   0.558   1.920  14.028 -0.1148 -0.0604  0.5261
 2200SOL    HW218237   0.663   1.991  13.960 -2.0588  0.0614 -0.3854
 2201SOL     OW18238   3.129   4.663   4.144 -0.3699 -0.1636  0.1773
 2201SOL    HW118239   3.063   4.640   4.078 -1.5487 -0.3419  1.4083
 2201SOL    HW218240   3.206   4.649   4.089  1.1558  0.8824  2.0485
 2202SOL     OW18241   3.767   4.268   9.933  0.0926 -0.4805  0.2869
 2202SOL    HW118242   3.766   4.309  10.019 -0.5941  0.3859 -0.1309
 2202SOL    HW218243   3.690   4.212   9.939 -0.9245  0.7331 -1.4667
 2203SOL     OW18244   2.421   0.750   6.758 -0.0701  0.0165 -0.3839
 2203SOL    HW118245   2.517   0.751   6.762 -0.1674  1.1649  1.3489
 2203SOL    HW218246   2.409   0.694   6.681  2.2745  1.8281 -2.0699
 2204SOL     OW18247   1.411   3.249  12.860 -0.1816 -0.0671 -0.0339
 2204SOL    HW118248   1.373   3.162  12.872  0.4647 -0.7070 -2.4699
 2204SOL    HW218249   1.439   3.250  12.768  0.8073  2.8882  0.3056
 2205SOL     OW18250   0.114   3.563   8.704  0.0337  0.0632 -0.3151
 2205SOL    HW118251   0.141   3.496   8.766 -0.4325 -1.4275 -1.7174
 2205SOL    HW218252   0.197   3.572   8.656  0.8603 -2.5620  0.6329
 2206SOL     OW18253   0.471   0.153   8.671 -0.3862 -0.1938  0.1930
 2206SOL    HW118254   0.397   0.213   8.687 -0.6553 -0.0565 -1.5922
 2206SOL    HW218255   0.517   0.199   8.602 -0.5131  1.0662  0.9462
 2207SOL     OW18256   2.264   3.482  16.915  0.2184  0.3292  0.1028
 2207SOL    HW118257   2.266   3.564  16.865  1.4673  1.0822  1.3733
 2207SOL    HW218258   2.181   3.446  16.884 -0.1329  2.0308 -0.9296
 2208SOL     OW18259   2.410   2.294   3.596  0.4877  0.4410 -0.8029
 2208SOL    HW118260   2.327   2.257   3.625  1.1316 -0.3337  0.0611
 2208SOL    HW218261   2.476   2.247   3.648 -1.8871 -1.8157  0.1807
 2209SOL     OW18262   0.863   3.765   3.219 -0.3812 -0.1409  0.1551
 2209SOL    HW118263   0.939   3.707   3.223  0.2057  0.5838 -0.7581
 2209SOL    HW218264   0.812   3.716   3.154 -1.3806  0.2693  0.6212
 2210SOL     OW18265   1.614   1.536   7.681  0.0732 -0.0991  0.6158
 2210SOL    HW118266   1.637   1.582   7.762 -0.8685  0.8899  0.3190
 2210SOL    HW218267   1.703   1.509   7.660 -0.0392 -0.8061  1.0690
 2211SOL     OW18268   0.621   3.277  11.084  0.1859  0.6316  0.0625
 2211SOL    HW118269   0.572   3.201  11.115 -1.0233  1.1585 -0.5658
 2211SOL    HW218270   0.620   3.333  11.161 -2.9002  0.1986  0.3353
 2212SOL     OW18271   2.204   4.068   1.676 -0.4733  0.2474 -0.1169
 2212SOL    HW118272   2.213   4.128   1.749 -1.2672 -0.0239  0.2063
 2212SOL    HW218273   2.181   4.133   1.610  0.6202  0.3170 -0.4268
 2213SOL     OW18274   4.276   0.951  12.218  0.4889 -0.6127  0.3079
 2213SOL    HW118275   4.335   0.938  12.292 -2.2892 -2.0853  2.2482
 2213SOL    HW218276   4.344   0.940  12.151  1.1529 -1.2872  1.0943
 2214SOL     OW18277   4.547   2.152   0.282 -0.0409 -0.6949  0.1145
 2214SOL    HW118278   4.474   2.111   0.236 -0.9965 -0.3564  1.3275
 2214SOL    HW218279   4.513   2.242   0.281  0.2673 -0.5775  0.1180
 2215SOL     OW18280   2.188   3.412  15.073 -0.9011  0.2912 -0.2593
 2215SOL    HW118281   2.229   3.337  15.117  0.4346  0.6463 -0.9090
 2215SOL    HW218282   2.095   3.393  15.083 -0.5816 -1.8558 -1.4851
 2216SOL     OW18283   2.296   0.233   9.414 -0.5782  0.3324  0.0875
 2216SOL    HW118284   2.283   0.169   9.483  0.9447  1.0062  0.9897
 2216SOL    HW218285   2.226   0.297   9.428 -0.1624  0.3531  2.0570
 2217SOL     OW18286   3.611   2.294   8.633 -0.1214  0.4801  0.1033
 2217SOL    HW118287   3.701   2.302   8.665  0.0828  2.2732 -0.8889
 2217SOL    HW218288   3.571   2.260   8.714  0.2334 -1.7576 -0.6835
 2218SOL     OW18289   4.148   4.537   8.722 -0.2719  0.0710 -0.4366
 2218SOL    HW118290   4.083   4.583   8.669 -1.8236 -1.0135  0.4877
 2218SOL    HW218291   4.163   4.590   8.800 -1.0937 -0.9163  0.4041
 2219SOL     OW18292   1.291   0.808  12.297 -0.7617 -0.1177 -0.3291
 2219SOL    HW118293   1.370   0.837  12.344 -1.0125 -2.2227  1.3929
 2219SOL    HW218294   1.313   0.715  12.286 -1.1668 -0.2019 -0.4131
 2220SOL     OW18295   1.506   4.067  15.360  0.5912 -0.5014  0.2919
 2220SOL    HW118296   1.456   4.000  15.407  0.2022 -1.2885 -1.2475
 2220SOL    HW218297   1.443   4.140  15.363  0.8580 -0.2008 -1.1601
 2221SOL     OW18298   3.831   4.231  15.286  0.0932  0.0197 -0.3140
 2221SOL    HW118299   3.915   4.187  15.273 -0.1093 -0.7067  0.8269
 2221SOL    HW218300   3.819   4.270  15.199 -0.6856  1.5673  0.4913
 2222SOL     OW18301   1.985   2.911   4.291 -0.7466  0.0391  0.5946
 2222SOL    HW118302   1.949   2.989   4.250 -0.1851 -0.3200 -0.5968
 2222SOL    HW218303   1.998   2.855   4.214  0.0692 -1.3445  1.7357
 2223SOL     OW18304   1.500   4.708   6.328  0.5127  0.0634 -0.2319
 2223SOL    HW118305   1.570   4.644   6.318 -0.5099 -1.3162  1.5265
 2223SOL    HW218306   1.491   4.693   6.422  2.5039 -0.4632 -0.1229
 2224SOL     OW18307   1.615   2.590   7.874 -0.1426  0.3100 -0.0098
 2224SOL    HW118308   1.627   2.541   7.793  2.3346 -1.2165  1.2732
 2224SOL    HW218309   1.535   2.566   7.922 -1.1741  0.6027 -1.5870
 2225SOL     OW18310   1.125   2.555   3.430 -0.5712 -0.3278 -0.3881
 2225SOL    HW118311   1.063   2.489   3.459 -1.4259  0.7429  0.2177
 2225SOL    HW218312   1.204   2.533   3.480  0.3211  1.6872 -0.9140
 2226SOL     OW18313   3.247   1.656   7.845  0.7850  0.9838 -0.6013
 2226SOL    HW118314   3.178   1.633   7.907  2.6536 -0.5399  0.8961
 2226SOL    HW218315   3.316   1.704   7.891 -0.3767  1.8563  0.2322
 2227SOL     OW18316   4.240   2.877   4.578  0.3802 -0.4011  0.0297
 2227SOL    HW118317   4.164   2.929   4.554  1.3280  0.1945 -1.6731
 2227SOL    HW218318   4.273   2.919   4.657 -1.7978  1.9869 -0.3169
 2228SOL     OW18319   0.830   2.884   1.114 -0.2020  0.0732 -0.3731
 2228SOL    HW118320   0.872   2.908   1.197 -0.3605 -0.2509 -0.2019
 2228SOL    HW218321   0.738   2.880   1.140  0.3922 -0.9304  1.5597
 2229SOL     OW18322   2.473   2.740  16.737  0.2885 -0.4255 -0.3053
 2229SOL    HW118323   2.568   2.744  16.738  0.2306  1.4298 -0.6836
 2229SOL    HW218324   2.457   2.834  16.741  1.0286 -0.3844  1.4199
 2230SOL     OW18325   2.365   1.153   0.290  0.2806 -0.3128 -0.1943
 2230SOL    HW118326   2.452   1.113   0.298  1.2369  2.3595  2.6044
 2230SOL    HW218327   2.371   1.219   0.359 -1.4704  0.5394 -0.8718
 2231SOL     OW18328   0.800   3.596   6.914 -0.0934  0.0718 -0.6545
 2231SOL    HW118329   0.738   3.667   6.892 -1.1477 -0.3392  1.0457
 2231SOL    HW218330   0.858   3.637   6.978 -0.8730 -1.0511  0.7583
 2232SOL     OW18331   3.082   1.838   3.478  0.0635  0.2871  0.1550
 2232SOL    HW118332   3.061   1.915   3.425 -1.1654 -1.0237 -1.2432
 2232SOL    HW218333   3.015   1.843   3.547 -0.3186 -1.5118 -0.0918
 2233SOL     OW18334   3.187   2.053   2.151  0.3605 -0.2002  0.0791
 2233SOL    HW118335   3.199   2.058   2.246  0.8232 -0.1063  0.0160
 2233SOL    HW218336   3.098   2.026   2.128 -0.3936  1.1234  1.4731
 2234SOL     OW18337   3.342   0.314  16.028  0.1753 -0.9818 -0.4270
 2234SOL    HW118338   3.272   0.283  16.086 -1.5475  0.4604 -1.7090
 2234SOL    HW218339   3.403   0.350  16.092 -1.4037  1.6288 -0.3936
 2235SOL     OW18340   1.282   1.720  15.041 -0.2306  0.3051  0.4208
 2235SOL    HW118341   1.315   1.744  15.128 -0.1150 -1.6431  0.9175
 2235SOL    HW218342   1.358   1.675  15.006  0.4217  0.2778  1.8660
 2236SOL     OW18343   3.112   2.880   1.731 -0.4525  0.2652 -0.5296
 2236SOL    HW118344   3.061   2.956   1.761 -0.4160  0.0422  0.1035
 2236SOL    HW218345   3.066   2.862   1.649 -0.5525  0.7000 -0.5666
 2237SOL     OW18346   4.472   2.270   8.092  0.0714  0.8134  0.3260
 2237SOL    HW118347   4.539   2.248   8.157 -0.8780 -2.1257  0.2993
 2237SOL    HW218348   4.510   2.330   8.027 -2.1207 -0.1207 -1.7972
 2238SOL     OW18349   0.749   2.637   8.280 -0.1661 -0.0701  0.8667
 2238SOL    HW118350   0.673   2.618   8.335  1.1044  0.0014  2.6339
 2238SOL    HW218351   0.758   2.727   8.309 -2.0231  1.2182 -2.5081
 2239SOL     OW18352   2.235   2.642   0.960  0.3076 -0.1121 -0.7949
 2239SOL    HW118353   2.274   2.562   0.996  1.0238  0.6206  0.0689
 2239SOL    HW218354   2.180   2.670   1.034  1.6493  0.4162  0.0066
 2240SOL     OW18355   2.678   1.143   6.133 -0.0922 -0.1215  0.0043
 2240SOL    HW118356   2.742   1.079   6.163  1.6958  1.6388 -0.0184
 2240SOL    HW218357   2.593   1.102   6.121  0.2119 -0.5776 -0.6163
 2241SOL     OW18358   2.441   2.753  10.435 -0.0287 -0.3493  1.0373
 2241SOL    HW118359   2.395   2.744  10.518  0.5811  0.2425  1.4374
 2241SOL    HW218360   2.377   2.706  10.382 -0.2939  1.2216 -0.0431
 2242SOL     OW18361   3.250   2.718   0.358 -0.2398 -0.7697 -0.3274
 2242SOL    HW118362   3.250   2.624   0.341  0.7982 -0.4658 -1.9552
 2242SOL    HW218363   3.177   2.720   0.420  0.1054 -2.0446  0.1181
 2243SOL     OW18364   2.695   0.764   1.776 -0.7233  0.1497  0.0966
 2243SOL    HW118365   2.655   0.849   1.796 -0.5002  1.1078 -3.6059
 2243SOL    HW218366   2.643   0.733   1.702  0.4103 -1.8524  0.1505
 2244SOL     OW18367   1.639   1.805   8.258  0.3135 -0.1504 -0.1355
 2244SOL    HW118368   1.641   1.879   8.198 -1.3016  0.9672  1.1655
 2244SOL    HW218369   1.705   1.750   8.216  2.6322  0.7010  2.4066
 2245SOL     OW18370   1.870   0.645  17.240  0.1117  0.1580  0.5833
 2245SOL    HW118371   1.858   0.571  17.181  0.5715  1.1280 -0.7337
 2245SOL    HW218372   1.914   0.595  17.308 -0.5007 -0.0459  0.8258
 2246SOL     OW18373   1.174   3.937  16.445  0.1525  0.2711  0.3759
 2246SOL    HW118374   1.191   3.952  16.352 -2.1100  0.2307 -0.0587
 2246SOL    HW218375   1.190   3.843  16.439 -0.7686 -0.0762  3.5380
 2247SOL     OW18376   0.581   2.580  13.732 -0.2918 -0.4451  0.2551
 2247SOL    HW118377   0.559   2.544  13.647  1.0016 -0.9170  0.1132
 2247SOL    HW218378   0.494   2.595  13.768 -0.1807  0.7094  0.0545
 2248SOL     OW18379   3.947   4.072   7.821 -0.2709 -0.4346 -0.2998
 2248SOL    HW118380   3.960   3.980   7.841 -1.9406 -0.4238  0.9077
 2248SOL    HW218381   4.029   4.102   7.783  1.0162 -1.7850  1.4106
 2249SOL     OW18382   0.157   1.997  16.358  0.8137 -0.2597  0.0467
 2249SOL    HW118383   0.092   1.952  16.413  0.3954  1.3716  0.8911
 2249SOL    HW218384   0.229   2.026  16.414 -0.4189  1.8135  0.5812
 2250SOL     OW18385   2.135   1.677   0.721  0.1125  1.0504  0.0584
 2250SOL    HW118386   2.160   1.770   0.724 -2.4914  1.7941 -1.6271
 2250SOL    HW218387   2.128   1.665   0.815 -3.6083  2.5755 -0.0355
 2251SOL     OW18388   1.005   4.568   9.251 -0.1051  0.7566 -0.1159
 2251SOL    HW118389   0.926   4.619   9.233 -0.9255 -1.2782 -2.1960
 2251SOL    HW218390   0.996   4.535   9.341  0.7283 -0.5724 -0.5193
 2252SOL     OW18391   3.855   2.363   5.625 -0.9173  0.6224 -0.2837
 2252SOL    HW118392   3.795   2.290   5.642 -0.1172 -0.1977 -0.9851
 2252SOL    HW218393   3.912   2.345   5.700  0.5197  2.6156 -0.9128
 2253SOL     OW18394   1.419   0.565   3.277 -0.1323  0.5843 -0.4349
 2253SOL    HW118395   1.429   0.470   3.269  2.5160  0.8407 -0.3620
 2253SOL    HW218396   1.453   0.594   3.192 -0.5968  0.2819 -0.7247
 2254SOL     OW18397   4.580   1.793   6.498  0.7070 -0.3781 -0.2211
 2254SOL    HW118398   4.653   1.849   6.471 -0.7581  1.0687 -1.1856
 2254SOL    HW218399   4.630   1.725   6.543  0.4439  0.4236  1.2989
 2255SOL     OW18400   1.285   2.025   2.214 -0.1256 -0.3768 -0.2569
 2255SOL    HW118401   1.206   2.065   2.178 -0.7947 -0.2823  1.3108
 2255SOL    HW218402   1.347   2.098   2.206  1.3395 -1.3380  2.5548
 2256SOL     OW18403   1.603   3.416   8.529 -0.0184 -0.1692  0.2431
 2256SOL    HW118404   1.523   3.365   8.519 -0.8669  0.7251  2.3609
 2256SOL    HW218405   1.593   3.444   8.620  0.1122  0.4889  0.0552
 2257SOL     OW18406   3.169   3.779   5.791 -0.3602  0.0446 -0.1684
 2257SOL    HW118407   3.110   3.736   5.729 -0.5004 -0.1368  0.0868
 2257SOL    HW218408   3.254   3.769   5.750 -0.4681  1.2670 -0.6677
 2258SOL     OW18409   3.348   4.195   1.821 -0.2875  0.1383  0.5505
 2258SOL    HW118410   3.437   4.207   1.788 -0.0202 -1.7614  0.6237
 2258SOL    HW218411   3.309   4.283   1.820 -0.8195 -0.0983  0.9903
 2259SOL     OW18412   1.174   4.544   9.969  0.1071  0.5968 -0.0032
 2259SOL    HW118413   1.206   4.508  10.052 -0.0484 -1.7179 -0.9694
 2259SOL    HW218414   1.233   4.494   9.913  0.9879 -0.0334  1.4842
 2260SOL     OW18415   4.128   3.566   3.513  0.4055  0.2721 -0.0414
 2260SOL    HW118416   4.073   3.593   3.440 -0.3307 -0.3221  0.2988
 2260SOL    HW218417   4.081   3.484   3.527 -1.5985  1.3360 -0.6233
 2261SOL     OW18418   3.513   0.144  12.430 -0.0184 -0.6767 -0.8263
 2261SOL    HW118419   3.574   0.086  12.384  0.7844 -1.1841  0.8785
 2261SOL    HW218420   3.467   0.078  12.481  0.4955  1.6927  2.7771
 2262SOL     OW18421   0.319   2.143   8.926 -0.1315  0.0291  0.3819
 2262SOL    HW118422   0.256   2.126   8.996  1.2058 -0.4069  1.4659
 2262SOL    HW218423   0.285   2.225   8.889 -0.6585 -0.7637 -0.9184
 2263SOL     OW18424   3.189   1.288   2.818  0.1881 -0.0126 -0.1242
 2263SOL    HW118425   3.138   1.369   2.810  1.2633  0.6428 -0.4743
 2263SOL    HW218426   3.275   1.318   2.788  0.1500  1.2840  1.0380
 2264SOL     OW18427   3.793   3.691   5.968  0.0922 -0.5188 -0.2698
 2264SOL    HW118428   3.744   3.671   6.048  2.8747 -1.9959  1.0745
 2264SOL    HW218429   3.833   3.777   5.981  0.6359 -0.6512 -1.0852
 2265SOL     OW18430   1.675   1.122   6.356 -0.6434 -0.6656 -0.1086
 2265SOL    HW118431   1.749   1.154   6.304  0.2665 -0.5769  1.2329
 2265SOL    HW218432   1.705   1.146   6.443  0.7028  0.1198 -0.7755
 2266SOL     OW18433   1.834   3.382   4.139 -0.0292  0.5466  0.0489
 2266SOL    HW118434   1.822   3.409   4.048  0.1611 -2.7813 -0.9509
 2266SOL    HW218435   1.804   3.463   4.180 -5.1362 -0.3357 -1.8979
 2267SOL     OW18436   0.100   2.542   5.118 -0.7642  0.7183 -0.1988
 2267SOL    HW118437   0.038   2.504   5.056 -0.5024 -1.4321  0.8652
 2267SOL    HW218438   0.049   2.616   5.152 -1.8445 -0.4868  0.7956
 2268SOL     OW18439   1.898   4.659   2.211  0.6792  0.3472 -0.5082
 2268SOL    HW118440   1.834   4.636   2.144  0.9880 -0.6584 -0.4641
 2268SOL    HW218441   1.974   4.638   2.158 -0.5321  0.7569 -2.3901
 2269SOL     OW18442   2.995   3.971   1.494 -0.5326 -0.3834 -0.1048
 2269SOL    HW118443   3.021   4.018   1.415 -0.2289 -0.3639  0.0034
 2269SOL    HW218444   3.065   4.001   1.553 -1.1467  0.3874  0.2229
 2270SOL     OW18445   3.058   3.609  13.175 -0.1026  0.2287 -0.3688
 2270SOL    HW118446   3.023   3.522  13.155 -0.7493  0.1958  0.9054
 2270SOL    HW218447   2.983   3.650  13.217 -1.0049 -1.9161  0.0942
 2271SOL     OW18448   3.636   4.150   8.524  0.1509  0.8048 -0.7083
 2271SOL    HW118449   3.624   4.191   8.609 -0.5378 -0.2733 -0.2853
 2271SOL    HW218450   3.704   4.082   8.529 -0.1573  0.5206 -0.3728
 2272SOL     OW18451   0.027   2.312   1.368  0.1105 -0.0838 -0.0392
 2272SOL    HW118452   0.057   2.395   1.331  1.3372 -0.4981 -0.0015
 2272SOL    HW218453   4.667   2.318   1.361  0.1851  2.9338  1.6639
 2273SOL     OW18454   0.567   2.184   7.937 -0.0826  0.8195 -0.3146
 2273SOL    HW118455   0.650   2.202   7.981  0.9389 -0.9486 -1.5127
 2273SOL    HW218456   0.591   2.182   7.844  0.4452  3.3859 -0.2488
 2274SOL     OW18457   2.747   3.784   8.265  0.2713 -0.1700  0.2989
 2274SOL    HW118458   2.728   3.777   8.171  1.2976  0.4328  0.0451
 2274SOL    HW218459   2.666   3.771   8.313 -0.4365  0.0603 -0.8469
 2275SOL     OW18460   1.834   2.438   5.678 -0.2578 -0.4672 -0.3667
 2275SOL    HW118461   1.896   2.439   5.605 -1.0279 -1.8876 -1.0565
 2275SOL    HW218462   1.823   2.343   5.687 -0.1136 -0.6068 -1.6466
 2276SOL     OW18463   2.043   4.133   0.536 -0.3915  0.1847 -0.0894
 2276SOL    HW118464   2.073   4.224   0.537 -0.7503  0.3033 -0.2985
 2276SOL    HW218465   1.996   4.132   0.453 -1.9238 -0.6520  0.7800
 2277SOL     OW18466   2.051   1.345   9.917 -0.4201  0.1511 -0.1994
 2277SOL    HW118467   1.993   1.278   9.954  0.6189 -0.8906 -0.4846
 2277SOL    HW218468   2.135   1.307   9.942 -0.6985 -0.1037  0.3461
 2278SOL     OW18469   4.256   0.963   5.677  0.2384 -0.1558 -0.2451
 2278SOL    HW118470   4.201   0.886   5.687 -0.7444  0.5140 -0.5639
 2278SOL    HW218471   4.185   1.026   5.670  0.3107  0.0068  0.5565
 2279SOL     OW18472   1.203   2.071   4.554  0.7364 -0.5237  0.0917
 2279SOL    HW118473   1.115   2.107   4.560  0.4543 -1.1369 -0.3515
 2279SOL    HW218474   1.223   2.064   4.648 -0.5802 -1.1480  0.3292
 2280SOL     OW18475   3.407   0.514   4.901 -0.3282 -0.6997 -0.4894
 2280SOL    HW118476   3.500   0.497   4.889 -0.1456  0.9428 -1.3560
 2280SOL    HW218477   3.363   0.441   4.944 -2.6880 -0.0528 -1.8001
 2281SOL     OW18478   2.700   1.784   8.079 -0.1980 -1.1251 -0.1384
 2281SOL    HW118479   2.794   1.775   8.090 -0.1223  0.1089  0.1658
 2281SOL    HW218480   2.673   1.726   8.150 -1.3139 -1.6517 -0.9796
 2282SOL     OW18481   4.533   3.041   0.966 -0.1630 -0.0097  0.4673
 2282SOL    HW118482   4.460   3.096   0.994  1.2424  2.8632 -1.5988
 2282SOL    HW218483   4.498   2.958   0.998  0.9768 -0.0993  1.4816
 2283SOL     OW18484   0.714   0.186   2.178  0.2322  0.3432 -0.0870
 2283SOL    HW118485   0.664   0.222   2.105  1.6222 -1.8555 -2.1398
 2283SOL    HW218486   0.657   0.218   2.248 -0.6634  1.6940 -1.4362
 2284SOL     OW18487   2.968   0.794   6.478 -0.4088 -0.3816  0.2453
 2284SOL    HW118488   3.004   0.706   6.494  0.1453 -0.0294  0.9093
 2284SOL    HW218489   3.048   0.844   6.464 -0.2594 -1.1411 -1.6744
 2285SOL     OW18490   0.122   2.073   2.315 -0.3487  0.0663  0.4466
 2285SOL    HW118491   0.203   2.063   2.364  0.9854  2.4512 -1.2232
 2285SOL    HW218492   0.124   2.000   2.253 -1.1641  0.4636 -0.0594
 2286SOL     OW18493   0.009   1.673   4.847  0.5010  0.4910 -0.3270
 2286SOL    HW118494   0.019   1.697   4.939  0.4891 -0.5895 -0.0466
 2286SOL    HW218495   4.658   1.709   4.826  0.0548 -0.1172  0.4786
 2287SOL     OW18496   3.885   1.035   6.886 -0.1945 -0.4049 -0.3770
 2287SOL    HW118497   3.851   1.067   6.970 -0.3525 -1.3697 -0.0797
 2287SOL    HW218498   3.807   0.993   6.851  1.4042 -2.6790 -1.1505
 2288SOL     OW18499   3.355   0.807   0.365 -0.6587 -0.5953  0.2705
 2288SOL    HW118500   3.352   0.901   0.347 -1.0353 -0.8538 -1.0679
 2288SOL    HW218501   3.392   0.784   0.279 -0.7124  2.3486 -0.5488
 2289SOL     OW18502   0.164   3.794   1.519 -0.1618  0.5681  1.0603
 2289SOL    HW118503   0.189   3.885   1.536  0.9722  0.9802 -2.7202
 2289SOL    HW218504   0.213   3.780   1.438 -0.6072  0.0366  0.8834
 2290SOL     OW18505   4.091   2.250   5.192  0.3162 -0.2149 -0.2551
 2290SOL    HW118506   4.095   2.207   5.106  2.6412 -2.0071  0.7406
 2290SOL    HW218507   4.142   2.329   5.174  0.3022 -0.4759 -1.4182
 2291SOL     OW18508   1.241   2.155  10.958  0.7734  0.2751 -0.2160
 2291SOL    HW118509   1.212   2.246  10.964  0.4316  0.0615  1.3726
 2291SOL    HW218510   1.326   2.161  11.001  0.1927  1.0819  0.7874
 2292SOL     OW18511   3.632   2.411   6.456 -0.0996  0.9201  0.2118
 2292SOL    HW118512   3.705   2.431   6.399  1.4818 -1.8335  1.2880
 2292SOL    HW218513   3.662   2.354   6.527 -2.8997  1.7856  2.1174
 2293SOL     OW18514   2.047   0.033   2.923  0.4092  0.0140 -0.1082
 2293SOL    HW118515   2.061   0.119   2.884  0.6406 -0.3415 -0.8102
 2293SOL    HW218516   1.982   0.000   2.860 -1.1936 -0.9675  2.0240
 2294SOL     OW18517   3.738   4.380   5.176 -0.4984  0.8229  0.1154
 2294SOL    HW118518   3.670   4.394   5.111  0.4782  0.9090 -0.8949
 2294SOL    HW218519   3.692   4.420   5.249  0.6398 -1.0190  1.8551
 2295SOL     OW18520   2.802   3.836   8.850 -0.2581  0.2691  0.0647
 2295SOL    HW118521   2.801   3.890   8.929 -0.2438  0.5011 -0.0922
 2295SOL    HW218522   2.740   3.889   8.800 -0.1785  0.2595 -0.0426
 2296SOL     OW18523   2.646   3.141   4.933  0.4288  0.3651  0.2426
 2296SOL    HW118524   2.728   3.148   4.884  1.3851 -0.3555  1.7538
 2296SOL    HW218525   2.590   3.115   4.860  0.6077  0.9872 -0.1160
 2297SOL     OW18526   0.070   2.493  16.312  0.0616 -0.1213  0.1897
 2297SOL    HW118527   0.127   2.416  16.304 -2.6207 -1.5073 -5.4709
 2297SOL    HW218528   0.022   2.464  16.389 -1.6707 -0.6016 -1.0881
 2298SOL     OW18529   0.137   3.730  10.781  0.1260  0.1490 -0.1816
 2298SOL    HW118530   0.116   3.778  10.861  0.4716 -1.4106  0.8369
 2298SOL    HW218531   0.076   3.767  10.717  0.3280  2.8783  1.2057
 2299SOL     OW18532   0.034   4.558  13.815 -0.6468  0.4425 -0.1880
 2299SOL    HW118533   4.730   4.552  13.728 -1.4389 -0.8367  0.2526
 2299SOL    HW218534   4.724   4.637  13.845  1.8654  1.4957  0.8513
 2300SOL     OW18535   3.557   4.358   3.144 -0.0538  0.3061  0.4947
 2300SOL    HW118536   3.484   4.296   3.138 -0.2386  0.4203  1.4297
 2300SOL    HW218537   3.585   4.371   3.054 -0.2264 -4.2804 -0.2226
 2301SOL     OW18538   0.555   2.882   1.217  0.3785 -0.2105 -0.4439
 2301SOL    HW118539   0.581   2.927   1.297 -2.6777  0.1921  0.3440
 2301SOL    HW218540   0.465   2.913   1.207  0.3959  0.6686  2.1300
 2302SOL     OW18541   3.309   0.220  10.069 -0.2438 -0.1679  0.5831
 2302SOL    HW118542   3.251   0.144  10.069 -0.9467  0.3693  0.5730
 2302SOL    HW218543   3.381   0.206  10.008 -2.2719  0.8831 -2.0680
 2303SOL     OW18544   3.153   4.074   3.841  0.4875  0.0588  0.6098
 2303SOL    HW118545   3.058   4.075   3.838  0.5116  0.9805  0.0165
 2303SOL    HW218546   3.174   3.993   3.794 -0.5663  0.0661  0.1275
 2304SOL     OW18547   1.633   0.453   4.384  0.2249  0.3050  0.3354
 2304SOL    HW118548   1.659   0.365   4.411  0.7328  0.8829  1.7031
 2304SOL    HW218549   1.721   0.480   4.357  0.1307  0.3470  0.0756
 2305SOL     OW18550   1.768   3.023   6.536  0.3568 -0.1672 -0.0913
 2305SOL    HW118551   1.758   3.118   6.534  0.0950 -0.1790  1.2647
 2305SOL    HW218552   1.844   3.013   6.593 -0.3753 -1.2965  0.6711
 2306SOL     OW18553   4.299   1.308   4.496 -0.0946 -0.1807  0.5625
 2306SOL    HW118554   4.359   1.349   4.558 -0.1732 -2.7020  2.3476
 2306SOL    HW218555   4.288   1.380   4.435  0.2840 -1.3514 -0.8975
 2307SOL     OW18556   0.669   0.582   7.300 -0.1775  0.3877 -0.6823
 2307SOL    HW118557   0.743   0.580   7.361 -1.4384  0.5046  0.8541
 2307SOL    HW218558   0.668   0.668   7.256 -2.1087  0.7826  0.1510
 2308SOL     OW18559   3.387   2.902   6.131 -0.3640  0.2037  0.5544
 2308SOL    HW118560   3.473   2.937   6.150  0.1278 -1.2238  0.9679
 2308SOL    HW218561   3.328   2.964   6.176 -0.7856 -0.4158  0.8637
 2309SOL     OW18562   2.119   1.982   0.700  0.1740 -0.6520 -0.2236
 2309SOL    HW118563   2.044   2.033   0.668  0.2695 -1.0400 -1.0679
 2309SOL    HW218564   2.189   2.047   0.696  0.8102 -1.1540  3.1770
 2310SOL     OW18565   1.419   3.378   9.831  0.2366  0.0928 -0.0835
 2310SOL    HW118566   1.355   3.435   9.874 -0.3489 -0.9656  0.4414
 2310SOL    HW218567   1.489   3.371   9.897  0.5092  0.1285 -0.3696
 2311SOL     OW18568   3.718   4.347   6.298  0.1153  0.0612  0.5973
 2311SOL    HW118569   3.784   4.344   6.229  0.8659  0.2427  1.3085
 2311SOL    HW218570   3.670   4.427   6.278 -0.0873 -0.3682 -0.6008
 2312SOL     OW18571   3.158   0.619   0.223 -0.1735  0.2905  0.0638
 2312SOL    HW118572   3.156   0.666   0.306  1.2631  1.4819 -0.5581
 2312SOL    HW218573   3.073   0.644   0.187 -0.0656 -2.1977 -1.8840
 2313SOL     OW18574   4.290   1.285  16.773 -0.6079 -0.3886  0.2397
 2313SOL    HW118575   4.238   1.209  16.802 -0.9931  0.0299  0.6492
 2313SOL    HW218576   4.244   1.354  16.821  0.6012  0.1016  0.6784
 2314SOL     OW18577   2.597   4.016   9.424 -0.6371 -0.4657 -0.0300
 2314SOL    HW118578   2.679   4.052   9.390 -2.2319  1.7188 -1.5534
 2314SOL    HW218579   2.554   3.983   9.345  0.5133  0.7051 -1.1576
 2315SOL     OW18580   2.178   2.144   3.668 -0.0843 -0.1883  0.1072
 2315SOL    HW118581   2.228   2.074   3.625  0.9838  0.8109 -0.2706
 2315SOL    HW218582   2.096   2.106   3.700  0.1857 -2.0800 -1.4703
 2316SOL     OW18583   0.006   3.775  11.214  0.1478  0.2700 -0.2204
 2316SOL    HW118584   4.725   3.688  11.253 -2.6940  0.7098 -0.4063
 2316SOL    HW218585   4.673   3.826  11.258  1.6029 -1.8676  4.5628
 2317SOL     OW18586   2.819   3.222   8.559 -0.0300 -0.4570 -0.3208
 2317SOL    HW118587   2.758   3.185   8.624  1.2719  0.9000  1.6818
 2317SOL    HW218588   2.782   3.306   8.532  1.6092  0.5078  0.4322
 2318SOL     OW18589   0.611   1.041  16.015  0.2468 -0.3933  0.1187
 2318SOL    HW118590   0.588   1.009  15.928 -0.9834  1.7872 -0.3592
 2318SOL    HW218591   0.553   0.995  16.075  0.6849  1.0845  1.6547
 2319SOL     OW18592   3.554   3.295   7.514 -0.0710  0.0871  0.1798
 2319SOL    HW118593   3.519   3.234   7.579 -1.1020  0.8235  0.3063
 2319SOL    HW218594   3.626   3.240   7.481  0.3272  1.2176 -0.8244
 2320SOL     OW18595   1.866   2.899   5.993  0.0775  0.7282  0.2915
 2320SOL    HW118596   1.854   2.969   6.057  0.6459 -0.6100  1.8627
 2320SOL    HW218597   1.950   2.864   6.024 -1.2729 -0.1189  3.0178
 2321SOL     OW18598   0.549   1.428   3.191 -0.1238  0.1571  0.2520
 2321SOL    HW118599   0.608   1.462   3.259  0.1629  1.6794 -0.7596
 2321SOL    HW218600   0.478   1.402   3.250 -1.2872 -2.3698 -2.2844
 2322SOL     OW18601   0.150   0.704   5.248  0.5677 -0.2817 -0.6591
 2322SOL    HW118602   0.096   0.725   5.325 -2.0967 -1.1058 -2.2851
 2322SOL    HW218603   0.088   0.692   5.176 -1.5455  1.5588  0.8582
 2323SOL     OW18604   2.060   1.657   6.234 -0.3322  0.2499  0.0914
 2323SOL    HW118605   2.075   1.739   6.280 -3.5898  0.6351  0.4558
 2323SOL    HW218606   2.095   1.594   6.297 -0.2335  0.2230  0.0115
 2324SOL     OW18607   0.645   1.965   8.574  0.4908 -0.3661  0.3611
 2324SOL    HW118608   0.613   1.947   8.486 -1.7500 -1.8800  1.4919
 2324SOL    HW218609   0.675   1.877   8.596  2.8444  0.3224 -0.0739
 2325SOL     OW18610   3.158   0.562   2.188 -0.1689 -0.1108  0.4170
 2325SOL    HW118611   3.107   0.499   2.137 -0.5553 -0.0144  0.6843
 2325SOL    HW218612   3.123   0.640   2.145  2.6517  1.7249  1.4548
 2326SOL     OW18613   2.417   3.256   1.876 -0.8413 -0.0353  0.0943
 2326SOL    HW118614   2.496   3.279   1.826 -0.5199 -1.0427  0.1288
 2326SOL    HW218615   2.434   3.297   1.961 -1.4407  0.1082  0.1382
 2327SOL     OW18616   4.314   1.256   1.028 -0.9056  0.5908 -0.0801
 2327SOL    HW118617   4.380   1.285   1.091  0.0092 -0.7998 -0.4060
 2327SOL    HW218618   4.375   1.213   0.968 -2.7069  1.7666 -2.8020
 2328SOL     OW18619   0.955   4.137   9.388  0.1965 -0.0615 -0.2268
 2328SOL    HW118620   0.868   4.177   9.381  1.1546  2.0235 -0.0965
 2328SOL    HW218621   0.940   4.076   9.461  0.3084  0.6863  0.4232
 2329SOL     OW18622   0.198   0.797   9.276  0.2434 -0.2256  0.4281
 2329SOL    HW118623   0.273   0.794   9.216 -1.3001  0.8865 -1.5770
 2329SOL    HW218624   0.152   0.872   9.237 -0.2979 -1.4400 -1.2953
 2330SOL     OW18625   1.495   0.354   2.101  0.1854 -0.6936 -0.3018
 2330SOL    HW118626   1.469   0.396   2.184 -1.3933 -0.3814 -0.9554
 2330SOL    HW218627   1.413   0.327   2.060 -0.3078 -1.4545  1.1884
 2331SOL     OW18628   0.206   3.083   8.893  0.3456  0.4339 -0.2523
 2331SOL    HW118629   0.169   3.074   8.981  1.2190  2.2851  0.3116
 2331SOL    HW218630   0.293   3.110   8.922 -0.4348  3.2648 -0.5548
 2332SOL     OW18631   1.270   2.006   7.020  0.6478 -0.4849 -0.0244
 2332SOL    HW118632   1.232   1.922   6.996  0.7065 -0.4990 -0.0661
 2332SOL    HW218633   1.190   2.054   7.045  0.5875 -0.2805 -0.6118
 2333SOL     OW18634   1.234   4.559  15.801  0.5244 -0.3507 -0.2715
 2333SOL    HW118635   1.193   4.480  15.766  0.3532  0.7781 -2.5839
 2333SOL    HW218636   1.302   4.577  15.736 -0.5901  0.2583 -1.2732
 2334SOL     OW18637   2.643   3.212  17.548  0.0009 -0.1689  0.2378
 2334SOL    HW118638   2.586   3.138  17.572  0.2325 -1.2479 -2.5009
 2334SOL    HW218639   2.586   3.273  17.502  2.2384  1.4041 -0.4066
 2335SOL     OW18640   4.558   0.312   7.750  0.5119  0.2796 -0.1523
 2335SOL    HW118641   4.474   0.345   7.780 -0.0350 -1.7207  0.4843
 2335SOL    HW218642   4.556   0.228   7.797 -3.2793  0.6003  0.2547
 2336SOL     OW18643   0.812   4.173   9.787 -0.2104  0.0623  0.1109
 2336SOL    HW118644   0.852   4.233   9.851  0.2704  0.2838 -0.4011
 2336SOL    HW218645   0.790   4.236   9.718 -1.9045 -1.2411 -0.5439
 2337SOL     OW18646   1.601   2.160   5.034  0.1135 -0.7504  0.0496
 2337SOL    HW118647   1.520   2.142   5.082  0.8018 -1.0345  1.1120
 2337SOL    HW218648   1.595   2.093   4.966  3.0820  0.1249 -1.0735
 2338SOL     OW18649   3.654   1.361   6.258 -0.3106  0.4802 -0.1411
 2338SOL    HW118650   3.619   1.339   6.172 -0.6168  0.3873  0.0071
 2338SOL    HW218651   3.718   1.426   6.228 -0.5802  0.9402  0.2897
 2339SOL     OW18652   2.942   0.786   8.997 -0.8299 -0.0128 -0.0003
 2339SOL    HW118653   2.979   0.777   8.909  2.5126 -0.1045  1.4226
 2339SOL    HW218654   2.884   0.860   8.982 -1.5523 -0.2914  1.4473
 2340SOL     OW18655   3.898   0.777   3.149 -0.0984 -0.3052 -0.4503
 2340SOL    HW118656   3.802   0.776   3.142 -0.1387  1.0729 -0.2467
 2340SOL    HW218657   3.935   0.846   3.094 -1.4449  1.7734  1.2346
 2341SOL     OW18658   2.147   3.557   3.471  0.3126  0.2300  0.2317
 2341SOL    HW118659   2.092   3.595   3.402  1.0544 -0.4889 -0.7713
 2341SOL    HW218660   2.144   3.629   3.533  0.9694  0.1985  0.2981
 2342SOL     OW18661   0.749   4.473   2.675 -0.0220 -0.5163 -0.1344
 2342SOL    HW118662   0.765   4.410   2.745 -0.1242  0.3004  0.6344
 2342SOL    HW218663   0.736   4.554   2.725  0.5882 -1.7608  2.0430
 2343SOL     OW18664   0.609   0.732   3.438 -0.3929  0.0223 -0.1754
 2343SOL    HW118665   0.674   0.788   3.395 -0.1503  0.2872  0.5360
 2343SOL    HW218666   0.622   0.653   3.386 -1.1775 -0.0986 -0.1830
 2344SOL     OW18667   2.879   2.664   1.793 -0.6447 -0.6273  0.1178
 2344SOL    HW118668   2.795   2.691   1.758  0.3873  4.2846  1.4589
 2344SOL    HW218669   2.937   2.738   1.779 -0.1457 -0.7509  1.5347
 2345SOL     OW18670   4.545   3.402   6.227  0.0053  0.4312  0.0249
 2345SOL    HW118671   4.558   3.342   6.300 -0.5236 -0.6665 -0.7891
 2345SOL    HW218672   4.522   3.339   6.158  1.0940 -1.0316  0.9943
 2346SOL     OW18673   1.681   4.327   6.544  0.1000  0.3937  0.8634
 2346SOL    HW118674   1.713   4.237   6.552 -0.8664 -0.0954 -0.7141
 2346SOL    HW218675   1.747   4.368   6.600 -0.3095  2.1967  0.0448
 2347SOL     OW18676   3.952   4.183   8.882  0.5608  0.6289  0.0721
 2347SOL    HW118677   3.963   4.088   8.879  0.0623  0.5439  0.7798
 2347SOL    HW218678   3.934   4.222   8.797 -0.8897 -0.0112  0.0936
 2348SOL     OW18679   3.459   3.566   1.785 -0.3413 -0.8119 -0.7678
 2348SOL    HW118680   3.386   3.627   1.775  0.6138  0.5093  0.3089
 2348SOL    HW218681   3.413   3.482   1.793 -1.1480 -0.4975 -2.0121
 2349SOL     OW18682   0.242   2.985  16.409 -0.1820  0.1014 -0.0320
 2349SOL    HW118683   0.171   3.000  16.346 -2.6405 -2.1256  2.1669
 2349SOL    HW218684   0.218   2.899  16.445  1.3970  0.0491  0.8745
 2350SOL     OW18685   0.348   4.131   0.627 -0.5237  0.7072 -0.4048
 2350SOL    HW118686   0.437   4.103   0.606  0.1937  3.4439 -1.0813
 2350SOL    HW218687   0.290   4.069   0.585 -1.6720  0.9374  0.8429
 2351SOL     OW18688   0.175   1.540   6.471  0.4685  0.4359  0.8458
 2351SOL    HW118689   0.271   1.547   6.474  0.4820  1.0766 -1.2098
 2351SOL    HW218690   0.161   1.496   6.555 -1.6085 -0.7878 -0.1424
 2352SOL     OW18691   2.559   1.078   5.134 -0.3610  0.0269 -0.2840
 2352SOL    HW118692   2.644   1.038   5.117 -0.2612  1.3475 -2.7913
 2352SOL    HW218693   2.536   1.044   5.221 -1.3412 -0.8785 -0.8836
 2353SOL     OW18694   3.205   1.378   9.023  0.4833 -0.0372  0.2389
 2353SOL    HW118695   3.228   1.292   8.986  2.8604 -0.4219  2.5865
 2353SOL    HW218696   3.144   1.410   8.957 -0.7828 -0.8452  1.0043
 2354SOL     OW18697   2.029   3.685   2.308 -0.2883 -0.0846  0.5288
 2354SOL    HW118698   2.072   3.707   2.225 -1.5965 -1.1570 -0.4280
 2354SOL    HW218699   2.092   3.627   2.352  0.9255 -1.9695 -3.6225
 2355SOL     OW18700   2.523   2.568   6.586  0.3707  0.1334 -0.1765
 2355SOL    HW118701   2.473   2.547   6.507  0.8321 -0.0834 -0.4128
 2355SOL    HW218702   2.606   2.579   6.540 -0.3706  0.7073 -1.3709
 2356SOL     OW18703   0.198   1.777  17.292  0.2192 -0.4619  0.1580
 2356SOL    HW118704   0.185   1.859  17.244  0.0569 -1.0603 -0.8231
 2356SOL    HW218705   0.230   1.816  17.373  1.9113  1.1429 -1.2730
 2357SOL     OW18706   4.525   0.517   6.423  0.2063 -0.2988 -0.1324
 2357SOL    HW118707   4.496   0.545   6.510  0.3777  2.2620 -0.8977
 2357SOL    HW218708   4.447   0.530   6.369 -0.5962  0.1025  1.1285
 2358SOL     OW18709   3.250   3.219   2.635 -0.2383  0.0630  0.0950
 2358SOL    HW118710   3.332   3.252   2.599 -0.9382 -1.0344 -2.5000
 2358SOL    HW218711   3.192   3.286   2.597  2.1988  2.2560  0.2642
 2359SOL     OW18712   2.913   1.230   2.658 -0.3572  0.6148 -0.0724
 2359SOL    HW118713   2.958   1.206   2.740 -0.4622 -1.4866 -0.6185
 2359SOL    HW218714   2.948   1.160   2.604 -2.3643 -0.6345  0.2501
 2360SOL     OW18715   0.512   2.896   3.954  0.1532  0.0569  0.5597
 2360SOL    HW118716   0.472   2.905   3.867 -1.1268  1.5051  1.2792
 2360SOL    HW218717   0.567   2.826   3.920 -2.1478 -0.6462 -1.7795
 2361SOL     OW18718   3.473   1.627   1.836 -0.4166 -0.2851 -0.0823
 2361SOL    HW118719   3.555   1.663   1.871 -1.0243 -0.1394  1.1594
 2361SOL    HW218720   3.494   1.533   1.834  1.0551  0.0352  0.3412
 2362SOL     OW18721   0.164   0.062   4.161 -0.4610  0.4206  0.0067
 2362SOL    HW118722   0.099   4.730   4.181  0.5223 -0.3109  0.7979
 2362SOL    HW218723   0.133   0.101   4.080 -0.0275  0.3878 -0.1744
 2363SOL     OW18724   1.204   4.111   3.122  0.7518  0.4023  0.2593
 2363SOL    HW118725   1.143   4.045   3.155 -1.7426  1.7629 -1.6349
 2363SOL    HW218726   1.145   4.166   3.071  0.1183 -0.8887 -0.4100
 2364SOL     OW18727   1.858   0.991   8.281 -0.3887  0.0115  0.0664
 2364SOL    HW118728   1.835   1.078   8.247 -2.3691 -0.2573  0.7237
 2364SOL    HW218729   1.779   0.945   8.251 -0.3629  0.8011 -1.1968
 2365SOL     OW18730   2.170   4.192  16.897 -0.0910 -0.2529 -0.6302
 2365SOL    HW118731   2.165   4.192  16.992  0.7064 -2.1236 -0.5927
 2365SOL    HW218732   2.211   4.106  16.897 -0.5847 -0.4839  0.1821
 2366SOL     OW18733   4.222   0.147   4.225 -0.2869  0.2647  0.0604
 2366SOL    HW118734   4.269   0.229   4.209 -1.4437  1.1218  1.1243
 2366SOL    HW218735   4.264   0.114   4.304  1.0913 -1.1322 -1.2700
 2367SOL     OW18736   3.114   4.420   2.298  0.1605 -0.4391  0.7766
 2367SOL    HW118737   3.058   4.346   2.321  0.1249 -1.3039 -2.0436
 2367SOL    HW218738   3.131   4.396   2.207 -2.5919 -1.8856  0.6369
 2368SOL     OW18739   1.116   1.640   3.447  0.3033 -0.5504 -0.0526
 2368SOL    HW118740   1.160   1.722   3.427 -1.7209  0.7368  0.7859
 2368SOL    HW218741   1.199   1.593   3.450  0.5896  0.0006  0.8681
 2369SOL     OW18742   0.883   1.484  15.855 -0.2331  0.4117 -0.4085
 2369SOL    HW118743   0.819   1.512  15.920 -1.9411  1.0433 -2.3663
 2369SOL    HW218744   0.922   1.569  15.836 -0.7304  0.5437 -0.8308
 2370SOL     OW18745   2.861   2.164   5.713  0.5198  0.2421 -0.5038
 2370SOL    HW118746   2.949   2.181   5.748  0.7756 -0.1867 -0.9521
 2370SOL    HW218747   2.838   2.088   5.767  0.1555  1.0014  0.4182
 2371SOL     OW18748   1.900   1.152   6.828  0.2792  0.4862  0.0585
 2371SOL    HW118749   1.920   1.062   6.853  2.0379  1.6034  2.7480
 2371SOL    HW218750   1.935   1.152   6.739  1.1926 -2.5944  0.3999
 2372SOL     OW18751   4.544   3.020  13.788 -0.1255  0.1710  0.0385
 2372SOL    HW118752   4.519   3.105  13.753 -0.7120 -0.3787 -0.8623
 2372SOL    HW218753   4.603   2.993  13.718 -1.6722 -1.0105 -0.7884
 2373SOL     OW18754   3.147   1.191   2.250 -0.2119  0.0343  0.1449
 2373SOL    HW118755   3.234   1.179   2.286 -1.0069 -0.6114  1.8790
 2373SOL    HW218756   3.161   1.137   2.173  2.1373  2.8343 -1.3856
 2374SOL     OW18757   3.554   4.171  15.291 -0.3391  0.6335  0.1194
 2374SOL    HW118758   3.649   4.176  15.305  0.0211 -0.4238 -1.9833
 2374SOL    HW218759   3.560   4.169  15.196  2.9641  2.2925  0.2809
 2375SOL     OW18760   3.714   0.952   6.531 -0.5649 -0.1858 -0.0255
 2375SOL    HW118761   3.642   1.014   6.528 -1.4106 -1.2150 -1.2945
 2375SOL    HW218762   3.695   0.913   6.616 -0.3857  0.5876  0.3641
 2376SOL     OW18763   0.743   1.865  14.274  0.0957  0.3077  0.1142
 2376SOL    HW118764   0.700   1.881  14.189 -1.2724  0.3710  0.8238
 2376SOL    HW218765   0.818   1.815  14.242 -0.5753  1.0680 -2.6611
 2377SOL     OW18766   4.342   4.271   3.778 -0.0774 -0.2747 -0.9386
 2377SOL    HW118767   4.298   4.198   3.734 -2.0348  0.4597 -0.1683
 2377SOL    HW218768   4.432   4.236   3.782 -0.1468 -0.0455  2.1766
 2378SOL     OW18769   3.152   1.037   8.242  0.5296  0.1885 -0.5723
 2378SOL    HW118770   3.119   0.982   8.172  1.0032 -0.9226  0.0812
 2378SOL    HW218771   3.096   1.022   8.318  1.8193  0.4210  0.4289
 2379SOL     OW18772   3.881   3.772   4.875  0.5005  0.0312  0.8246
 2379SOL    HW118773   3.920   3.859   4.861 -0.3568  0.1951 -0.5846
 2379SOL    HW218774   3.853   3.775   4.966  2.0224  2.0104  1.2316
 2380SOL     OW18775   1.102   2.116   8.522  1.0059  0.0725 -0.0498
 2380SOL    HW118776   1.131   2.030   8.490 -0.9731 -1.6099  2.6256
 2380SOL    HW218777   1.083   2.154   8.437  4.4186  2.0526  0.0866
 2381SOL     OW18778   0.164   4.301   5.131  0.3929  0.3249  0.2148
 2381SOL    HW118779   0.154   4.253   5.214 -1.3166  0.8834  0.3218
 2381SOL    HW218780   0.259   4.292   5.118 -0.0559  0.3025 -2.9233
 2382SOL     OW18781   1.079   2.167   1.774  0.4397  0.7549  0.1650
 2382SOL    HW118782   1.008   2.155   1.712  2.9231 -1.4511 -2.2426
 2382SOL    HW218783   1.106   2.079   1.801 -2.5929 -0.3595 -0.4655
 2383SOL     OW18784   2.232   3.199   2.676  0.4093 -0.3772 -0.5507
 2383SOL    HW118785   2.315   3.220   2.633  1.1556 -0.6603  0.7325
 2383SOL    HW218786   2.241   3.242   2.761 -0.0193 -0.9801 -0.2027
 2384SOL     OW18787   3.271   2.222  10.587  0.3873 -0.3675 -0.2688
 2384SOL    HW118788   3.338   2.201  10.652 -2.0086 -0.5032  2.1715
 2384SOL    HW218789   3.200   2.168  10.622  0.0885  1.0946  1.3919
 2385SOL     OW18790   2.578   3.142   4.031 -0.2084 -0.5417 -0.0278
 2385SOL    HW118791   2.494   3.189   4.028  1.0179  1.7624  1.3080
 2385SOL    HW218792   2.572   3.121   4.125 -1.2168 -1.4420 -0.2819
 2386SOL     OW18793   1.856   0.805   2.254 -0.0198 -0.4235  0.4067
 2386SOL    HW118794   1.930   0.866   2.255  1.1817 -1.9073  1.5984
 2386SOL    HW218795   1.810   0.831   2.334  0.0041  0.4243  0.1359
 2387SOL     OW18796   0.707   4.496   7.440 -0.0281 -0.2497 -0.6636
 2387SOL    HW118797   0.623   4.452   7.453  0.0952  0.0905  1.2674
 2387SOL    HW218798   0.725   4.495   7.534  2.4701 -0.3018 -1.1583
 2388SOL     OW18799   2.038   0.633   2.051  0.3445  0.6156  0.4635
 2388SOL    HW118800   2.067   0.682   2.128 -0.4649  2.2818 -0.3133
 2388SOL    HW218801   2.060   0.542   2.075 -2.2591 -0.0140  0.5047
 2389SOL     OW18802   2.681   1.434   6.049  0.4816  0.4933 -0.2601
 2389SOL    HW118803   2.634   1.490   6.110  0.7699  0.3507  0.0916
 2389SOL    HW218804   2.686   1.345   6.083 -0.6532  0.4505 -0.2176
 2390SOL     OW18805   4.486   2.958   0.242  0.5264 -0.1806  0.2415
 2390SOL    HW118806   4.392   2.943   0.240  0.6673 -1.2729  1.7182
 2390SOL    HW218807   4.518   2.960   0.152 -1.4053 -2.8058 -0.4758
 2391SOL     OW18808   0.759   1.661   1.913  0.3281 -0.1761 -0.2939
 2391SOL    HW118809   0.822   1.594   1.942  0.7984  0.4760  0.1720
 2391SOL    HW218810   0.690   1.611   1.869  0.9679 -2.2522  1.0471
 2392SOL     OW18811   3.667   4.277   8.193  0.4667  0.1818  0.5637
 2392SOL    HW118812   3.674   4.244   8.283  2.2067 -0.5925  0.1291
 2392SOL    HW218813   3.746   4.245   8.151 -1.1286 -1.3588 -1.2553
 2393SOL     OW18814   0.652   2.107   6.274 -0.5476  0.5569  0.1271
 2393SOL    HW118815   0.667   2.032   6.332  1.6731  1.1696  0.3542
 2393SOL    HW218816   0.671   2.067   6.189 -1.0624 -0.5935  0.5468
 2394SOL     OW18817   3.359   4.469  17.446  0.0215 -0.1767  0.6176
 2394SOL    HW118818   3.443   4.423  17.450 -0.1580 -0.4760  1.0168
 2394SOL    HW218819   3.354   4.494  17.354 -1.2088 -1.0455  0.4453
 2395SOL     OW18820   1.844   1.732   5.341  0.3267  0.8116  0.0572
 2395SOL    HW118821   1.930   1.697   5.318 -0.7481 -0.4461 -2.0476
 2395SOL    HW218822   1.818   1.668   5.406 -0.6666  1.6191  0.4496
 2396SOL     OW18823   3.558   3.294   8.464 -0.7880  0.6615 -0.3120
 2396SOL    HW118824   3.535   3.247   8.544  0.7626 -0.5957 -0.6128
 2396SOL    HW218825   3.470   3.321   8.438 -0.6397  1.9686  0.5738
 2397SOL     OW18826   1.798   2.577   3.410 -0.0214 -0.0765  0.2454
 2397SOL    HW118827   1.739   2.647   3.437  1.9923  1.9282 -0.5709
 2397SOL    HW218828   1.843   2.609   3.332  0.4111  1.6901  1.2133
 2398SOL     OW18829   2.338   2.052   7.902  0.1264  0.0526  0.1331
 2398SOL    HW118830   2.431   2.055   7.925  0.7195  0.8184 -2.3276
 2398SOL    HW218831   2.296   1.989   7.960 -0.6819  0.1282 -0.3701
 2399SOL     OW18832   1.924   0.368  11.681  0.2225  0.2751 -0.0495
 2399SOL    HW118833   1.933   0.286  11.729 -1.4677  0.0825 -0.0706
 2399SOL    HW218834   1.879   0.421  11.747 -1.4552  0.6416 -1.4810
 2400SOL     OW18835   4.137   1.014   4.563  0.7312  0.6046 -0.4616
 2400SOL    HW118836   4.043   1.008   4.548  0.9114 -1.9017 -0.5706
 2400SOL    HW218837   4.161   1.071   4.490 -0.0800  3.1903  1.2759
 2401SOL     OW18838   1.216   0.696   5.132  0.0201 -0.2458 -0.3351
 2401SOL    HW118839   1.250   0.631   5.194 -0.9944  0.3788  0.8793
 2401SOL    HW218840   1.147   0.645   5.090 -1.3010  0.0340  1.5122
 2402SOL     OW18841   3.679   1.203   2.839 -0.3006 -0.2110 -0.3484
 2402SOL    HW118842   3.751   1.261   2.864  0.1150 -0.5737 -0.7148
 2402SOL    HW218843   3.728   1.121   2.845  2.7846  1.6423 -0.4483
 2403SOL     OW18844   0.353   3.927   2.844 -0.6185 -0.7407  0.0178
 2403SOL    HW118845   0.299   3.953   2.770 -1.4366 -1.8573  0.2344
 2403SOL    HW218846   0.293   3.959   2.911 -0.6759  2.8917 -1.7498
 2404SOL     OW18847   0.831   0.435  16.448  0.4242  0.1225  0.4710
 2404SOL    HW118848   0.836   0.521  16.489 -0.8652  1.1405 -1.4723
 2404SOL    HW218849   0.925   0.421  16.436  0.2965 -0.0695 -0.3549
 2405SOL     OW18850   3.189   4.085   4.451 -0.0585  0.4109  0.4216
 2405SOL    HW118851   3.246   4.151   4.411  0.3239  0.1017  0.4541
 2405SOL    HW218852   3.255   4.023   4.481 -0.6271  0.3345  1.5164
 2406SOL     OW18853   3.676   2.240   3.315 -0.9550 -0.2418 -0.1691
 2406SOL    HW118854   3.639   2.320   3.352  0.9190 -0.1204  1.4521
 2406SOL    HW218855   3.618   2.233   3.239 -1.1530 -1.5507  0.1135
 2407SOL     OW18856   3.054   2.864   8.206  0.0857 -0.1210  0.3539
 2407SOL    HW118857   3.012   2.783   8.236 -0.5336 -0.9314 -2.6402
 2407SOL    HW218858   3.133   2.868   8.259  0.1905 -0.5192  0.2294
 2408SOL     OW18859   0.906   1.771   8.098  0.1069  0.0689 -0.2698
 2408SOL    HW118860   0.870   1.729   8.176  1.4666  0.3250  0.4977
 2408SOL    HW218861   0.899   1.863   8.122  1.8631 -0.0944  0.8649
 2409SOL     OW18862   2.191   0.371   4.114 -0.6022 -0.5537  0.5507
 2409SOL    HW118863   2.105   0.413   4.106  1.0434  2.6534 -0.5060
 2409SOL    HW218864   2.217   0.407   4.199 -1.6604 -2.8584  1.8393
 2410SOL     OW18865   1.126   3.393   0.772 -0.2856  0.1166 -0.2475
 2410SOL    HW118866   1.059   3.370   0.708  0.2678 -3.1843  0.3631
 2410SOL    HW218867   1.064   3.433   0.832  0.7524 -1.3780  1.7999
 2411SOL     OW18868   3.616   0.501  15.474 -0.3112  0.1491 -0.0063
 2411SOL    HW118869   3.527   0.487  15.506 -0.7805  0.6695 -1.0856
 2411SOL    HW218870   3.629   0.418  15.428  2.9383  0.4952  0.3237
 2412SOL     OW18871   3.280   2.300   5.754  0.3818 -0.2442  0.4232
 2412SOL    HW118872   3.289   2.384   5.799 -1.9698  1.3003 -2.0024
 2412SOL    HW218873   3.261   2.330   5.665  0.7865  1.2972  0.8637
 2413SOL     OW18874   2.294   4.210  12.671 -0.2637 -0.0677 -0.0983
 2413SOL    HW118875   2.363   4.164  12.718 -0.6719 -1.4042 -0.7908
 2413SOL    HW218876   2.315   4.300  12.693  1.0066 -0.6384  1.0376
 2414SOL     OW18877   1.910   3.309  15.055 -0.0466  0.3168 -0.1346
 2414SOL    HW118878   1.872   3.315  15.143  1.1123  2.1127  0.2488
 2414SOL    HW218879   1.847   3.368  15.014 -0.3259 -0.1892 -0.4321
 2415SOL     OW18880   2.948   0.878  17.659 -0.2236  0.3751  0.1994
 2415SOL    HW118881   2.973   0.949  17.717  2.1491 -0.3848  0.0985
 2415SOL    HW218882   2.891   0.832  17.721 -0.7235 -1.2685 -1.4441
 2416SOL     OW18883   3.264   2.538   7.298 -0.6267  0.8661 -0.1866
 2416SOL    HW118884   3.266   2.620   7.347  1.7666 -0.1135  1.3359
 2416SOL    HW218885   3.184   2.549   7.246 -0.6492 -0.0934 -0.3611
 2417SOL     OW18886   2.585   1.747   0.476  0.0612 -0.3926  0.6321
 2417SOL    HW118887   2.640   1.687   0.427  0.8423  0.3646  0.5731
 2417SOL    HW218888   2.544   1.684   0.536 -1.0325 -1.0312 -0.7836
 2418SOL     OW18889   0.865   1.951   9.660 -0.8868 -0.3497  0.0696
 2418SOL    HW118890   0.911   1.997   9.590  0.0050 -1.9205 -0.3620
 2418SOL    HW218891   0.786   1.922   9.615  0.7647 -1.3684 -2.1580
 2419SOL     OW18892   2.957   4.092  15.662 -0.0619 -0.8305  0.2537
 2419SOL    HW118893   2.877   4.056  15.626 -1.1708  0.0682  1.8172
 2419SOL    HW218894   2.997   4.113  15.578  4.0992 -1.9692  1.9382
 2420SOL     OW18895   2.395   0.104   1.809 -0.1112 -0.1466 -0.4281
 2420SOL    HW118896   2.424   0.078   1.722  1.4399 -0.3110  0.1508
 2420SOL    HW218897   2.453   0.178   1.825  1.1542 -0.8672 -1.7786
 2421SOL     OW18898   1.667   0.495   9.568  0.3463  0.4975 -0.9413
 2421SOL    HW118899   1.588   0.448   9.596  0.4085  0.7460 -0.3389
 2421SOL    HW218900   1.676   0.539   9.653  0.1424 -0.5738 -0.3515
 2422SOL     OW18901   3.480   4.625  12.619  0.0403 -0.3114 -0.2983
 2422SOL    HW118902   3.499   4.534  12.599 -0.7911 -0.5526 -0.0125
 2422SOL    HW218903   3.570   4.644  12.645 -0.0389 -0.2245 -0.0896
 2423SOL     OW18904   0.417   1.889   2.923 -0.0711  0.6092  0.6408
 2423SOL    HW118905   0.360   1.950   2.876  0.3423  1.5175  1.3114
 2423SOL    HW218906   0.367   1.808   2.929  2.5635 -1.0646 -0.2354
 2424SOL     OW18907   4.206   0.414  15.213 -0.1773 -0.1250  0.5242
 2424SOL    HW118908   4.153   0.358  15.156  0.5577  0.2920 -0.5755
 2424SOL    HW218909   4.216   0.370  15.297 -1.4612  0.2838  0.8759
 2425SOL     OW18910   3.959   1.422   9.518 -0.0090  0.5561  0.6161
 2425SOL    HW118911   4.049   1.402   9.491 -0.5036  2.4936 -2.4165
 2425SOL    HW218912   3.905   1.379   9.452  0.3055  2.2138 -0.7386
 2426SOL     OW18913   1.662   1.609   5.950  0.0422 -0.4514  0.4853
 2426SOL    HW118914   1.607   1.536   5.920 -1.6426  1.2571 -0.5661
 2426SOL    HW218915   1.714   1.578   6.025  0.4496  2.3769  1.3678
 2427SOL     OW18916   3.914   1.223   8.855  1.0628  0.1785 -0.2179
 2427SOL    HW118917   3.877   1.161   8.917  0.2093 -1.0035 -1.9187
 2427SOL    HW218918   3.848   1.292   8.859  0.9755  0.1054 -0.3857
 2428SOL     OW18919   3.312   3.875   8.601 -0.1143 -0.4084 -0.3565
 2428SOL    HW118920   3.357   3.940   8.656 -2.1150 -0.1665  1.0012
 2428SOL    HW218921   3.249   3.835   8.661 -1.4170  1.7739 -0.2615
 2429SOL     OW18922   4.310   4.727   9.182 -0.1539 -0.2740  0.2452
 2429SOL    HW118923   4.367   4.672   9.237 -1.4167  1.2743  3.1063
 2429SOL    HW218924   4.279   0.056   9.246  0.4564  0.5969 -0.3357
 2430SOL     OW18925   4.259   2.488  15.114  0.2777 -0.2589 -0.0568
 2430SOL    HW118926   4.167   2.515  15.117  1.2499  2.9227  1.1432
 2430SOL    HW218927   4.250   2.395  15.096  1.0111 -0.2055 -0.6862
 2431SOL     OW18928   4.187   2.143   4.733 -0.2769 -0.9585 -0.2162
 2431SOL    HW118929   4.210   2.051   4.720  0.6368 -0.7292 -0.1946
 2431SOL    HW218930   4.272   2.175   4.702 -1.2176 -0.6058 -2.4328
 2432SOL     OW18931   0.363   1.347   7.364  0.2530  0.3110  0.5058
 2432SOL    HW118932   0.394   1.306   7.444  1.1721  0.7766  0.3924
 2432SOL    HW218933   0.268   1.347   7.373  0.1446 -1.8412 -0.6920
 2433SOL     OW18934   4.226   3.611   5.061  0.4187  0.1147 -0.2039
 2433SOL    HW118935   4.170   3.616   5.138 -0.8196 -0.3129 -1.0787
 2433SOL    HW218936   4.232   3.702   5.031  2.5886 -0.4120 -1.3602
 2434SOL     OW18937   2.760   3.508   0.536  0.2150 -0.1689 -0.3613
 2434SOL    HW118938   2.710   3.590   0.533 -0.5672 -0.6711 -1.2542
 2434SOL    HW218939   2.770   3.514   0.441  0.1592  0.5914 -0.3196
 2435SOL     OW18940   3.769   2.935   7.775  0.2285 -0.0592  0.3714
 2435SOL    HW118941   3.829   2.891   7.715  0.4313 -0.1414  0.6330
 2435SOL    HW218942   3.745   2.867   7.838  1.5943 -1.7237 -0.8838
 2436SOL     OW18943   3.535   2.558   6.195  0.4790  0.3956 -0.5667
 2436SOL    HW118944   3.583   2.611   6.132  0.0696  2.4558  0.8626
 2436SOL    HW218945   3.523   2.620   6.267  1.7024 -1.9610  1.6238
 2437SOL     OW18946   0.114   1.827   6.413 -0.2409 -0.5259  0.3355
 2437SOL    HW118947   0.114   1.773   6.333 -0.0248  1.4322 -0.9887
 2437SOL    HW218948   0.166   1.778   6.477 -0.3970  1.8377  2.2421
 2438SOL     OW18949   3.310   0.349   2.995  0.3677  0.3281  0.0566
 2438SOL    HW118950   3.233   0.387   2.954 -1.1188 -0.9751  1.6164
 2438SOL    HW218951   3.374   0.362   2.925 -0.0668  2.9812  0.1431
 2439SOL     OW18952   1.326   0.203   4.774 -0.3924  0.2227 -0.2898
 2439SOL    HW118953   1.313   0.203   4.679  2.3814 -2.4029 -0.6665
 2439SOL    HW218954   1.289   0.117   4.794  0.5311 -0.0519  0.2031
 2440SOL     OW18955   3.047   3.802   8.758  0.6326  0.5451  0.2924
 2440SOL    HW118956   2.955   3.817   8.780  0.3754 -1.0298  0.2508
 2440SOL    HW218957   3.075   3.802   8.849  0.1288 -1.4269  0.4372
 2441SOL     OW18958   0.607   2.650   3.840  0.3912  0.8179 -0.1874
 2441SOL    HW118959   0.678   2.675   3.899  0.1833 -0.5738  0.6698
 2441SOL    HW218960   0.609   2.556   3.861 -2.7102  1.3265  2.4532
 2442SOL     OW18961   1.151   0.547   2.390  0.6234  0.1387 -0.2265
 2442SOL    HW118962   1.066   0.507   2.407  0.3278  0.7240 -0.3299
 2442SOL    HW218963   1.182   0.547   2.481 -0.2692  1.1810  0.0832
 2443SOL     OW18964   3.313   4.269   5.325 -0.1480  0.2787  0.3998
 2443SOL    HW118965   3.264   4.213   5.264  0.2894  0.1641  0.1505
 2443SOL    HW218966   3.301   4.359   5.297 -1.6777  0.4398  1.5518
 2444SOL     OW18967   3.120   1.756  15.652 -0.5319 -0.2209  0.1363
 2444SOL    HW118968   3.110   1.830  15.593  1.1168 -0.8253 -0.8985
 2444SOL    HW218969   3.042   1.712  15.618 -2.2052  0.8116  2.6663
 2445SOL     OW18970   2.625   4.138  14.900  0.2023  0.3492  0.8543
 2445SOL    HW118971   2.648   4.189  14.823 -0.0256 -1.8582 -0.6752
 2445SOL    HW218972   2.544   4.106  14.860  1.4345 -0.2092 -1.1633
 2446SOL     OW18973   0.522   4.094  10.918  0.1799 -0.1000 -0.1734
 2446SOL    HW118974   0.497   4.156  10.850 -1.0749  0.7046  1.0376
 2446SOL    HW218975   0.616   4.114  10.926  0.3356 -0.4373 -1.1915
 2447SOL     OW18976   3.576   2.210   5.835  0.6905 -0.1025 -0.2294
 2447SOL    HW118977   3.506   2.229   5.773 -0.4668  3.3194  2.1293
 2447SOL    HW218978   3.564   2.279   5.900  2.9379  0.8847 -0.8925
 2448SOL     OW18979   0.468   2.620  17.523  0.5544  0.1533  0.0561
 2448SOL    HW118980   0.457   2.543  17.579 -1.0890  0.0354 -0.4165
 2448SOL    HW218981   0.557   2.649  17.543  0.6375 -0.2374  0.2535
 2449SOL     OW18982   0.397   1.958   9.652  0.0218  0.4761 -0.3638
 2449SOL    HW118983   0.378   1.937   9.560  1.8601  1.8223 -1.0448
 2449SOL    HW218984   0.476   2.012   9.650 -0.6997  1.5557  0.1651
 2450SOL     OW18985   0.031   1.856   4.131  0.1974 -0.2576  0.5330
 2450SOL    HW118986   0.012   1.886   4.219 -0.1124  0.3101  0.2717
 2450SOL    HW218987   0.097   1.920   4.104  0.1581 -0.3069  0.3143
 2451SOL     OW18988   2.255   1.773  17.433 -0.1148 -0.1095 -0.8987
 2451SOL    HW118989   2.324   1.742  17.374  0.4467  0.0494 -0.3173
 2451SOL    HW218990   2.184   1.746  17.374 -0.6430  0.0772 -0.3415
 2452SOL     OW18991   3.283   0.384   2.392 -0.1074 -0.7339  0.1020
 2452SOL    HW118992   3.234   0.433   2.458  0.9250  3.1107 -1.9991
 2452SOL    HW218993   3.254   0.436   2.317 -0.9741  0.6166  1.3772
 2453SOL     OW18994   4.149   4.004   0.571 -0.4347 -0.1803 -0.3690
 2453SOL    HW118995   4.217   4.070   0.583 -0.2588 -0.3309 -0.5406
 2453SOL    HW218996   4.196   3.930   0.534  1.1600  0.9739 -0.6488
 2454SOL     OW18997   4.517   1.196   1.538  0.2288  0.0095 -0.0733
 2454SOL    HW118998   4.506   1.166   1.628 -1.1423 -1.4475 -0.7344
 2454SOL    HW218999   4.612   1.189   1.536  0.2136 -0.6432  1.2641
 2455SOL     OW19000   2.372   2.428   1.050  0.0549 -0.0685 -0.4551
 2455SOL    HW119001   2.459   2.441   1.088 -0.1466 -0.0436  0.0003
 2455SOL    HW219002   2.338   2.352   1.099  1.7771 -0.2670  0.4152
 2456SOL     OW19003   0.241   4.033   3.795 -0.3943  0.2046  0.3761
 2456SOL    HW119004   0.202   3.955   3.835  0.0162  0.1783  0.7296
 2456SOL    HW219005   0.298   3.992   3.730  0.0888  0.4467  0.6513
 2457SOL     OW19006   2.054   1.416   6.034 -0.4252  0.2533 -0.0062
 2457SOL    HW119007   2.109   1.354   6.082 -2.4463 -1.0519  0.6387
 2457SOL    HW219008   2.115   1.489   6.034 -0.9151  0.6649  1.7372
 2458SOL     OW19009   3.494   4.517   7.220  0.0796 -0.1914  0.3167
 2458SOL    HW119010   3.561   4.449   7.221  0.4520  0.2269  3.0355
 2458SOL    HW219011   3.477   4.507   7.126  2.5732 -0.2441 -0.1235
 2459SOL     OW19012   2.632   2.690   6.845  0.0234  0.6616  0.2384
 2459SOL    HW119013   2.568   2.651   6.786 -0.4869  0.6829  0.7754
 2459SOL    HW219014   2.701   2.625   6.838  1.7047  2.6029 -1.1053
 2460SOL     OW19015   0.497   3.263   5.590  0.7104  0.2632  0.2690
 2460SOL    HW119016   0.441   3.272   5.666  0.4775 -1.4084  0.2762
 2460SOL    HW219017   0.555   3.338   5.604 -0.6558  1.3257  0.2645
 2461SOL     OW19018   2.893   1.239  16.672 -0.0195  0.3019  0.4295
 2461SOL    HW119019   2.986   1.255  16.658 -0.0728  0.3290  0.0978
 2461SOL    HW219020   2.888   1.150  16.707  0.8580  0.0357 -0.1201
 2462SOL     OW19021   4.125   3.361  16.670  0.1275 -0.1982  0.2630
 2462SOL    HW119022   4.034   3.333  16.683 -0.2278  0.0076 -1.8032
 2462SOL    HW219023   4.179   3.295  16.714  0.6968 -0.8791 -1.4539
 2463SOL     OW19024   0.744   1.765   4.144 -0.4044 -0.4750  0.5324
 2463SOL    HW119025   0.766   1.778   4.052  0.7330  1.6688  1.0966
 2463SOL    HW219026   0.649   1.773   4.134 -0.2263 -0.0862 -0.7849
 2464SOL     OW19027   0.388   4.010   0.042 -0.1393 -0.1225  0.0094
 2464SOL    HW119028   0.327   4.083   0.056  0.1212 -0.0694  0.8560
 2464SOL    HW219029   0.443   4.013   0.120 -0.9607  1.0161  0.5492
 2465SOL     OW19030   0.761   3.163   3.325 -0.4866 -0.1502  0.9219
 2465SOL    HW119031   0.753   3.213   3.406 -0.0739  0.8126  0.3715
 2465SOL    HW219032   0.748   3.219   3.248 -2.3141 -1.2466  0.4359
 2466SOL     OW19033   1.755   3.224   6.161  0.1007 -0.1337 -0.8270
 2466SOL    HW119034   1.810   3.172   6.220  1.6371  2.1692 -0.2700
 2466SOL    HW219035   1.755   3.315   6.187  1.1460 -0.4209  0.1801
 2467SOL     OW19036   4.484   2.968   5.577 -0.4085 -0.1919  0.1516
 2467SOL    HW119037   4.552   2.917   5.621  1.8957  2.2167 -0.6316
 2467SOL    HW219038   4.497   3.057   5.610 -0.9181  0.3309 -1.0618
 2468SOL     OW19039   1.809   3.224   7.791  0.1915 -0.0164  0.2207
 2468SOL    HW119040   1.715   3.243   7.795  0.5705  2.0581 -0.5713
 2468SOL    HW219041   1.835   3.232   7.883 -1.2882 -0.1868  0.6471
 2469SOL     OW19042   0.160   4.318   6.646  0.3097 -0.3790 -1.2763
 2469SOL    HW119043   0.217   4.346   6.575 -1.0092  2.3876 -1.2440
 2469SOL    HW219044   0.110   4.243   6.614  1.1271 -1.4021 -0.1701
 2470SOL     OW19045   2.463   4.507  12.335 -0.1599 -0.1468 -0.0380
 2470SOL    HW119046   2.444   4.599  12.353 -0.4008 -0.2052  0.0069
 2470SOL    HW219047   2.471   4.509  12.239  1.6678  1.6547  0.1525
 2471SOL     OW19048   2.595   2.649  11.412 -0.5447 -0.5560 -0.3236
 2471SOL    HW119049   2.628   2.559  11.409 -0.4645 -0.4817 -1.7211
 2471SOL    HW219050   2.527   2.648  11.345  0.6798  0.1714 -1.5748
 2472SOL     OW19051   3.052   4.001   8.054 -0.0683  0.3901 -0.2623
 2472SOL    HW119052   2.975   4.012   7.998 -0.2039 -0.1474 -0.1790
 2472SOL    HW219053   3.022   3.937   8.118 -0.2485 -0.2791 -1.0098
 2473SOL     OW19054   4.431   4.233   1.261  0.0936  0.1137  0.4491
 2473SOL    HW119055   4.469   4.250   1.348  4.4189  1.2043 -1.6414
 2473SOL    HW219056   4.465   4.145   1.249 -2.4450 -0.9609  1.2388
 2474SOL     OW19057   4.691   0.918  12.304  0.7751 -0.3439  0.0500
 2474SOL    HW119058   4.718   1.010  12.295  2.1019 -0.7865 -0.5483
 2474SOL    HW219059   4.599   0.921  12.328  0.9115 -1.0724  0.6384
 2475SOL     OW19060   3.824   2.028  14.444 -0.0021 -0.0729 -0.4299
 2475SOL    HW119061   3.804   1.947  14.491 -0.9131 -0.2247 -1.0696
 2475SOL    HW219062   3.871   1.979  14.377  0.6179  0.4710 -0.3839
 2476SOL     OW19063   4.648   3.143   3.576 -0.1957 -0.0443 -0.0005
 2476SOL    HW119064   4.725   3.199   3.581 -0.6475  0.6037 -0.2407
 2476SOL    HW219065   4.633   3.143   3.482 -0.4528  2.6411  0.0399
 2477SOL     OW19066   2.453   3.011   8.336 -0.3881  0.2805 -0.1825
 2477SOL    HW119067   2.421   3.008   8.245 -1.7680  0.1107  0.3034
 2477SOL    HW219068   2.378   2.971   8.380  0.0272 -1.3856 -0.9666
 2478SOL     OW19069   0.297   3.918  10.944  0.7210 -0.1360 -0.2559
 2478SOL    HW119070   0.282   3.937  10.851  0.1974 -0.5830 -0.2610
 2478SOL    HW219071   0.383   3.960  10.955  2.0815 -2.4066 -2.3329
 2479SOL     OW19072   1.335   1.330   5.099 -0.5021 -0.9091 -0.0366
 2479SOL    HW119073   1.322   1.243   5.137 -1.2820 -0.9422 -0.3855
 2479SOL    HW219074   1.249   1.370   5.094  0.2505  0.3242 -3.6211
 2480SOL     OW19075   1.532   1.635   3.877 -0.5292 -0.1044 -0.5088
 2480SOL    HW119076   1.517   1.679   3.961 -1.4261 -0.5733 -0.4250
 2480SOL    HW219077   1.517   1.709   3.818  2.5393 -1.1412 -2.6083
 2481SOL     OW19078   3.340   3.839  12.319  0.3832 -0.1778 -0.4608
 2481SOL    HW119079   3.307   3.750  12.327 -3.2396  1.1384 -0.6029
 2481SOL    HW219080   3.356   3.859  12.411 -0.3456 -0.3330 -0.3044
 2482SOL     OW19081   2.847   2.959   8.395 -0.9352 -0.3749 -0.5253
 2482SOL    HW119082   2.789   3.035   8.396  1.1307  1.2081 -0.8688
 2482SOL    HW219083   2.910   3.006   8.341 -1.1380  0.8520  0.3177
 2483SOL     OW19084   2.126   2.874   6.071  0.2773  0.2299  0.4790
 2483SOL    HW119085   2.183   2.842   6.141 -0.2464 -0.7236  0.4808
 2483SOL    HW219086   2.155   2.965   6.067 -0.0742  0.1899 -2.5796
 2484SOL     OW19087   4.373   0.610   6.631  0.8649 -0.3375  0.4218
 2484SOL    HW119088   4.421   0.667   6.690  1.0031  0.7141 -0.7091
 2484SOL    HW219089   4.322   0.678   6.587 -0.1579  0.5781  2.9804
 2485SOL     OW19090   3.383   2.275  16.365  0.0921  0.3266 -0.0014
 2485SOL    HW119091   3.474   2.270  16.392  0.6285 -0.4282 -1.9056
 2485SOL    HW219092   3.333   2.301  16.442  0.7884 -0.6383  0.7770
 2486SOL     OW19093   1.647   3.773  10.247 -0.3123 -0.3398  0.3594
 2486SOL    HW119094   1.728   3.758  10.296 -1.1856 -1.8945  1.3079
 2486SOL    HW219095   1.689   3.794  10.163  0.0767  0.1602  0.6784
 2487SOL     OW19096   0.005   0.456   5.433  0.0924 -0.0795  0.2238
 2487SOL    HW119097   4.675   0.458   5.363 -0.1131 -1.0846  0.3821
 2487SOL    HW219098   4.700   0.394   5.494  1.3924 -1.1503 -0.0199
 2488SOL     OW19099   4.147   0.085  15.016 -0.3457 -0.2617  0.0765
 2488SOL    HW119100   4.112   0.165  15.056 -1.5700 -0.7435 -0.0188
 2488SOL    HW219101   4.156   0.127  14.930 -1.1364 -0.9162 -0.3339
 2489SOL     OW19102   4.344   3.089  13.459 -0.5239  0.5466  0.4650
 2489SOL    HW119103   4.414   3.028  13.435 -2.7710 -1.0178 -2.0232
 2489SOL    HW219104   4.267   3.032  13.463  1.2463 -1.9070 -0.4518
 2490SOL     OW19105   0.482   2.021   2.156 -0.6056 -0.0752 -0.0337
 2490SOL    HW119106   0.504   1.943   2.105  1.1090 -0.7248  1.7093
 2490SOL    HW219107   0.404   1.989   2.201 -1.9029  1.3366 -1.2988
 2491SOL     OW19108   2.509   0.243  16.161  0.7660 -0.9659  0.0603
 2491SOL    HW119109   2.581   0.288  16.204  1.2850 -2.5942  0.9057
 2491SOL    HW219110   2.490   0.181  16.232  2.2713 -1.7888 -0.2627
 2492SOL     OW19111   2.805   0.963   5.082  0.2635 -0.5137  0.2241
 2492SOL    HW119112   2.825   0.875   5.115  0.6984 -1.4248 -2.4440
 2492SOL    HW219113   2.850   1.011   5.152  0.4078  0.5442 -0.6005
 2493SOL     OW19114   3.840   4.545   2.900 -0.1448 -0.3460 -0.2685
 2493SOL    HW119115   3.886   4.483   2.843  1.3188 -0.2558  0.8212
 2493SOL    HW219116   3.749   4.514   2.902  0.1105 -0.9140  2.1019
 2494SOL     OW19117   0.376   2.277   6.739 -0.3312 -0.3087 -0.1771
 2494SOL    HW119118   0.349   2.186   6.746  2.5046 -1.1815 -0.7778
 2494SOL    HW219119   0.461   2.283   6.782  0.4175 -0.6999 -1.5833
 2495SOL     OW19120   2.141   2.217  16.620  0.1145  0.6735  0.5562
 2495SOL    HW119121   2.186   2.151  16.567 -0.0429 -0.8028  2.2246
 2495SOL    HW219122   2.168   2.299  16.579  1.9035 -0.2877 -0.2091
 2496SOL     OW19123   1.425   0.064   6.589 -0.0922  0.2491  0.3555
 2496SOL    HW119124   1.462   0.015   6.663 -1.5691 -1.4320 -0.0335
 2496SOL    HW219125   1.491   0.134   6.580 -2.1824  2.3874  1.5480
 2497SOL     OW19126   1.352   1.536   3.354  0.6049  0.0021 -0.4936
 2497SOL    HW119127   1.374   1.567   3.266  1.0371  3.2669  0.7783
 2497SOL    HW219128   1.329   1.443   3.350 -2.5139  0.8725 -2.7277
 2498SOL     OW19129   0.519   3.044   4.595 -0.4100  0.3905 -0.1566
 2498SOL    HW119130   0.494   3.131   4.625  2.0129  0.5580  1.3762
 2498SOL    HW219131   0.437   3.003   4.567  0.1889 -0.8597 -0.0707
 2499SOL     OW19132   0.351   1.881   5.498 -0.0622 -0.2367 -0.6889
 2499SOL    HW119133   0.270   1.923   5.470 -0.3647  0.5051  1.3188
 2499SOL    HW219134   0.418   1.949   5.483 -0.9216  0.5230 -1.0719
 2500SOL     OW19135   2.154   4.161  17.162  0.0003 -0.2005 -0.0327
 2500SOL    HW119136   2.095   4.173  17.237  1.0683 -0.7428  0.9064
 2500SOL    HW219137   2.240   4.144  17.201  0.4034 -0.8386 -1.1950
 2501SOL     OW19138   2.998   0.714   4.895 -0.2943  0.0954 -0.3279
 2501SOL    HW119139   2.915   0.694   4.939 -0.8305  3.4369  0.1725
 2501SOL    HW219140   3.054   0.681   4.966 -0.7604 -0.0523 -0.0221
 2502SOL     OW19141   2.571   0.996  11.961  0.5646  0.4540 -0.0010
 2502SOL    HW119142   2.544   1.085  11.938 -0.6399 -0.1089 -0.7671
 2502SOL    HW219143   2.516   0.945  11.901 -0.5067 -0.0823  1.4214
 2503SOL     OW19144   3.567   2.554   2.782 -0.1047  0.1487  0.7538
 2503SOL    HW119145   3.608   2.640   2.791 -0.2916  0.3476 -0.3664
 2503SOL    HW219146   3.528   2.545   2.870 -3.3253 -1.4611 -0.8349
 2504SOL     OW19147   3.148   2.969  14.764 -0.4076  0.2328 -0.4235
 2504SOL    HW119148   3.214   2.941  14.829 -1.7858 -1.1301  0.3865
 2504SOL    HW219149   3.075   2.912  14.788 -0.1584  0.1714  0.1965
 2505SOL     OW19150   1.471   2.879   1.246 -0.2434 -0.0287 -0.2442
 2505SOL    HW119151   1.553   2.869   1.199  0.4783 -0.9559  1.2259
 2505SOL    HW219152   1.468   2.973   1.264  1.4494 -0.2510  1.1643
 2506SOL     OW19153   0.405   3.526   1.903  0.2228  0.2236  0.3078
 2506SOL    HW119154   0.454   3.607   1.911 -2.0845  1.6754 -0.3566
 2506SOL    HW219155   0.315   3.558   1.895 -0.0679 -0.7016 -0.1870
 2507SOL     OW19156   0.270   2.767  16.802  0.2525 -0.4406  0.1984
 2507SOL    HW119157   0.275   2.781  16.897 -0.8342  2.1622 -0.1245
 2507SOL    HW219158   0.272   2.671  16.794 -0.4052 -0.3343 -1.1674
 2508SOL     OW19159   3.119   4.318   4.088  0.2068 -0.5689  0.9118
 2508SOL    HW119160   3.134   4.412   4.086 -0.5090 -0.4287  2.1376
 2508SOL    HW219161   3.189   4.293   4.028  2.0065  1.2290  2.2778
 2509SOL     OW19162   1.406   0.349   7.086  0.0825 -0.0976 -0.4603
 2509SOL    HW119163   1.463   0.425   7.095 -0.5404  0.3381 -0.2499
 2509SOL    HW219164   1.357   0.354   7.168  0.5496 -2.4377 -0.0207
 2510SOL     OW19165   1.956   3.843   6.486  0.1318 -0.3670  0.6657
 2510SOL    HW119166   1.966   3.920   6.542 -0.4971 -0.1745  0.5149
 2510SOL    HW219167   1.907   3.785   6.544  0.2338 -0.0153  1.1045
 2511SOL     OW19168   3.959   2.227   8.957  0.1930  0.0659 -0.2436
 2511SOL    HW119169   4.009   2.220   9.039 -0.0865 -1.3694 -0.2012
 2511SOL    HW219170   3.910   2.145   8.957 -0.5053  0.4888 -1.1294
 2512SOL     OW19171   1.499   2.389  17.150 -0.1918 -0.2834 -0.0503
 2512SOL    HW119172   1.577   2.336  17.170  1.0033  1.6346  0.3616
 2512SOL    HW219173   1.450   2.342  17.084  2.8666 -0.7680 -2.0020
 2513SOL     OW19174   1.403   2.999   4.707  0.1839 -0.1566  1.0152
 2513SOL    HW119175   1.361   2.930   4.758  0.0564 -0.7097  0.1629
 2513SOL    HW219176   1.384   3.079   4.757 -0.0024  1.9006 -2.3012
 2514SOL     OW19177   0.472   0.098   7.340 -0.6333 -0.3376 -0.3178
 2514SOL    HW119178   0.439   0.100   7.250  0.5543 -0.4544 -0.7565
 2514SOL    HW219179   0.566   0.110   7.326 -0.7099 -0.3087 -0.8148
 2515SOL     OW19180   3.599   0.142   9.612  0.6829  0.2814 -0.4590
 2515SOL    HW119181   3.634   0.210   9.555 -1.7332  3.1798  1.5669
 2515SOL    HW219182   3.675   0.096   9.648  0.6295  0.7226  0.1981
 2516SOL     OW19183   0.063   4.126  15.241 -0.5853  0.2040  0.1931
 2516SOL    HW119184   0.129   4.105  15.175 -2.0610  1.0981 -1.5399
 2516SOL    HW219185   0.105   4.087  15.318 -0.1920 -0.4772 -0.3701
 2517SOL     OW19186   3.345   0.682   7.371 -0.5370 -0.0185 -0.0492
 2517SOL    HW119187   3.391   0.599   7.383 -1.4399 -0.6501 -1.0273
 2517SOL    HW219188   3.410   0.737   7.414 -0.0151 -1.7158  1.3879
 2518SOL     OW19189   1.007   0.221   7.254 -0.0845  0.4554 -0.2049
 2518SOL    HW119190   1.075   0.285   7.274  1.1866 -1.9763  3.1057
 2518SOL    HW219191   1.053   0.143   7.285  0.2302  0.2229 -1.2519
 2519SOL     OW19192   4.056   4.674   3.131  0.0484 -0.0345 -0.4396
 2519SOL    HW119193   4.011   4.615   3.071  0.5693  1.0833 -1.9227
 2519SOL    HW219194   4.103   4.617   3.191  2.8666  1.8188 -0.9073
 2520SOL     OW19195   4.448   2.070   6.549 -0.3235 -0.5382  0.2463
 2520SOL    HW119196   4.517   2.004   6.554  0.1579  0.1624  2.4538
 2520SOL    HW219197   4.412   2.050   6.462 -1.6233  0.5030  0.5424
 2521SOL     OW19198   2.907   1.003   6.297  0.2710 -0.2469 -0.3444
 2521SOL    HW119199   2.972   0.973   6.234  0.6155  0.5955 -0.3937
 2521SOL    HW219200   2.901   0.934   6.363 -1.1526 -0.6074 -0.8589
 2522SOL     OW19201   2.424   3.128   5.481 -0.1247 -0.2122  0.2324
 2522SOL    HW119202   2.414   3.221   5.461  0.3363  0.1384  1.6446
 2522SOL    HW219203   2.498   3.125   5.542  0.0132  2.4309  0.2015
 2523SOL     OW19204   4.291   4.574   2.984 -0.0450  0.0723 -0.0930
 2523SOL    HW119205   4.242   4.636   2.931 -0.5626  0.1763  0.5003
 2523SOL    HW219206   4.340   4.535   2.912  0.2998 -3.7971  2.2287
 2524SOL     OW19207   4.257   1.765   3.080 -0.2042  0.0395  0.2267
 2524SOL    HW119208   4.328   1.789   3.020 -0.9966 -1.2915 -1.2365
 2524SOL    HW219209   4.302   1.688   3.114  2.7528  2.4261  1.7239
 2525SOL     OW19210   0.312   0.112   5.220 -0.1172 -0.1399  0.2019
 2525SOL    HW119211   0.293   0.026   5.256  1.2529 -0.1737  0.8334
 2525SOL    HW219212   0.344   0.091   5.132 -2.4950 -0.1500 -0.6891
 2526SOL     OW19213   3.329   1.556  13.341 -0.2677  0.1556 -0.4645
 2526SOL    HW119214   3.304   1.523  13.427 -0.4923  0.9644 -0.2252
 2526SOL    HW219215   3.375   1.636  13.367 -2.1908  1.2562 -0.4643
 2527SOL     OW19216   4.020   2.072   0.956  0.0895  0.6175  0.1203
 2527SOL    HW119217   4.029   2.156   0.911 -0.0628  0.7647  0.3682
 2527SOL    HW219218   4.044   2.083   1.048  1.5158 -1.1624 -0.0281
 2528SOL     OW19219   0.693   3.371   9.015  0.0594  0.1192  0.1421
 2528SOL    HW119220   0.626   3.426   9.055 -1.2830  0.0203 -1.9633
 2528SOL    HW219221   0.731   3.322   9.088  0.6019 -0.5688 -0.5990
 2529SOL     OW19222   4.235   1.859   5.492  0.3262  0.1635  0.8591
 2529SOL    HW119223   4.170   1.902   5.438  2.1721 -0.8793 -2.1889
 2529SOL    HW219224   4.181   1.861   5.571 -1.3550 -2.4613 -0.2153
 2530SOL     OW19225   3.165   0.801   6.843  0.6257 -0.0217  0.3759
 2530SOL    HW119226   3.108   0.737   6.886  0.3614  0.0356  0.1103
 2530SOL    HW219227   3.100   0.871   6.837  2.1601  1.3643 -0.0949
 2531SOL     OW19228   1.439   0.687   3.020 -0.6203 -0.3152 -0.4715
 2531SOL    HW119229   1.447   0.676   2.925 -1.4348 -0.3515 -0.5380
 2531SOL    HW219230   1.358   0.736   3.010  0.0129  0.8197  0.0214
 2532SOL     OW19231   1.590   4.218  13.404  0.2552  0.3188 -0.0647
 2532SOL    HW119232   1.593   4.218  13.309 -1.0176  0.3410 -0.1121
 2532SOL    HW219233   1.506   4.260  13.425  0.2089  1.4620 -2.4935
 2533SOL     OW19234   2.674   2.983   3.827  0.5596  0.0115 -0.5491
 2533SOL    HW119235   2.622   3.017   3.900  2.5477 -2.5642  2.0543
 2533SOL    HW219236   2.758   3.028   3.835  0.4767  0.2208 -0.8527
 2534SOL     OW19237   2.467   3.612   9.089  0.0154 -0.3061 -0.7800
 2534SOL    HW119238   2.542   3.563   9.056  0.3694 -0.9351  0.9680
 2534SOL    HW219239   2.400   3.555   9.050 -0.6126  1.2459 -1.9968
 2535SOL     OW19240   1.139   4.491   8.720  0.2821 -0.2055  0.0654
 2535SOL    HW119241   1.193   4.442   8.658  1.0159  1.9938 -1.0337
 2535SOL    HW219242   1.052   4.477   8.683  0.3192 -0.8856  0.2345
 2536SOL     OW19243   1.438   3.138  11.148  0.4740 -0.3048  0.3998
 2536SOL    HW119244   1.343   3.146  11.146  0.5605  0.6700  0.1728
 2536SOL    HW219245   1.464   3.198  11.077 -0.5101  0.1623  0.4410
 2537SOL     OW19246   1.719   0.639   8.504  0.7158  0.6411  0.0717
 2537SOL    HW119247   1.743   0.546   8.503 -0.3089  0.3680  0.5269
 2537SOL    HW219248   1.638   0.630   8.555  0.1838 -1.3595 -1.0819
 2538SOL     OW19249   4.019   2.808   7.076 -0.0128 -0.0463  0.2936
 2538SOL    HW119250   4.050   2.734   7.128 -1.0940  0.6593  1.9445
 2538SOL    HW219251   3.928   2.778   7.067  0.1547 -0.8749  1.3089
 2539SOL     OW19252   1.561   3.946   6.676  0.0127  0.4497 -0.0232
 2539SOL    HW119253   1.655   3.938   6.663  0.0808 -1.2244  1.5401
 2539SOL    HW219254   1.520   3.927   6.592 -1.6232 -0.6746  1.0395
 2540SOL     OW19255   3.440   1.940   8.603 -0.3878 -0.0967 -0.3009
 2540SOL    HW119256   3.406   1.862   8.559 -0.8858  0.6707 -1.2683
 2540SOL    HW219257   3.360   1.974   8.641  0.3878 -0.0306  1.2706
 2541SOL     OW19258   4.226   2.094  17.642  0.5096 -0.0204 -0.0520
 2541SOL    HW119259   4.152   2.042  17.610  0.7431  1.8240 -3.5989
 2541SOL    HW219260   4.189   2.173  17.682 -1.6806 -0.9139 -0.3257
 2542SOL     OW19261   4.693   3.237  16.265  0.2855 -0.2251  1.1747
 2542SOL    HW119262   4.700   3.228  16.360  4.0834 -3.2841  0.5977
 2542SOL    HW219263   4.718   3.148  16.241 -0.6197 -0.1781  0.0499
 2543SOL     OW19264   0.911   0.037   5.425  0.2851 -0.0189 -0.0258
 2543SOL    HW119265   0.856   4.715   5.478 -1.5956  0.9890 -0.8953
 2543SOL    HW219266   0.849   0.110   5.421 -2.0521 -1.8536  2.8798
 2544SOL     OW19267   2.318   1.968   6.348  0.2941 -0.0446 -0.1208
 2544SOL    HW119268   2.391   2.030   6.356  0.2792 -0.0045 -0.2761
 2544SOL    HW219269   2.306   1.990   6.255  2.0741  1.8114  0.0847
 2545SOL     OW19270   3.434   3.101   3.735  0.5325 -0.3381  0.0092
 2545SOL    HW119271   3.497   3.172   3.748  1.5895 -1.5864  1.6498
 2545SOL    HW219272   3.381   3.142   3.667  1.8490 -2.9943 -2.5769
 2546SOL     OW19273   0.439   0.703   0.085  0.2719  0.2332 -0.0673
 2546SOL    HW119274   0.469   0.618   0.116 -0.4774 -0.2040 -0.5332
 2546SOL    HW219275   0.451   0.752   0.166 -2.1645 -0.6889  0.8673
 2547SOL     OW19276   1.933   2.451   6.700  0.1686  0.0529  0.3328
 2547SOL    HW119277   1.914   2.532   6.749 -2.1595 -0.2686 -0.0514
 2547SOL    HW219278   1.951   2.493   6.616 -0.3113 -1.4614 -0.5151
 2548SOL     OW19279   0.562   1.599  16.638  0.2070 -0.4685 -0.3984
 2548SOL    HW119280   0.613   1.565  16.712 -1.2987 -1.8461  0.0218
 2548SOL    HW219281   0.576   1.533  16.570  0.1679 -0.8491 -0.0394
 2549SOL     OW19282   4.273   0.863   2.315  0.6401  0.2388  0.3974
 2549SOL    HW119283   4.244   0.952   2.339  1.3471  0.7820 -0.8006
 2549SOL    HW219284   4.265   0.824   2.403 -1.2589 -1.8232 -0.6988
 2550SOL     OW19285   4.469   4.535   4.365 -0.0964  0.2490 -0.3834
 2550SOL    HW119286   4.542   4.593   4.342 -0.1164  0.8499  1.0989
 2550SOL    HW219287   4.510   4.499   4.443  2.3085 -0.2378 -1.8521
 2551SOL     OW19288   2.302   1.481   1.200  0.4024 -0.8550 -0.2689
 2551SOL    HW119289   2.392   1.510   1.217  0.8882 -1.6413 -1.5172
 2551SOL    HW219290   2.261   1.558   1.241 -0.3181 -1.6922  0.5663
 2552SOL     OW19291   2.092   4.061   3.713  0.3550  0.0576  0.2822
 2552SOL    HW119292   2.178   4.097   3.691  0.5200 -0.1830  0.5374
 2552SOL    HW219293   2.107   4.041   3.806 -2.7279  1.4160  1.1030
 2553SOL     OW19294   2.127   0.377   5.734 -0.2265 -0.5582  0.1880
 2553SOL    HW119295   2.163   0.465   5.749 -3.9402  0.7721  1.2328
 2553SOL    HW219296   2.124   0.334   5.819  1.8802 -2.0857 -0.5106
 2554SOL     OW19297   2.717   4.582   4.910  0.6307  0.1916  0.6683
 2554SOL    HW119298   2.777   4.656   4.909 -0.1354  0.8577  3.8887
 2554SOL    HW219299   2.638   4.637   4.912  0.5368  0.0788  0.0242
 2555SOL     OW19300   2.430   0.633   7.371 -0.6734 -0.0912  0.1964
 2555SOL    HW119301   2.367   0.568   7.341 -1.6239  0.2133  1.5395
 2555SOL    HW219302   2.502   0.586   7.414 -1.3911  0.1450  1.6663
 2556SOL     OW19303   0.430   3.955   6.278 -0.2051 -0.6184  0.2091
 2556SOL    HW119304   0.388   3.965   6.193 -3.0085 -0.6286  1.5896
 2556SOL    HW219305   0.480   3.875   6.261 -1.0405 -1.1097  0.0662
 2557SOL     OW19306   1.232   1.096   5.153  0.7615  0.4603  0.2901
 2557SOL    HW119307   1.138   1.099   5.171  0.9986 -2.6538  1.9664
 2557SOL    HW219308   1.235   1.012   5.108 -0.3749 -0.1039  1.2430
 2558SOL     OW19309   2.859   1.165  17.247  0.5980  0.6900  0.1844
 2558SOL    HW119310   2.850   1.240  17.305 -1.0537 -1.2952  2.5163
 2558SOL    HW219311   2.921   1.108  17.293  0.9293 -0.1065 -1.2483
 2559SOL     OW19312   1.929   3.366  13.169  0.3943  1.1707  0.1051
 2559SOL    HW119313   1.895   3.452  13.196 -3.0811 -0.3463  0.6429
 2559SOL    HW219314   2.005   3.387  13.115  0.2259  0.6297 -0.3511
 2560SOL     OW19315   3.566   4.282  10.785  1.1431 -0.4590 -0.4359
 2560SOL    HW119316   3.652   4.241  10.800  2.0415  0.2202 -3.8304
 2560SOL    HW219317   3.531   4.221  10.720  1.7621  0.7243 -1.8678
 2561SOL     OW19318   2.925   1.653   8.625  0.1400  0.0552  0.3657
 2561SOL    HW119319   2.840   1.686   8.597  0.5226  3.1962  2.8837
 2561SOL    HW219320   2.995   1.717   8.612 -0.8167  1.0310  0.0494
 2562SOL     OW19321   3.994   2.009   3.814  0.2508  0.4961 -0.6855
 2562SOL    HW119322   3.965   2.086   3.863 -0.8970  0.2798 -1.0204
 2562SOL    HW219323   4.086   2.032   3.799  0.5946 -0.0095  0.6682
 2563SOL     OW19324   1.825   3.241   3.767  0.1287 -0.1061 -0.0444
 2563SOL    HW119325   1.865   3.155   3.779  0.5134  0.3294  1.7637
 2563SOL    HW219326   1.733   3.214   3.766 -0.0994  0.6034  1.0156
 2564SOL     OW19327   4.130   2.377   2.809 -0.1935 -0.1969 -0.5407
 2564SOL    HW119328   4.164   2.297   2.769 -0.6649  0.6660 -2.6427
 2564SOL    HW219329   4.159   2.442   2.745 -2.9751  0.6532 -0.9510
 2565SOL     OW19330   1.090   3.331   9.189 -0.0419  0.2048  0.3117
 2565SOL    HW119331   1.095   3.253   9.244 -0.5749 -1.5994 -2.2042
 2565SOL    HW219332   1.011   3.376   9.218 -0.0050  0.8367 -0.5550
 2566SOL     OW19333   2.809   3.997   2.636 -0.1185  0.6942  0.4436
 2566SOL    HW119334   2.899   3.983   2.663  0.8933  3.1469 -1.6300
 2566SOL    HW219335   2.796   4.092   2.641  0.1840  0.8075 -0.8596
 2567SOL     OW19336   3.343   4.428   9.991  0.2807  0.2313  0.2327
 2567SOL    HW119337   3.383   4.466   9.913  0.4941  1.4330  0.9325
 2567SOL    HW219338   3.395   4.464  10.062 -0.9853  1.1785  0.6779
 2568SOL     OW19339   3.488   0.865   5.131 -0.2130 -0.6600  0.4389
 2568SOL    HW119340   3.571   0.821   5.146  0.0602 -0.3758 -0.2352
 2568SOL    HW219341   3.501   0.957   5.157  0.1064 -1.0906  1.7708
 2569SOL     OW19342   1.020   3.056  14.904 -0.0913  0.0438  0.1869
 2569SOL    HW119343   1.033   2.963  14.921 -1.7296 -0.4759 -1.4474
 2569SOL    HW219344   0.926   3.049  14.892 -0.0423  1.1337 -0.7754
 2570SOL     OW19345   2.253   1.336   4.807 -0.3035  0.0577  0.1132
 2570SOL    HW119346   2.224   1.408   4.864 -0.3661  0.5347 -0.5158
 2570SOL    HW219347   2.169   1.294   4.788 -1.2839  1.8119  0.5388
 2571SOL     OW19348   0.607   0.510   8.405  0.2781 -0.6666  0.1622
 2571SOL    HW119349   0.640   0.600   8.396  2.1752 -1.2125  1.6475
 2571SOL    HW219350   0.532   0.509   8.346  1.0818 -0.3028 -0.8721
 2572SOL     OW19351   3.511   4.159   9.925 -0.6388 -0.2695  0.3001
 2572SOL    HW119352   3.444   4.094   9.943 -0.3203 -0.4537  0.8170
 2572SOL    HW219353   3.459   4.237   9.907  0.3713  0.2128 -0.6098
 2573SOL     OW19354   0.452   2.389   0.778  0.1134  0.2420  0.3754
 2573SOL    HW119355   0.524   2.365   0.836  1.0363  0.6436 -0.6114
 2573SOL    HW219356   0.446   2.482   0.798 -1.3679 -0.1796  1.8488
 2574SOL     OW19357   4.734   4.414   3.947 -0.0899 -0.4369  0.2265
 2574SOL    HW119358   4.691   4.352   4.006  0.6020 -0.0378  1.1457
 2574SOL    HW219359   0.093   4.400   3.959 -0.5642 -1.2911  2.8903
 2575SOL     OW19360   1.270   3.609  10.122  0.5085 -0.1871 -0.3715
 2575SOL    HW119361   1.238   3.570  10.203  1.3710  1.7084  0.8784
 2575SOL    HW219362   1.215   3.687  10.134 -0.4776 -0.6417 -1.8728
 2576SOL     OW19363   4.273   0.925   9.225 -0.4507  0.1332  0.4289
 2576SOL    HW119364   4.204   0.893   9.166 -0.0619  2.9427 -1.5479
 2576SOL    HW219365   4.303   1.003   9.179  0.1848 -1.3165 -1.6036
 2577SOL     OW19366   3.409   4.253   6.085  0.6931  0.0899  0.5917
 2577SOL    HW119367   3.391   4.345   6.103 -2.6257 -0.4136 -0.1226
 2577SOL    HW219368   3.318   4.222   6.089  0.2218  1.4115  0.2670
 2578SOL     OW19369   3.225   2.887  13.853  0.1256 -0.2573  0.3950
 2578SOL    HW119370   3.169   2.913  13.779  0.0934  1.7847  1.1436
 2578SOL    HW219371   3.216   2.955  13.919 -0.9345  0.6292 -0.6472
 2579SOL     OW19372   3.426   1.218   3.003 -0.4327 -0.0544  0.2804
 2579SOL    HW119373   3.430   1.313   2.997 -3.3028  0.1360  1.2212
 2579SOL    HW219374   3.492   1.176   2.948 -0.4474  0.1454  0.1126
 2580SOL     OW19375   4.348   1.565   0.437  0.1476 -0.1605 -0.1247
 2580SOL    HW119376   4.327   1.532   0.524  0.2168 -1.4372 -0.5902
 2580SOL    HW219377   4.371   1.485   0.389 -0.4478  0.5363 -1.5851
 2581SOL     OW19378   4.720   1.644  12.485  0.0410  1.4342 -0.9176
 2581SOL    HW119379   0.004   1.636  12.392 -0.1493 -0.7041 -0.7798
 2581SOL    HW219380   0.053   1.702  12.518  1.7080 -2.4905  2.5906
 2582SOL     OW19381   3.478   0.780   5.942 -0.3420 -0.4721  0.0225
 2582SOL    HW119382   3.503   0.715   5.876 -1.3309 -1.1668  0.3351
 2582SOL    HW219383   3.554   0.783   6.000 -0.3479  1.6972 -0.0828
 2583SOL     OW19384   1.366   4.123   4.652 -0.3332 -0.4386  0.4130
 2583SOL    HW119385   1.327   4.043   4.617 -0.0702 -0.7612  0.8519
 2583SOL    HW219386   1.449   4.091   4.686  2.1570  1.6427 -3.8464
 2584SOL     OW19387   1.579   4.221   7.423  0.8513  0.1382 -0.1117
 2584SOL    HW119388   1.544   4.181   7.344 -0.5777  2.8179 -0.8311
 2584SOL    HW219389   1.579   4.312   7.394  1.9134 -0.5883 -2.4413
 2585SOL     OW19390   2.456   4.211   5.199  0.0933  0.1593  0.1818
 2585SOL    HW119391   2.549   4.233   5.190 -0.2075  1.2073 -0.4242
 2585SOL    HW219392   2.434   4.260   5.278  0.4449  1.8202 -0.7273
 2586SOL     OW19393   4.501   2.111   8.561  0.2225 -0.2365 -0.1587
 2586SOL    HW119394   4.585   2.157   8.569  0.5245 -0.6900 -0.7795
 2586SOL    HW219395   4.532   2.038   8.508 -2.2119 -2.0268  0.9008
 2587SOL     OW19396   2.818   1.025   4.802 -0.0925 -0.2778  0.1537
 2587SOL    HW119397   2.866   1.090   4.853 -0.4355 -0.4102  0.6529
 2587SOL    HW219398   2.790   0.969   4.875 -0.0455 -0.0956  0.3104
 2588SOL     OW19399   3.949   3.270   4.569  0.2441 -0.1687 -0.6287
 2588SOL    HW119400   3.890   3.297   4.498  0.3511 -0.3031 -0.7675
 2588SOL    HW219401   3.938   3.348   4.623  0.6950 -0.3361 -0.2950
 2589SOL     OW19402   4.460   4.564   2.129 -0.1879  0.0408  0.5972
 2589SOL    HW119403   4.432   4.642   2.082  2.0619 -1.1502 -2.7254
 2589SOL    HW219404   4.389   4.504   2.106  0.1800 -0.6737  1.3127
 2590SOL     OW19405   4.356   3.636  13.174  1.0437  0.2252  0.4270
 2590SOL    HW119406   4.318   3.635  13.262  2.7343  1.5622  1.1626
 2590SOL    HW219407   4.417   3.704  13.201 -0.2527  1.4594  0.2480
 2591SOL     OW19408   2.739   4.007   6.213 -0.1919 -0.1621  0.0391
 2591SOL    HW119409   2.715   4.077   6.151  1.6068 -0.4608 -1.0137
 2591SOL    HW219410   2.666   4.020   6.272 -0.1650  1.5739 -0.2855
 2592SOL     OW19411   0.258   4.408   7.573  0.1064  0.8379  0.4810
 2592SOL    HW119412   0.336   4.459   7.552 -0.4360  1.2632 -0.5033
 2592SOL    HW219413   0.221   4.472   7.633 -1.2935  0.0334  0.4823
 2593SOL     OW19414   2.723   2.623   6.404  0.1328 -0.1690 -0.3564
 2593SOL    HW119415   2.744   2.556   6.339 -0.5849 -1.4459  0.7239
 2593SOL    HW219416   2.805   2.671   6.401  0.1224  0.0631  3.9062
 2594SOL     OW19417   4.352   0.723   6.911 -0.4720  0.0264 -0.3388
 2594SOL    HW119418   4.256   0.723   6.908 -0.5294 -0.4616  1.2101
 2594SOL    HW219419   4.366   0.814   6.884  0.7944  0.4653  1.7698
 2595SOL     OW19420   0.854   4.540   2.250  0.0974  0.2054 -0.1498
 2595SOL    HW119421   0.900   4.467   2.207  0.4712  1.0052 -1.1178
 2595SOL    HW219422   0.809   4.579   2.175  0.7496  2.8203  0.8356
 2596SOL     OW19423   2.333   4.306   1.362  0.0223 -0.1815  0.3975
 2596SOL    HW119424   2.323   4.391   1.405 -1.4680  0.2786 -0.8340
 2596SOL    HW219425   2.426   4.316   1.343 -0.0483 -1.8436 -0.8086
 2597SOL     OW19426   4.235   1.628   6.948 -0.0166 -0.3898 -0.1338
 2597SOL    HW119427   4.153   1.650   6.993 -0.1469  1.1600 -1.1128
 2597SOL    HW219428   4.221   1.536   6.925 -1.3833 -0.3664  0.5653
 2598SOL     OW19429   2.123   0.937  14.511 -0.1635 -0.0372 -0.0521
 2598SOL    HW119430   2.189   0.928  14.579 -0.7008  0.7696  0.5701
 2598SOL    HW219431   2.084   0.850  14.522  1.1405 -0.6592 -0.2523
 2599SOL     OW19432   4.479   1.131  12.622  0.2464 -1.0161 -0.2700
 2599SOL    HW119433   4.467   1.158  12.713 -1.7731 -1.9154 -0.2771
 2599SOL    HW219434   4.564   1.173  12.606 -0.0538 -0.7925 -1.2845
 2600SOL     OW19435   1.041   1.157  13.839 -0.0726  0.0612 -0.3601
 2600SOL    HW119436   1.100   1.090  13.805  0.9178  0.0228  1.4355
 2600SOL    HW219437   0.955   1.118  13.828 -0.1048 -0.0349  0.2464
 2601SOL     OW19438   3.438   1.530   5.308 -0.1143  0.3385  0.2573
 2601SOL    HW119439   3.354   1.543   5.264  0.1473  1.8268  0.2296
 2601SOL    HW219440   3.492   1.473   5.252  0.2651  2.2676 -1.3248
 2602SOL     OW19441   4.144   1.798  17.722  0.0254  0.1809 -0.2208
 2602SOL    HW119442   4.227   1.758   0.006  0.6511  0.8348 -1.3550
 2602SOL    HW219443   4.085   1.724  17.735  0.5425 -0.1377  0.2462
 2603SOL     OW19444   1.329   0.394   6.327  0.3190 -0.1477 -0.2102
 2603SOL    HW119445   1.240   0.361   6.326 -0.3347  1.7224 -2.9339
 2603SOL    HW219446   1.318   0.482   6.362  0.9446 -0.2257  0.1957
 2604SOL     OW19447   1.549   1.642  14.948  0.0930 -0.0560 -0.2143
 2604SOL    HW119448   1.613   1.576  14.976  0.0100 -0.0264  0.0411
 2604SOL    HW219449   1.527   1.612  14.859  1.6235  2.6993 -1.5190
 2605SOL     OW19450   0.474   3.157   8.970 -0.2603 -0.2116  0.0789
 2605SOL    HW119451   0.527   3.215   8.916 -1.0914  0.9548  0.5325
 2605SOL    HW219452   0.466   3.208   9.050 -2.0076 -2.9216  1.6692
 2606SOL     OW19453   3.488   1.502   3.500 -0.0411  0.0948  0.4198
 2606SOL    HW119454   3.584   1.497   3.502 -0.0099  0.7752  0.8637
 2606SOL    HW219455   3.479   1.573   3.435  0.7601 -0.7523 -0.6067
 2607SOL     OW19456   0.717   1.062   3.825 -0.0868  0.0832 -0.2491
 2607SOL    HW119457   0.644   1.010   3.793  0.6238 -0.7254 -0.5627
 2607SOL    HW219458   0.684   1.102   3.905  1.0282 -1.1294  0.8130
 2608SOL     OW19459   0.638   0.027  10.002  0.5088 -0.0600 -0.7500
 2608SOL    HW119460   0.711   0.083   9.973 -0.0744  0.8295 -0.5111
 2608SOL    HW219461   0.684   4.696  10.054  1.1997  1.7148  0.9037
 2609SOL     OW19462   0.097   4.346  16.351  0.5108  0.1027 -0.2518
 2609SOL    HW119463   0.055   4.430  16.370  0.2566  0.3557 -1.9376
 2609SOL    HW219464   0.121   4.357  16.259 -0.0762  1.8705 -0.1976
 2610SOL     OW19465   0.474   2.603  17.234 -0.0394 -0.1867  0.1675
 2610SOL    HW119466   0.481   2.693  17.203  0.7441 -0.8245 -1.4773
 2610SOL    HW219467   0.445   2.622  17.323  0.0517  1.5687 -0.1838
 2611SOL     OW19468   3.692   3.954  10.468 -0.3664 -0.0403  0.2758
 2611SOL    HW119469   3.627   3.996  10.524 -0.6491 -0.1379  0.0249
 2611SOL    HW219470   3.692   4.014  10.393 -0.9140  0.6574  0.8423
 2612SOL     OW19471   1.699   2.095   3.892 -0.0086 -0.2301  0.4216
 2612SOL    HW119472   1.768   2.103   3.827  1.4776  1.7929  2.2698
 2612SOL    HW219473   1.756   2.072   3.965  1.0038  1.8478  0.2701
 2613SOL     OW19474   1.844   2.872  14.572 -0.2857 -0.1514  0.5057
 2613SOL    HW119475   1.848   2.868  14.668 -0.9054 -0.7287  0.5133
 2613SOL    HW219476   1.818   2.780  14.563  0.5120 -0.5215  1.8943
 2614SOL     OW19477   1.674   3.062  15.343  0.2121 -0.3591  0.3008
 2614SOL    HW119478   1.643   3.069  15.433 -1.8533  2.9018 -0.6794
 2614SOL    HW219479   1.768   3.048  15.351  0.3278  0.6837  0.7111
 2615SOL     OW19480   1.591   3.449   8.845  0.4628  0.1155  0.3265
 2615SOL    HW119481   1.509   3.400   8.851  1.8291 -2.3511 -1.1103
 2615SOL    HW219482   1.639   3.420   8.922 -0.7027  1.3227  1.5064
 2616SOL     OW19483   4.526   1.413  12.489 -0.6164  0.3643 -0.0319
 2616SOL    HW119484   4.584   1.489  12.480 -0.0179 -0.1833 -0.8036
 2616SOL    HW219485   4.564   1.368  12.564 -2.2832 -1.0653 -0.0575
 2617SOL     OW19486   3.935   4.100   0.739 -0.0848 -0.3770 -0.6788
 2617SOL    HW119487   4.017   4.108   0.690  0.7269 -0.3077  0.6848
 2617SOL    HW219488   3.871   4.154   0.694 -0.3587  0.2254  0.4229
 2618SOL     OW19489   3.667   0.805   3.007 -0.8437 -0.3201  0.0780
 2618SOL    HW119490   3.698   0.876   2.951 -0.1034 -0.5383  0.2149
 2618SOL    HW219491   3.578   0.797   2.972 -0.8506 -2.8942  0.7106
 2619SOL     OW19492   1.949   0.801   8.808 -0.0098  0.3850  0.0146
 2619SOL    HW119493   2.002   0.721   8.812  1.2911  1.2819  0.6388
 2619SOL    HW219494   1.977   0.831   8.722 -0.4711 -1.1430 -0.6683
 2620SOL     OW19495   2.336   1.838   2.089  0.3952  0.3040 -0.3106
 2620SOL    HW119496   2.350   1.788   2.169 -0.9303 -1.1788 -1.0049
 2620SOL    HW219497   2.393   1.915   2.085 -1.7974  2.0065  0.6497
 2621SOL     OW19498   0.856   0.360  15.379  0.1037 -0.3271 -0.1253
 2621SOL    HW119499   0.813   0.419  15.441  0.9619 -0.9984  1.1196
 2621SOL    HW219500   0.934   0.405  15.345 -0.1185 -0.7599 -1.1936
 2622SOL     OW19501   4.588   3.606   8.744  0.1808  0.1474 -0.3445
 2622SOL    HW119502   4.682   3.597   8.730  0.1824 -1.4403  0.6819
 2622SOL    HW219503   4.584   3.548   8.820 -1.0612  0.2102 -0.3590
 2623SOL     OW19504   2.598   0.091   2.044  0.0755  0.1151 -0.5923
 2623SOL    HW119505   2.520   0.145   2.036  0.2456  0.2090 -1.6573
 2623SOL    HW219506   2.566   0.034   1.974 -2.1061 -2.3268  2.3534
 2624SOL     OW19507   3.841   3.102   1.553 -0.0877  0.6617  0.1702
 2624SOL    HW119508   3.920   3.141   1.590  0.6848 -1.2616  0.5618
 2624SOL    HW219509   3.864   3.009   1.566 -1.2050  0.2291 -0.9531
 2625SOL     OW19510   2.068   4.417   3.832  0.4069  0.0103 -0.3164
 2625SOL    HW119511   2.118   4.381   3.905 -2.4487 -1.1748  1.0213
 2625SOL    HW219512   2.088   4.510   3.845  1.1542 -0.0046 -1.3481
 2626SOL     OW19513   2.523   0.589   3.928 -0.9578  0.2623 -0.3746
 2626SOL    HW119514   2.492   0.517   3.873 -0.6995 -0.9602  1.0931
 2626SOL    HW219515   2.616   0.597   3.908 -0.1040 -1.2878  2.9388
 2627SOL     OW19516   3.178   3.528   2.558  0.0246  0.1470  0.0406
 2627SOL    HW119517   3.125   3.602   2.586  1.6424  1.4610 -0.3777
 2627SOL    HW219518   3.237   3.564   2.491  1.1282 -1.3184  0.2203
 2628SOL     OW19519   2.753   4.426  11.269  0.5574 -0.9181 -0.3281
 2628SOL    HW119520   2.802   4.418  11.351 -0.9667 -1.0716  0.5511
 2628SOL    HW219521   2.823   4.412  11.205  1.1855 -0.4272  0.2578
 2629SOL     OW19522   4.568   2.987   2.268 -0.0067  0.0777 -0.3609
 2629SOL    HW119523   4.503   2.978   2.337  2.1669  1.0763  1.7931
 2629SOL    HW219524   4.621   2.910   2.286  1.3313  1.5765  2.0805
 2630SOL     OW19525   1.482   0.653   6.966 -0.1932 -0.0772 -0.2468
 2630SOL    HW119526   1.517   0.732   6.924 -0.3566 -0.9555 -2.0393
 2630SOL    HW219527   1.552   0.595   6.936 -0.9671  0.4059 -3.0316
 2631SOL     OW19528   0.131   3.257  13.066  0.4772  0.1360  0.1144
 2631SOL    HW119529   0.084   3.276  13.147 -1.8573 -1.2385 -0.9241
 2631SOL    HW219530   0.068   3.206  13.015  2.4960 -2.6609  0.4319
 2632SOL     OW19531   4.527   1.093   3.754 -0.3839 -0.1438  0.0626
 2632SOL    HW119532   4.511   1.001   3.773 -0.3842  0.5284  3.4407
 2632SOL    HW219533   4.470   1.114   3.680 -0.0661  0.5624  0.0213
 2633SOL     OW19534   3.359   4.254   4.294 -1.0204 -0.4428 -0.5018
 2633SOL    HW119535   3.448   4.259   4.258 -0.5502  0.6863  0.7930
 2633SOL    HW219536   3.304   4.241   4.217 -0.3556  0.2638 -1.0944
 2634SOL     OW19537   3.182   3.998   2.365 -0.1111 -0.6202  0.4478
 2634SOL    HW119538   3.099   4.043   2.350  0.2127 -0.4268 -0.8103
 2634SOL    HW219539   3.203   4.027   2.453 -0.4083  0.9023  0.0167
 2635SOL     OW19540   0.067   0.813  10.253 -0.1571  0.0775  0.7925
 2635SOL    HW119541   4.718   0.810  10.298 -1.3098 -1.7349 -1.4180
 2635SOL    HW219542   0.075   0.906  10.235 -2.7449  0.5502  2.1807
 2636SOL     OW19543   0.334   0.784   8.645 -0.8958 -0.1272 -0.2663
 2636SOL    HW119544   0.342   0.870   8.602 -0.9057  0.4357  0.8541
 2636SOL    HW219545   0.391   0.797   8.720  0.2527  0.5001 -1.2435
 2637SOL     OW19546   3.215   1.102   8.956  0.3612 -0.3221  0.0803
 2637SOL    HW119547   3.304   1.072   8.941  0.2671  0.1122 -1.3526
 2637SOL    HW219548   3.169   1.021   8.933 -2.1254  1.0387  0.2302
 2638SOL     OW19549   3.901   2.646   8.444  0.6106 -0.3348  0.3673
 2638SOL    HW119550   3.855   2.655   8.527  3.1492 -1.5797  1.9099
 2638SOL    HW219551   3.948   2.729   8.448 -0.6137  0.4431 -1.3681
 2639SOL     OW19552   2.653   4.015   3.078  0.3029  0.0489  0.3353
 2639SOL    HW119553   2.736   4.051   3.049  0.5357 -0.6351  0.1521
 2639SOL    HW219554   2.620   3.965   3.003  2.3717  1.9174 -1.7986
 2640SOL     OW19555   0.112   0.386  16.021  0.4415 -0.1950 -0.2139
 2640SOL    HW119556   0.106   0.374  16.116 -0.4000 -0.6909 -0.3236
 2640SOL    HW219557   0.024   0.415  15.998  0.4047 -1.0854 -1.2175
 2641SOL     OW19558   2.348   0.256   2.876  0.4258 -0.4352 -0.0854
 2641SOL    HW119559   2.359   0.174   2.829 -0.0928  0.8595 -2.4590
 2641SOL    HW219560   2.279   0.233   2.938 -0.9533  0.0402 -1.4565
 2642SOL     OW19561   3.519   0.438   0.616 -0.3437 -0.1453  0.6584
 2642SOL    HW119562   3.450   0.504   0.617  1.7037  1.9747  3.0730
 2642SOL    HW219563   3.502   0.405   0.528  0.8450  1.2309 -0.0823
 2643SOL     OW19564   1.736   1.026   5.098 -0.0511  0.0921  0.3008
 2643SOL    HW119565   1.715   0.963   5.168  0.8929 -1.9426 -1.2339
 2643SOL    HW219566   1.646   1.041   5.071 -0.0074  1.1872  0.7681
 2644SOL     OW19567   4.544   2.661  12.463  0.1434 -0.2673 -0.5641
 2644SOL    HW119568   4.605   2.649  12.389  2.6412  1.1041  1.2600
 2644SOL    HW219569   4.569   2.749  12.493  1.0088 -1.1131  1.1694
 2645SOL     OW19570   2.396   4.714   3.767 -0.4130  0.0754 -0.1731
 2645SOL    HW119571   2.377   4.621   3.778 -0.1318 -0.0897 -1.1725
 2645SOL    HW219572   2.489   4.694   3.776 -0.1446  1.2426 -0.3713
 2646SOL     OW19573   0.040   3.309  16.551  0.0338  0.3096 -0.3865
 2646SOL    HW119574   0.006   3.259  16.625  2.3905 -0.9998 -0.1901
 2646SOL    HW219575   0.013   3.400  16.561  0.6800  0.4333  0.2645
 2647SOL     OW19576   1.610   3.085   8.897  0.3628  0.1386  0.1502
 2647SOL    HW119577   1.673   3.094   8.826 -1.1271 -0.5558 -1.2746
 2647SOL    HW219578   1.538   3.142   8.871 -0.5119 -0.9218  0.2203
 2648SOL     OW19579   2.274   3.621   5.993 -0.3212 -0.3618 -0.3808
 2648SOL    HW119580   2.338   3.557   6.025 -0.5532 -0.3937  0.0165
 2648SOL    HW219581   2.321   3.703   5.976 -2.1314  1.1910  2.0852
 2649SOL     OW19582   3.437   3.167   1.893  0.0316  0.5299 -0.5553
 2649SOL    HW119583   3.385   3.234   1.937 -0.2448  0.5953 -0.9901
 2649SOL    HW219584   3.375   3.094   1.885 -1.4344  1.5681  1.3211
 2650SOL     OW19585   2.195   2.250   1.719 -0.2493 -1.0139 -0.2332
 2650SOL    HW119586   2.124   2.301   1.757  1.6120  0.7297  0.9058
 2650SOL    HW219587   2.254   2.266   1.792 -0.4574  0.4773 -0.3902
 2651SOL     OW19588   3.586   2.986  15.986 -0.1286  0.2406  0.3390
 2651SOL    HW119589   3.495   2.990  15.957  0.4931  0.8430 -1.5427
 2651SOL    HW219590   3.631   3.037  15.917 -0.0588  0.3894  0.4946
 2652SOL     OW19591   2.409   3.210   7.182 -0.1313  0.0458 -0.1483
 2652SOL    HW119592   2.491   3.211   7.134  0.3054 -2.7097  0.5391
 2652SOL    HW219593   2.439   3.211   7.273  1.7389 -2.7325 -0.7387
 2653SOL     OW19594   2.870   1.919  15.120  0.0813  0.6508  0.0021
 2653SOL    HW119595   2.856   1.921  15.215  0.8656  0.5810  0.1138
 2653SOL    HW219596   2.886   1.826  15.107  2.0568  0.9137  0.5601
 2654SOL     OW19597   1.326   2.194   4.792  0.2452 -0.8558  0.0468
 2654SOL    HW119598   1.355   2.282   4.770  0.2671 -0.4705  1.5719
 2654SOL    HW219599   1.234   2.218   4.804 -0.5404 -3.7837 -0.1837
 2655SOL     OW19600   1.774   0.701   1.598 -0.1537  0.3582 -0.0918
 2655SOL    HW119601   1.807   0.772   1.654 -1.4476 -0.9151  2.3036
 2655SOL    HW219602   1.842   0.684   1.534 -0.6582  1.9364 -1.0495
 2656SOL     OW19603   1.522   0.227   6.216  0.0433 -0.4913 -0.1289
 2656SOL    HW119604   1.504   0.134   6.230 -0.6592 -0.3104  0.1339
 2656SOL    HW219605   1.458   0.272   6.270 -0.0512 -2.1870  1.1825
 2657SOL     OW19606   4.659   1.357   8.584 -0.3618  0.4370  0.6089
 2657SOL    HW119607   4.614   1.322   8.507  0.6133  2.0380 -0.6825
 2657SOL    HW219608   4.611   1.438   8.603  0.4693  0.6108  2.0008
 2658SOL     OW19609   3.269   0.679   0.583 -0.2828  0.0680 -0.0390
 2658SOL    HW119610   3.311   0.722   0.509  0.6602 -1.0365 -0.1312
 2658SOL    HW219611   3.200   0.625   0.546  0.3482 -0.7830  0.0342
 2659SOL     OW19612   1.730   0.496   7.486 -0.1836 -0.1668  0.0602
 2659SOL    HW119613   1.767   0.560   7.547 -3.3802 -0.5827  2.4493
 2659SOL    HW219614   1.816   0.457   7.470  0.8765  2.6476 -1.0772
 2660SOL     OW19615   1.688   1.693   7.903  0.7233  0.5834  0.5747
 2660SOL    HW119616   1.743   1.629   7.949  0.2285 -0.5272 -0.3681
 2660SOL    HW219617   1.730   1.777   7.918 -0.1095  1.9543 -4.9105
 2661SOL     OW19618   0.446   0.906  17.613  0.0116 -0.1309 -0.2522
 2661SOL    HW119619   0.461   0.829  17.668  2.2500  0.9979  0.7533
 2661SOL    HW219620   0.504   0.968  17.658 -1.3490  1.2511 -0.4160
 2662SOL     OW19621   3.279   0.036  12.742 -0.7666  0.0643 -0.0890
 2662SOL    HW119622   3.347   4.724  12.694 -0.3379 -0.2992  0.8744
 2662SOL    HW219623   3.327   0.074  12.816  0.6630  0.1740 -1.0763
 2663SOL     OW19624   1.266   4.612   2.308  0.1923 -0.1684  0.6067
 2663SOL    HW119625   1.282   4.632   2.216 -2.9924 -0.6645 -0.0293
 2663SOL    HW219626   1.292   4.520   2.317 -1.4153 -0.3963  2.8902
 2664SOL     OW19627   3.034   0.329   7.314  0.6935  0.1382 -0.2336
 2664SOL    HW119628   3.049   0.338   7.220  0.7198 -0.9057 -0.3348
 2664SOL    HW219629   2.939   0.345   7.316  0.6107 -0.2639 -0.7471
 2665SOL     OW19630   0.320   4.111   2.131  0.3107  0.2769 -0.3083
 2665SOL    HW119631   0.317   4.191   2.184 -1.3511 -0.3802  0.5972
 2665SOL    HW219632   0.400   4.073   2.168  0.9863  1.4605 -0.5750
 2666SOL     OW19633   4.028   3.536   7.869 -0.0460 -0.1709 -0.4101
 2666SOL    HW119634   4.012   3.466   7.931  0.0013 -0.6569 -0.9467
 2666SOL    HW219635   3.943   3.526   7.826 -0.6344  1.2888  0.3974
 2667SOL     OW19636   4.313   0.606   5.947  0.0155 -0.6813  0.7050
 2667SOL    HW119637   4.377   0.674   5.971 -0.0302 -1.1666  2.2015
 2667SOL    HW219638   4.344   0.583   5.860 -0.6492 -0.7096  0.4789
 2668SOL     OW19639   2.980   1.347   7.332 -1.1454  0.8128  0.2624
 2668SOL    HW119640   2.984   1.308   7.245 -0.9491 -0.0180  0.6443
 2668SOL    HW219641   3.071   1.350   7.359 -0.6625 -1.6464 -1.0714
 2669SOL     OW19642   0.569   4.323   3.869 -0.3624  0.5090 -0.1905
 2669SOL    HW119643   0.564   4.237   3.910  0.2844  0.7307  0.3545
 2669SOL    HW219644   0.648   4.320   3.816 -0.0529 -2.8933  0.4929
 2670SOL     OW19645   2.989   2.982   6.189  0.2241  0.1950 -0.1947
 2670SOL    HW119646   3.001   2.887   6.193  0.9908  0.3451  0.8512
 2670SOL    HW219647   2.989   2.990   6.093  0.5554 -2.0076 -0.3721
 2671SOL     OW19648   1.376   4.149   7.227  0.3641  0.4414 -0.4767
 2671SOL    HW119649   1.309   4.098   7.181 -0.9467  1.4504  0.3265
 2671SOL    HW219650   1.319   4.198   7.287 -0.4183 -2.1762  0.8793
 2672SOL     OW19651   3.517   1.657  13.743 -0.1546 -0.0717  0.3853
 2672SOL    HW119652   3.455   1.730  13.739 -0.0863 -0.0173  0.3209
 2672SOL    HW219653   3.598   1.702  13.769  0.1399 -1.3872  1.7508
 2673SOL     OW19654   3.280   3.687   3.460 -0.6317 -0.0248  0.0138
 2673SOL    HW119655   3.277   3.713   3.552 -2.1434 -2.3959  0.6188
 2673SOL    HW219656   3.208   3.625   3.457 -0.0861 -0.5326 -2.5633
 2674SOL     OW19657   0.895   2.360  11.516 -0.1513  0.1143  0.1670
 2674SOL    HW119658   0.945   2.355  11.597  1.2547 -2.7487 -0.9034
 2674SOL    HW219659   0.962   2.409  11.469  0.9672  0.4298  2.0838
 2675SOL     OW19660   0.163   0.707   3.783 -0.0231 -0.2810 -0.6408
 2675SOL    HW119661   0.111   0.630   3.756  1.8411 -0.9670 -2.2604
 2675SOL    HW219662   0.229   0.696   3.715 -1.0939  1.9855 -2.0285
 2676SOL     OW19663   1.560   1.255   7.048  0.0100 -0.6079 -0.0001
 2676SOL    HW119664   1.643   1.302   7.055  0.6296 -1.8951  1.1836
 2676SOL    HW219665   1.582   1.163   7.059 -0.9976 -1.2605 -3.4346
 2677SOL     OW19666   0.296   0.204   4.336  0.0458  0.5469  0.0798
 2677SOL    HW119667   0.242   0.165   4.268  0.9626 -0.6159  0.0075
 2677SOL    HW219668   0.351   0.262   4.282 -1.7789  0.3692 -1.9679
 2678SOL     OW19669   3.555   4.296  12.788  0.3585 -0.1863  0.1232
 2678SOL    HW119670   3.487   4.319  12.852 -1.5027 -0.1241 -1.8858
 2678SOL    HW219671   3.602   4.227  12.835  1.4668 -1.2671 -2.6074
 2679SOL     OW19672   3.900   2.439   8.274  0.0154  0.0575  0.7544
 2679SOL    HW119673   3.962   2.481   8.215 -1.0250  2.5710  1.4896
 2679SOL    HW219674   3.889   2.512   8.335 -1.7839  1.2441 -0.9866
 2680SOL     OW19675   0.143   4.312   2.996 -0.1685  0.0043  0.2022
 2680SOL    HW119676   0.114   4.342   3.082 -1.2614 -0.7147  0.0775
 2680SOL    HW219677   0.065   4.292   2.945 -1.0633  2.0107  0.7820
 2681SOL     OW19678   4.054   0.875   9.082 -0.2286 -0.4761  0.9002
 2681SOL    HW119679   4.049   0.872   8.987 -1.6406 -2.6444  1.0471
 2681SOL    HW219680   3.969   0.850   9.117 -1.4429  3.4532  0.8209
 2682SOL     OW19681   1.059   0.122   8.877 -0.2301  0.2732  0.3551
 2682SOL    HW119682   1.087   0.117   8.786  1.8777  1.5904  0.9202
 2682SOL    HW219683   0.973   0.163   8.863  0.0135  1.2728  1.8229
 2683SOL     OW19684   2.244   1.736   6.669  0.6176  0.5912 -0.6737
 2683SOL    HW119685   2.328   1.692   6.661  1.6454  2.5418 -0.6611
 2683SOL    HW219686   2.279   1.824   6.687 -0.9474  1.0617  0.1009
 2684SOL     OW19687   2.106   2.385  12.581  0.2732 -0.0981  0.0593
 2684SOL    HW119688   2.117   2.395  12.675  0.6734 -1.3539  0.1461
 2684SOL    HW219689   2.163   2.310  12.565 -2.5773 -2.4201  0.7604
 2685SOL     OW19690   0.535   0.311   7.723 -0.7768  0.0171 -0.3268
 2685SOL    HW119691   0.597   0.240   7.710  0.6922  1.2671 -0.2097
 2685SOL    HW219692   0.517   0.331   7.631 -1.0444 -2.3055 -0.7661
 2686SOL     OW19693   2.056   3.973  10.565  0.1858 -0.1912 -0.1931
 2686SOL    HW119694   2.083   4.007  10.651  2.0800  0.3604 -1.0159
 2686SOL    HW219695   2.091   4.039  10.506 -1.0054  1.3653  0.8422
 2687SOL     OW19696   3.979   0.312   5.151 -0.1438  0.5585  0.1908
 2687SOL    HW119697   4.028   0.387   5.116  2.2176 -0.2794  1.7542
 2687SOL    HW219698   3.893   0.347   5.124  0.0099  0.8874  0.1233
 2688SOL     OW19699   4.025   1.161   1.579 -0.5765  0.7491 -0.3670
 2688SOL    HW119700   4.082   1.178   1.504 -2.3166  0.9265 -1.6290
 2688SOL    HW219701   3.944   1.131   1.538 -0.4225 -0.4825  0.2293
 2689SOL     OW19702   1.110   3.825  10.206 -0.4080  0.0607  0.4944
 2689SOL    HW119703   1.135   3.865  10.289  1.8003 -1.7461  0.7052
 2689SOL    HW219704   1.039   3.771  10.240 -1.0464  0.0058 -0.9269
 2690SOL     OW19705   4.561   1.011  15.396  0.5396  0.7810  0.2086
 2690SOL    HW119706   4.567   0.915  15.388  0.3076  0.8991 -1.3217
 2690SOL    HW219707   4.481   1.018  15.345  2.2135 -0.0369 -2.5560
 2691SOL     OW19708   0.836   4.481   5.801  0.6483 -0.3630  0.6085
 2691SOL    HW119709   0.806   4.482   5.892 -0.6029 -1.4531  0.2161
 2691SOL    HW219710   0.915   4.534   5.809  1.1424 -1.4804  3.3827
 2692SOL     OW19711   1.852   2.601   5.887 -0.1222  0.1709 -0.5503
 2692SOL    HW119712   1.821   2.553   5.810  0.5871 -1.2605  0.0566
 2692SOL    HW219713   1.843   2.532   5.953  0.0742 -0.7461 -1.4774
 2693SOL     OW19714   4.138   2.857   1.190 -0.5830 -0.3870  0.1493
 2693SOL    HW119715   4.146   2.832   1.282 -0.6112  1.6608  0.7047
 2693SOL    HW219716   4.052   2.898   1.180  0.7941  2.2466 -0.9401
 2694SOL     OW19717   1.178   0.304   7.591  0.1522  0.3366 -0.0059
 2694SOL    HW119718   1.137   0.223   7.622  0.6659  1.6415  4.0487
 2694SOL    HW219719   1.268   0.286   7.566  0.0954 -2.2264  1.6338
 2695SOL     OW19720   2.008   4.351   7.887  0.0795 -0.1436 -0.2481
 2695SOL    HW119721   2.091   4.390   7.857  0.5525  0.4686  1.8772
 2695SOL    HW219722   1.981   4.318   7.801  0.6723 -1.7607  0.1828
 2696SOL     OW19723   3.816   1.460   5.322 -0.0389  0.0601  0.1552
 2696SOL    HW119724   3.852   1.470   5.234 -1.3172 -0.4574 -0.4217
 2696SOL    HW219725   3.787   1.551   5.327  0.3257  0.1276  1.0638
 2697SOL     OW19726   0.424   2.620   0.914 -0.1294  0.0152 -0.4966
 2697SOL    HW119727   0.341   2.575   0.932  0.2512 -1.3320 -2.0250
 2697SOL    HW219728   0.465   2.624   1.000 -0.5738  2.2892 -0.4067
 2698SOL     OW19729   3.537   2.765   5.837  0.3891  0.3585  0.5149
 2698SOL    HW119730   3.621   2.763   5.790  0.3259 -1.5515  0.5002
 2698SOL    HW219731   3.573   2.741   5.922  1.1013  0.1279  0.1527
 2699SOL     OW19732   1.655   4.507   7.163  0.0677  0.3182 -0.1498
 2699SOL    HW119733   1.686   4.441   7.101  0.5609  0.9643 -0.6079
 2699SOL    HW219734   1.575   4.527   7.114 -0.1532 -0.6438 -0.1746
 2700SOL     OW19735   4.258   4.095   5.169 -0.7803 -0.3322 -0.2003
 2700SOL    HW119736   4.232   4.087   5.261  1.2220  1.2389  0.5052
 2700SOL    HW219737   4.273   4.189   5.163  0.5550 -0.4931  0.4795
 2701SOL     OW19738   2.288   4.527   2.552  0.6272  0.3201 -0.6435
 2701SOL    HW119739   2.355   4.481   2.502  1.1385  0.9736 -0.5579
 2701SOL    HW219740   2.278   4.601   2.492 -0.8274  1.9898  1.6081
 2702SOL     OW19741   1.706   4.153   8.675 -0.2422  0.0869  0.0664
 2702SOL    HW119742   1.643   4.219   8.704  0.7354  0.8521  0.4791
 2702SOL    HW219743   1.789   4.200   8.688 -0.5395  0.1846  1.5440
 2703SOL     OW19744   0.062   4.602  10.734 -0.1245  0.6302 -0.0296
 2703SOL    HW119745   0.141   4.650  10.759  1.2960 -0.7216 -1.9573
 2703SOL    HW219746   0.078   4.571  10.645 -2.0440 -0.2638 -0.0790
 2704SOL     OW19747   0.047   4.085   3.245 -0.2713  0.0650  0.1710
 2704SOL    HW119748   0.050   4.181   3.243 -1.7508  0.1238  0.1167
 2704SOL    HW219749   4.731   4.070   3.324  1.9816  0.1839  1.6381
 2705SOL     OW19750   1.173   1.716   4.171 -0.6535  0.2397 -0.0112
 2705SOL    HW119751   1.217   1.663   4.237 -1.4654 -1.4430 -0.8111
 2705SOL    HW219752   1.234   1.789   4.160 -0.3979 -0.0569 -0.5674
 2706SOL     OW19753   2.433   1.698   7.673 -0.0507  0.7325  0.2715
 2706SOL    HW119754   2.409   1.691   7.765  1.1433 -2.9359  0.3459
 2706SOL    HW219755   2.454   1.790   7.656 -0.5982  0.7554 -0.2863
 2707SOL     OW19756   1.727   2.838   1.148 -0.5867  0.3844  0.4855
 2707SOL    HW119757   1.761   2.796   1.069 -0.8153 -0.1855  0.6905
 2707SOL    HW219758   1.813   2.852   1.187  0.5926 -0.9762 -1.6633
 2708SOL     OW19759   2.961   2.828   3.150  0.2211  0.0700 -0.0928
 2708SOL    HW119760   2.947   2.919   3.178 -2.5014 -0.0889 -0.9273
 2708SOL    HW219761   2.966   2.848   3.056 -1.4870  0.5059 -0.0841
 2709SOL     OW19762   2.003   3.943   7.195 -0.3573 -0.1765 -0.5596
 2709SOL    HW119763   1.944   3.995   7.249 -0.5933  0.9863 -1.9396
 2709SOL    HW219764   1.936   3.889   7.154  0.8610 -1.6219 -0.6853
 2710SOL     OW19765   1.867   3.623  12.997 -0.1758 -0.2188 -0.4643
 2710SOL    HW119766   1.844   3.574  12.918  1.8487 -0.2070 -1.0814
 2710SOL    HW219767   1.962   3.617  13.007 -0.3847 -0.9571  1.0169
 2711SOL     OW19768   0.108   3.790  14.191 -0.6881 -0.1451  0.0863
 2711SOL    HW119769   0.049   3.854  14.229  1.0486  0.4327  1.8188
 2711SOL    HW219770   0.132   3.725  14.257  1.9008  0.2900 -0.4025
 2712SOL     OW19771   0.065   2.636  13.160 -0.8033 -0.0206  0.0401
 2712SOL    HW119772   0.003   2.566  13.139 -0.0837 -1.3365  2.3515
 2712SOL    HW219773   0.041   2.665  13.248 -0.6581  1.0929 -0.2875
 2713SOL     OW19774   1.354   0.853   8.753 -0.0010 -0.2428 -0.1617
 2713SOL    HW119775   1.381   0.940   8.724  0.1971 -0.8027 -1.6779
 2713SOL    HW219776   1.353   0.865   8.848  1.2385 -1.8454  0.0777
 2714SOL     OW19777   3.650   1.562   5.851 -0.2042 -0.2551  0.0120
 2714SOL    HW119778   3.619   1.610   5.928 -0.7203  2.0442 -1.6378
 2714SOL    HW219779   3.572   1.554   5.797  0.9619 -1.6358 -1.4402
 2715SOL     OW19780   3.906   1.099  15.034 -0.3099  0.1799  0.3784
 2715SOL    HW119781   3.873   1.043  15.104 -0.5464  0.2693  0.3387
 2715SOL    HW219782   3.950   1.034  14.979 -2.0712 -1.1222  0.5123
 2716SOL     OW19783   3.119   0.933  13.573 -0.3952  0.2443 -0.4854
 2716SOL    HW119784   3.054   0.965  13.636 -0.4146  0.7859 -0.7861
 2716SOL    HW219785   3.106   0.838  13.580  0.5991  0.0531 -1.3355
 2717SOL     OW19786   3.482   4.060  10.622  0.0372 -0.4766 -0.0136
 2717SOL    HW119787   3.498   4.018  10.707 -3.4940  0.1056  0.9158
 2717SOL    HW219788   3.397   4.031  10.590 -0.3499  0.4880  0.1427
 2718SOL     OW19789   0.686   3.590  10.385  0.2571  0.2013  0.0628
 2718SOL    HW119790   0.595   3.618  10.393  0.1311 -0.4269  0.8329
 2718SOL    HW219791   0.680   3.562  10.294 -1.0587 -0.5669  0.3875
 2719SOL     OW19792   4.320   4.506  10.013  0.4828 -0.2415 -0.1416
 2719SOL    HW119793   4.333   4.476   9.923  0.0812  1.5808 -0.8028
 2719SOL    HW219794   4.409   4.540  10.023 -0.5187  1.2900  3.3631
 2720SOL     OW19795   1.378   3.494  12.037  0.3715  0.2371  0.1181
 2720SOL    HW119796   1.413   3.508  11.949  0.4594 -1.0484 -0.0531
 2720SOL    HW219797   1.377   3.398  12.037  1.8403  0.2391  2.4314
 2721SOL     OW19798   3.757   2.439  16.821  0.2207 -0.1381  0.3011
 2721SOL    HW119799   3.786   2.349  16.812  0.0210 -0.0484 -1.2574
 2721SOL    HW219800   3.819   2.480  16.882  0.7197  0.6951 -0.7482
 2722SOL     OW19801   0.705   3.764  15.910  0.0758  0.5891 -0.1515
 2722SOL    HW119802   0.796   3.744  15.889  0.0658  0.6435 -0.2446
 2722SOL    HW219803   0.719   3.825  15.984 -0.1784 -1.3184  1.4575
 2723SOL     OW19804   3.777   4.450   9.477 -0.1386 -0.2584  0.0547
 2723SOL    HW119805   3.848   4.445   9.412 -0.8756 -0.1499 -0.7654
 2723SOL    HW219806   3.724   4.525   9.451 -0.1018 -0.5238 -0.7831
 2724SOL     OW19807   1.577   1.651   4.638  0.7215 -0.6520  0.2844
 2724SOL    HW119808   1.581   1.745   4.656  0.8361 -1.5190  4.8440
 2724SOL    HW219809   1.530   1.638   4.556 -0.9271  1.6264  0.8857
 2725SOL     OW19810   0.382   1.696   4.333 -0.5330 -0.3114  0.0193
 2725SOL    HW119811   0.356   1.772   4.385  0.4329  1.4876 -2.1250
 2725SOL    HW219812   0.466   1.668   4.368  1.0863  3.8553 -0.4375
 2726SOL     OW19813   2.213   3.660   7.172 -0.0460 -0.7079 -1.4754
 2726SOL    HW119814   2.136   3.606   7.189  0.1842 -0.2614  1.0856
 2726SOL    HW219815   2.197   3.729   7.237 -0.0233 -3.8715  1.8715
 2727SOL     OW19816   3.327   1.539  13.050 -0.4912 -0.4380  0.2631
 2727SOL    HW119817   3.236   1.516  13.030 -0.2556  1.1780 -2.5836
 2727SOL    HW219818   3.320   1.544  13.146 -2.7861  0.0990  0.0641
 2728SOL     OW19819   1.429   3.144   1.257  0.1795  0.1824  1.1571
 2728SOL    HW119820   1.428   3.164   1.351  0.9763 -0.1693  1.2375
 2728SOL    HW219821   1.368   3.205   1.217  2.0131  1.4121  0.2648
 2729SOL     OW19822   2.351   1.692  10.676  0.1716  0.5563 -0.2682
 2729SOL    HW119823   2.291   1.709  10.603 -3.0808 -3.1921  1.5005
 2729SOL    HW219824   2.397   1.776  10.677 -0.1284  0.6794  3.5428
 2730SOL     OW19825   0.078   4.019  13.819  0.8706 -0.5238 -0.1282
 2730SOL    HW119826   0.093   3.934  13.859  0.9982 -0.2693  0.3670
 2730SOL    HW219827   0.041   3.987  13.737 -0.1558  1.0144 -0.2738
 2731SOL     OW19828   2.259   1.403   4.109 -0.1110  0.5469  0.5050
 2731SOL    HW119829   2.181   1.348   4.115  0.4914 -0.2788  0.8857
 2731SOL    HW219830   2.334   1.345   4.123 -1.1514 -0.7658  0.7034
 2732SOL     OW19831   2.428   0.992   6.520 -0.9107  0.1646  1.2048
 2732SOL    HW119832   2.421   0.929   6.449 -1.5220 -0.2924  1.6625
 2732SOL    HW219833   2.338   1.007   6.551 -1.7369 -1.6678 -0.3470
 2733SOL     OW19834   2.366   0.754  14.485 -0.4682  0.4028 -0.2878
 2733SOL    HW119835   2.346   0.774  14.577 -0.1146 -0.3285 -0.0461
 2733SOL    HW219836   2.409   0.834  14.457  1.6353 -0.3416  0.8152
 2734SOL     OW19837   1.814   4.317   3.871 -0.2454 -0.0485  0.2195
 2734SOL    HW119838   1.831   4.362   3.953  2.2865 -0.6963  0.0392
 2734SOL    HW219839   1.903   4.330   3.839  0.4033  1.1106  2.5541
 2735SOL     OW19840   4.026   1.104   9.521 -0.3752 -0.4368  0.9634
 2735SOL    HW119841   4.005   1.086   9.612 -2.5093  2.2279  0.9927
 2735SOL    HW219842   4.065   1.025   9.483 -1.7024 -0.1450 -0.9956
 2736SOL     OW19843   4.511   2.065   6.960  0.4650  0.4303  0.3047
 2736SOL    HW119844   4.571   2.042   7.030 -1.8232 -1.3949  1.6299
 2736SOL    HW219845   4.475   1.980   6.937 -0.9504  1.6138 -1.9853
 2737SOL     OW19846   0.449   1.709   2.569 -0.1410  0.3324  0.0669
 2737SOL    HW119847   0.480   1.640   2.628 -0.8834 -1.0219 -1.1298
 2737SOL    HW219848   0.358   1.705   2.599 -0.9169  0.8696 -2.2619
 2738SOL     OW19849   3.816   4.558  15.333 -1.2699 -0.2891  0.7510
 2738SOL    HW119850   3.824   4.603  15.417  2.4009 -2.4660  1.5808
 2738SOL    HW219851   3.863   4.476  15.350 -0.9191 -0.4835 -1.0753
 2739SOL     OW19852   0.901   4.293   5.231  0.2364  0.4258  0.1640
 2739SOL    HW119853   0.921   4.210   5.187  1.6643 -1.1946  3.8921
 2739SOL    HW219854   0.949   4.357   5.178 -1.3079  0.7513 -0.8210
 2740SOL     OW19855   1.388   0.810   4.879  0.0779 -0.1251 -0.3480
 2740SOL    HW119856   1.452   0.833   4.947 -0.9271 -0.1811  0.6146
 2740SOL    HW219857   1.308   0.858   4.901 -0.0661 -0.5965  0.1705
 2741SOL     OW19858   2.433   4.265   2.056  0.6788  0.0315 -0.0564
 2741SOL    HW119859   2.343   4.264   2.089  1.0066  1.9014  0.9045
 2741SOL    HW219860   2.455   4.353   2.086 -0.0490  0.9147 -2.1062
 2742SOL     OW19861   1.691   1.317   2.527  0.1865 -0.1620 -0.0086
 2742SOL    HW119862   1.634   1.362   2.589 -0.2019 -1.1024  0.3177
 2742SOL    HW219863   1.752   1.378   2.487  0.2525  0.0685  0.4425
 2743SOL     OW19864   4.124   2.630   3.056 -0.1498  0.1958 -0.1417
 2743SOL    HW119865   4.083   2.615   3.141 -2.0376 -0.0649 -1.0982
 2743SOL    HW219866   4.182   2.699   3.090 -0.9094 -0.6719  2.9191
 2744SOL     OW19867   0.031   2.041  16.894 -0.6724  0.1006  0.0330
 2744SOL    HW119868   0.093   1.968  16.895 -1.2856 -0.4214 -0.1677
 2744SOL    HW219869   0.059   2.104  16.960 -0.1656  0.0598 -0.1500
 2745SOL     OW19870   3.230   1.441   7.415  0.0333 -0.5312  0.4069
 2745SOL    HW119871   3.309   1.388   7.407  0.1184 -0.5441  1.3399
 2745SOL    HW219872   3.244   1.510   7.350  0.4501 -0.9048  0.1033
 2746SOL     OW19873   2.607   0.989  16.256 -0.2715 -0.0681  0.6458
 2746SOL    HW119874   2.675   0.926  16.279  0.5885  0.9194  0.8334
 2746SOL    HW219875   2.564   1.015  16.337 -0.0990 -0.9482  1.0128
 2747SOL     OW19876   3.850   3.990   0.987  0.3963  0.2978 -0.2206
 2747SOL    HW119877   3.822   3.902   0.963 -0.3638  0.2772  0.7787
 2747SOL    HW219878   3.870   4.032   0.903  0.5681  0.2677 -0.1953
 2748SOL     OW19879   1.972   3.593   4.568 -0.4754  0.0122 -0.2670
 2748SOL    HW119880   2.010   3.605   4.655  1.9847  0.6924 -1.4672
 2748SOL    HW219881   1.970   3.683   4.538  0.8876 -0.1333 -0.7898
 2749SOL     OW19882   3.448   4.530  16.077 -0.1544 -0.6947  0.6731
 2749SOL    HW119883   3.418   4.595  16.012  2.1910 -0.4584 -0.1590
 2749SOL    HW219884   3.473   4.458  16.019 -0.7968  0.0050 -0.4932
 2750SOL     OW19885   2.473   2.416   4.930  0.3556  0.0258 -0.2687
 2750SOL    HW119886   2.442   2.405   4.840  1.1398 -0.5249 -0.4682
 2750SOL    HW219887   2.568   2.418   4.918  0.4540  1.5683  0.7821
 2751SOL     OW19888   1.052   3.835   4.473 -0.3369  0.4536 -0.8549
 2751SOL    HW119889   1.078   3.813   4.562 -0.1462 -1.6871 -1.4420
 2751SOL    HW219890   1.136   3.851   4.430 -0.1774 -0.1023 -0.7394
 2752SOL     OW19891   0.490   3.977   6.767 -0.6081 -0.0921  0.4882
 2752SOL    HW119892   0.403   4.017   6.771 -0.5652  0.0090  0.4103
 2752SOL    HW219893   0.478   3.920   6.691 -1.2769  0.6524  0.0371
 2753SOL     OW19894   1.334   2.857  17.123 -0.5108  0.1987 -0.1369
 2753SOL    HW119895   1.314   2.893  17.036  1.5614  0.1560 -0.6317
 2753SOL    HW219896   1.280   2.912  17.179  0.1060 -1.1878  1.8434
 2754SOL     OW19897   0.055   2.395   2.552 -0.3203 -0.2332  0.4150
 2754SOL    HW119898   0.078   2.436   2.469 -1.3489 -0.2978  0.0981
 2754SOL    HW219899   0.121   2.421   2.616  1.2959 -1.3271 -0.8035
 2755SOL     OW19900   4.346   4.118   5.662  0.1736 -0.2316  0.6984
 2755SOL    HW119901   4.390   4.182   5.717 -1.3942  0.4228  1.2113
 2755SOL    HW219902   4.366   4.038   5.711 -1.4744  0.5080  2.5815
 2756SOL     OW19903   3.059   0.205  14.909  0.0814 -0.2084  0.7656
 2756SOL    HW119904   2.983   0.263  14.910  1.0964  1.1124  0.7131
 2756SOL    HW219905   3.049   0.173  14.999  0.0298 -1.7779  0.2010
 2757SOL     OW19906   3.598   0.181   0.230  0.1435  0.4612  0.6485
 2757SOL    HW119907   3.685   0.217   0.251  0.2753  1.6150 -1.8223
 2757SOL    HW219908   3.622   0.113   0.166  0.0123  2.1268 -1.1974
 2758SOL     OW19909   0.986   3.806   6.230 -0.3692 -1.2966 -0.4421
 2758SOL    HW119910   0.931   3.842   6.161 -0.6605 -1.6904 -0.4141
 2758SOL    HW219911   0.934   3.735   6.269 -0.4911 -0.9301  0.0682
 2759SOL     OW19912   3.259   2.676  13.054 -0.1221 -0.6976 -0.0787
 2759SOL    HW119913   3.248   2.756  13.002 -2.0050 -1.4898 -0.8794
 2759SOL    HW219914   3.354   2.665  13.064 -0.2615 -0.9244  0.9489
 2760SOL     OW19915   0.568   4.060   9.849  0.0044 -0.0789  0.0721
 2760SOL    HW119916   0.656   4.082   9.878 -0.8251  0.1697  2.3812
 2760SOL    HW219917   0.553   4.138   9.794  1.1197 -0.3974 -0.6846
 2761SOL     OW19918   1.340   1.119  14.097 -0.6517 -0.2623 -0.7084
 2761SOL    HW119919   1.431   1.091  14.091 -0.5000 -0.5587  2.8257
 2761SOL    HW219920   1.297   1.050  14.046 -1.9957 -0.6614  0.9531
 2762SOL     OW19921   4.310   2.992  17.711 -0.0551  0.0913  0.0744
 2762SOL    HW119922   4.395   3.001  17.669  0.3328  2.6771  1.4137
 2762SOL    HW219923   4.328   2.901  17.736  0.2805 -0.2755 -1.5309
 2763SOL     OW19924   2.504   2.831   4.416  0.1644  0.9040 -0.0965
 2763SOL    HW119925   2.409   2.828   4.425  0.1934 -0.5355 -0.3476
 2763SOL    HW219926   2.520   2.747   4.459  0.3993  0.9834 -0.0305
 2764SOL     OW19927   3.833   0.946   2.825 -0.0864  0.2065 -0.1250
 2764SOL    HW119928   3.852   0.892   2.748 -3.4757  1.0616 -1.5421
 2764SOL    HW219929   3.924   0.970   2.843 -0.6823  1.1400  1.6888
 2765SOL     OW19930   3.910   1.893   6.910 -0.1411  0.6722 -0.0760
 2765SOL    HW119931   3.973   1.924   6.975  2.5667 -0.8111 -2.0138
 2765SOL    HW219932   3.915   1.800   6.934 -0.2588  0.6268 -0.2299
 2766SOL     OW19933   2.040   0.556  16.201 -0.1049  0.2406 -0.0172
 2766SOL    HW119934   2.079   0.584  16.119  1.4197  3.1450  1.7126
 2766SOL    HW219935   2.021   0.463  16.195 -0.7016  0.3376  0.2723
 2767SOL     OW19936   3.898   0.739   3.953  0.0322 -0.3804  0.5532
 2767SOL    HW119937   3.885   0.754   3.859 -1.4238  2.3196  1.1737
 2767SOL    HW219938   3.902   0.643   3.956 -1.7561 -0.4154  1.9137
 2768SOL     OW19939   3.537   4.399   6.675  0.7453  0.5324 -0.0022
 2768SOL    HW119940   3.465   4.338   6.688  0.3637  0.9628 -0.0904
 2768SOL    HW219941   3.521   4.409   6.581 -2.1861 -1.1560  0.3058
 2769SOL     OW19942   3.258   0.112   2.360  0.0746  0.5436 -0.1814
 2769SOL    HW119943   3.260   0.206   2.344  1.6174  0.7385  1.0842
 2769SOL    HW219944   3.164   0.098   2.371 -0.1130  1.1352 -1.0595
 2770SOL     OW19945   4.408   2.815   1.091 -0.6639 -0.5951 -0.0245
 2770SOL    HW119946   4.331   2.819   1.147  1.2178  1.0409  2.4681
 2770SOL    HW219947   4.377   2.761   1.019 -1.1116 -2.3545  1.4897
 2771SOL     OW19948   3.885   0.866   4.805  0.4147  0.1617  0.2514
 2771SOL    HW119949   3.794   0.852   4.778 -0.2375  3.2274  0.8945
 2771SOL    HW219950   3.920   0.918   4.733 -0.1678 -0.5727 -0.5782
 2772SOL     OW19951   1.504   2.499  10.363  0.0926  0.1270  0.2878
 2772SOL    HW119952   1.426   2.527  10.314 -0.2878  0.6599  1.2140
 2772SOL    HW219953   1.550   2.449  10.295  1.5690  0.8572  0.7507
 2773SOL     OW19954   3.145   2.863  15.771  0.2189  0.0061  0.0964
 2773SOL    HW119955   3.161   2.897  15.683  3.3715  0.7960  0.9854
 2773SOL    HW219956   3.195   2.783  15.756  0.0090 -0.6163  2.7355
 2774SOL     OW19957   1.288   1.284   5.422  0.3675  0.3936  0.1021
 2774SOL    HW119958   1.232   1.318   5.492  1.8740  0.3969  1.3041
 2774SOL    HW219959   1.326   1.357   5.374 -2.7591  2.0728  0.1389
 2775SOL     OW19960   4.474   2.887   4.070 -0.3432 -0.0254 -0.2950
 2775SOL    HW119961   4.504   2.931   4.150 -0.1998 -0.7787  0.0643
 2775SOL    HW219962   4.557   2.875   4.025  0.5093  1.5993  0.8427
 2776SOL     OW19963   1.707   1.205  13.350  0.2416 -0.6215  0.5557
 2776SOL    HW119964   1.644   1.137  13.325  0.6153 -1.1844  1.1255
 2776SOL    HW219965   1.647   1.279  13.349  1.4180  0.3270  1.0237
 2777SOL     OW19966   3.886   1.289  10.536  0.2252 -0.6515 -0.2526
 2777SOL    HW119967   3.888   1.384  10.543 -2.1659 -0.6501  0.0993
 2777SOL    HW219968   3.856   1.261  10.622 -1.6577 -1.7183 -1.2608
 2778SOL     OW19969   4.506   1.531  14.045  0.1804 -0.4221  0.3052
 2778SOL    HW119970   4.554   1.610  14.072 -0.9711 -0.9597  3.9932
 2778SOL    HW219971   4.533   1.532  13.953  0.4227  1.9816  0.3897
 2779SOL     OW19972   2.033   3.187  14.823 -0.1503  0.5623 -0.5464
 2779SOL    HW119973   1.999   3.246  14.890 -0.5722 -0.5908  0.2602
 2779SOL    HW219974   1.972   3.116  14.843  0.2445  0.8490  1.7260
 2780SOL     OW19975   3.073   2.632  15.494  0.0054  0.2430 -0.0920
 2780SOL    HW119976   3.008   2.563  15.480 -0.5194  0.9675 -1.1574
 2780SOL    HW219977   3.077   2.692  15.420 -0.8478  0.6307  0.1734
 2781SOL     OW19978   0.426   0.459   8.687  0.6873  0.2569 -0.0095
 2781SOL    HW119979   0.521   0.454   8.677  0.4715 -0.5944 -1.5764
 2781SOL    HW219980   0.422   0.550   8.716  0.7178  0.5160 -0.8083
 2782SOL     OW19981   4.244   4.653   5.870 -0.4756  0.2213  0.2687
 2782SOL    HW119982   4.167   4.625   5.822 -0.1094 -0.3084 -0.0055
 2782SOL    HW219983   4.201   4.704   5.939  0.1729 -0.1821  0.9795
 2783SOL     OW19984   2.683   3.270   3.448 -0.0217  0.2587 -0.3993
 2783SOL    HW119985   2.591   3.277   3.421 -0.3175  0.0385  0.5648
 2783SOL    HW219986   2.690   3.175   3.437  0.6484 -0.0650  2.9075
 2784SOL     OW19987   4.629   0.192   9.193  0.3472  0.2917  0.4371
 2784SOL    HW119988   4.546   0.175   9.236 -1.1392  1.0122 -2.1004
 2784SOL    HW219989   4.642   0.285   9.211  1.8874  0.2417 -0.3901
 2785SOL     OW19990   3.795   2.599  15.116  0.1344  0.3747  0.3021
 2785SOL    HW119991   3.877   2.594  15.066  0.3561  2.4968  0.4418
 2785SOL    HW219992   3.805   2.683  15.162 -0.7105  0.4648  0.3218
 2786SOL     OW19993   1.917   4.623  13.216  0.3350 -0.5872 -0.3241
 2786SOL    HW119994   1.943   4.532  13.230  0.5131 -0.3843  0.6785
 2786SOL    HW219995   1.917   4.628  13.121 -1.8397 -1.7529 -0.3833
 2787SOL     OW19996   3.139   0.594   6.510 -0.2302  0.1220  0.5227
 2787SOL    HW119997   3.206   0.661   6.526 -0.8992  0.4697  1.8803
 2787SOL    HW219998   3.169   0.529   6.574  1.5013 -0.1105 -0.5484
 2788SOL     OW19999   0.007   1.357  17.335  0.2297  0.1724  0.2917
 2788SOL    HW120000   0.031   1.327  17.422 -1.2858  0.3522  0.7749
 2788SOL    HW220001   0.065   1.306  17.278 -0.3254 -0.8423  0.6474
 2789SOL     OW20002   0.460   3.152  17.171 -0.0216  0.2469  0.3880
 2789SOL    HW120003   0.551   3.172  17.149 -0.0099  0.0566  0.2642
 2789SOL    HW220004   0.420   3.152  17.085  0.6275  0.3900  0.0849
 2790SOL     OW20005   0.536   0.852   5.640 -0.0959  0.0962  0.2834
 2790SOL    HW120006   0.496   0.922   5.691 -2.6100 -0.7485 -0.5566
 2790SOL    HW220007   0.493   0.849   5.554  0.8588  0.1810 -0.2048
 2791SOL     OW20008   3.014   2.733  16.661  0.0614 -0.2003  0.0090
 2791SOL    HW120009   2.971   2.769  16.739  0.5737  0.7483 -0.1421
 2791SOL    HW220010   3.098   2.775  16.679 -1.3374  3.1666 -1.2317
 2792SOL     OW20011   3.167   4.672  13.859 -0.0470  0.5871 -0.4106
 2792SOL    HW120012   3.235   4.658  13.792  0.8966 -2.3934  1.1950
 2792SOL    HW220013   3.158   4.582  13.888 -0.7128  0.7990  0.0315
 2793SOL     OW20014   3.103   3.974  12.153 -0.5706 -0.1668 -0.5072
 2793SOL    HW120015   3.111   4.049  12.212 -1.0422 -1.6016  1.4068
 2793SOL    HW220016   3.175   3.919  12.185  2.2343  3.1795 -1.0928
 2794SOL     OW20017   2.687   1.323  16.505  0.4918  0.4961 -0.1576
 2794SOL    HW120018   2.745   1.310  16.430 -0.6115 -0.7064 -0.8053
 2794SOL    HW220019   2.749   1.281  16.565 -1.0159  3.0722  3.2535
 2795SOL     OW20020   2.022   2.876  14.990 -0.4110  0.3255 -0.3225
 2795SOL    HW120021   2.069   2.904  15.069 -2.0517  1.9799  0.0725
 2795SOL    HW220022   2.048   2.785  14.980  0.7713  0.6101  0.1600
 2796SOL     OW20023   0.539   0.447  13.338  0.7013  0.8125 -0.2279
 2796SOL    HW120024   0.538   0.398  13.256  1.9897  0.7715 -0.2121
 2796SOL    HW220025   0.591   0.523  13.311  1.3999  0.7036  0.8412
 2797SOL     OW20026   1.506   4.405   8.646  0.0457  0.1000  0.2865
 2797SOL    HW120027   1.505   4.439   8.557  1.3363 -0.7909 -0.0613
 2797SOL    HW220028   1.427   4.350   8.645 -0.6462  1.1358 -1.7474
 2798SOL     OW20029   4.299   2.893   3.772  0.0873 -0.6305  0.3960
 2798SOL    HW120030   4.235   2.822   3.768 -0.7836  0.0861  1.6503
 2798SOL    HW220031   4.379   2.844   3.755  0.7285  0.1211  1.2285
 2799SOL     OW20032   2.482   0.374   8.379 -0.2773 -1.1223 -0.0103
 2799SOL    HW120033   2.529   0.417   8.308  0.9836 -0.6202  1.1222
 2799SOL    HW220034   2.399   0.409   8.347 -1.0955 -0.9802  2.2670
 2800SOL     OW20035   1.179   1.155  10.746  0.7765 -0.1724  0.3261
 2800SOL    HW120036   1.102   1.140  10.692  1.7536  0.5330 -1.2904
 2800SOL    HW220037   1.220   1.235  10.712 -0.0503  0.0296 -0.2071
 2801SOL     OW20038   3.717   0.209   2.410 -0.5223  0.1561 -0.2812
 2801SOL    HW120039   3.674   0.294   2.412  0.5509  0.5920  3.0841
 2801SOL    HW220040   3.642   0.156   2.438 -1.4707  1.2619 -0.7317
 2802SOL     OW20041   1.409   2.780  10.015  0.2904 -0.1134 -0.5972
 2802SOL    HW120042   1.502   2.798  10.020  0.3529 -0.1152 -1.6999
 2802SOL    HW220043   1.374   2.866   9.992  0.0041  0.1093  0.6497
 2803SOL     OW20044   1.714   4.654  11.076  0.4481  0.1424  0.0945
 2803SOL    HW120045   1.708   0.014  11.069  0.8399  0.0689 -1.1836
 2803SOL    HW220046   1.743   4.633  11.165  0.8611  1.6483  0.3135
 2804SOL     OW20047   4.683   4.570   6.459 -0.3157 -0.1050 -0.1809
 2804SOL    HW120048   4.656   4.484   6.427  2.8885  0.5267 -4.4532
 2804SOL    HW220049   4.728   4.542   6.539 -0.0576  0.5009 -0.1134
 2805SOL     OW20050   0.892   3.232   9.756 -0.1495 -0.3552  0.5389
 2805SOL    HW120051   0.814   3.261   9.804  0.2677 -2.0390  2.2375
 2805SOL    HW220052   0.864   3.153   9.710 -1.6470  0.3964  0.1539
 2806SOL     OW20053   0.456   0.915   3.884 -0.2995 -0.1890  0.4037
 2806SOL    HW120054   0.440   0.921   3.790 -0.6166 -2.0855  0.3515
 2806SOL    HW220055   0.423   1.003   3.905 -0.5508  0.2366 -1.7942
 2807SOL     OW20056   1.699   2.602   1.427 -0.1438 -0.5373 -0.3020
 2807SOL    HW120057   1.618   2.639   1.462 -1.1362 -1.0878 -1.9920
 2807SOL    HW220058   1.747   2.684   1.413 -1.6748  0.6352  1.2914
 2808SOL     OW20059   0.999   4.192   7.146 -0.0797  0.3316 -0.5140
 2808SOL    HW120060   1.071   4.131   7.130 -2.1684 -1.8258 -1.7716
 2808SOL    HW220061   0.920   4.138   7.144 -1.7104  2.6159  2.4050
 2809SOL     OW20062   3.119   2.411   6.045 -0.5847 -0.2191  0.2749
 2809SOL    HW120063   3.184   2.370   5.988  1.0750  1.0890  1.2064
 2809SOL    HW220064   3.145   2.502   6.029 -1.3026  0.1855  1.4250
 2810SOL     OW20065   0.118   2.751   6.288 -0.0626  0.7073 -0.0678
 2810SOL    HW120066   0.135   2.815   6.357  0.3411 -2.2570  2.6196
 2810SOL    HW220067   0.194   2.775   6.235 -0.9174  0.3734 -1.4283
 2811SOL     OW20068   1.916   0.958   9.830  0.2562  0.6143 -0.1518
 2811SOL    HW120069   1.917   0.869   9.866  0.8066  1.2841  1.4855
 2811SOL    HW220070   1.935   0.939   9.738  0.6117  0.2638 -0.0028
 2812SOL     OW20071   1.907   2.989   5.330 -0.2196 -0.2509 -0.1590
 2812SOL    HW120072   1.871   2.942   5.405  2.4656 -2.5528 -0.3453
 2812SOL    HW220073   1.856   2.953   5.258 -1.2172  0.3289  0.2597
 2813SOL     OW20074   0.389   0.530   4.509 -0.0370 -0.4544 -0.0858
 2813SOL    HW120075   0.402   0.595   4.439  2.2614 -0.8031  0.0170
 2813SOL    HW220076   0.440   0.452   4.487  0.4163 -0.0609 -0.4243
 2814SOL     OW20077   2.443   3.776   9.777  0.2594 -0.3996 -0.7688
 2814SOL    HW120078   2.383   3.734   9.715  0.9734 -1.3750 -0.8018
 2814SOL    HW220079   2.381   3.805   9.843 -0.5953  0.4972 -1.9630
 2815SOL     OW20080   1.049   1.784   5.512  0.2060 -0.3093 -0.1129
 2815SOL    HW120081   0.990   1.860   5.516 -1.0659 -1.3236  0.5077
 2815SOL    HW220082   1.024   1.738   5.592 -0.1552 -1.7665 -1.0610
 2816SOL     OW20083   4.635   3.391   7.569 -0.4769  0.0285 -0.0478
 2816SOL    HW120084   4.676   3.463   7.521 -0.0136  0.2072  0.6246
 2816SOL    HW220085   4.554   3.393   7.518 -0.1625 -0.1369 -0.5541
 2817SOL     OW20086   2.432   0.680   1.214 -0.1143  0.5392 -0.1789
 2817SOL    HW120087   2.449   0.753   1.273  3.1954 -1.4190  1.2801
 2817SOL    HW220088   2.515   0.634   1.224  0.1050  0.7117 -1.2180
 2818SOL     OW20089   4.516   1.020   1.321 -0.2882  0.3590  0.0809
 2818SOL    HW120090   4.543   1.036   1.412 -1.3676  0.3687  0.4012
 2818SOL    HW220091   4.560   1.094   1.278  0.3423  0.5733  1.0726
 2819SOL     OW20092   4.407   3.567   7.215  0.2265 -0.1442 -0.1435
 2819SOL    HW120093   4.431   3.498   7.277  0.2057 -0.3329 -0.3430
 2819SOL    HW220094   4.477   3.572   7.150  0.0209  3.2143 -0.0839
 2820SOL     OW20095   1.249   3.974  17.390  0.6894  0.3264  0.8147
 2820SOL    HW120096   1.247   4.065  17.421  0.9118  0.1223  1.4313
 2820SOL    HW220097   1.156   3.956  17.378  0.7242  0.0025  1.0174
 2821SOL     OW20098   4.267   4.348   4.660  0.4411  0.1190  0.2390
 2821SOL    HW120099   4.185   4.300   4.668 -0.8023  2.2333  0.0519
 2821SOL    HW220100   4.270   4.381   4.749  0.0735  4.0667 -1.2279
 2822SOL     OW20101   3.193   1.668   4.536  0.3855 -0.1108 -0.3751
 2822SOL    HW120102   3.150   1.711   4.462 -2.3684 -0.6845  0.9157
 2822SOL    HW220103   3.114   1.634   4.577 -1.0140 -0.1045 -3.0475
 2823SOL     OW20104   4.645   2.967   7.626 -0.3773 -0.0983 -0.1209
 2823SOL    HW120105   4.557   2.932   7.614 -0.2833  0.1239 -1.4926
 2823SOL    HW220106   4.702   2.894   7.602  1.7712  1.9487 -1.2938
 2824SOL     OW20107   4.475   2.619  13.397 -0.5211 -0.2689 -0.3306
 2824SOL    HW120108   4.570   2.621  13.411 -0.5389 -2.1366  0.0395
 2824SOL    HW220109   4.447   2.575  13.477 -3.1807  0.4077 -0.8779
 2825SOL     OW20110   2.421   2.186   7.578 -0.2545  0.1082 -0.2400
 2825SOL    HW120111   2.436   2.239   7.500  0.7716  1.9466  1.2049
 2825SOL    HW220112   2.357   2.239   7.626  0.9582  1.6769 -0.3548
 2826SOL     OW20113   1.913   4.235   6.355  0.0233 -0.5647  0.0043
 2826SOL    HW120114   2.005   4.220   6.334 -0.6899 -0.8188 -2.8361
 2826SOL    HW220115   1.908   4.330   6.366 -1.5107 -0.6188 -0.1651
 2827SOL     OW20116   0.892   1.439   8.112  0.6493 -0.1754 -0.4435
 2827SOL    HW120117   0.878   1.458   8.020  3.3473  0.5668 -0.7001
 2827SOL    HW220118   0.904   1.344   8.115 -2.0945 -0.5053  0.1063
 2828SOL     OW20119   1.467   3.986  11.357 -0.3069 -0.2473  0.5637
 2828SOL    HW120120   1.424   4.047  11.416 -0.3878 -0.4138  0.6771
 2828SOL    HW220121   1.488   3.916  11.419 -0.0402  0.9722  1.8526
 2829SOL     OW20122   2.703   0.799   6.697 -0.2305  0.0888 -0.4867
 2829SOL    HW120123   2.754   0.725   6.731 -3.0548 -0.9017  1.6433
 2829SOL    HW220124   2.746   0.810   6.612  0.4763  0.1237 -0.1317
 2830SOL     OW20125   0.890   2.621   1.818  0.1805 -0.4005 -0.2504
 2830SOL    HW120126   0.886   2.676   1.897  0.0997  0.8781 -1.1523
 2830SOL    HW220127   0.814   2.564   1.826  1.5640 -2.0559  1.1587
 2831SOL     OW20128   3.875   0.120   4.860  0.4584  0.2549 -0.0076
 2831SOL    HW120129   3.970   0.113   4.872  0.6015  1.8174 -0.1665
 2831SOL    HW220130   3.868   0.190   4.795  2.3302  3.0542  2.8418
 2832SOL     OW20131   4.633   2.512   5.874  0.3472  0.5038  0.0154
 2832SOL    HW120132   4.710   2.480   5.920  0.1016  0.5747  0.4685
 2832SOL    HW220133   4.565   2.445   5.882 -0.0178  0.9126  0.3153
 2833SOL     OW20134   3.258   4.451  17.179 -0.1247  0.4968  0.1688
 2833SOL    HW120135   3.184   4.394  17.157  0.5387 -0.2931 -0.0113
 2833SOL    HW220136   3.221   4.538  17.196 -1.2360  0.4943 -2.1632
 2834SOL     OW20137   0.584   1.192   2.689 -0.0688  0.0710 -0.1541
 2834SOL    HW120138   0.646   1.127   2.657 -0.0922 -0.2341  0.4306
 2834SOL    HW220139   0.642   1.235   2.752  1.1556 -3.3860  1.0635
 2835SOL     OW20140   3.478   2.446   1.852  0.3613  0.4967  0.0423
 2835SOL    HW120141   3.491   2.487   1.766  1.3816  0.2155  0.0687
 2835SOL    HW220142   3.391   2.481   1.873  0.9708  1.9993  0.0668
 2836SOL     OW20143   3.531   0.630   6.458  0.4127  0.3564  0.2320
 2836SOL    HW120144   3.457   0.648   6.515 -0.6445 -0.7266 -0.7903
 2836SOL    HW220145   3.532   0.694   6.386  0.0026  0.0797 -0.0181
 2837SOL     OW20146   4.666   4.252   7.663 -0.0113  0.1604  0.4450
 2837SOL    HW120147   4.729   4.185   7.638 -1.1062 -1.6361  2.5340
 2837SOL    HW220148   4.683   4.280   7.753  0.4853 -2.7352  1.2377
 2838SOL     OW20149   4.068   3.187   9.771  0.0985  0.2564  0.1395
 2838SOL    HW120150   4.048   3.281   9.778  0.3498  0.3102  0.1651
 2838SOL    HW220151   4.143   3.175   9.829  1.0612  2.2474 -0.6524
 2839SOL     OW20152   3.258   4.310   2.936  0.4909  0.6754 -0.2915
 2839SOL    HW120153   3.249   4.218   2.960 -0.4629  0.5754 -1.0015
 2839SOL    HW220154   3.349   4.317   2.909 -0.1330  2.0994 -2.0984
 2840SOL     OW20155   2.151   4.658  12.145  1.6473  0.1832 -0.1254
 2840SOL    HW120156   2.142   4.636  12.052 -2.2452  1.7823 -0.1205
 2840SOL    HW220157   2.110   0.009  12.151 -1.9457 -1.3283 -2.7042
 2841SOL     OW20158   2.560   0.010   8.285 -1.0420 -0.3348  0.0598
 2841SOL    HW120159   2.547   0.071   8.212  0.1881  2.3963  2.1027
 2841SOL    HW220160   2.545   4.661   8.243  3.1024 -1.4535  0.8108
 2842SOL     OW20161   3.701   1.123   0.892 -0.1400  0.1184  0.5652
 2842SOL    HW120162   3.662   1.037   0.876  1.5603 -0.3547 -1.1221
 2842SOL    HW220163   3.626   1.181   0.881  0.8925  0.9920 -1.9860
 2843SOL     OW20164   2.103   4.690   3.835 -0.0778 -0.2458 -0.2775
 2843SOL    HW120165   2.110   0.003   3.917  1.0488  1.2917 -1.2685
 2843SOL    HW220166   2.113   0.020   3.765 -0.3645 -0.3239 -0.3940
 2844SOL     OW20167   0.031   1.422  11.599  0.0382  0.1346  0.2179
 2844SOL    HW120168   4.705   1.455  11.532  1.0013 -2.6416 -1.9834
 2844SOL    HW220169   4.732   1.478  11.669  2.6150 -0.5489  2.0144
 2845SOL     OW20170   1.120   3.578  14.700  0.2535  0.9211 -0.1789
 2845SOL    HW120171   1.173   3.499  14.684 -0.2941  0.4165  0.5201
 2845SOL    HW220172   1.186   3.644  14.680 -0.1674  1.0698 -1.0791
 2846SOL     OW20173   2.375   3.404   9.955  0.1544  0.2760 -0.0431
 2846SOL    HW120174   2.369   3.456   9.875 -0.9076  2.1770  1.2670
 2846SOL    HW220175   2.401   3.318   9.921  0.4221  0.5087 -0.4207
 2847SOL     OW20176   1.361   4.618   4.568 -0.5864 -0.2680 -0.4678
 2847SOL    HW120177   1.328   4.529   4.557 -1.3454 -0.1561  0.9122
 2847SOL    HW220178   1.378   4.611   4.662  1.0534  2.6504 -0.5289
 2848SOL     OW20179   3.468   1.231   2.002  0.0480  0.6075  0.2590
 2848SOL    HW120180   3.540   1.168   2.010 -0.4101  0.1796  0.9486
 2848SOL    HW220181   3.417   1.207   2.079  1.1685  2.3916  1.5699
 2849SOL     OW20182   4.188   3.652   3.796  0.5336 -0.0894 -0.2763
 2849SOL    HW120183   4.226   3.725   3.747 -0.4478  0.0318 -0.8676
 2849SOL    HW220184   4.138   3.595   3.738 -0.8183  0.4506  0.3560
 2850SOL     OW20185   0.774   1.630   2.717 -1.0651  0.2817  0.2890
 2850SOL    HW120186   0.845   1.662   2.663 -0.9181  1.4717  1.1768
 2850SOL    HW220187   0.780   1.691   2.791 -1.4888  0.8965 -0.1790
 2851SOL     OW20188   2.841   0.101   4.680 -0.0563  0.3668 -0.2984
 2851SOL    HW120189   2.764   0.082   4.627  0.1384 -1.4567  0.0669
 2851SOL    HW220190   2.910   0.083   4.616 -0.9884  2.0484 -1.8112
 2852SOL     OW20191   4.720   0.109   5.167  0.0512 -0.0777 -0.4764
 2852SOL    HW120192   0.076   0.131   5.146  0.3083 -2.2063 -1.5732
 2852SOL    HW220193   4.729   0.064   5.251  1.2175  0.2949 -0.3933
 2853SOL     OW20194   1.801   1.844   7.299  0.3879  0.3236  0.1191
 2853SOL    HW120195   1.753   1.894   7.365  0.3277 -1.0668  1.1241
 2853SOL    HW220196   1.841   1.917   7.251  0.3417  1.3235  1.5947
 2854SOL     OW20197   1.872   3.104   7.097 -0.1320 -0.0050 -0.2003
 2854SOL    HW120198   1.779   3.089   7.079 -0.1590  1.3144 -1.1661
 2854SOL    HW220199   1.902   3.020   7.130  0.2680  0.3297  0.2891
 2855SOL     OW20200   0.072   4.598   4.585  0.0033  0.4923  0.0753
 2855SOL    HW120201   0.008   4.539   4.624 -0.3882  0.4437 -0.6432
 2855SOL    HW220202   0.046   4.683   4.619  1.9204  1.7114 -1.4822
 2856SOL     OW20203   0.350   4.645   2.434 -0.2017 -0.2127  0.1560
 2856SOL    HW120204   0.435   4.602   2.436 -0.6152 -0.9896  0.8750
 2856SOL    HW220205   0.345   4.673   2.525  0.0016 -2.1326  0.7509
 2857SOL     OW20206   2.014   2.251   5.271  0.2614  0.1836 -1.2578
 2857SOL    HW120207   1.934   2.277   5.226 -0.3137  0.6634  0.0511
 2857SOL    HW220208   1.997   2.157   5.276  0.6142  0.2128  0.6388
 2858SOL     OW20209   3.007   4.006   5.814 -0.1124  0.0715  0.1309
 2858SOL    HW120210   3.070   3.935   5.828 -0.0468  0.2375  0.6883
 2858SOL    HW220211   2.937   3.985   5.875 -0.7023 -0.5111 -0.7570
 2859SOL     OW20212   4.518   0.730   9.160 -0.0178  0.7429 -0.0524
 2859SOL    HW120213   4.447   0.791   9.183 -1.7963 -1.6563  0.7518
 2859SOL    HW220214   4.580   0.796   9.128  1.0112  0.1584  0.7437
 2860SOL     OW20215   4.164   3.883   3.279  0.1478 -0.4305 -0.0230
 2860SOL    HW120216   4.185   3.793   3.254 -2.3910 -0.5451 -1.6821
 2860SOL    HW220217   4.168   3.924   3.193 -1.8479 -0.1657  0.0156
 2861SOL     OW20218   4.605   2.569  11.343  0.5799 -0.5751  0.3061
 2861SOL    HW120219   4.551   2.528  11.276  1.4437 -0.5869 -0.3803
 2861SOL    HW220220   4.677   2.619  11.305  0.8549 -1.3633 -0.1945
 2862SOL     OW20221   2.409   3.320   9.172 -0.3994  0.3209  0.0341
 2862SOL    HW120222   2.394   3.226   9.157 -0.1024 -0.1426  2.5946
 2862SOL    HW220223   2.377   3.360   9.092  0.6088  0.7457 -0.1575
 2863SOL     OW20224   4.046   3.130   0.728  0.1481  0.0172  0.2290
 2863SOL    HW120225   4.074   3.075   0.801 -0.5408 -0.5694  0.0590
 2863SOL    HW220226   4.102   3.206   0.741 -0.5216  0.9390 -2.2584
 2864SOL     OW20227   1.240   0.430  17.000 -0.2686 -0.5604  0.0169
 2864SOL    HW120228   1.154   0.388  17.002 -0.8478  0.6236  0.2937
 2864SOL    HW220229   1.255   0.447  16.907 -2.2472  4.1813  0.5443
 2865SOL     OW20230   2.222   1.204   6.633  0.3495  0.0854  0.8231
 2865SOL    HW120231   2.293   1.182   6.693  2.5990 -0.1357 -1.9282
 2865SOL    HW220232   2.245   1.295   6.614 -2.4895  0.7063  0.2964
 2866SOL     OW20233   4.068   2.253   6.084 -0.0916  0.2690  0.0908
 2866SOL    HW120234   3.981   2.240   6.122 -0.6797  3.4136 -0.1814
 2866SOL    HW220235   4.120   2.294   6.153  0.4264 -1.1447  0.5458
 2867SOL     OW20236   4.470   3.249   5.570  0.2649  0.4784 -0.0439
 2867SOL    HW120237   4.411   3.280   5.501 -0.7504 -0.3551  0.4418
 2867SOL    HW220238   4.411   3.252   5.646  0.2449 -1.9297  0.0447
 2868SOL     OW20239   0.481   2.487   5.945  0.6367  0.2274 -0.0072
 2868SOL    HW120240   0.386   2.492   5.941  0.5937 -1.2008 -1.0022
 2868SOL    HW220241   0.504   2.569   5.902  0.7873 -0.6626 -1.6295
 2869SOL     OW20242   2.305   1.757  16.075  0.2827 -0.4239  0.0267
 2869SOL    HW120243   2.298   1.717  15.988 -2.8078  1.0439 -0.4126
 2869SOL    HW220244   2.387   1.804  16.061 -0.4974  0.4432 -1.5446
 2870SOL     OW20245   3.458   3.895   9.013 -0.2255 -0.0898  0.9371
 2870SOL    HW120246   3.459   3.933   8.926  0.6969  2.2590  1.9802
 2870SOL    HW220247   3.475   3.971   9.068 -0.3952 -1.6939  3.2468
 2871SOL     OW20248   1.205   1.980   3.823 -0.2530  0.1765 -0.6510
 2871SOL    HW120249   1.297   1.959   3.838  0.3285  1.7054 -2.0742
 2871SOL    HW220250   1.210   2.041   3.750  1.9650  0.0805 -0.5655
 2872SOL     OW20251   0.805   0.599   4.758  0.1557 -1.1587  0.8992
 2872SOL    HW120252   0.816   0.613   4.663 -0.7865 -2.3118  0.6215
 2872SOL    HW220253   0.711   0.614   4.767  0.4763  0.8291  1.1284
 2873SOL     OW20254   3.713   0.560   0.738 -0.2386 -1.0332  0.1731
 2873SOL    HW120255   3.646   0.511   0.689 -1.4633 -0.3601  1.1561
 2873SOL    HW220256   3.741   0.622   0.670  0.5404 -2.5868 -0.9273
 2874SOL     OW20257   0.431   1.621   6.789  0.1597 -0.0998  0.9908
 2874SOL    HW120258   0.410   1.531   6.812  3.3151 -1.2309 -0.5718
 2874SOL    HW220259   0.344   1.661   6.794 -0.1406 -0.5009 -0.9409
 2875SOL     OW20260   3.225   2.036   8.349 -0.0375  0.3288  0.1110
 2875SOL    HW120261   3.257   1.948   8.331 -1.9031 -0.2698 -0.2565
 2875SOL    HW220262   3.170   2.036   8.271  1.5717 -0.8358 -1.0232
 2876SOL     OW20263   0.250   2.018  12.783  0.1685 -0.3792  0.0129
 2876SOL    HW120264   0.323   2.046  12.728  0.1163 -0.0343  0.1135
 2876SOL    HW220265   0.273   2.040  12.874 -0.8363 -0.7857  0.3661
 2877SOL     OW20266   2.756   3.949   7.543  0.3733 -0.2142  0.0265
 2877SOL    HW120267   2.797   3.880   7.491  0.8741  0.9819 -1.1963
 2877SOL    HW220268   2.818   3.981   7.608 -1.2145  1.1566  0.8758
 2878SOL     OW20269   3.247   2.255   6.677  0.0075  0.5247  0.3915
 2878SOL    HW120270   3.232   2.260   6.583 -2.2485  0.0752  0.7172
 2878SOL    HW220271   3.328   2.206   6.689 -1.2909 -1.6995  0.1139
 2879SOL     OW20272   3.733   3.100   6.982 -0.1977 -0.0893  0.1590
 2879SOL    HW120273   3.703   3.016   6.946 -1.4498  0.1737  0.5788
 2879SOL    HW220274   3.673   3.110   7.056  1.1822 -0.0744  1.2556
 2880SOL     OW20275   0.042   0.854   6.987 -0.2927 -0.3121 -0.2175
 2880SOL    HW120276   0.124   0.808   7.003  0.5035  0.8794 -0.8731
 2880SOL    HW220277   4.720   0.799   7.041 -0.1157  0.0115  0.2916
 2881SOL     OW20278   0.308   2.423   5.263 -0.1494  0.3104  0.2772
 2881SOL    HW120279   0.316   2.357   5.195 -1.0426 -0.2143  0.6689
 2881SOL    HW220280   0.250   2.485   5.219 -0.1628  0.5868  0.6820
 2882SOL     OW20281   4.179   3.826   8.781 -0.0281  0.1590 -0.2847
 2882SOL    HW120282   4.182   3.749   8.837  1.8740 -0.5415 -1.3275
 2882SOL    HW220283   4.098   3.816   8.732  0.1863 -1.9424 -0.1968
 2883SOL     OW20284   2.899   1.585   4.965  0.3198 -0.6419  0.4798
 2883SOL    HW120285   2.809   1.594   4.998 -0.0681  1.7730 -1.2561
 2883SOL    HW220286   2.911   1.496   4.998 -0.5713 -1.4644 -1.4541
 2884SOL     OW20287   1.696   4.037   6.901  0.6082  0.1136  0.1389
 2884SOL    HW120288   1.716   3.946   6.923 -2.0764 -0.2646  1.1553
 2884SOL    HW220289   1.629   4.027   6.834 -0.4492 -0.7096  1.3140
 2885SOL     OW20290   2.552   4.728   9.680  0.0208  0.3315  0.1094
 2885SOL    HW120291   2.575   4.642   9.643 -1.7189 -0.9555  2.0130
 2885SOL    HW220292   2.620   0.050   9.645 -2.4970  2.0412 -2.0735
 2886SOL     OW20293   4.217   2.948  13.911  0.0779  0.1388 -0.4374
 2886SOL    HW120294   4.181   2.866  13.947  1.2028 -0.4982 -0.7559
 2886SOL    HW220295   4.292   2.900  13.875 -0.4086 -1.1749  0.2901
 2887SOL     OW20296   3.999   0.623  11.199  0.2628  0.2127 -0.2346
 2887SOL    HW120297   3.974   0.644  11.289 -0.3947  2.3011 -0.9065
 2887SOL    HW220298   4.084   0.666  11.196  0.4725 -0.2096 -0.3618
 2888SOL     OW20299   1.184   2.543   6.841 -1.0644 -0.3242  0.2319
 2888SOL    HW120300   1.131   2.581   6.770 -1.9720 -2.4259 -0.2036
 2888SOL    HW220301   1.203   2.623   6.890  0.1629 -1.2172  1.2227
 2889SOL     OW20302   2.012   2.847   7.781  0.1558  0.4580 -0.0256
 2889SOL    HW120303   2.078   2.914   7.799 -0.8404  0.8111  2.2398
 2889SOL    HW220304   2.068   2.781   7.739  1.2385  0.1899  1.8595
 2890SOL     OW20305   1.356   3.491   1.320 -0.2482  0.2840  0.1136
 2890SOL    HW120306   1.411   3.448   1.385  0.8116 -1.3783 -1.8998
 2890SOL    HW220307   1.354   3.428   1.249 -0.6487  0.5387 -0.1028
 2891SOL     OW20308   1.250   1.594  11.083 -0.8927 -0.1421 -0.3480
 2891SOL    HW120309   1.248   1.682  11.121 -1.3726 -0.0937 -0.4889
 2891SOL    HW220310   1.214   1.530  11.143 -1.4749  0.1211 -0.4128
 2892SOL     OW20311   2.260   0.839  12.249  0.0183 -0.0842 -0.0573
 2892SOL    HW120312   2.282   0.878  12.333  0.4967 -0.0012 -0.2208
 2892SOL    HW220313   2.190   0.777  12.272 -1.0864  1.7724  1.5512
 2893SOL     OW20314   2.266   0.824  12.869 -1.0931  0.5612 -0.5186
 2893SOL    HW120315   2.305   0.761  12.809 -2.8162 -1.6373  0.6882
 2893SOL    HW220316   2.262   0.774  12.950  0.6796  0.7959 -0.3010
 2894SOL     OW20317   2.786   4.059   7.948 -0.0400 -0.7468  0.0244
 2894SOL    HW120318   2.760   4.145   7.979  0.6204 -0.2249 -0.8688
 2894SOL    HW220319   2.818   4.083   7.861  0.4696 -0.0853  0.3989
 2895SOL     OW20320   2.818   2.267   7.753 -0.2313  0.2103 -0.4980
 2895SOL    HW120321   2.909   2.253   7.727  0.1147  2.0469 -0.2412
 2895SOL    HW220322   2.784   2.303   7.671 -1.1463  1.0309  0.2520
 2896SOL     OW20323   1.200   0.433   7.275  0.0403 -0.1065  0.3904
 2896SOL    HW120324   1.190   0.474   7.361  0.7045  1.7061 -0.3947
 2896SOL    HW220325   1.197   0.509   7.218  2.0187  0.0012  0.4188
 2897SOL     OW20326   1.599   2.900   0.433  0.3291 -0.0607 -0.4847
 2897SOL    HW120327   1.692   2.903   0.414  0.2044 -1.2691 -1.2549
 2897SOL    HW220328   1.568   2.811   0.417  1.5924 -0.6063  0.1740
 2898SOL     OW20329   1.825   3.009  14.837  0.6041 -0.2143 -0.0746
 2898SOL    HW120330   1.853   2.929  14.881  1.7056 -0.3557 -1.0417
 2898SOL    HW220331   1.779   3.039  14.916 -1.3365  0.7394 -1.5507
 2899SOL     OW20332   2.898   0.604   7.235 -0.4474  0.0147  0.0263
 2899SOL    HW120333   2.975   0.652   7.205 -0.1555 -0.0286  0.6984
 2899SOL    HW220334   2.883   0.627   7.327 -2.2644  0.1698 -0.3009
 2900SOL     OW20335   1.767   4.150   2.473 -0.4718 -0.2828  0.3247
 2900SOL    HW120336   1.708   4.223   2.453  2.2068  1.5399 -0.9075
 2900SOL    HW220337   1.851   4.193   2.490  0.6128 -2.0006 -0.7006
 2901SOL     OW20338   0.106   0.998   7.442  0.4711 -0.4534 -0.4515
 2901SOL    HW120339   0.138   1.065   7.502 -1.2522  0.4974 -0.6137
 2901SOL    HW220340   0.180   0.938   7.441 -0.1022 -1.1524 -1.0390
 2902SOL     OW20341   2.884   4.338   5.889  0.0254 -0.0704  0.5075
 2902SOL    HW120342   2.910   4.302   5.804  1.2960  0.1955  0.7950
 2902SOL    HW220343   2.926   4.423   5.893 -0.7177  0.3577 -0.8890
 2903SOL     OW20344   4.652   0.215   3.247 -0.3351 -0.1319  0.2425
 2903SOL    HW120345   4.584   0.283   3.243  0.8927  1.0972  0.1501
 2903SOL    HW220346   4.635   0.173   3.163  0.0691 -2.9285  1.5601
 2904SOL     OW20347   1.411   0.049  17.149 -0.0920 -0.0673  0.0166
 2904SOL    HW120348   1.447   0.122  17.099  0.7430  0.9490  2.1069
 2904SOL    HW220349   1.345   0.088  17.205  1.4602 -0.7060  2.2702
 2905SOL     OW20350   4.059   2.152  15.529 -0.5400 -0.3707 -0.0111
 2905SOL    HW120351   4.011   2.089  15.475 -1.9132  0.2616  0.4483
 2905SOL    HW220352   4.004   2.148  15.607 -1.3388  1.9545 -0.4575
 2906SOL     OW20353   0.536   0.352  16.235  0.4305 -0.4165  0.3828
 2906SOL    HW120354   0.584   0.414  16.181 -2.4844  0.5311 -1.1296
 2906SOL    HW220355   0.511   0.301  16.158  0.5739  0.7414 -0.4143
 2907SOL     OW20356   2.002   3.445   3.001  0.4348  0.9096  0.2179
 2907SOL    HW120357   2.084   3.437   3.050  0.8092  0.7679 -0.4241
 2907SOL    HW220358   1.974   3.535   3.015 -1.9893  0.2400 -0.4615
 2908SOL     OW20359   2.756   2.910   6.685  0.0739 -0.6320  0.5934
 2908SOL    HW120360   2.725   2.847   6.750 -1.7979  1.6553  1.9011
 2908SOL    HW220361   2.851   2.909   6.700  0.2399  2.0085 -0.2941
 2909SOL     OW20362   1.734   4.061  12.169  0.2371 -0.3509  0.0733
 2909SOL    HW120363   1.751   4.107  12.251  0.5592 -2.3924  1.1360
 2909SOL    HW220364   1.754   3.972  12.198 -1.7902 -1.0463 -0.6417
 2910SOL     OW20365   1.132   3.463  17.135 -0.0840  0.8656 -0.3250
 2910SOL    HW120366   1.071   3.428  17.070  1.5372  0.8523 -1.8612
 2910SOL    HW220367   1.197   3.395  17.148 -0.8963  0.6264  2.3964
 2911SOL     OW20368   3.194   0.371   9.343  0.3410 -0.2239 -0.0379
 2911SOL    HW120369   3.207   0.278   9.364 -1.3247 -0.1134  1.5551
 2911SOL    HW220370   3.129   0.376   9.272  1.2662  0.7349 -0.8054
 2912SOL     OW20371   0.485   4.072   3.485 -0.0022 -0.0547  0.1393
 2912SOL    HW120372   0.396   4.063   3.450 -0.1741  0.2695  0.4830
 2912SOL    HW220373   0.535   4.042   3.410 -0.8502  0.0381 -0.4582
 2913SOL     OW20374   4.369   2.689   5.146 -0.0731  0.1849 -0.2728
 2913SOL    HW120375   4.296   2.628   5.162 -0.8244  1.2984  0.5225
 2913SOL    HW220376   4.324   2.768   5.118  0.4434 -0.4378 -2.7806
 2914SOL     OW20377   2.146   3.670   7.631  0.5958 -0.0846  0.5663
 2914SOL    HW120378   2.218   3.624   7.587 -0.4580  0.2572 -1.5158
 2914SOL    HW220379   2.127   3.735   7.563  1.0094 -1.4439 -0.8677
 2915SOL     OW20380   1.019   3.254   1.190  0.4444  0.2199 -0.4517
 2915SOL    HW120381   0.975   3.333   1.220 -1.6817 -1.9084  1.9835
 2915SOL    HW220382   1.018   3.195   1.265 -1.1313  0.0632 -0.6054
 2916SOL     OW20383   2.562   2.898  10.889 -0.0959 -0.2863 -0.4377
 2916SOL    HW120384   2.634   2.836  10.891 -0.4062 -0.6719 -1.6030
 2916SOL    HW220385   2.520   2.870  10.970  1.0880  1.7701  0.9068
 2917SOL     OW20386   4.387   4.687   3.432  0.1974 -0.3713  0.3794
 2917SOL    HW120387   4.391   0.047   3.444 -2.3396 -0.1702 -0.2914
 2917SOL    HW220388   4.374   4.650   3.520  0.0811 -0.8781  0.1447
 2918SOL     OW20389   4.006   2.807   6.794 -0.1334  0.2279  0.3027
 2918SOL    HW120390   3.968   2.895   6.788 -2.6629 -0.8114  1.1238
 2918SOL    HW220391   4.021   2.802   6.889  0.9032  1.1814  0.1974
 2919SOL     OW20392   2.484   4.202   6.350 -0.5323  0.3074  0.1049
 2919SOL    HW120393   2.498   4.255   6.272 -0.1146  0.8857  0.5671
 2919SOL    HW220394   2.469   4.116   6.311 -0.4996  0.0798  0.5983
 2920SOL     OW20395   1.455   3.979  12.691 -0.6907  0.0037  0.1536
 2920SOL    HW120396   1.502   3.958  12.771 -1.1309 -1.1487  0.1117
 2920SOL    HW220397   1.374   3.928  12.698 -0.3519 -0.4948  0.3899
 2921SOL     OW20398   4.671   4.533   2.579  0.7362 -0.4721  0.6519
 2921SOL    HW120399   4.641   4.542   2.489  0.5567 -0.8937  0.6682
 2921SOL    HW220400   0.010   4.475   2.559  1.0175 -0.0281  0.4082
 2922SOL     OW20401   0.195   1.999   2.080  0.4997  0.2262 -0.1420
 2922SOL    HW120402   0.144   1.938   2.026  1.8467  0.6702 -1.9504
 2922SOL    HW220403   0.217   2.062   2.011 -0.4228 -0.0098 -0.6535
 2923SOL     OW20404   0.487   1.804   4.099 -0.0414  0.5529 -0.3230
 2923SOL    HW120405   0.443   1.769   4.176  0.2981  1.6902  0.3956
 2923SOL    HW220406   0.447   1.762   4.023 -2.4857  1.9983  0.1618
 2924SOL     OW20407   3.992   0.322   2.205  0.4488  0.2441 -0.1064
 2924SOL    HW120408   3.932   0.357   2.139 -1.7373  0.4525  2.0207
 2924SOL    HW220409   4.078   0.364   2.200  1.2652 -1.3823  0.5657
 2925SOL     OW20410   3.636   2.665   4.606  0.1163  0.3879  0.6189
 2925SOL    HW120411   3.662   2.752   4.635 -1.8446  0.9086  0.7759
 2925SOL    HW220412   3.613   2.627   4.690 -0.0985 -2.5884 -0.7699
 2926SOL     OW20413   3.043   0.191   3.672  0.7238 -0.2673  0.2412
 2926SOL    HW120414   3.057   0.283   3.693  1.0661 -0.2969  0.1488
 2926SOL    HW220415   3.090   0.147   3.743 -0.1581 -0.3942  0.7386
 2927SOL     OW20416   1.161   0.090   6.113  0.1701 -0.2928 -0.4765
 2927SOL    HW120417   1.252   0.076   6.138 -0.8003 -2.1896  1.9421
 2927SOL    HW220418   1.167   0.073   6.019 -0.0148 -0.0357 -0.5348
 2928SOL     OW20419   0.776   2.212   2.007  0.0501  0.0533  0.1207
 2928SOL    HW120420   0.731   2.221   2.091  3.0786  1.0977  1.6319
 2928SOL    HW220421   0.706   2.176   1.952 -1.1552  0.5567  1.3259
 2929SOL     OW20422   3.593   0.301   2.086  0.5078 -0.0732  0.2894
 2929SOL    HW120423   3.561   0.367   2.147 -1.7951  0.1929 -1.2208
 2929SOL    HW220424   3.681   0.337   2.072 -0.6512  2.3140 -0.9396
 2930SOL     OW20425   3.461   4.028   8.361  0.3361  0.7197  0.2991
 2930SOL    HW120426   3.530   4.073   8.411  0.6606  0.7760 -0.1978
 2930SOL    HW220427   3.391   4.026   8.425 -1.5765  0.4681 -1.8146
 2931SOL     OW20428   4.491   2.325   9.327  0.7099 -0.3555  0.4905
 2931SOL    HW120429   4.444   2.399   9.365  0.2543 -0.1801 -0.4103
 2931SOL    HW220430   4.528   2.284   9.405 -0.8995  0.9410  1.9496
 2932SOL     OW20431   0.044   2.608   7.270  0.8239  0.4450  0.4580
 2932SOL    HW120432   0.062   2.643   7.182  0.3114 -2.0593 -0.6166
 2932SOL    HW220433   4.696   2.562   7.259  1.1157 -0.5224  2.2559
 2933SOL     OW20434   2.644   2.088   6.737 -0.1559  0.0297 -0.3053
 2933SOL    HW120435   2.636   2.050   6.825  1.6647  0.1333 -0.0847
 2933SOL    HW220436   2.588   2.165   6.742 -1.4765 -0.8703 -1.2049
 2934SOL     OW20437   1.837   4.240   9.919 -0.1925  0.5883  0.4439
 2934SOL    HW120438   1.867   4.223   9.829 -0.0861 -0.4248  0.6687
 2934SOL    HW220439   1.921   4.253   9.963  0.5238  1.5387 -1.2067
 2935SOL     OW20440   4.628   3.187   6.417  0.8537  0.2111 -0.0790
 2935SOL    HW120441   4.713   3.153   6.444  0.8033  0.2585  0.1387
 2935SOL    HW220442   4.591   3.217   6.500  0.1991 -1.2295  0.1551
 2936SOL     OW20443   0.314   4.337   4.172 -0.1584  0.1639  0.0627
 2936SOL    HW120444   0.264   4.416   4.192  0.2000  0.8169 -1.6191
 2936SOL    HW220445   0.289   4.326   4.080 -0.1377  1.6109 -0.1092
 2937SOL     OW20446   2.084   1.932   7.462  0.1649 -0.6684 -0.2657
 2937SOL    HW120447   2.154   1.959   7.521 -0.1509  0.5812 -0.4812
 2937SOL    HW220448   2.045   1.883   7.535 -1.3548  0.2384 -0.4783
 2938SOL     OW20449   0.243   4.677   9.253 -0.4686  0.6311  0.1498
 2938SOL    HW120450   0.281   4.681   9.341 -1.9985  0.0258  0.8597
 2938SOL    HW220451   0.284   0.014   9.205 -0.0214 -1.6110 -2.8279
 2939SOL     OW20452   2.584   1.655   8.309 -0.4050  0.3932  0.1403
 2939SOL    HW120453   2.659   1.670   8.367  0.8608 -2.0542 -0.8848
 2939SOL    HW220454   2.507   1.691   8.353  0.6756  0.4769  1.9715
 2940SOL     OW20455   1.353   3.121  12.603 -0.2674 -0.2181 -0.2956
 2940SOL    HW120456   1.425   3.078  12.558 -0.3666 -0.6284 -0.0631
 2940SOL    HW220457   1.300   3.055  12.649 -2.0630  0.0293 -1.9884
 2941SOL     OW20458   2.549   3.603   0.772 -0.3413 -0.7133 -0.7195
 2941SOL    HW120459   2.505   3.523   0.800  0.5962 -1.2406 -0.7606
 2941SOL    HW220460   2.505   3.667   0.827 -0.7654 -1.9383  0.3638
 2942SOL     OW20461   2.409   0.706  12.025  0.2756 -0.2900 -0.1083
 2942SOL    HW120462   2.356   0.778  11.991 -2.4567 -2.8441 -1.3113
 2942SOL    HW220463   2.400   0.722  12.119  2.8446 -0.2712  0.1305
 2943SOL     OW20464   3.579   2.854   3.505 -0.3929  0.4997 -0.6009
 2943SOL    HW120465   3.641   2.908   3.456 -0.4567  1.0031 -0.1265
 2943SOL    HW220466   3.506   2.855   3.442 -1.9493 -1.4680  1.1740
 2944SOL     OW20467   2.388   3.934  16.186  0.0269 -0.4917  0.0313
 2944SOL    HW120468   2.322   3.964  16.122 -0.4613 -2.8901 -0.5743
 2944SOL    HW220469   2.348   3.952  16.271  0.2964 -1.2709  0.3187
 2945SOL     OW20470   0.388   2.781  11.176 -0.3951  0.3394  0.0880
 2945SOL    HW120471   0.459   2.829  11.220 -0.1404  1.2722 -1.3210
 2945SOL    HW220472   0.360   2.848  11.114  0.7050  1.9110  1.2887
 2946SOL     OW20473   0.366   1.700   3.193 -0.6024  0.1085  0.2775
 2946SOL    HW120474   0.354   1.795   3.191  1.4476  0.3485 -0.7492
 2946SOL    HW220475   0.338   1.671   3.106  1.2225  0.8857 -0.5645
 2947SOL     OW20476   3.889   2.995   5.449 -0.8485 -0.2442  0.3080
 2947SOL    HW120477   3.818   3.027   5.393  0.5718  3.0039  0.3833
 2947SOL    HW220478   3.880   3.048   5.528 -0.8179  1.6839 -0.9824
 2948SOL     OW20479   2.562   0.324   1.557  0.2533  0.2954 -0.0151
 2948SOL    HW120480   2.545   0.349   1.648  1.4329  1.5306 -0.1376
 2948SOL    HW220481   2.475   0.294   1.530 -0.8866  1.3201  2.4853
 2949SOL     OW20482   1.226   0.313   8.026 -0.0108 -0.2448  0.4667
 2949SOL    HW120483   1.297   0.250   8.014 -0.5605 -1.0881  1.5667
 2949SOL    HW220484   1.159   0.271   7.972  2.3103 -1.2812 -1.5635
 2950SOL     OW20485   3.378   0.785  15.677  0.8676  0.0620 -1.0079
 2950SOL    HW120486   3.316   0.814  15.610  2.0246 -1.0819 -2.5765
 2950SOL    HW220487   3.384   0.690  15.664 -0.9503 -0.5362  2.2901
 2951SOL     OW20488   0.455   1.930  14.687 -0.3089  0.5874  0.2516
 2951SOL    HW120489   0.464   2.006  14.745  0.9093 -0.0741  0.9301
 2951SOL    HW220490   0.508   1.967  14.617 -0.1058 -0.8630 -0.3542
 2952SOL     OW20491   0.170   4.019   3.006  0.1297 -0.8545  0.0934
 2952SOL    HW120492   0.155   4.110   2.983 -0.3363 -0.3920  2.2484
 2952SOL    HW220493   0.140   4.026   3.097 -0.5974 -3.3451  0.0709
 2953SOL     OW20494   3.145   2.923   5.735 -0.0506 -0.2229  0.1648
 2953SOL    HW120495   3.204   2.971   5.676  2.0139 -0.4199  2.0551
 2953SOL    HW220496   3.136   2.837   5.694 -0.5734  0.0271 -0.2314
 2954SOL     OW20497   0.028   4.579   8.997  0.2489  0.4060 -0.6547
 2954SOL    HW120498   0.122   4.581   8.978  0.2568 -0.8393 -0.7527
 2954SOL    HW220499   0.002   4.669   8.980 -0.3530  0.2924 -0.3573
 2955SOL     OW20500   1.912   2.293  17.444 -0.3341  0.1953  0.2384
 2955SOL    HW120501   1.980   2.299  17.511 -1.2405  0.4342  1.1464
 2955SOL    HW220502   1.968   2.294  17.366  0.3405 -1.7721  0.7046
 2956SOL     OW20503   0.346   2.537  11.033  0.1638 -0.2878 -0.0768
 2956SOL    HW120504   0.330   2.615  11.085  2.9546  1.0413 -1.1843
 2956SOL    HW220505   0.379   2.476  11.100 -0.9088  0.7868  1.4269
 2957SOL     OW20506   0.701   3.485   4.156 -0.8000 -0.4048 -0.4699
 2957SOL    HW120507   0.761   3.545   4.110 -0.4906  1.3300  2.2182
 2957SOL    HW220508   0.624   3.541   4.164 -1.4922 -1.4828  0.3479
 2958SOL     OW20509   3.892   0.674   5.865  0.1134 -0.5348  0.5130
 2958SOL    HW120510   3.959   0.647   5.929  0.0765 -1.0860  0.3199
 2958SOL    HW220511   3.827   0.699   5.930 -1.1425 -0.1468 -0.9206
 2959SOL     OW20512   1.719   1.940   1.738 -0.1458  0.0583  0.2520
 2959SOL    HW120513   1.704   2.016   1.794  0.8263 -1.3438  2.4180
 2959SOL    HW220514   1.765   1.982   1.665  1.7401 -0.3363  1.2253
 2960SOL     OW20515   3.439   0.068   7.994 -0.0407  0.1240 -0.0191
 2960SOL    HW120516   3.399   0.034   7.914 -0.8189  0.8401  0.0679
 2960SOL    HW220517   3.531   0.075   7.968 -0.9645  2.7374 -2.5971
 2961SOL     OW20518   2.571   0.998   7.720  0.8494  0.5063  0.1307
 2961SOL    HW120519   2.574   0.939   7.644  2.7799  1.0051 -0.1785
 2961SOL    HW220520   2.564   1.084   7.679  2.5615  1.0530  1.0317
 2962SOL     OW20521   1.903   1.419   9.384 -0.2951 -0.1351  0.1488
 2962SOL    HW120522   1.911   1.350   9.319 -0.6166 -1.2279  1.2698
 2962SOL    HW220523   1.808   1.428   9.378 -0.3204 -1.2653 -1.0292
 2963SOL     OW20524   1.011   3.697   2.581 -0.1038 -0.0821 -0.1280
 2963SOL    HW120525   1.014   3.781   2.627 -1.9433  0.6409 -1.3261
 2963SOL    HW220526   1.090   3.653   2.611  1.0761 -0.2377 -3.5696
 2964SOL     OW20527   3.477   2.022   4.919  0.1203 -0.4124  0.4013
 2964SOL    HW120528   3.535   1.972   4.976 -1.4323 -1.7317  0.8299
 2964SOL    HW220529   3.391   2.012   4.959 -0.4786 -0.2011 -0.8325
 2965SOL     OW20530   2.268   0.508   1.701  0.1602 -0.4190  0.0485
 2965SOL    HW120531   2.288   0.533   1.791 -3.5032 -2.0035  1.2829
 2965SOL    HW220532   2.212   0.431   1.708 -0.1742 -0.2106 -0.3690
 2966SOL     OW20533   2.279   2.153  12.569 -0.2408 -0.5173  0.5094
 2966SOL    HW120534   2.324   2.151  12.653  0.0800 -1.2999  0.3159
 2966SOL    HW220535   2.351   2.127  12.512  1.0279  1.5883  1.1503
 2967SOL     OW20536   1.191   0.999   7.216 -0.4582  0.5095  0.2302
 2967SOL    HW120537   1.132   0.959   7.280  0.1862 -0.2383  0.3399
 2967SOL    HW220538   1.265   1.015   7.274 -0.8606  0.7394  0.6829
 2968SOL     OW20539   0.476   3.244   2.049 -0.0744 -0.3494  0.1737
 2968SOL    HW120540   0.462   3.283   1.963  2.4055  1.6609  0.6856
 2968SOL    HW220541   0.490   3.319   2.107 -1.6708 -0.1462  0.2958
 2969SOL     OW20542   0.392   2.016   4.362 -0.0643  0.1647  0.2592
 2969SOL    HW120543   0.443   2.013   4.281 -0.8114  0.3754 -0.2222
 2969SOL    HW220544   0.429   2.098   4.396  0.1254 -0.3879  1.3604
 2970SOL     OW20545   1.974   4.152   5.213 -0.3000  0.7408  0.2710
 2970SOL    HW120546   2.039   4.129   5.279 -0.0140  2.8863  0.7264
 2970SOL    HW220547   1.958   4.244   5.230 -1.9729  0.3926  0.5876
 2971SOL     OW20548   3.868   1.375  15.105 -0.2961 -0.0078 -0.0251
 2971SOL    HW120549   3.904   1.292  15.073  0.5599 -0.2677  1.6581
 2971SOL    HW220550   3.931   1.441  15.075  1.0961 -1.5799 -0.5659
 2972SOL     OW20551   1.329   1.291   4.589 -0.1160  0.2951  0.0080
 2972SOL    HW120552   1.386   1.291   4.666  2.9636  1.6631 -2.3080
 2972SOL    HW220553   1.272   1.367   4.599  1.1107  0.8884  2.4801
 2973SOL     OW20554   0.837   0.939   2.096  0.6076 -0.2699  0.6194
 2973SOL    HW120555   0.835   0.969   2.187 -0.0215 -2.8207  1.4196
 2973SOL    HW220556   0.827   1.025   2.055  2.8327 -0.9672 -1.3440
 2974SOL     OW20557   3.718   0.400   7.184  0.0234 -0.2642 -0.5280
 2974SOL    HW120558   3.810   0.424   7.174  0.5419 -1.6512  0.7723
 2974SOL    HW220559   3.680   0.468   7.129 -0.6762  1.2065  1.7657
 2975SOL     OW20560   0.023   3.253   8.613  0.3002  0.4630 -0.0036
 2975SOL    HW120561   0.047   3.327   8.557  0.5470  0.6216  0.3124
 2975SOL    HW220562   0.064   3.183   8.563  1.4441  0.6559  0.6762
 2976SOL     OW20563   0.096   2.759   0.911 -0.6178 -0.5144 -0.2432
 2976SOL    HW120564   0.068   2.796   0.827 -2.1238 -1.7025 -0.2642
 2976SOL    HW220565   0.182   2.800   0.910 -1.1105  0.5025 -1.3907
 2977SOL     OW20566   0.872   0.028   6.518  0.1282 -0.6900 -0.7050
 2977SOL    HW120567   0.847   0.069   6.601 -0.1634 -2.1072 -0.0865
 2977SOL    HW220568   0.963   0.058   6.511 -0.1025  0.0834 -0.3596
 2978SOL     OW20569   3.016   2.141  10.732 -0.3084  0.0740  0.2786
 2978SOL    HW120570   3.073   2.165  10.806  0.0098  0.7185 -0.1787
 2978SOL    HW220571   2.927   2.173  10.745 -1.0360 -1.5068 -0.8217
 2979SOL     OW20572   0.982   0.645   4.953 -0.5495  0.2679 -0.0943
 2979SOL    HW120573   0.949   0.726   4.992  0.5195 -0.1991  1.8052
 2979SOL    HW220574   0.921   0.625   4.882 -2.2850  0.4699  1.3319
 2980SOL     OW20575   0.580   1.600   7.949  0.2098  0.6813 -0.4577
 2980SOL    HW120576   0.556   1.611   8.041  2.1112 -1.1189  0.2594
 2980SOL    HW220577   0.666   1.558   7.949 -0.4739 -0.7333 -0.7958
 2981SOL     OW20578   2.395   2.282   1.910 -0.0816 -0.2401 -0.0869
 2981SOL    HW120579   2.432   2.352   1.963 -1.8643 -0.3443  1.3020
 2981SOL    HW220580   2.414   2.212   1.973 -0.1135  1.3854  1.7337
 2982SOL     OW20581   4.093   1.412  12.341  0.5976 -0.2358 -0.2820
 2982SOL    HW120582   4.064   1.425  12.431 -1.3810 -2.1926 -0.6532
 2982SOL    HW220583   4.164   1.348  12.352  1.6341  0.5950 -2.0240
 2983SOL     OW20584   1.255   0.522   2.634  0.0229 -0.0252 -0.5069
 2983SOL    HW120585   1.203   0.443   2.648 -0.7754  0.2942 -1.6809
 2983SOL    HW220586   1.336   0.502   2.681  1.1196  2.5543 -1.2841
 2984SOL     OW20587   2.899   0.578   6.822 -0.0692  0.2861 -0.5227
 2984SOL    HW120588   2.975   0.578   6.879  0.4709 -0.6241 -1.2449
 2984SOL    HW220589   2.888   0.487   6.794  0.0109  0.4522 -1.1067
 2985SOL     OW20590   0.076   0.020   5.445 -0.2659 -0.3427 -0.3980
 2985SOL    HW120591   0.136   0.039   5.517  0.9670 -2.1326 -0.9530
 2985SOL    HW220592   0.121   4.676   5.416  2.9826  0.2751  2.9265
 2986SOL     OW20593   4.419   3.521  13.972  0.1052 -0.4573 -0.1847
 2986SOL    HW120594   4.350   3.487  13.915 -0.3886  1.0575 -0.4940
 2986SOL    HW220595   4.431   3.445  14.029  1.1785 -0.2401 -0.1367
 2987SOL     OW20596   0.441   0.674  16.711 -0.1987  0.0684  0.7309
 2987SOL    HW120597   0.529   0.697  16.741  0.2062  0.2419 -0.5893
 2987SOL    HW220598   0.402   0.761  16.701  1.0470  0.7852  2.1068
 2988SOL     OW20599   3.809   4.646   5.516 -0.1108 -0.1507  0.3809
 2988SOL    HW120600   3.892   4.689   5.534 -1.0379  0.6288  2.7282
 2988SOL    HW220601   3.763   4.670   5.596 -0.3424  0.5508  0.0357
 2989SOL     OW20602   3.430   1.413   6.649 -0.7049  0.5723 -0.4124
 2989SOL    HW120603   3.438   1.426   6.554  1.3478 -1.1988 -0.4896
 2989SOL    HW220604   3.341   1.381   6.661 -0.9234  2.1257  2.1541
 2990SOL     OW20605   2.468   0.451  10.785  0.2920  0.2004  0.2676
 2990SOL    HW120606   2.459   0.382  10.850  5.6265 -0.0911  0.7144
 2990SOL    HW220607   2.561   0.468  10.802  0.5486  0.3260 -1.2266
 2991SOL     OW20608   2.603   2.939   2.497  0.1769 -0.8207 -0.7553
 2991SOL    HW120609   2.552   2.906   2.571  0.5786 -1.0219 -0.5738
 2991SOL    HW220610   2.654   2.864   2.468 -1.1317 -0.9888 -2.6520
 2992SOL     OW20611   2.451   0.592   7.961  0.2294  0.4504 -0.3752
 2992SOL    HW120612   2.388   0.656   7.993  1.7916  0.5245  2.6116
 2992SOL    HW220613   2.474   0.619   7.873  0.2372 -2.5194 -1.2898
 2993SOL     OW20614   1.101   0.263   3.249  0.1183  0.4057 -0.3884
 2993SOL    HW120615   1.034   0.195   3.247  1.8947 -1.2432 -3.2352
 2993SOL    HW220616   1.088   0.303   3.163  1.5171 -1.1548 -1.3248
 2994SOL     OW20617   2.952   1.072   7.508  0.2799  0.2620 -0.1058
 2994SOL    HW120618   2.999   1.151   7.478  0.8468  0.3562  1.0235
 2994SOL    HW220619   2.963   1.019   7.429 -0.3115 -2.4211  1.6263
 2995SOL     OW20620   0.428   3.367   2.919  0.3745 -0.1940 -0.0548
 2995SOL    HW120621   0.493   3.321   2.865  0.5409  1.2016 -1.0414
 2995SOL    HW220622   0.411   3.446   2.869  1.4551  0.0082 -0.0978
 2996SOL     OW20623   4.327   2.490   3.293 -0.3291 -0.2184 -0.6817
 2996SOL    HW120624   4.272   2.433   3.239  1.8901 -2.1092 -0.9324
 2996SOL    HW220625   4.392   2.516   3.228 -0.7890  0.8753 -0.7092
 2997SOL     OW20626   4.400   4.498   6.070  0.2690  0.1626  0.3877
 2997SOL    HW120627   4.318   4.452   6.086  0.0464  0.8560  1.2661
 2997SOL    HW220628   4.385   4.535   5.984 -2.1064  2.6895  1.8979
 2998SOL     OW20629   2.783   2.384   7.108 -0.5491 -0.5113 -0.3776
 2998SOL    HW120630   2.765   2.410   7.017 -1.5228  1.7380  0.4743
 2998SOL    HW220631   2.697   2.380   7.149 -0.5969  0.4239 -0.3850
 2999SOL     OW20632   2.807   0.601  17.305  0.0090  0.2862 -0.2307
 2999SOL    HW120633   2.795   0.526  17.247  1.9470  0.5238 -0.9277
 2999SOL    HW220634   2.726   0.649  17.286  0.3548  0.2161 -1.8541
 3000SOL     OW20635   2.394   4.524   6.946  0.1077  0.0812 -1.0088
 3000SOL    HW120636   2.363   4.440   6.913  2.5461 -0.8383 -1.0200
 3000SOL    HW220637   2.331   4.590   6.917 -0.4747 -0.6013 -1.3011
 3001SOL     OW20638   1.018   0.058  14.628 -0.1349 -0.4353 -0.2165
 3001SOL    HW120639   1.099   0.013  14.602  0.5761  1.1930 -0.7959
 3001SOL    HW220640   1.022   0.135  14.572  2.8521 -0.5723 -0.2088
 3002SOL     OW20641   4.225   3.008   8.937  0.7040 -0.2337  0.5280
 3002SOL    HW120642   4.183   3.034   8.855 -0.3867  1.1374  1.5199
 3002SOL    HW220643   4.152   3.036   8.994  0.8445  0.6435  0.2775
 3003SOL     OW20644   1.439   0.957   7.333  0.6225 -0.4032  0.3524
 3003SOL    HW120645   1.415   0.877   7.287  2.5614 -1.0765  0.4875
 3003SOL    HW220646   1.524   0.987   7.299  1.1202 -2.4508 -0.2253
 3004SOL     OW20647   1.270   3.478   8.496 -0.6783 -0.4021 -0.2923
 3004SOL    HW120648   1.244   3.425   8.571  0.7335 -0.7380 -0.0396
 3004SOL    HW220649   1.191   3.527   8.472 -0.3342  1.1395  1.7208
 3005SOL     OW20650   0.571   2.538  15.438 -0.2029  0.3114 -0.2237
 3005SOL    HW120651   0.515   2.605  15.476 -0.1039  0.4445 -0.3095
 3005SOL    HW220652   0.627   2.519  15.513  1.1845  1.6558 -0.9222
 3006SOL     OW20653   4.652   4.325  12.389  0.0557 -0.2641  0.0359
 3006SOL    HW120654   4.580   4.356  12.334  1.6513  1.4083 -1.1086
 3006SOL    HW220655   4.611   4.363  12.467  0.4970  0.1714  0.0550
 3007SOL     OW20656   0.021   1.315   5.799 -0.0379 -0.0923  0.2664
 3007SOL    HW120657   0.013   1.230   5.842  3.1263  0.1010  1.2298
 3007SOL    HW220658   4.665   1.338   5.781  0.4448  1.2732 -0.4429
 3008SOL     OW20659   4.360   4.478  16.199  0.3974  0.5031 -0.4476
 3008SOL    HW120660   4.317   4.502  16.117  3.6412  1.0791 -2.0009
 3008SOL    HW220661   4.315   4.537  16.259 -0.7685 -1.9089  1.0426
 3009SOL     OW20662   1.003   2.085   2.136 -0.1556  0.1166 -0.6466
 3009SOL    HW120663   0.972   2.144   2.067  0.7424  0.7639 -0.5019
 3009SOL    HW220664   0.963   2.125   2.213  2.6826 -1.4398  1.6392
 3010SOL     OW20665   0.584   0.793   7.096 -0.0830  0.6473  0.5460
 3010SOL    HW120666   0.508   0.807   7.040  0.1411  1.3783  0.4204
 3010SOL    HW220667   0.614   0.884   7.101  1.1795  0.2625 -0.1324
 3011SOL     OW20668   0.995   1.169  16.605  0.6614 -0.0947 -0.0040
 3011SOL    HW120669   0.931   1.162  16.534 -0.7761 -0.9010  1.3831
 3011SOL    HW220670   1.007   1.264  16.597 -0.9039 -0.0099 -1.4709
 3012SOL     OW20671   4.331   2.070   0.149 -0.2052  0.8882  0.4438
 3012SOL    HW120672   4.319   2.083   0.055 -1.4853 -1.0476  0.3523
 3012SOL    HW220673   4.253   2.026   0.184 -0.2715 -0.2190 -1.1111
 3013SOL     OW20674   0.127   0.800   0.079 -0.4464 -0.5470 -0.0981
 3013SOL    HW120675   0.206   0.845   0.110  0.7902 -1.5952 -1.7790
 3013SOL    HW220676   0.126   0.718   0.129  2.2364 -2.0602 -2.5530
 3014SOL     OW20677   3.116   1.324   5.598  0.8362 -0.0688 -0.4403
 3014SOL    HW120678   3.052   1.328   5.527 -1.7453  2.1846  2.0114
 3014SOL    HW220679   3.056   1.342   5.670  1.1888  1.6423 -0.5653
 3015SOL     OW20680   1.842   1.207   2.214  0.4872  0.6387 -0.1479
 3015SOL    HW120681   1.766   1.149   2.219 -0.8033  2.4778  1.7146
 3015SOL    HW220682   1.822   1.248   2.130  2.7961 -0.8342 -1.4003
 3016SOL     OW20683   4.328   3.467  13.393  0.5269  0.0497 -0.0814
 3016SOL    HW120684   4.282   3.402  13.447 -0.8750  0.5007 -0.7195
 3016SOL    HW220685   4.347   3.548  13.442 -0.1542  0.6290 -0.7776
 3017SOL     OW20686   2.749   1.766   3.762  0.0631  0.1412 -0.0089
 3017SOL    HW120687   2.815   1.826   3.728  1.3959  0.0938  2.5233
 3017SOL    HW220688   2.793   1.682   3.776 -2.6978 -0.6023  4.1267
 3018SOL     OW20689   2.156   2.838   5.214 -0.2845  0.7580  0.1903
 3018SOL    HW120690   2.186   2.766   5.158 -1.8204  0.2976 -0.0419
 3018SOL    HW220691   2.072   2.807   5.247  1.5765 -2.1444  2.2876
 3019SOL     OW20692   3.254   3.614  16.348 -0.6012  0.0108  0.2011
 3019SOL    HW120693   3.265   3.525  16.316 -1.2043 -0.7058  1.9705
 3019SOL    HW220694   3.341   3.648  16.365  0.3976 -1.4207 -2.0789
 3020SOL     OW20695   2.683   3.681   2.827  0.2201 -0.5557 -0.0987
 3020SOL    HW120696   2.749   3.623   2.789  0.6764 -1.5734  2.2269
 3020SOL    HW220697   2.601   3.642   2.798  0.0943 -1.1056  0.9716
 3021SOL     OW20698   1.797   0.235   9.720  0.2203 -0.6940  0.1599
 3021SOL    HW120699   1.709   0.266   9.741  0.0113 -0.8970 -0.4327
 3021SOL    HW220700   1.771   0.149   9.687 -0.7371 -0.8064  1.1838
 3022SOL     OW20701   0.695   3.419   1.545 -0.1742 -0.4113 -0.2157
 3022SOL    HW120702   0.763   3.352   1.550  0.3070  0.0873 -0.1603
 3022SOL    HW220703   0.674   3.405   1.453 -0.5519 -1.5932  0.0453
 3023SOL     OW20704   0.575   4.321   6.576 -0.4282  0.7498 -0.0435
 3023SOL    HW120705   0.628   4.399   6.558  1.1465 -0.8167 -2.3110
 3023SOL    HW220706   0.577   4.283   6.488 -2.2602 -0.2483  0.3497
 3024SOL     OW20707   1.816   4.380   1.750  0.1103  0.3472  0.0445
 3024SOL    HW120708   1.854   4.296   1.778 -0.1110  0.1182 -0.3420
 3024SOL    HW220709   1.877   4.446   1.782 -0.0020  1.2210 -1.5483
 3025SOL     OW20710   0.046   2.327  14.080 -0.2733  0.1451 -0.1368
 3025SOL    HW120711   4.719   2.377  14.133 -2.4796  1.5489 -4.0521
 3025SOL    HW220712   0.011   2.240  14.101 -0.2070  0.4975  1.4251
 3026SOL     OW20713   4.305   3.900   4.978 -0.1430 -0.2039 -0.1055
 3026SOL    HW120714   4.398   3.911   4.996  0.0426 -0.4877 -0.8688
 3026SOL    HW220715   4.280   3.978   5.027 -0.6433  0.9152 -2.1529
 3027SOL     OW20716   1.446   2.713   1.462  0.1930 -0.2841  0.0541
 3027SOL    HW120717   1.476   2.775   1.396 -2.0115  0.8499  0.0934
 3027SOL    HW220718   1.371   2.763   1.495 -1.9778 -2.2782 -1.8236
 3028SOL     OW20719   2.338   2.897   2.676  0.1998  0.0112  0.0545
 3028SOL    HW120720   2.299   2.817   2.710  0.5606 -0.6385 -1.0695
 3028SOL    HW220721   2.407   2.904   2.742 -0.3102  0.5128  0.5407
 3029SOL     OW20722   1.299   1.164  13.182  0.1298  0.2208 -0.6216
 3029SOL    HW120723   1.377   1.177  13.236  0.1044  4.2186 -1.5572
 3029SOL    HW220724   1.232   1.136  13.245  0.3336 -2.1279 -1.4380
 3030SOL     OW20725   3.452   3.985  13.871  0.3407 -0.2615 -0.0809
 3030SOL    HW120726   3.495   3.911  13.913 -0.6562 -0.8608 -0.0934
 3030SOL    HW220727   3.511   3.999  13.796 -0.4081  2.0053 -0.2528
 3031SOL     OW20728   0.325   0.985   4.162 -0.6675  0.0808  0.3272
 3031SOL    HW120729   0.413   0.954   4.184 -0.5001  1.5662  1.6877
 3031SOL    HW220730   0.304   1.023   4.247  0.3913  1.1280  0.1206
 3032SOL     OW20731   3.092   1.302   8.111  0.3958  0.2513 -0.3769
 3032SOL    HW120732   3.106   1.260   8.196 -2.1449  1.1872  0.4897
 3032SOL    HW220733   3.071   1.224   8.059  0.6630  0.3867 -0.6902
 3033SOL     OW20734   2.473   3.075   7.703  0.4917  0.1863 -0.1265
 3033SOL    HW120735   2.527   3.085   7.782 -2.0748 -1.1987  1.7984
 3033SOL    HW220736   2.468   2.980   7.699  1.9381  0.0445  1.6487
 3034SOL     OW20737   3.770   1.934   5.295  0.0821  0.3999 -0.3432
 3034SOL    HW120738   3.731   1.924   5.208  0.8147  0.9419 -0.7302
 3034SOL    HW220739   3.722   2.014   5.320 -2.3280 -0.4818 -2.0969
 3035SOL     OW20740   3.733   0.738  10.736  0.8191 -0.7599  0.1524
 3035SOL    HW120741   3.680   0.710  10.661  0.2741 -0.8274  0.5594
 3035SOL    HW220742   3.758   0.654  10.776 -0.5164 -1.1158  0.2393
 3036SOL     OW20743   0.026   2.576   8.781 -0.8563  0.0083 -0.4441
 3036SOL    HW120744   4.677   2.614   8.803 -0.4516  0.5931  0.0747
 3036SOL    HW220745   0.082   2.648   8.809 -1.3160 -0.3515  1.3497
 3037SOL     OW20746   3.800   0.575   6.772  0.4602  0.0745 -0.1059
 3037SOL    HW120747   3.896   0.568   6.770  0.4606 -0.1493  0.7240
 3037SOL    HW220748   3.781   0.604   6.861  0.3677  0.6695 -0.3188
 3038SOL     OW20749   3.465   2.864   4.958 -0.4901 -0.4723 -0.1770
 3038SOL    HW120750   3.521   2.940   4.970 -3.7794  1.7843  0.8605
 3038SOL    HW220751   3.536   2.803   4.938 -0.9983 -0.4899 -1.9269
 3039SOL     OW20752   1.562   4.178   9.068 -0.1707 -0.5855  0.0530
 3039SOL    HW120753   1.467   4.190   9.073  0.3368  3.2321  0.2326
 3039SOL    HW220754   1.589   4.269   9.074 -0.0310 -0.5781 -0.7485
 3040SOL     OW20755   3.547   4.131   7.398  0.7249 -0.0208 -0.5622
 3040SOL    HW120756   3.621   4.187   7.422  1.8506 -0.7097 -2.3791
 3040SOL    HW220757   3.536   4.162   7.308 -0.7944 -0.9027 -0.6701
 3041SOL     OW20758   4.069   0.868   5.372 -0.0822  0.2941 -0.1339
 3041SOL    HW120759   4.055   0.820   5.454  1.8083 -0.0785 -0.0274
 3041SOL    HW220760   3.986   0.846   5.331 -0.0708  1.3366 -0.6910
 3042SOL     OW20761   2.258   2.876  12.959  0.0953  0.1707 -0.0580
 3042SOL    HW120762   2.309   2.808  13.003  0.9457 -1.7314 -3.9108
 3042SOL    HW220763   2.325   2.919  12.906 -0.1465  0.4905 -0.1030
 3043SOL     OW20764   4.044   0.088  13.764 -0.0685  0.0753 -0.2389
 3043SOL    HW120765   4.099   0.031  13.711  0.0247 -1.2932  1.3474
 3043SOL    HW220766   3.990   0.125  13.693 -0.4040  1.4447  0.7265
 3044SOL     OW20767   2.100   0.290   1.752 -0.7461  0.2530  0.6078
 3044SOL    HW120768   2.044   0.363   1.777 -0.2227  0.5934  0.7870
 3044SOL    HW220769   2.055   0.279   1.668 -1.1213  2.2293  0.5344
 3045SOL     OW20770   0.414   3.297   9.233 -0.6320  0.0013 -0.0610
 3045SOL    HW120771   0.411   3.220   9.289  1.6234  0.2603  0.4165
 3045SOL    HW220772   0.430   3.370   9.293  0.4582  0.4013 -0.8271
 3046SOL     OW20773   3.765   4.137   4.443 -0.0193  0.2157  0.0851
 3046SOL    HW120774   3.756   4.232   4.456  1.2097  0.4430 -0.7796
 3046SOL    HW220775   3.816   4.125   4.363  1.6710 -1.9002  1.4806
 3047SOL     OW20776   2.253   1.017   1.971 -0.0212 -0.2393 -0.2139
 3047SOL    HW120777   2.162   1.020   2.001  0.3342 -0.3194  0.8553
 3047SOL    HW220778   2.252   1.038   1.878  1.2836 -0.8212 -0.3680
 3048SOL     OW20779   2.002   0.273  16.138 -0.1662  0.4858 -0.4409
 3048SOL    HW120780   2.064   0.232  16.077  1.4790  0.8804  0.9826
 3048SOL    HW220781   1.918   0.235  16.109  0.0787 -0.0194 -0.4905
 3049SOL     OW20782   1.954   2.142  14.975  0.8797 -0.6846  0.2469
 3049SOL    HW120783   1.959   2.149  15.070 -0.2160 -0.5744  0.3008
 3049SOL    HW220784   2.045   2.137  14.945  1.2768  2.2577  0.9099
 3050SOL     OW20785   1.411   0.354   9.009  0.6712  0.0507  0.0712
 3050SOL    HW120786   1.453   0.324   9.090  0.2646  0.7632  0.5415
 3050SOL    HW220787   1.389   0.269   8.971 -1.6263  0.9262 -0.5085
 3051SOL     OW20788   2.745   3.011   2.979  0.0751  0.2509 -0.2295
 3051SOL    HW120789   2.719   3.094   2.940 -0.1037  0.5005  0.4131
 3051SOL    HW220790   2.701   3.021   3.064  0.1811  2.6154 -0.4401
 3052SOL     OW20791   2.600   1.526   2.913  0.1211  0.2404  0.7438
 3052SOL    HW120792   2.538   1.544   2.984  1.2483 -2.1798  2.3101
 3052SOL    HW220793   2.587   1.431   2.906  1.8885 -0.0318  1.3066
 3053SOL     OW20794   1.960   1.165   6.581 -0.1856 -0.4213 -0.2258
 3053SOL    HW120795   2.054   1.180   6.579 -0.3586  1.0102  2.1459
 3053SOL    HW220796   1.953   1.095   6.517  4.2390 -0.9950 -0.0740
 3054SOL     OW20797   2.501   0.864   1.392  0.8783  0.0327  0.1253
 3054SOL    HW120798   2.524   0.950   1.358 -0.5929  0.4409  0.1804
 3054SOL    HW220799   2.431   0.890   1.452  1.3466  1.9054 -0.1590
 3055SOL     OW20800   3.832   1.598   4.577  0.0751 -0.0859 -0.0560
 3055SOL    HW120801   3.800   1.676   4.622  1.6503 -0.2275  1.3302
 3055SOL    HW220802   3.827   1.638   4.490  2.2800  2.8583  1.1489
 3056SOL     OW20803   1.040   3.185   6.890 -0.3179  0.2849  0.6493
 3056SOL    HW120804   1.065   3.247   6.822  1.2981  0.2099  1.1747
 3056SOL    HW220805   0.976   3.124   6.855 -0.8465 -0.9895  3.7888
 3057SOL     OW20806   4.129   2.983  10.986 -0.1837  0.0894 -0.0658
 3057SOL    HW120807   4.153   2.893  11.009  0.3679 -0.3752 -2.5066
 3057SOL    HW220808   4.202   3.007  10.929 -0.0472 -4.2514 -1.6835
 3058SOL     OW20809   2.689   4.491   2.106  0.5358  0.5369  0.1283
 3058SOL    HW120810   2.769   4.485   2.159  0.4869 -0.6913  0.0548
 3058SOL    HW220811   2.623   4.519   2.169  0.9393  1.1847  0.2653
 3059SOL     OW20812   4.665   3.426   3.241 -0.1567  0.1216  0.3649
 3059SOL    HW120813   4.668   3.518   3.217  3.0652 -0.0816 -0.1279
 3059SOL    HW220814   4.719   3.415   3.320  0.0932  1.2418  0.3544
 3060SOL     OW20815   0.638   0.745   7.680  0.4454  0.2853 -0.5628
 3060SOL    HW120816   0.716   0.793   7.706  2.0224 -1.9072 -1.2858
 3060SOL    HW220817   0.652   0.660   7.721 -0.1707 -1.2099 -3.4482
 3061SOL     OW20818   2.671   2.823   5.536 -0.5306  0.4110  0.4544
 3061SOL    HW120819   2.658   2.771   5.615 -2.2629  2.0188  1.2276
 3061SOL    HW220820   2.756   2.789   5.506  0.6956  3.3124  0.6130
 3062SOL     OW20821   2.524   1.603   1.676  0.1917 -0.2534  0.0574
 3062SOL    HW120822   2.617   1.599   1.696 -0.1100 -0.8444  1.4034
 3062SOL    HW220823   2.494   1.688   1.709 -2.8023 -1.0841 -0.4949
 3063SOL     OW20824   1.836   2.614   2.921  0.1819 -0.5929  0.3333
 3063SOL    HW120825   1.897   2.660   2.864 -1.4754 -0.9625 -1.7487
 3063SOL    HW220826   1.760   2.597   2.865  0.0466  0.0799  0.3030
 3064SOL     OW20827   3.742   1.716   5.452  0.7805 -0.6872 -0.4420
 3064SOL    HW120828   3.759   1.796   5.402 -0.4770 -0.3296 -0.2763
 3064SOL    HW220829   3.831   1.692   5.480  1.1339 -0.0794 -1.0409
 3065SOL     OW20830   2.795   1.803   6.719  0.4896 -1.0825 -0.5653
 3065SOL    HW120831   2.850   1.878   6.737  0.6624 -1.3785  0.1367
 3065SOL    HW220832   2.729   1.794   6.788  0.7595 -2.0868 -0.4277
 3066SOL     OW20833   0.872   4.718  14.372  0.5588 -1.0556 -0.6091
 3066SOL    HW120834   0.899   4.642  14.425  1.4946 -0.3694 -0.1104
 3066SOL    HW220835   0.862   0.053  14.436  0.8489 -0.6903 -0.9726
 3067SOL     OW20836   3.611   0.065  13.695 -0.1316  0.2889  0.0742
 3067SOL    HW120837   3.549   0.063  13.622  1.7339  2.1988 -1.5672
 3067SOL    HW220838   3.691   0.025  13.661  0.0923  1.0451 -0.3016
 3068SOL     OW20839   1.346   2.442   4.706 -0.3352 -0.5294 -0.2413
 3068SOL    HW120840   1.422   2.487   4.741 -1.3561 -0.6885  2.1642
 3068SOL    HW220841   1.283   2.471   4.772 -1.7223 -1.0700 -1.3040
 3069SOL     OW20842   2.026   4.602   9.711  0.3616  0.5759  0.0022
 3069SOL    HW120843   1.962   4.549   9.664  0.8678  1.5105 -1.7460
 3069SOL    HW220844   2.108   4.561   9.685  0.4498  0.5993  0.2455
 3070SOL     OW20845   4.659   1.923   5.187  0.3529 -0.6761 -0.4818
 3070SOL    HW120846   4.592   1.871   5.142  0.0713  0.2358 -1.1148
 3070SOL    HW220847   4.638   2.016   5.187  0.8523 -0.5778  0.7224
 3071SOL     OW20848   0.968   3.465   8.243 -0.0101  0.1146  0.7271
 3071SOL    HW120849   0.941   3.450   8.334  0.3010  0.4046  0.8646
 3071SOL    HW220850   0.893   3.519   8.220  1.9542  1.7961 -1.7107
 3072SOL     OW20851   0.960   2.403  15.496  0.0255 -0.7300  0.2943
 3072SOL    HW120852   1.016   2.480  15.510 -0.5823 -0.1005 -0.7169
 3072SOL    HW220853   1.023   2.331  15.502  0.8787 -0.0697 -0.6691
 3073SOL     OW20854   0.158   3.030   9.172 -0.5141  0.1409  0.2156
 3073SOL    HW120855   0.220   3.059   9.239  0.0389 -3.7805  1.4039
 3073SOL    HW220856   0.155   2.935   9.183 -0.3570  0.1637  0.4514
 3074SOL     OW20857   2.715   1.278   4.080 -0.4440  0.1674 -0.0004
 3074SOL    HW120858   2.802   1.318   4.087 -0.7765  1.1816 -1.8865
 3074SOL    HW220859   2.744   1.190   4.105 -0.0598  0.4284  0.4579
 3075SOL     OW20860   2.955   1.644   6.228 -0.0724  0.1076  0.1221
 3075SOL    HW120861   2.978   1.650   6.136 -0.6528  0.9318  0.0330
 3075SOL    HW220862   2.868   1.604   6.223  0.7163 -1.3909 -1.5003
 3076SOL     OW20863   1.473   0.230   2.439 -0.3200  0.2381  0.0177
 3076SOL    HW120864   1.450   0.281   2.517 -1.2665  1.5370 -1.1291
 3076SOL    HW220865   1.551   0.284   2.427  0.3606 -0.7064  0.1407
 3077SOL     OW20866   1.305   2.340   1.755  0.2676  0.3633  0.0402
 3077SOL    HW120867   1.233   2.283   1.729 -0.0614  0.5524  0.5364
 3077SOL    HW220868   1.270   2.427   1.738 -1.2690  0.1056  1.8878
 3078SOL     OW20869   2.481   2.297  13.182  0.2196  0.2143 -0.2661
 3078SOL    HW120870   2.444   2.300  13.093 -0.0703  2.1394 -0.0851
 3078SOL    HW220871   2.531   2.216  13.177 -1.8550 -1.0018 -1.0846
 3079SOL     OW20872   1.826   2.393  14.905  0.0575  0.4893 -0.2006
 3079SOL    HW120873   1.860   2.304  14.911  0.4874  0.3996 -3.5994
 3079SOL    HW220874   1.732   2.383  14.897 -0.0589  0.0104  1.8025
 3080SOL     OW20875   3.852   0.050   7.530  0.0785  0.0663 -0.4575
 3080SOL    HW120876   3.801   4.730   7.471 -0.1327  1.2163 -1.3532
 3080SOL    HW220877   3.925   0.072   7.471  0.8974  1.8323  1.2361
 3081SOL     OW20878   0.382   2.056   3.161  0.0588 -0.0009 -0.0442
 3081SOL    HW120879   0.462   2.016   3.126  0.9997  0.6983  1.3295
 3081SOL    HW220880   0.417   2.078   3.247  0.4823 -1.3077  0.1147
 3082SOL     OW20881   0.791   4.136  10.916 -0.2671 -0.3646  0.4698
 3082SOL    HW120882   0.832   4.169  10.836  1.6866  0.4145  1.7937
 3082SOL    HW220883   0.858   4.112  10.981  0.7423  1.7972  0.2181
 3083SOL     OW20884   0.861   3.312   4.266  0.0728 -0.7262 -0.1513
 3083SOL    HW120885   0.775   3.279   4.293  0.0772 -0.6602 -0.0572
 3083SOL    HW220886   0.830   3.394   4.228  1.2390  0.1489  0.7493
 3084SOL     OW20887   3.097   0.950   5.812  0.0078 -0.2371  0.0484
 3084SOL    HW120888   3.120   0.858   5.802  0.7811  0.1321 -1.6580
 3084SOL    HW220889   3.083   0.953   5.907 -0.6169  1.0672 -0.0782
 3085SOL     OW20890   3.274   3.385   1.769  0.5034 -0.1439 -0.1485
 3085SOL    HW120891   3.186   3.348   1.778 -0.3306  1.0278 -3.4052
 3085SOL    HW220892   3.300   3.327   1.698  0.3653  0.3123 -0.5719
 3086SOL     OW20893   2.305   3.695  12.348 -0.1851  0.4268  0.1852
 3086SOL    HW120894   2.293   3.759  12.278 -2.4312 -0.5498 -0.3023
 3086SOL    HW220895   2.327   3.736  12.432  1.3598 -1.1982  0.5629
 3087SOL     OW20896   2.229   3.660   3.086  0.0558 -0.1570  0.6397
 3087SOL    HW120897   2.237   3.619   3.000 -2.4163 -0.7860  0.7175
 3087SOL    HW220898   2.254   3.749   3.063  0.3055 -1.7688 -5.1529
 3088SOL     OW20899   0.421   2.194  11.005  0.0466  0.4259  0.0037
 3088SOL    HW120900   0.437   2.190  11.099  2.1812 -1.8685 -0.4473
 3088SOL    HW220901   0.431   2.104  10.974  0.5081  1.4126 -2.7527
 3089SOL     OW20902   0.303   3.747   1.291  0.2778  0.0340  0.4769
 3089SOL    HW120903   0.319   3.788   1.206 -0.0951  1.0193  0.8850
 3089SOL    HW220904   0.379   3.752   1.348  1.0703 -0.5253 -0.5222
 3090SOL     OW20905   4.276   2.502  12.112 -0.1975 -0.0731 -0.1837
 3090SOL    HW120906   4.341   2.442  12.075  0.4868 -0.4696  1.6834
 3090SOL    HW220907   4.201   2.498  12.053 -0.3797 -1.4621  0.1570
 3091SOL     OW20908   1.358   1.588   6.806 -0.4590  0.2132  0.5392
 3091SOL    HW120909   1.306   1.663   6.778 -0.5314  0.0408  0.2173
 3091SOL    HW220910   1.325   1.551   6.888 -2.4692  0.0673 -0.3393
 3092SOL     OW20911   1.976   0.176   3.160 -0.2830 -0.6176 -0.6395
 3092SOL    HW120912   1.906   0.119   3.190 -0.2699  0.1464  0.8676
 3092SOL    HW220913   2.018   0.123   3.092 -1.0777  0.9257 -2.3359
 3093SOL     OW20914   1.530   3.253  16.530 -0.0232  0.4938  0.3351
 3093SOL    HW120915   1.576   3.286  16.607 -0.5319  0.1915  0.7640
 3093SOL    HW220916   1.531   3.327  16.468  3.0982 -0.5043 -0.8183
 3094SOL     OW20917   1.626   4.057   9.957 -0.5720  0.7481  0.2600
 3094SOL    HW120918   1.700   4.119   9.963  0.5323 -0.5077 -0.5013
 3094SOL    HW220919   1.664   3.972   9.981 -0.6220  0.5769 -0.2750
 3095SOL     OW20920   2.519   4.587   2.298  0.6148 -0.3406 -0.1075
 3095SOL    HW120921   2.479   4.524   2.358 -0.2873  0.6535  0.3284
 3095SOL    HW220922   2.462   4.662   2.314 -0.1101 -0.3954 -2.4747
 3096SOL     OW20923   0.892   2.262   2.432 -0.0687 -0.3015  0.4198
 3096SOL    HW120924   0.886   2.196   2.501  2.8612  1.0823  1.9980
 3096SOL    HW220925   0.976   2.303   2.453 -1.1736  0.9345  2.4604
 3097SOL     OW20926   0.737   1.325   7.728 -0.4311  0.0661  0.2029
 3097SOL    HW120927   0.740   1.308   7.634 -0.5428  0.7915  0.0640
 3097SOL    HW220928   0.744   1.421   7.728 -0.0770  0.0353 -0.7334
 3098SOL     OW20929   3.920   0.693  11.475 -0.4638  0.2738 -0.0356
 3098SOL    HW120930   3.984   0.637  11.519  1.7889  2.3994 -0.6165
 3098SOL    HW220931   3.936   0.770  11.529 -0.2904 -0.3250  0.7653
 3099SOL     OW20932   4.495   2.265   0.849 -0.0294  0.2572 -0.1094
 3099SOL    HW120933   4.487   2.291   0.758  1.8600 -0.6334 -0.5293
 3099SOL    HW220934   4.439   2.188   0.836 -1.4158  1.4554 -1.1659
 3100SOL     OW20935   2.012   4.330   0.843  0.2406 -0.0978  0.3524
 3100SOL    HW120936   2.001   4.342   0.937  0.6885  1.5822  0.2072
 3100SOL    HW220937   2.094   4.281   0.841 -0.6386 -1.5314 -0.1647
 3101SOL     OW20938   4.592   3.860   5.015 -0.2551 -0.6104 -0.0402
 3101SOL    HW120939   4.610   3.910   4.935  1.5028 -0.2513  0.5639
 3101SOL    HW220940   4.676   3.814   5.013  0.6978  1.1087  0.4068
 3102SOL     OW20941   3.655   1.753   4.290 -0.5681 -0.1591  0.3723
 3102SOL    HW120942   3.581   1.743   4.350 -0.0094  0.0681  1.1051
 3102SOL    HW220943   3.644   1.844   4.264  2.2555  0.4597  1.3683
 3103SOL     OW20944   4.229   2.131   8.168  0.2456  0.3243  0.0828
 3103SOL    HW120945   4.202   2.222   8.154 -0.3216  0.6767  3.5906
 3103SOL    HW220946   4.304   2.120   8.109  0.5367  0.3273  0.4560
 3104SOL     OW20947   4.581   1.270  15.643  0.0448 -0.2256 -0.5862
 3104SOL    HW120948   4.505   1.241  15.591 -0.1855  2.0465 -1.5235
 3104SOL    HW220949   4.646   1.244  15.578  1.3060 -0.6663  0.8579
 3105SOL     OW20950   4.620   1.239   4.819 -0.1208  0.3208 -0.1548
 3105SOL    HW120951   4.548   1.177   4.805 -1.9184  2.5494 -0.9128
 3105SOL    HW220952   4.638   1.250   4.726 -2.6372 -1.7821 -0.8788
 3106SOL     OW20953   2.265   0.254  11.690  0.3723 -0.0580  0.0783
 3106SOL    HW120954   2.248   0.185  11.755 -1.5317  1.2056  0.9395
 3106SOL    HW220955   2.359   0.241  11.677 -0.0426  0.4816 -3.4087
 3107SOL     OW20956   1.471   2.858   8.232  0.1850 -0.5305  0.1391
 3107SOL    HW120957   1.417   2.833   8.308 -0.3297  1.0375  0.2905
 3107SOL    HW220958   1.421   2.810   8.166 -1.7465  0.9994  0.4832
 3108SOL     OW20959   2.220   3.382   8.682  0.0459 -0.0350  0.3275
 3108SOL    HW120960   2.126   3.378   8.666  0.3265  0.3449 -1.4332
 3108SOL    HW220961   2.251   3.438   8.611 -0.4074 -1.3836 -0.9433
 3109SOL     OW20962   2.130   3.866   4.004 -0.2723  0.0878 -0.6307
 3109SOL    HW120963   2.165   3.802   3.941  0.0307  1.3007 -1.6804
 3109SOL    HW220964   2.061   3.820   4.052 -0.2013 -0.9071 -1.4785
 3110SOL     OW20965   1.320   3.149   6.935 -0.0474 -0.2539 -0.0920
 3110SOL    HW120966   1.359   3.232   6.963  0.4406 -0.0695 -1.2975
 3110SOL    HW220967   1.238   3.181   6.895 -0.0238 -0.3334 -0.2051
 3111SOL     OW20968   0.572   1.782  15.936 -0.1803  0.2994  0.1003
 3111SOL    HW120969   0.497   1.807  15.989  0.1686 -0.5442  0.9821
 3111SOL    HW220970   0.518   1.748  15.865  0.3610 -1.7024  0.6322
 3112SOL     OW20971   3.732   0.088   3.850 -0.1047 -0.0240  0.1467
 3112SOL    HW120972   3.704   4.732   3.860 -0.9457  0.4429  1.9888
 3112SOL    HW220973   3.676   0.121   3.780  1.0366  0.5632 -0.4914
 3113SOL     OW20974   1.042   1.463  12.350 -0.1782 -0.6526 -0.4752
 3113SOL    HW120975   1.122   1.482  12.400 -0.7769 -1.8095  0.9340
 3113SOL    HW220976   1.003   1.406  12.416  2.6825 -1.3237  0.6362
 3114SOL     OW20977   2.877   3.738   7.383  0.4996  0.4536 -0.5983
 3114SOL    HW120978   2.861   3.649   7.414  0.8709  0.3679 -0.6563
 3114SOL    HW220979   2.961   3.752   7.427  0.3194 -1.0958  0.2436
 3115SOL     OW20980   4.261   3.755  13.412  0.1805 -0.5534  0.5543
 3115SOL    HW120981   4.277   3.740  13.505  1.7530  0.3458  0.4266
 3115SOL    HW220982   4.174   3.795  13.410 -0.4686 -1.9767  0.0703
 3116SOL     OW20983   3.101   1.744  16.113  0.6339 -0.1493  0.2408
 3116SOL    HW120984   3.079   1.735  16.205  0.9367  0.4816  0.3754
 3116SOL    HW220985   3.156   1.668  16.097 -0.4237 -0.9727  0.4692
 3117SOL     OW20986   2.978   1.020   8.468  0.1967 -0.1578  0.6091
 3117SOL    HW120987   2.971   1.016   8.564  2.0712  2.4509  0.8371
 3117SOL    HW220988   2.994   0.928   8.446  0.6891 -0.3232  1.6482
 3118SOL     OW20989   0.519   3.045   1.655  0.2483 -0.4017  0.2675
 3118SOL    HW120990   0.498   3.132   1.688  1.2249  0.0208 -0.2307
 3118SOL    HW220991   0.546   2.998   1.735  0.7060 -0.3970  0.1182
 3119SOL     OW20992   2.295   2.926   4.126  0.3335 -0.1059  0.4325
 3119SOL    HW120993   2.315   3.003   4.179  0.7221 -0.0537  0.2120
 3119SOL    HW220994   2.383   2.895   4.103  0.4804  0.9217 -0.3904
 3120SOL     OW20995   0.349   3.034   9.362  0.1967  0.3587 -0.2673
 3120SOL    HW120996   0.420   2.970   9.359 -1.1069 -1.1453  0.9117
 3120SOL    HW220997   0.331   3.028   9.456 -1.3728  1.9451 -0.4490
 3121SOL     OW20998   3.201   0.551  10.871  0.1680 -0.3131 -0.7144
 3121SOL    HW120999   3.264   0.608  10.827 -0.3184  2.1463  1.7862
 3121SOL    HW221000   3.231   0.572  10.959 -0.1275  0.1353 -0.7238
 3122SOL     OW21001   0.829   0.137   2.467  0.0783 -0.2195  0.2730
 3122SOL    HW121002   0.862   0.056   2.427 -0.0867  0.4389 -1.1987
 3122SOL    HW221003   0.854   0.113   2.556  0.0275  1.4429  0.7362
 3123SOL     OW21004   2.497   0.246   5.100  0.4714  0.4296 -0.1218
 3123SOL    HW121005   2.478   0.289   5.016 -2.1454 -1.3667 -0.4511
 3123SOL    HW221006   2.434   0.287   5.160  0.4897 -0.0462  0.2178
 3124SOL     OW21007   3.387   2.856  13.327  0.2564  0.1477 -0.1199
 3124SOL    HW121008   3.372   2.796  13.253  0.6008 -1.4251  1.0738
 3124SOL    HW221009   3.375   2.943  13.289 -0.7715 -0.0215 -0.1876
 3125SOL     OW21010   2.504   0.655   4.946 -0.2507  0.4213 -0.3834
 3125SOL    HW121011   2.410   0.671   4.947 -0.5001 -1.0037 -1.5543
 3125SOL    HW221012   2.531   0.744   4.925 -0.3461  0.4467 -0.3972
 3126SOL     OW21013   4.154   3.936   8.189 -0.4390  0.1214  0.4531
 3126SOL    HW121014   4.174   3.959   8.279  0.2327 -0.3621  0.4209
 3126SOL    HW221015   4.068   3.894   8.198 -0.2055 -0.1261  1.5062
 3127SOL     OW21016   1.288   2.747   3.872  0.3718 -0.3821  0.1279
 3127SOL    HW121017   1.280   2.721   3.780 -0.7255  0.7638 -0.1044
 3127SOL    HW221018   1.230   2.824   3.873  0.5491 -0.2593  1.5727
 3128SOL     OW21019   1.890   2.621  10.181 -0.1854  0.1383 -0.4386
 3128SOL    HW121020   1.869   2.622  10.088  0.8131 -1.0715 -0.6681
 3128SOL    HW221021   1.817   2.671  10.217  0.9621  1.4362  0.1134
 3129SOL     OW21022   2.355   0.349   2.466  0.2101 -0.1301 -0.2588
 3129SOL    HW121023   2.369   0.383   2.554 -0.3093 -1.3056  0.2784
 3129SOL    HW221024   2.281   0.291   2.483  1.5773 -2.0240 -0.6741
 3130SOL     OW21025   2.885   4.476   4.014  0.0778 -0.2974 -0.4925
 3130SOL    HW121026   2.847   4.563   4.006  0.8376 -0.0338 -1.3671
 3130SOL    HW221027   2.953   4.476   3.946  0.4837  1.7213 -0.0774
 3131SOL     OW21028   1.780   4.148   8.124  0.1553  0.2022 -0.4608
 3131SOL    HW121029   1.757   4.171   8.034 -2.4342 -2.1770 -0.3842
 3131SOL    HW221030   1.698   4.180   8.160 -0.0902  0.2441 -1.0622
 3132SOL     OW21031   0.508   0.253   5.343 -0.7165  0.6934  0.8095
 3132SOL    HW121032   0.461   0.305   5.409  1.3298  0.2023  2.6298
 3132SOL    HW221033   0.434   0.215   5.295  0.3484 -2.1085  1.4179
 3133SOL     OW21034   2.847   2.452   5.604  0.5838 -0.6706  0.4010
 3133SOL    HW121035   2.779   2.386   5.596 -0.3378  0.1537  1.4476
 3133SOL    HW221036   2.845   2.468   5.699 -1.3202 -0.2649  0.2868
 3134SOL     OW21037   0.560   4.443   9.880  0.0275  0.1808 -0.1227
 3134SOL    HW121038   0.584   4.387   9.806  0.2226  1.8261 -1.3106
 3134SOL    HW221039   0.644   4.477   9.909 -0.3562  0.5372  0.5543
 3135SOL     OW21040   0.762   4.298   4.753 -0.7090 -0.4732  0.4710
 3135SOL    HW121041   0.734   4.344   4.674  0.0656  0.7355  0.8899
 3135SOL    HW221042   0.715   4.345   4.822  2.1835 -1.1385  2.9234
 3136SOL     OW21043   0.165   3.148   9.758  0.0024 -0.2689 -0.2098
 3136SOL    HW121044   0.209   3.228   9.785 -1.5876 -0.0927  1.8801
 3136SOL    HW221045   0.092   3.152   9.820 -0.9327 -0.8220 -1.2749
 3137SOL     OW21046   0.342   3.136   7.365 -0.9929  0.2696 -0.4301
 3137SOL    HW121047   0.278   3.189   7.411 -0.5081  1.5877 -1.2902
 3137SOL    HW221048   0.302   3.050   7.379  1.0774 -0.3352  1.9512
 3138SOL     OW21049   4.255   3.614   8.919  0.2991  0.5023  0.1495
 3138SOL    HW121050   4.343   3.644   8.941  1.0724 -1.1033 -0.7539
 3138SOL    HW221051   4.276   3.524   8.891  2.0613  1.2068 -0.7823
 3139SOL     OW21052   0.656   1.552   2.247  1.1122 -0.0304 -0.5216
 3139SOL    HW121053   0.704   1.479   2.208  0.9254 -0.0979 -0.6271
 3139SOL    HW221054   0.675   1.520   2.335  1.4654 -0.4720 -0.7610
 3140SOL     OW21055   1.433   4.205  15.652  0.1035  0.2077 -0.1621
 3140SOL    HW121056   1.353   4.226  15.603 -1.1368  1.2686  2.3132
 3140SOL    HW221057   1.485   4.267  15.602 -1.0567  0.6713 -0.8033
 3141SOL     OW21058   4.452   3.393   8.461  0.0483  0.5241  0.1959
 3141SOL    HW121059   4.528   3.380   8.403 -1.2960  0.2663 -1.5155
 3141SOL    HW221060   4.454   3.316   8.517  2.4639  0.5570  0.1411
 3142SOL     OW21061   1.588   3.939   2.126  0.7653  0.1566 -0.0770
 3142SOL    HW121062   1.603   4.007   2.191 -2.2392  3.4018 -2.7473
 3142SOL    HW221063   1.559   3.861   2.173 -1.8507  0.2442 -1.5231
 3143SOL     OW21064   1.819   0.891   1.799 -0.3144 -0.1352 -0.1662
 3143SOL    HW121065   1.760   0.966   1.790 -0.1669  0.0576  0.5108
 3143SOL    HW221066   1.785   0.835   1.869  1.2775 -2.4581 -1.2574
 3144SOL     OW21067   1.412   1.522   8.201  0.0857 -0.8045  0.0106
 3144SOL    HW121068   1.335   1.473   8.174 -2.1270  3.2519 -0.9781
 3144SOL    HW221069   1.396   1.604   8.155 -2.8191 -0.3099  1.9001
 3145SOL     OW21070   3.619   0.090   8.603  0.3308  0.1449  0.3250
 3145SOL    HW121071   3.564   0.168   8.606  0.4324  0.2556 -0.8633
 3145SOL    HW221072   3.556   0.038   8.553  0.2525 -0.6326  1.2211
 3146SOL     OW21073   0.601   0.597   5.686 -0.1130  0.5929  0.3543
 3146SOL    HW121074   0.577   0.686   5.660 -1.9767  0.3948  1.4287
 3146SOL    HW221075   0.609   0.620   5.778  0.1923 -2.0370  0.9988
 3147SOL     OW21076   1.371   1.348   7.654 -0.0829  0.1765  0.4864
 3147SOL    HW121077   1.421   1.267   7.650 -1.2499 -0.5935  1.2299
 3147SOL    HW221078   1.435   1.400   7.702  0.2028  0.2227  0.0512
 3148SOL     OW21079   0.299   3.768  17.676  0.0401 -0.0935  0.4415
 3148SOL    HW121080   0.277   3.736   0.025  0.3796 -1.3599  0.0612
 3148SOL    HW221081   0.357   3.837  17.706  1.2950 -0.1982 -1.7667
 3149SOL     OW21082   1.130   1.004   3.712  0.1067  0.7788 -0.3368
 3149SOL    HW121083   1.102   1.000   3.803  0.9778 -2.3067 -0.2069
 3149SOL    HW221084   1.192   1.076   3.724  1.1390  0.1792 -2.0746
 3150SOL     OW21085   1.671   2.330   8.049 -0.0474 -0.6220 -0.3887
 3150SOL    HW121086   1.763   2.337   8.072  0.0783  2.5218 -1.9221
 3150SOL    HW221087   1.628   2.377   8.121  1.2760 -0.4133  0.2624
 3151SOL     OW21088   1.693   1.862   6.396  0.4693  0.1384 -0.4118
 3151SOL    HW121089   1.751   1.786   6.398 -1.5410 -1.3244  1.7427
 3151SOL    HW221090   1.683   1.891   6.486 -0.5603 -1.0952 -0.1191
 3152SOL     OW21091   3.558   2.183   8.889  0.3722 -0.3008 -0.1009
 3152SOL    HW121092   3.468   2.208   8.910  0.1950 -0.9249 -0.1057
 3152SOL    HW221093   3.598   2.148   8.968  2.9586  0.3613 -1.1340
 3153SOL     OW21094   4.026   1.251   4.249  0.0299 -0.3710  0.3245
 3153SOL    HW121095   3.974   1.293   4.181  0.2202  0.3460  0.6284
 3153SOL    HW221096   3.963   1.199   4.299 -0.9629  0.1397 -0.4076
 3154SOL     OW21097   4.565   2.249  17.729 -0.2144 -0.3578  0.0191
 3154SOL    HW121098   4.573   2.183  17.660 -0.1890  1.3198 -1.6060
 3154SOL    HW221099   4.566   2.205   0.075 -1.1009  1.0267  0.7481
 3155SOL     OW21100   3.120   2.123   4.937 -0.2957 -0.6736  0.4597
 3155SOL    HW121101   3.183   2.160   4.998 -2.2284  0.8579  1.5223
 3155SOL    HW221102   3.123   2.029   4.952  0.5842 -0.7017  0.1100
 3156SOL     OW21103   3.820   3.751   7.128  0.2103 -0.5794 -0.2174
 3156SOL    HW121104   3.872   3.830   7.139 -1.2970  0.1668  1.3913
 3156SOL    HW221105   3.881   3.689   7.168 -0.3896 -2.0279 -1.5193
 3157SOL     OW21106   3.182   0.001   2.076 -0.8383  0.5288 -0.1892
 3157SOL    HW121107   3.248   0.061   2.041  0.6904 -1.1426 -0.1503
 3157SOL    HW221108   3.145   0.051   2.149 -0.7331  0.7471 -0.2849
 3158SOL     OW21109   4.500   3.006   5.139 -0.2862  0.4613  0.7699
 3158SOL    HW121110   4.441   2.985   5.066 -0.7391 -0.6050  1.4463
 3158SOL    HW221111   4.436   2.994   5.209  1.2848 -0.9575  1.9743
 3159SOL     OW21112   2.790   2.735   3.755  0.4068  0.6075  0.4165
 3159SOL    HW121113   2.753   2.672   3.817  0.8437  0.8913  0.9706
 3159SOL    HW221114   2.731   2.809   3.771  0.2781  0.6994 -0.4999
 3160SOL     OW21115   0.038   0.488   3.660 -0.1336 -0.1399  0.2579
 3160SOL    HW121116   4.679   0.471   3.652  0.1448 -1.9324  0.9661
 3160SOL    HW221117   0.080   0.404   3.645 -1.5416 -1.1693  2.0947
 3161SOL     OW21118   3.032   3.627   5.603  0.1576  0.1873  0.2129
 3161SOL    HW121119   3.087   3.549   5.595 -2.0592 -1.2327 -0.8543
 3161SOL    HW221120   2.947   3.594   5.630  0.3506  0.0138  0.6079
 3162SOL     OW21121   3.961   1.381  17.137  0.4908  0.4466 -0.0535
 3162SOL    HW121122   3.883   1.395  17.191  0.4255 -4.1395  1.0794
 3162SOL    HW221123   3.933   1.296  17.101  2.0371  0.6303 -1.7048
 3163SOL     OW21124   4.188   4.301   3.027 -0.4388  0.0531  0.0809
 3163SOL    HW121125   4.102   4.311   3.069 -0.6979 -1.1521 -0.1655
 3163SOL    HW221126   4.229   4.384   3.052 -2.4661  0.8585  0.8070
 3164SOL     OW21127   1.913   1.492   2.462 -0.1408 -0.3495 -0.7463
 3164SOL    HW121128   1.960   1.576   2.455  0.5051 -0.7277 -0.9518
 3164SOL    HW221129   1.983   1.428   2.472  0.0661 -0.2679 -1.7471
 3165SOL     OW21130   3.266   0.774   7.818 -0.0843 -0.4498  0.2052
 3165SOL    HW121131   3.187   0.816   7.785  0.1930 -0.2269 -0.1667
 3165SOL    HW221132   3.291   0.713   7.749  0.1600  0.7843 -0.7767
 3166SOL     OW21133   1.193   3.953  16.167  0.1685 -0.5913 -0.2293
 3166SOL    HW121134   1.192   4.034  16.115  1.8914 -0.1074  0.4884
 3166SOL    HW221135   1.278   3.918  16.139  0.4352  0.4021 -0.6683
 3167SOL     OW21136   3.163   4.508   4.946  0.1494  0.3766  0.0272
 3167SOL    HW121137   3.222   4.572   4.905  0.8200  0.5966  1.3512
 3167SOL    HW221138   3.149   4.441   4.878 -3.2208 -0.7173  1.7739
 3168SOL     OW21139   2.945   2.913   5.912  0.4466  0.1765 -0.6568
 3168SOL    HW121140   2.900   2.995   5.893 -2.1390 -0.8342  1.0656
 3168SOL    HW221141   2.995   2.919   5.831 -2.4437 -1.5758 -2.5701
 3169SOL     OW21142   1.242   1.372   5.921  0.1459  0.0970  0.3245
 3169SOL    HW121143   1.214   1.462   5.939 -2.2594 -1.0681  2.4153
 3169SOL    HW221144   1.181   1.320   5.973  0.3528 -1.6975 -1.2496
 3170SOL     OW21145   2.862   1.412  14.325 -0.1882  0.2539 -0.5959
 3170SOL    HW121146   2.919   1.381  14.395 -0.4262  1.2541  0.0374
 3170SOL    HW221147   2.887   1.504  14.335 -1.1186  0.7313 -2.6692
 3171SOL     OW21148   0.035   3.773   6.491 -0.5229  0.1606  0.0294
 3171SOL    HW121149   4.723   3.758   6.409  1.7696 -3.4553 -0.6167
 3171SOL    HW221150   0.016   3.865   6.509 -0.8641 -0.3080  2.1131
 3172SOL     OW21151   1.753   4.589   1.998 -0.1102 -0.7918  0.4989
 3172SOL    HW121152   1.760   4.526   1.926 -0.9669 -2.2056  1.6669
 3172SOL    HW221153   1.691   4.651   1.960  0.5454 -0.6220 -0.3029
 3173SOL     OW21154   0.697   0.379  16.748 -0.0712  0.2328  0.1382
 3173SOL    HW121155   0.709   0.395  16.842  2.5130 -0.4669 -0.0721
 3173SOL    HW221156   0.784   0.395  16.711  0.8391 -1.3069  1.5983
 3174SOL     OW21157   1.019   3.692   9.777 -0.3297 -0.2489 -0.1104
 3174SOL    HW121158   0.947   3.746   9.809  1.5326 -0.1345  3.8514
 3174SOL    HW221159   1.031   3.744   9.697  0.9786 -1.9225 -1.0185
 3175SOL     OW21160   3.303   0.403   6.646  0.0325 -0.1524  0.2288
 3175SOL    HW121161   3.268   0.380   6.732  1.4129  0.0708  0.8510
 3175SOL    HW221162   3.389   0.439   6.670 -0.4426  2.5491 -2.0962
 3176SOL     OW21163   1.115   3.358   4.142 -0.4121 -0.4639  0.4517
 3176SOL    HW121164   1.030   3.325   4.171  0.5343 -3.0974  0.1700
 3176SOL    HW221165   1.134   3.435   4.196  0.4852 -1.4580  1.5450
 3177SOL     OW21166   2.333   3.252   2.291 -0.7463  0.3255  0.0867
 3177SOL    HW121167   2.391   3.281   2.362 -1.1024 -0.1051  0.5472
 3177SOL    HW221168   2.328   3.158   2.309 -1.0236  0.5523  1.1539
 3178SOL     OW21169   2.223   0.516   7.250  0.3044 -0.4593  0.0174
 3178SOL    HW121170   2.164   0.545   7.180  0.0641 -0.6380  0.1462
 3178SOL    HW221171   2.295   0.484   7.196 -0.9006 -0.3450 -1.6733
 3179SOL     OW21172   2.923   3.670  14.881  0.0062  0.1975 -0.0021
 3179SOL    HW121173   2.916   3.764  14.895  0.5104  0.6072 -2.4645
 3179SOL    HW221174   2.937   3.660  14.787  0.5335 -1.7513  0.2919
 3180SOL     OW21175   3.344   2.772   2.343  0.2887  0.3537  0.6312
 3180SOL    HW121176   3.401   2.820   2.284  0.5279  0.3959  0.8997
 3180SOL    HW221177   3.301   2.833   2.403  1.5387  1.3713  0.4815
 3181SOL     OW21178   1.529   2.309  12.828 -0.0127  0.0315  0.2398
 3181SOL    HW121179   1.486   2.224  12.814 -2.2245  1.0530  0.7645
 3181SOL    HW221180   1.493   2.338  12.912  3.3700 -1.2370  2.1074
 3182SOL     OW21181   2.563   1.955   2.873 -0.1375 -0.2469  0.5569
 3182SOL    HW121182   2.520   2.002   2.944 -0.7922 -1.2927  0.8547
 3182SOL    HW221183   2.516   1.992   2.799  4.6590 -1.8860 -3.3283
 3183SOL     OW21184   4.322   3.370   2.582  0.0966 -0.3792 -0.1648
 3183SOL    HW121185   4.273   3.307   2.635 -1.7139  3.1657  2.2987
 3183SOL    HW221186   4.337   3.325   2.498  1.2692 -0.1844 -0.0643
 3184SOL     OW21187   3.889   4.070  14.838  0.3184  0.1433  0.7686
 3184SOL    HW121188   3.931   4.029  14.913  0.2666  1.9976  1.8160
 3184SOL    HW221189   3.960   4.113  14.790 -0.2912  0.9409  0.5779
 3185SOL     OW21190   1.912   0.956   2.893  0.1466  0.7038  0.2390
 3185SOL    HW121191   1.926   0.863   2.908 -0.0545  0.7006  0.4165
 3185SOL    HW221192   1.869   0.985   2.973 -0.5987  1.0379 -0.2821
 3186SOL     OW21193   1.360   3.175   1.666  0.3136 -0.1008 -0.5391
 3186SOL    HW121194   1.446   3.217   1.665 -0.1591  0.8793  1.9569
 3186SOL    HW221195   1.329   3.205   1.751  0.8397 -0.9711 -0.0497
 3187SOL     OW21196   0.535   3.960   4.503  0.1563 -0.5796 -1.0103
 3187SOL    HW121197   0.630   3.972   4.496  0.3446  0.7897  3.8977
 3187SOL    HW221198   0.492   4.037   4.466  1.8677 -0.3982 -2.6669
 3188SOL     OW21199   1.168   1.154   2.189  0.2753  0.9162  0.6185
 3188SOL    HW121200   1.195   1.233   2.236  0.6517  0.3102  1.4189
 3188SOL    HW221201   1.212   1.089   2.244 -3.0609  0.2426  2.5200
 3189SOL     OW21202   0.512   0.688   8.865  0.2714  0.3647  0.2670
 3189SOL    HW121203   0.532   0.600   8.896  0.7536  0.3531 -0.0739
 3189SOL    HW221204   0.597   0.709   8.826  0.7937 -2.1084  0.0822
 3190SOL     OW21205   0.421   0.956   3.624  0.4714 -0.8115  0.0319
 3190SOL    HW121206   0.420   0.865   3.594  2.1826 -0.7251 -0.3147
 3190SOL    HW221207   0.367   0.987   3.550  1.6554  1.5230  0.1490
 3191SOL     OW21208   2.081   1.105   4.181  0.4232 -0.3472 -0.8038
 3191SOL    HW121209   2.174   1.108   4.203  0.8262 -0.1600 -2.5598
 3191SOL    HW221210   2.055   1.197   4.178 -1.2639 -0.6546  3.4560
 3192SOL     OW21211   4.453   1.184   4.104  0.0229  0.0111 -0.4428
 3192SOL    HW121212   4.376   1.129   4.115  0.7937 -1.0903 -0.5221
 3192SOL    HW221213   4.474   1.184   4.010 -0.4840 -1.1926 -0.5523
 3193SOL     OW21214   1.732   3.136   5.625 -0.3010  0.2482 -0.0490
 3193SOL    HW121215   1.719   3.056   5.574  0.6671 -0.2674  0.5078
 3193SOL    HW221216   1.816   3.121   5.669 -0.8898  1.1697  1.4031
 3194SOL     OW21217   1.553   0.978  13.293 -0.2999 -0.2697  0.3518
 3194SOL    HW121218   1.555   0.932  13.209 -2.4732  2.4790 -1.1992
 3194SOL    HW221219   1.600   0.915  13.349  0.5449  0.0556 -0.0020
 3195SOL     OW21220   3.808   1.243   3.319 -0.2239 -0.5815 -0.4903
 3195SOL    HW121221   3.798   1.335   3.343 -0.3791 -0.9429  0.8427
 3195SOL    HW221222   3.722   1.202   3.337 -1.1988  1.9358  0.5462
 3196SOL     OW21223   3.069   4.446   2.788  0.4049 -0.6576 -0.5592
 3196SOL    HW121224   3.092   4.537   2.803  0.0169 -0.4962 -0.9324
 3196SOL    HW221225   3.146   4.396   2.815  0.9010  0.0642 -0.6549
 3197SOL     OW21226   0.258   2.947   4.973 -0.3583  0.0783  0.1667
 3197SOL    HW121227   0.306   3.020   4.936  0.4877 -1.0336 -0.9379
 3197SOL    HW221228   0.185   2.987   5.020  0.6761  0.1860  1.6738
 3198SOL     OW21229   1.732   2.686   1.815  0.5981 -0.5385 -0.0797
 3198SOL    HW121230   1.821   2.666   1.843  0.3804  3.0480  3.2275
 3198SOL    HW221231   1.711   2.615   1.754 -0.0961  0.0131 -0.4959
 3199SOL     OW21232   0.757   1.452   2.483 -0.0277  0.1616 -0.6049
 3199SOL    HW121233   0.765   1.511   2.557  1.9264 -0.0465 -0.6311
 3199SOL    HW221234   0.851   1.443   2.464  0.7132  2.6273  1.9793
 3200SOL     OW21235   4.052   2.190   7.480 -0.1776 -0.7149 -0.7775
 3200SOL    HW121236   4.018   2.112   7.437  1.0699 -0.8628 -1.5089
 3200SOL    HW221237   3.986   2.258   7.465  0.1655 -0.1973  0.0761
 3201SOL     OW21238   3.761   1.115   5.353 -0.3715 -0.3300 -0.6766
 3201SOL    HW121239   3.742   1.169   5.430 -0.3544 -2.0785  0.5726
 3201SOL    HW221240   3.857   1.112   5.359 -0.4843  0.9426  1.6563
 3202SOL     OW21241   2.387   3.198  13.181  0.8059 -0.9457  0.2119
 3202SOL    HW121242   2.301   3.176  13.144  0.0864  1.0631  0.6877
 3202SOL    HW221243   2.422   3.111  13.202 -1.2766 -1.4787  1.5213
 3203SOL     OW21244   0.768   3.627   1.980 -0.1608 -0.1280 -0.2518
 3203SOL    HW121245   0.693   3.675   1.945 -0.2318 -0.6503 -0.8026
 3203SOL    HW221246   0.807   3.602   1.897  1.1914 -0.3214  0.4450
 3204SOL     OW21247   3.524   2.701   5.358 -0.1943 -0.1908  0.5621
 3204SOL    HW121248   3.607   2.741   5.331 -1.1856  1.5776  0.1371
 3204SOL    HW221249   3.542   2.607   5.357  1.3148  0.0626  2.1399
 3205SOL     OW21250   0.899   1.427   2.175 -0.0529 -0.1406 -0.3159
 3205SOL    HW121251   0.913   1.441   2.082  2.5210  1.1836  0.2551
 3205SOL    HW221252   0.964   1.486   2.213 -0.4318  0.9143 -1.3096
 3206SOL     OW21253   3.692   1.841   7.827 -0.1502 -0.2584  0.0567
 3206SOL    HW121254   3.775   1.887   7.843 -1.1886  1.0969  1.5140
 3206SOL    HW221255   3.629   1.878   7.889  1.4212  2.7271 -0.1088
 3207SOL     OW21256   4.475   0.372   8.081  0.3793  0.3494 -0.1060
 3207SOL    HW121257   4.560   0.330   8.066 -0.6287 -1.3741 -0.8764
 3207SOL    HW221258   4.423   0.352   8.003  1.1690  0.1692 -0.5867
 3208SOL     OW21259   1.354   3.010   2.060 -0.1356 -0.6510 -0.3946
 3208SOL    HW121260   1.417   3.058   2.006  1.0849 -3.0902 -1.1844
 3208SOL    HW221261   1.407   2.936   2.090  0.1646  0.0355  0.7315
 3209SOL     OW21262   0.166   0.289   6.370 -0.2261 -0.4109  0.5505
 3209SOL    HW121263   0.112   0.322   6.442  1.0039  0.5759  1.0382
 3209SOL    HW221264   0.185   0.201   6.403  3.6325  0.3147  0.2529
 3210SOL     OW21265   2.603   4.016  12.511 -0.3208 -0.0651  0.7187
 3210SOL    HW121266   2.588   4.110  12.500  0.4442 -0.1193 -0.8328
 3210SOL    HW221267   2.697   4.010  12.498 -0.2027  1.1464  1.1202
 3211SOL     OW21268   2.809   4.569   7.863  0.0626  0.4420  0.4522
 3211SOL    HW121269   2.836   4.655   7.893  0.3510  0.5033  0.0083
 3211SOL    HW221270   2.848   4.515   7.932  2.4396  1.9432  0.2777
 3212SOL     OW21271   0.170   1.354   5.293 -0.1058 -0.2601 -0.9847
 3212SOL    HW121272   0.146   1.357   5.200  2.0764  1.0306 -1.5003
 3212SOL    HW221273   0.143   1.444   5.316  0.5793 -0.3508  0.1846
 3213SOL     OW21274   2.688   4.512  12.971 -0.4520 -0.5030  0.6248
 3213SOL    HW121275   2.760   4.467  13.016 -0.0735 -0.3946  0.1337
 3213SOL    HW221276   2.740   4.584  12.934  1.3681 -1.5023  1.2371
 3214SOL     OW21277   1.878   4.542   8.412 -0.2850  0.0535 -0.0796
 3214SOL    HW121278   1.907   4.452   8.394 -0.4833  0.3297 -1.8077
 3214SOL    HW221279   1.955   4.582   8.371 -0.2303  0.7438  0.6965
 3215SOL     OW21280   3.957   1.787   8.495  0.2060 -0.2689  0.1091
 3215SOL    HW121281   3.913   1.720   8.548  1.5642 -0.2345  1.2760
 3215SOL    HW221282   3.993   1.849   8.558 -2.1295  1.7136 -0.5020
 3216SOL     OW21283   1.109   4.613   1.386  0.1878  0.0925 -0.0441
 3216SOL    HW121284   1.080   4.529   1.423 -1.6443  0.5096 -0.5589
 3216SOL    HW221285   1.184   4.626   1.445  1.5044 -2.9764 -1.0236
 3217SOL     OW21286   2.420   1.094   3.351  0.1229 -0.2453  0.1781
 3217SOL    HW121287   2.395   1.052   3.433  1.3009  2.7327  2.0592
 3217SOL    HW221288   2.515   1.101   3.361  0.2946 -1.8350 -0.3783
 3218SOL     OW21289   0.962   2.580   5.440  0.3157  0.7919  0.2826
 3218SOL    HW121290   1.021   2.583   5.516  1.1616  1.5347 -0.4020
 3218SOL    HW221291   0.878   2.578   5.487  0.9029 -0.9109  1.2874
 3219SOL     OW21292   0.737   4.189  11.817 -0.1559 -0.6805 -0.1241
 3219SOL    HW121293   0.705   4.193  11.907  2.8838  0.3183  0.9242
 3219SOL    HW221294   0.813   4.132  11.825 -0.1062 -0.5599  0.2407
 3220SOL     OW21295   2.105   2.054   8.177  0.0790  0.0578  0.2443
 3220SOL    HW121296   2.051   2.087   8.105 -0.2444 -0.5603  0.2018
 3220SOL    HW221297   2.180   2.003   8.146 -1.4591 -1.4672 -1.0315
 3221SOL     OW21298   2.875   3.844   4.519 -0.5661  0.0385 -0.0683
 3221SOL    HW121299   2.782   3.825   4.506  0.3607 -2.8489 -2.3337
 3221SOL    HW221300   2.883   3.928   4.475  1.4003 -2.4941 -4.5135
 3222SOL     OW21301   4.609   3.955  13.566  0.7467 -0.0842  0.6422
 3222SOL    HW121302   4.521   3.973  13.600  1.4105  0.4150  2.0763
 3222SOL    HW221303   4.626   4.036  13.518 -0.8927 -0.3799 -0.4315
 3223SOL     OW21304   0.688   1.800   2.983  0.0629  0.0553 -0.3086
 3223SOL    HW121305   0.680   1.849   3.065 -0.9897 -0.1543 -0.2840
 3223SOL    HW221306   0.594   1.796   2.964  0.4316  0.1616 -2.1808
 3224SOL     OW21307   0.678   3.505  15.869 -0.0346 -0.3596 -0.6152
 3224SOL    HW121308   0.667   3.600  15.868  0.3652 -0.3008  0.9902
 3224SOL    HW221309   0.591   3.467  15.882  0.3215 -1.6361 -1.9317
 3225SOL     OW21310   0.433   2.998   3.716 -0.5349 -0.2976  0.5225
 3225SOL    HW121311   0.342   2.976   3.696 -0.4778  1.1075 -1.2521
 3225SOL    HW221312   0.428   3.091   3.738  1.2751 -0.7199  2.7222
 3226SOL     OW21313   3.534   4.648   8.204 -0.1924  0.0997  0.0942
 3226SOL    HW121314   3.491   4.686   8.281 -2.3494  0.3920 -1.2836
 3226SOL    HW221315   3.496   4.693   8.129 -1.2661 -2.5829 -0.9776
 3227SOL     OW21316   2.623   2.346   2.296 -0.1061  0.6033  0.3774
 3227SOL    HW121317   2.718   2.334   2.293 -0.2691 -0.4858 -0.3465
 3227SOL    HW221318   2.618   2.361   2.390  1.0704 -0.6379  0.6263
 3228SOL     OW21319   0.339   0.490  16.496 -0.0508 -0.6499  0.2327
 3228SOL    HW121320   0.428   0.455  16.496  0.4856  0.7224 -1.1607
 3228SOL    HW221321   0.353   0.579  16.531  0.8592 -0.7276  0.0573
 3229SOL     OW21322   4.068   0.463   9.040  0.2697 -0.2004 -0.3024
 3229SOL    HW121323   4.153   0.469   9.085 -0.2783 -1.4890  0.9174
 3229SOL    HW221324   4.063   0.373   9.008  0.3205  0.5375 -2.3741
 3230SOL     OW21325   0.440   2.234   2.585  0.0097  0.2498 -0.3870
 3230SOL    HW121326   0.483   2.201   2.507  1.4603 -1.8701  1.2938
 3230SOL    HW221327   0.495   2.309   2.608  0.2653  0.1893 -0.8075
 3231SOL     OW21328   0.364   1.898   9.392  0.2353 -0.7754  0.8348
 3231SOL    HW121329   0.329   1.832   9.333  0.3905 -0.0480 -0.0814
 3231SOL    HW221330   0.330   1.972   9.342  0.2804 -1.2905  0.0621
 3232SOL     OW21331   0.740   4.029   6.405  0.4255 -0.1603 -0.9356
 3232SOL    HW121332   0.775   3.952   6.451  0.3658  1.2289  1.4093
 3232SOL    HW221333   0.653   3.995   6.381  1.3551 -3.1677 -0.0956
 3233SOL     OW21334   0.750   2.141   4.779  0.2232  0.2111  0.4342
 3233SOL    HW121335   0.789   2.094   4.706  1.4194  0.1351  1.1192
 3233SOL    HW221336   0.662   2.162   4.748 -0.3247 -2.9192 -0.0594
 3234SOL     OW21337   3.349   0.335  12.303  0.5487 -0.3384  0.3038
 3234SOL    HW121338   3.408   0.266  12.333  0.9736  0.2087  0.7213
 3234SOL    HW221339   3.290   0.332  12.378 -0.6805 -2.2921 -0.7116
 3235SOL     OW21340   2.944   2.807   1.532  0.3639  0.0435  0.0354
 3235SOL    HW121341   2.970   2.722   1.497  1.7208  0.3047  0.4079
 3235SOL    HW221342   2.889   2.845   1.463 -0.5167  2.0608  1.8616
 3236SOL     OW21343   2.013   2.560   4.459 -0.1800  0.4657  0.1704
 3236SOL    HW121344   1.972   2.568   4.545  1.0835  1.8029  0.6523
 3236SOL    HW221345   1.932   2.564   4.408 -0.4991  1.3138  0.7450
 3237SOL     OW21346   1.001   2.418   4.320  0.2168 -0.1623  0.3959
 3237SOL    HW121347   1.095   2.422   4.304  0.5964 -1.7666  2.2022
 3237SOL    HW221348   0.969   2.444   4.233  0.5061 -0.9423  0.0559
 3238SOL     OW21349   3.130   2.461   2.032  0.1206 -0.1546 -0.2177
 3238SOL    HW121350   3.149   2.433   2.122  2.1805 -2.4844 -1.3651
 3238SOL    HW221351   3.061   2.400   2.007 -0.6236 -1.2725  4.6390
 3239SOL     OW21352   3.579   0.597  10.548  0.2286 -0.4539 -0.0174
 3239SOL    HW121353   3.646   0.598  10.478 -1.7311 -1.1914 -1.9028
 3239SOL    HW221354   3.575   0.503  10.565  1.3823 -0.7483 -1.2640
 3240SOL     OW21355   3.670   1.667  17.010  0.6084  0.4544 -0.2245
 3240SOL    HW121356   3.704   1.595  16.957 -1.7596 -0.1691 -0.8956
 3240SOL    HW221357   3.741   1.730  16.997 -0.5466  1.5331 -1.2787
 3241SOL     OW21358   3.189   0.927   6.355 -0.6566  0.2265 -0.6207
 3241SOL    HW121359   3.204   0.883   6.272 -1.1480 -0.3430 -0.4119
 3241SOL    HW221360   3.225   1.014   6.340  0.4275  0.1118  1.3189
 3242SOL     OW21361   3.469   3.353  16.452  0.4881  0.1130 -0.2042
 3242SOL    HW121362   3.521   3.420  16.496 -1.1119  0.7375  0.7202
 3242SOL    HW221363   3.493   3.361  16.359  2.5757  1.3587  0.4374
 3243SOL     OW21364   1.124   3.608   3.674 -0.0326 -0.3461 -0.0686
 3243SOL    HW121365   1.161   3.586   3.759 -0.7855  1.0151  0.6086
 3243SOL    HW221366   1.208   3.639   3.640  0.7819 -0.1728  2.1170
 3244SOL     OW21367   2.426   4.551  15.585 -0.4389 -0.2043  0.1437
 3244SOL    HW121368   2.457   4.528  15.498  0.0273 -0.4010  0.3582
 3244SOL    HW221369   2.475   4.490  15.640  0.8935 -0.0870 -0.9002
 3245SOL     OW21370   0.062   3.740  13.927  0.1934 -0.2625 -0.3027
 3245SOL    HW121371   0.149   3.700  13.929  0.7523  1.0107  0.7566
 3245SOL    HW221372   0.060   3.752  14.022  1.1361 -2.2857 -0.0280
 3246SOL     OW21373   2.228   3.011   6.541 -0.0381 -0.0856 -0.0549
 3246SOL    HW121374   2.247   3.072   6.612 -0.2931  0.4954 -0.4810
 3246SOL    HW221375   2.260   3.061   6.466 -1.8770  0.8020 -0.2483
 3247SOL     OW21376   2.090   3.608  16.266  0.2419 -0.2809 -0.2766
 3247SOL    HW121377   2.157   3.544  16.241 -1.4997 -1.7500 -1.0947
 3247SOL    HW221378   2.073   3.651  16.182 -1.3312  1.4455  0.9043
 3248SOL     OW21379   4.115   2.955   0.931  0.4360  0.3420 -0.3384
 3248SOL    HW121380   4.184   2.903   0.971  0.2819 -0.1241 -0.6908
 3248SOL    HW221381   4.074   2.981   1.014 -1.3056 -2.1425 -0.4254
 3249SOL     OW21382   2.667   2.376  11.944 -0.1191 -0.3113 -0.3459
 3249SOL    HW121383   2.737   2.322  11.982  0.5220 -0.4760 -1.7696
 3249SOL    HW221384   2.705   2.464  11.946 -0.4045 -0.2389  1.9961
 3250SOL     OW21385   3.606   0.881   2.360  0.4167 -0.2898  0.5469
 3250SOL    HW121386   3.580   0.923   2.278  3.4771  0.1827 -0.1571
 3250SOL    HW221387   3.554   0.800   2.358  1.0996 -0.7532  1.9085
 3251SOL     OW21388   4.566   0.231  11.852 -0.2604  0.0685 -0.3692
 3251SOL    HW121389   4.611   0.316  11.850  1.3327 -0.7799 -0.9364
 3251SOL    HW221390   4.632   0.179  11.806  1.6692  1.3851  0.8741
 3252SOL     OW21391   2.486   3.491   8.134  0.5117 -0.0618 -0.2362
 3252SOL    HW121392   2.489   3.531   8.221 -0.0716  1.4578 -0.9086
 3252SOL    HW221393   2.432   3.549   8.080 -0.1721 -1.4212 -1.0256
 3253SOL     OW21394   2.749   3.070   2.047  0.1515 -0.3555 -0.3155
 3253SOL    HW121395   2.667   3.054   2.093  1.7211 -4.0817  1.1438
 3253SOL    HW221396   2.759   3.159   2.081  0.4119 -1.1226  1.6197
 3254SOL     OW21397   0.812   3.931  12.610  0.2109  0.7619  0.1515
 3254SOL    HW121398   0.822   4.026  12.622 -0.2973  0.7537  0.6255
 3254SOL    HW221399   0.882   3.892  12.557 -2.4275 -1.4310 -1.7224
 3255SOL     OW21400   0.018   2.404   0.675  0.2835 -0.5040 -0.0483
 3255SOL    HW121401   4.696   2.477   0.652 -1.2149 -1.1452  1.6208
 3255SOL    HW221402   4.687   2.365   0.732 -0.2166 -0.8504 -0.8782
 3256SOL     OW21403   2.775   1.952  15.661 -0.0011  0.6384 -0.3080
 3256SOL    HW121404   2.826   1.986  15.734 -2.3639  1.1598  1.0785
 3256SOL    HW221405   2.698   2.009  15.659 -1.8163 -1.7456  1.4710
 3257SOL     OW21406   4.028   1.994   5.329  0.1268  0.0152  0.6032
 3257SOL    HW121407   3.992   2.083   5.327  0.4216  0.0783 -1.5512
 3257SOL    HW221408   3.948   1.941   5.330  1.1606 -1.5359  0.8706
 3258SOL     OW21409   3.970   3.077   3.165 -0.2554 -0.4378 -0.0221
 3258SOL    HW121410   3.936   3.000   3.120  1.1845 -1.3279  0.3912
 3258SOL    HW221411   3.957   3.141   3.095  0.7463 -0.5516 -0.3187
 3259SOL     OW21412   0.698   3.431   2.203 -0.0901 -0.3562 -0.0889
 3259SOL    HW121413   0.743   3.475   2.131 -2.3484 -0.3011 -1.4809
 3259SOL    HW221414   0.689   3.502   2.266 -1.9112 -1.0337  0.4217
 3260SOL     OW21415   0.859   0.878  16.350  0.3359 -0.0518 -0.4392
 3260SOL    HW121416   0.909   0.888  16.269 -1.4676  2.7237 -1.2030
 3260SOL    HW221417   0.769   0.866  16.318 -0.0898  2.9961 -0.3791
 3261SOL     OW21418   0.054   1.465   8.864  0.3694 -0.0648 -0.2034
 3261SOL    HW121419   0.117   1.392   8.865  1.4816  0.8800 -1.4413
 3261SOL    HW221420   4.708   1.434   8.904  0.7922  0.5682  1.1427
 3262SOL     OW21421   3.936   3.827  12.799  0.1158 -0.4953 -0.5319
 3262SOL    HW121422   4.008   3.861  12.853 -1.4495 -0.1103  1.3258
 3262SOL    HW221423   3.869   3.821  12.868  0.2477  0.8195 -0.2871
 3263SOL     OW21424   0.301   3.605  10.633  0.2224 -0.0450  1.2293
 3263SOL    HW121425   0.240   3.574  10.566  0.8852  0.9964  0.1378
 3263SOL    HW221426   0.247   3.649  10.698  0.1971  1.6896  0.0287
 3264SOL     OW21427   1.438   4.504   2.044  0.1374 -0.3490 -0.1999
 3264SOL    HW121428   1.491   4.426   2.059  0.7959  0.7041  2.9519
 3264SOL    HW221429   1.473   4.530   1.959 -1.7521  0.4694 -0.7311
 3265SOL     OW21430   4.040   2.184   8.461  0.1792  0.2802  0.5548
 3265SOL    HW121431   3.972   2.177   8.394 -0.9744  0.8874  1.6838
 3265SOL    HW221432   4.113   2.137   8.421 -0.5380 -0.1419 -0.2505
 3266SOL     OW21433   1.272   4.573  16.536 -0.4096  0.2586  0.3453
 3266SOL    HW121434   1.234   4.485  16.533  0.9477 -0.2920 -0.7514
 3266SOL    HW221435   1.268   4.606  16.446 -1.3709  1.4677  0.8443
 3267SOL     OW21436   0.997   1.798  10.697 -0.0472 -0.0279  0.2375
 3267SOL    HW121437   1.053   1.745  10.753  1.6554  0.4500 -1.0269
 3267SOL    HW221438   1.031   1.778  10.610  0.9331  2.0929  0.1436
 3268SOL     OW21439   0.177   1.412   8.474 -0.2844 -0.2476 -0.0123
 3268SOL    HW121440   0.110   1.394   8.540 -1.1124 -1.5389 -1.1941
 3268SOL    HW221441   0.134   1.354   8.411  4.0307 -1.0886 -2.1591
 3269SOL     OW21442   0.748   2.420  17.671 -0.0882 -0.5817 -0.6844
 3269SOL    HW121443   0.844   2.428  17.673 -0.3765  2.5694  0.8370
 3269SOL    HW221444   0.713   2.505  17.645  1.2627  0.3514  0.5471
 3270SOL     OW21445   0.396   2.456   9.186  0.6752  0.2976  0.1976
 3270SOL    HW121446   0.482   2.416   9.180  1.2762  1.4215  1.2393
 3270SOL    HW221447   0.404   2.525   9.121 -0.7330  0.1860 -0.1047
 3271SOL     OW21448   3.146   3.494   6.711 -0.1344 -0.1546  0.8474
 3271SOL    HW121449   3.170   3.438   6.636 -1.1679  0.1646  0.2836
 3271SOL    HW221450   3.221   3.484   6.770  1.3041 -1.2300 -1.1377
 3272SOL     OW21451   1.746   2.214   6.666 -0.0818 -0.4244 -0.1904
 3272SOL    HW121452   1.675   2.258   6.714 -0.5091 -1.0338 -0.2516
 3272SOL    HW221453   1.803   2.289   6.655 -0.0365 -0.1026  2.2738
 3273SOL     OW21454   4.468   1.288   5.303 -0.1225  0.0852 -0.6601
 3273SOL    HW121455   4.536   1.291   5.235 -0.0101  1.7540 -0.4771
 3273SOL    HW221456   4.475   1.199   5.336  1.6263  0.2268 -0.6489
 3274SOL     OW21457   0.402   1.355   3.398 -0.2555 -0.5806  0.4078
 3274SOL    HW121458   0.439   1.327   3.482 -0.1053  1.6795  1.0772
 3274SOL    HW221459   0.379   1.446   3.417  0.6892 -0.3437  0.4426
 3275SOL     OW21460   1.081   1.929   7.319  0.0061 -0.1346  0.0861
 3275SOL    HW121461   1.001   1.885   7.290 -0.4810  0.7447  0.0855
 3275SOL    HW221462   1.135   1.857   7.349 -1.3723 -0.9334  0.6545
 3276SOL     OW21463   2.641   1.948   7.624  0.1498  0.0771 -0.0631
 3276SOL    HW121464   2.637   2.029   7.674  0.0055  1.5280 -2.3909
 3276SOL    HW221465   2.567   1.979   7.572 -0.3685 -1.2895 -0.1331
 3277SOL     OW21466   1.930   3.335   8.048 -0.1541  0.4703  0.3187
 3277SOL    HW121467   1.849   3.351   8.096  0.2315  3.9450 -0.1919
 3277SOL    HW221468   1.960   3.255   8.092  2.6163  1.5803  0.4499
 3278SOL     OW21469   2.799   2.818   4.966 -0.2195  0.2575 -0.0805
 3278SOL    HW121470   2.726   2.762   4.939 -1.0752  1.0226  0.6413
 3278SOL    HW221471   2.769   2.897   4.920 -1.5531  0.1263  0.5495
 3279SOL     OW21472   2.715   1.355   2.516  0.3483 -0.5579 -0.1818
 3279SOL    HW121473   2.781   1.300   2.558  2.1813  0.7292 -1.3612
 3279SOL    HW221474   2.741   1.436   2.560 -0.8621 -0.2441 -0.0522
 3280SOL     OW21475   1.134   1.781  17.600 -0.5670 -0.3347 -0.2484
 3280SOL    HW121476   1.150   1.805  17.691  1.2071  2.6035 -1.3236
 3280SOL    HW221477   1.218   1.800  17.558  0.0285 -0.0168  1.1036
 3281SOL     OW21478   0.427   0.827   5.397  0.1136  0.2435  0.4419
 3281SOL    HW121479   0.355   0.766   5.415 -1.1963  0.6117 -3.5313
 3281SOL    HW221480   0.401   0.849   5.307  0.0489 -1.3382  0.0656
 3282SOL     OW21481   1.751   0.880  17.353 -0.1976  0.4633  0.3621
 3282SOL    HW121482   1.659   0.874  17.378 -0.1091  1.0096  0.8277
 3282SOL    HW221483   1.765   0.787  17.333  1.0479  0.9248 -0.8779
 3283SOL     OW21484   4.676   2.233   6.625 -0.4633 -0.0888 -0.1697
 3283SOL    HW121485   4.606   2.189   6.579  0.9158 -0.2893 -2.0745
 3283SOL    HW221486   0.026   2.194   6.603 -0.5067  0.0722 -0.6135
 3284SOL     OW21487   3.966   0.927  11.651 -0.0131  0.1096 -0.6688
 3284SOL    HW121488   4.060   0.943  11.661  0.0336  0.2755 -1.4131
 3284SOL    HW221489   3.947   0.982  11.575 -3.5264  0.7251  0.6574
 3285SOL     OW21490   0.424   4.155  11.929 -0.4512  0.8890  0.3427
 3285SOL    HW121491   0.341   4.106  11.925 -0.4054  0.6126  2.7514
 3285SOL    HW221492   0.458   4.135  11.842 -0.6059  1.2545  0.1978
 3286SOL     OW21493   4.146   0.158   6.860  0.2792  0.1540  0.1870
 3286SOL    HW121494   4.237   0.163   6.833 -0.1033  1.1123 -0.8872
 3286SOL    HW221495   4.103   0.199   6.785  1.8409  1.5783  0.0737
 3287SOL     OW21496   0.239   0.437   5.227 -0.1150 -0.4630 -0.1395
 3287SOL    HW121497   0.232   0.532   5.238  1.6584 -0.2978 -0.3985
 3287SOL    HW221498   0.168   0.406   5.282  1.5914  0.3650  2.5090
 3288SOL     OW21499   1.627   1.142  13.963  0.2826  0.2258  0.2581
 3288SOL    HW121500   1.625   1.054  14.000  0.9282 -0.2094 -0.7367
 3288SOL    HW221501   1.662   1.193  14.036  2.6644  0.8481 -1.3082
 3289SOL     OW21502   1.950   1.131  17.603  0.1838 -0.0497  0.0359
 3289SOL    HW121503   2.006   1.202  17.571  0.0870 -0.0574 -0.1519
 3289SOL    HW221504   1.882   1.161  17.543  1.2638  0.8730 -0.7305
 3290SOL     OW21505   3.424   0.855   6.958  0.4496 -0.5722  0.2535
 3290SOL    HW121506   3.388   0.935   6.920 -2.5577 -1.6478  0.7716
 3290SOL    HW221507   3.341   0.807   6.965  0.7619 -1.1810 -0.2292
 3291SOL     OW21508   0.096   3.410   6.004 -0.3186 -0.0576  0.2367
 3291SOL    HW121509   0.101   3.492   5.955 -0.8045 -0.4327 -0.4411
 3291SOL    HW221510   0.098   3.431   6.097 -1.3683  0.6167  0.1062
 3292SOL     OW21511   3.792   0.432  14.928 -0.5879  0.8417 -0.4513
 3292SOL    HW121512   3.777   0.414  14.835  0.1456  0.4761 -0.4945
 3292SOL    HW221513   3.836   0.516  14.918  0.6548  0.1915 -0.4153
 3293SOL     OW21514   3.434   2.717   6.403  0.0389  0.1625 -0.2535
 3293SOL    HW121515   3.366   2.701   6.469 -1.5056  0.9807 -1.6232
 3293SOL    HW221516   3.493   2.782   6.441  0.4844 -0.2016 -0.3357
 3294SOL     OW21517   4.416   1.419   8.101  0.4109  0.1980  0.3826
 3294SOL    HW121518   4.372   1.340   8.130 -0.9285  0.5017 -0.8732
 3294SOL    HW221519   4.496   1.383   8.062  0.4780  0.3973  0.3357
 3295SOL     OW21520   4.308   1.229  12.412 -0.2824  0.3730 -0.3763
 3295SOL    HW121521   4.329   1.164  12.346 -3.1675 -1.2844  0.3211
 3295SOL    HW221522   4.387   1.240  12.464  0.1090  1.3139 -1.1787
 3296SOL     OW21523   0.431   3.195   3.248  0.0006 -0.2085 -0.5390
 3296SOL    HW121524   0.348   3.150   3.267 -0.6627  0.6465 -1.4658
 3296SOL    HW221525   0.412   3.281   3.284  1.0491  0.5953 -1.9103
 3297SOL     OW21526   3.110   3.345   5.101  0.5543  0.0544 -0.6804
 3297SOL    HW121527   3.019   3.316   5.110  0.1280  1.7065  0.4376
 3297SOL    HW221528   3.090   3.433   5.069  1.7286 -0.0748 -1.7544
 3298SOL     OW21529   3.280   3.564   8.685 -1.2447 -0.0665  0.1952
 3298SOL    HW121530   3.246   3.526   8.766 -1.7261 -0.0916 -0.0188
 3298SOL    HW221531   3.242   3.506   8.619  0.7332  0.7271 -1.6242
 3299SOL     OW21532   2.459   1.146   4.748 -0.2793 -0.4350  0.2100
 3299SOL    HW121533   2.511   1.225   4.765  0.9560 -1.6702  2.1483
 3299SOL    HW221534   2.371   1.183   4.757  0.2161  0.7042  0.3445
 3300SOL     OW21535   2.755   2.283  10.746 -0.1780  0.3224 -0.1005
 3300SOL    HW121536   2.719   2.305  10.832 -0.1149 -3.7904  1.0028
 3300SOL    HW221537   2.798   2.361  10.711  0.4168 -0.0559 -0.2166
 3301SOL     OW21538   2.170   4.671   6.072 -0.3504  0.3790 -0.2531
 3301SOL    HW121539   2.119   0.014   6.092 -1.1403  0.3998 -2.3117
 3301SOL    HW221540   2.147   4.599   6.131 -0.0915 -1.5259 -2.4499
 3302SOL     OW21541   3.405   3.419   9.313  0.2142 -0.3860  0.6480
 3302SOL    HW121542   3.477   3.482   9.311 -0.0306 -0.1288 -0.0507
 3302SOL    HW221543   3.372   3.432   9.402 -1.2200  0.0482  0.0520
 3303SOL     OW21544   0.693   4.140   6.766  0.9255 -0.0821 -0.0621
 3303SOL    HW121545   0.630   4.069   6.778  0.7860 -0.1146 -0.9600
 3303SOL    HW221546   0.655   4.189   6.692 -0.1993 -1.0738 -0.1456
 3304SOL     OW21547   0.624   2.406   2.695  0.3973 -0.2906  0.0859
 3304SOL    HW121548   0.601   2.469   2.763 -1.8438 -2.2126  1.1235
 3304SOL    HW221549   0.715   2.383   2.714  0.2566 -0.8472  0.0854
 3305SOL     OW21550   2.923   3.406   6.260 -0.2556  0.2301  0.3803
 3305SOL    HW121551   2.892   3.451   6.182  1.4858  0.3268 -0.2574
 3305SOL    HW221552   2.878   3.323   6.245  2.4531 -1.3061  0.6652
 3306SOL     OW21553   3.778   0.032  11.929  0.7248  0.0862  0.0858
 3306SOL    HW121554   3.763   4.718  12.009  1.4299  0.0257  0.1818
 3306SOL    HW221555   3.800   0.114  11.974 -0.8427  0.6615 -0.1957
 3307SOL     OW21556   1.311   1.730  14.137 -0.2303  0.5257  0.1299
 3307SOL    HW121557   1.349   1.643  14.145  1.1011  0.9938 -1.0652
 3307SOL    HW221558   1.319   1.756  14.046  1.8055 -0.9456 -0.1089
 3308SOL     OW21559   2.433   4.426   3.520 -0.3952 -0.2047  0.9191
 3308SOL    HW121560   2.393   4.504   3.481 -2.5250 -2.3154 -1.1241
 3308SOL    HW221561   2.512   4.409   3.469  0.2260  0.2535  1.7190
 3309SOL     OW21562   3.456   0.622   3.787  0.0949  0.4631 -0.0087
 3309SOL    HW121563   3.412   0.536   3.787 -2.2745  1.6796 -1.9520
 3309SOL    HW221564   3.546   0.591   3.775  1.1322  2.8912  1.5918
 3310SOL     OW21565   4.649   3.223  16.792 -0.5578  0.3248 -0.3094
 3310SOL    HW121566   4.570   3.200  16.742 -0.2119  0.5077 -0.9366
 3310SOL    HW221567   4.653   3.136  16.831  0.1491  1.0643  1.2508
 3311SOL     OW21568   3.851   4.648   2.490  0.4207 -0.1415 -0.4674
 3311SOL    HW121569   3.858   4.706   2.566  1.4193 -0.5747 -0.2189
 3311SOL    HW221570   3.865   4.567   2.539  2.8197 -0.0840 -1.0600
 3312SOL     OW21571   1.938   0.283   8.781  0.1553  0.3823 -0.2645
 3312SOL    HW121572   1.901   0.246   8.701 -0.9086 -0.6928  0.7285
 3312SOL    HW221573   1.892   0.242   8.854 -0.3233 -1.6744 -1.7183
 3313SOL     OW21574   0.287   1.564   7.916 -0.0138  0.4500 -0.0353
 3313SOL    HW121575   0.375   1.566   7.955 -0.2755  2.9945  0.3895
 3313SOL    HW221576   0.255   1.648   7.949 -3.0178 -0.4382 -0.6590
 3314SOL     OW21577   0.712   1.103   8.532 -0.4116  0.0693 -0.3767
 3314SOL    HW121578   0.628   1.125   8.570 -1.1176 -0.6471 -1.5176
 3314SOL    HW221579   0.701   1.131   8.441  1.2039 -1.0416 -0.9277
 3315SOL     OW21580   1.125   3.146   2.100 -0.3222  0.1279  0.1660
 3315SOL    HW121581   1.097   3.093   2.025  1.3553 -0.3302 -0.1498
 3315SOL    HW221582   1.205   3.096   2.114  0.2648  0.7174 -1.0465
 3316SOL     OW21583   4.289   2.276   6.663  0.6232  0.3342 -0.0018
 3316SOL    HW121584   4.348   2.215   6.619  0.0093 -0.5750  0.4226
 3316SOL    HW221585   4.346   2.351   6.680  0.5015 -0.0895  2.2805
 3317SOL     OW21586   0.210   3.246   2.956 -0.0694 -0.1146  0.3501
 3317SOL    HW121587   0.264   3.167   2.966  0.6120  0.3568  0.3828
 3317SOL    HW221588   0.279   3.312   2.949 -0.6577  0.8823  3.7515
 3318SOL     OW21589   0.406   1.262  10.292 -0.5412  0.0065 -0.1892
 3318SOL    HW121590   0.392   1.322  10.366 -1.0403  0.0137 -0.2943
 3318SOL    HW221591   0.338   1.298  10.236  0.6498  0.1300 -1.5307
 3319SOL     OW21592   1.478   4.660   9.674  0.0538  0.0168 -0.4293
 3319SOL    HW121593   1.395   4.708   9.677  0.8727  1.2797  2.7589
 3319SOL    HW221594   1.458   4.571   9.647 -0.6381 -0.1501  0.6581
 3320SOL     OW21595   4.441   1.807   5.087 -0.1284 -0.3690  0.2631
 3320SOL    HW121596   4.453   1.719   5.123  1.0137 -0.0350  0.6939
 3320SOL    HW221597   4.346   1.812   5.080 -0.1036  0.4082  0.5558
 3321SOL     OW21598   2.350   1.376   3.427  0.0753  0.2997 -0.1241
 3321SOL    HW121599   2.362   1.281   3.417  0.0210  0.2797 -0.0066
 3321SOL    HW221600   2.264   1.388   3.388 -0.4026 -1.2362  0.4221
 3322SOL     OW21601   2.257   1.337   5.747  0.3944  0.0899  0.6239
 3322SOL    HW121602   2.171   1.332   5.789  0.0060  2.0889  0.0569
 3322SOL    HW221603   2.229   1.324   5.656  2.3850  2.2423 -0.2989
 3323SOL     OW21604   3.654   3.939   4.577 -0.1054 -0.2135  0.0479
 3323SOL    HW121605   3.677   3.881   4.504  0.2600  0.6804 -0.5500
 3323SOL    HW221606   3.700   4.020   4.556 -0.0176 -0.1628  0.4426
 3324SOL     OW21607   0.831   2.998   6.836 -0.3644 -0.6123 -0.6775
 3324SOL    HW121608   0.809   2.918   6.788 -0.2340 -0.3880 -1.1087
 3324SOL    HW221609   0.776   2.994   6.914  3.3438  2.7630  2.0859
 3325SOL     OW21610   3.188   0.474   9.606 -0.4139  0.4297  0.0421
 3325SOL    HW121611   3.142   0.399   9.643  0.4633 -0.2903 -0.3385
 3325SOL    HW221612   3.173   0.457   9.513  0.9917 -1.6727  0.2120
 3326SOL     OW21613   2.631   0.857  15.874 -0.1232  0.0152 -0.1218
 3326SOL    HW121614   2.562   0.905  15.918  0.3938  2.0027 -1.5013
 3326SOL    HW221615   2.707   0.879  15.929 -0.5466  2.3275 -0.4627
 3327SOL     OW21616   1.009   2.115  13.052  0.1557 -0.3563 -0.4617
 3327SOL    HW121617   0.963   2.197  13.034  1.7377  0.5598 -0.3609
 3327SOL    HW221618   1.103   2.134  13.052 -0.2387  1.6089 -0.3567
 3328SOL     OW21619   3.547   4.424  16.907 -1.0063  0.2357  0.5129
 3328SOL    HW121620   3.600   4.363  16.855 -0.1086  0.8276  0.7207
 3328SOL    HW221621   3.577   4.405  16.996 -1.7177  0.1914  0.7453
 3329SOL     OW21622   1.064   0.217  10.660 -0.1011 -0.1882 -0.0895
 3329SOL    HW121623   0.969   0.228  10.667 -0.0817  0.7379 -1.3862
 3329SOL    HW221624   1.076   0.183  10.749  0.4980 -1.3948 -0.6355
 3330SOL     OW21625   3.464   4.234   5.828  0.7309 -0.2367  0.5188
 3330SOL    HW121626   3.385   4.192   5.793  1.3863  0.0854 -1.3708
 3330SOL    HW221627   3.447   4.258   5.919 -1.2464 -0.1882  0.1498
 3331SOL     OW21628   0.837   0.819   6.059  0.2638  0.0990 -0.4645
 3331SOL    HW121629   0.842   0.784   6.147 -2.2352  1.5857  0.2649
 3331SOL    HW221630   0.770   0.887   6.060 -0.0950 -0.2878  1.4820
 3332SOL     OW21631   0.217   3.345   7.739 -0.0718  0.1859 -0.6237
 3332SOL    HW121632   0.309   3.320   7.730  0.0316  0.4795 -0.3840
 3332SOL    HW221633   0.177   3.276   7.687 -0.7493  0.5195 -0.5455
 3333SOL     OW21634   1.633   1.971  17.200 -0.6472 -0.0511 -0.4957
 3333SOL    HW121635   1.625   2.066  17.212  2.0373 -0.2495  2.8023
 3333SOL    HW221636   1.602   1.968  17.110  0.2419  0.7364 -0.8261
 3334SOL     OW21637   4.487   3.427   4.828  0.3079 -0.6411  0.0206
 3334SOL    HW121638   4.484   3.421   4.923  1.7550 -1.3799  0.0172
 3334SOL    HW221639   4.396   3.408   4.805 -0.2077  1.1729  0.5607
 3335SOL     OW21640   2.663   1.371  14.134 -0.2478  0.5426  0.0194
 3335SOL    HW121641   2.709   1.377  14.050 -1.1042  4.1472 -0.1503
 3335SOL    HW221642   2.728   1.388  14.203 -1.5049 -0.6295  1.4957
 3336SOL     OW21643   4.651   0.899  16.243 -0.1120 -0.2597  0.6452
 3336SOL    HW121644   4.650   0.968  16.177 -4.5053 -0.9147  0.0251
 3336SOL    HW221645   4.696   0.950  16.310 -0.3353  2.1088 -1.0056
 3337SOL     OW21646   0.146   0.426   8.636 -0.3561 -0.1029 -0.2234
 3337SOL    HW121647   0.237   0.446   8.657 -0.5200  1.2435 -0.8304
 3337SOL    HW221648   0.144   0.347   8.690  2.2362  0.8884  1.2615
 3338SOL     OW21649   0.984   3.683  15.942  0.0578  0.1706 -0.6858
 3338SOL    HW121650   1.050   3.723  15.886 -1.2719 -0.1783 -2.4917
 3338SOL    HW221651   0.983   3.750  16.010  0.8870  1.3585 -1.8426
 3339SOL     OW21652   3.751   1.266  15.337  0.5843  0.2011 -0.3120
 3339SOL    HW121653   3.688   1.330  15.370  2.6728  1.7847  0.6042
 3339SOL    HW221654   3.776   1.309  15.254  0.4115 -1.3966 -1.1832
 3340SOL     OW21655   2.198   0.963   8.770 -0.3603 -0.3323  0.3034
 3340SOL    HW121656   2.204   1.052   8.804  0.8445 -0.0496 -0.6463
 3340SOL    HW221657   2.189   0.898   8.840 -0.9169 -0.4371  0.1387
 3341SOL     OW21658   2.877   0.382  12.680 -0.1611  0.4128  0.0656
 3341SOL    HW121659   2.833   0.369  12.764  2.1661 -1.9240  0.8974
 3341SOL    HW221660   2.876   0.296  12.639 -0.7775  0.7941 -0.7220
 3342SOL     OW21661   2.821   4.497   4.506  0.7186 -0.1243  0.4715
 3342SOL    HW121662   2.765   4.573   4.523  2.8016  1.4672  0.1745
 3342SOL    HW221663   2.798   4.486   4.414  0.4772 -0.8823  0.6154
 3343SOL     OW21664   0.397   4.169   1.342  0.1061  0.2526  0.4533
 3343SOL    HW121665   0.466   4.146   1.280  0.5557 -0.5070  1.2402
 3343SOL    HW221666   0.456   4.235   1.379 -1.1002 -0.4181  3.5867
 3344SOL     OW21667   1.121   0.402   2.976 -0.2187  0.2209  0.1933
 3344SOL    HW121668   1.082   0.389   2.890  1.1026  4.1144 -0.9709
 3344SOL    HW221669   1.191   0.337   2.972  1.3679  1.7959  2.4035
 3345SOL     OW21670   2.772   0.317   5.006  0.3158 -0.5836  0.7510
 3345SOL    HW121671   2.826   0.240   4.989  2.2684  1.0729 -0.5426
 3345SOL    HW221672   2.698   0.275   5.050 -1.7357  1.3608 -0.8201
 3346SOL     OW21673   2.517   0.024   4.889 -0.8995  0.1708  0.2324
 3346SOL    HW121674   2.509   0.088   4.959 -0.2922 -0.0846  0.5333
 3346SOL    HW221675   2.425   0.026   4.863 -0.7986  0.2881 -0.1096
 3347SOL     OW21676   0.556   4.255   7.547  0.3756 -0.7332 -0.1033
 3347SOL    HW121677   0.589   4.167   7.569 -1.1602 -1.4521 -0.7045
 3347SOL    HW221678   0.466   4.242   7.576  1.0726 -2.4777  1.3838
 3348SOL     OW21679   3.890   1.849  16.938 -0.0011  0.5006 -0.2780
 3348SOL    HW121680   3.857   1.936  16.915 -0.2730 -0.0953 -2.0495
 3348SOL    HW221681   3.890   1.809  16.852 -0.0206  0.3172 -0.1921
 3349SOL     OW21682   3.517   0.230   9.289  0.3380  0.1174  0.0072
 3349SOL    HW121683   3.472   0.245   9.206  0.5109  1.7455  0.2241
 3349SOL    HW221684   3.518   0.320   9.321  0.1176  0.2920 -0.4682
 3350SOL     OW21685   3.127   2.443   2.310 -0.4341  0.0762  0.5372
 3350SOL    HW121686   3.218   2.464   2.331  0.6980 -2.9982 -1.3167
 3350SOL    HW221687   3.102   2.462   2.400  0.1557  1.2908  0.4420
 3351SOL     OW21688   0.342   1.711   9.788 -0.1701  0.0222 -0.5673
 3351SOL    HW121689   0.406   1.661   9.738  0.8481  0.1646  0.5924
 3351SOL    HW221690   0.357   1.795   9.744 -0.0279 -0.8110 -2.1151
 3352SOL     OW21691   3.095   1.388  17.322 -0.0105  0.9418  0.0127
 3352SOL    HW121692   3.000   1.390  17.327 -0.1113 -1.8723 -0.5322
 3352SOL    HW221693   3.115   1.434  17.241 -1.1337  1.8895  0.2720
 3353SOL     OW21694   1.726   3.441   9.101  0.3170  0.5204 -0.1369
 3353SOL    HW121695   1.689   3.524   9.130  2.3464  1.2669  0.3167
 3353SOL    HW221696   1.725   3.389   9.181 -0.4149  0.2886 -0.3013
 3354SOL     OW21697   4.692   3.434   6.949 -0.1790 -0.4062  0.6027
 3354SOL    HW121698   4.697   3.411   7.042 -0.0650  0.4979  0.8201
 3354SOL    HW221699   4.654   3.521   6.950 -1.1433 -0.8086 -0.6056
 3355SOL     OW21700   1.943   1.353   5.786  0.0018 -0.2566  0.0816
 3355SOL    HW121701   1.966   1.395   5.869 -0.8173 -2.2794  1.3282
 3355SOL    HW221702   1.876   1.288   5.805 -0.0629  0.5025  2.5086
 3356SOL     OW21703   2.625   3.960   8.704  0.2842  0.2769 -0.0776
 3356SOL    HW121704   2.609   3.982   8.612  0.4995  0.5637 -0.0450
 3356SOL    HW221705   2.548   4.004   8.740  0.6493  0.5480  0.3663
 3357SOL     OW21706   1.885   1.964   6.192  0.8219 -0.1399 -0.1383
 3357SOL    HW121707   1.937   1.884   6.200 -0.8642 -1.4234 -1.9087
 3357SOL    HW221708   1.802   1.955   6.238  0.6274 -2.5041 -0.9581
 3358SOL     OW21709   0.442   3.374  15.942  0.1695 -0.1778 -0.7436
 3358SOL    HW121710   0.368   3.433  15.927  0.8867  0.9726  0.2462
 3358SOL    HW221711   0.429   3.291  15.895 -0.4437 -1.3814  1.5563
 3359SOL     OW21712   3.267   2.810   3.682  0.3861  0.1397 -0.2023
 3359SOL    HW121713   3.289   2.856   3.763  0.7614  1.4916 -1.0816
 3359SOL    HW221714   3.183   2.766   3.699  0.4064  0.7041  1.3460
 3360SOL     OW21715   2.362   0.349  17.464  0.0255 -0.3014  0.3102
 3360SOL    HW121716   2.362   0.443  17.446  2.3207 -0.1993  0.8613
 3360SOL    HW221717   2.435   0.320  17.410 -0.2677 -0.1341 -0.1792
 3361SOL     OW21718   3.910   3.370   2.345  0.6897 -0.1533  0.3046
 3361SOL    HW121719   3.881   3.287   2.381 -0.8505 -0.1396 -0.9244
 3361SOL    HW221720   3.979   3.338   2.287 -2.0191 -1.5913 -2.0818
 3362SOL     OW21721   0.710   1.663  13.564 -0.1290  0.0378  0.3750
 3362SOL    HW121722   0.744   1.718  13.635  0.7094 -0.4171  0.3383
 3362SOL    HW221723   0.737   1.575  13.589 -0.0637 -0.1451 -0.3344
 3363SOL     OW21724   2.188   2.580   3.193  0.6453 -0.7300 -0.1162
 3363SOL    HW121725   2.271   2.619   3.168  0.3979  1.5661  2.6709
 3363SOL    HW221726   2.230   2.527   3.261  0.0270  0.0599  0.8792
 3364SOL     OW21727   0.247   2.767   3.639 -0.2132 -0.2951  0.0450
 3364SOL    HW121728   0.306   2.777   3.564 -2.4346 -3.2669 -2.0972
 3364SOL    HW221729   0.167   2.803   3.601 -0.9602 -0.9229  1.0138
 3365SOL     OW21730   2.003   4.478  13.492  0.1434  0.9353 -0.0060
 3365SOL    HW121731   1.989   4.439  13.406 -3.3312 -0.2488  1.1031
 3365SOL    HW221732   1.924   4.444  13.534  1.2067  1.5070  2.4385
 3366SOL     OW21733   3.455   1.364   2.727 -0.2437 -0.2313  0.7466
 3366SOL    HW121734   3.495   1.420   2.793 -0.2854  0.4519  0.1884
 3366SOL    HW221735   3.513   1.289   2.743  1.0855  0.6743  0.1235
 3367SOL     OW21736   3.835   0.395  11.868  0.5143  0.6323  0.4558
 3367SOL    HW121737   3.928   0.393  11.890  0.4445 -1.6704  0.4958
 3367SOL    HW221738   3.834   0.390  11.773 -3.5150 -0.4585  0.5496
 3368SOL     OW21739   0.334   1.233   0.567  0.0257 -0.3030 -0.0507
 3368SOL    HW121740   0.348   1.270   0.480  2.5226  0.5044  0.6799
 3368SOL    HW221741   0.280   1.296   0.614 -1.3131 -0.2500 -1.6700
 3369SOL     OW21742   3.499   0.229  15.800 -0.3890  0.0658 -0.0039
 3369SOL    HW121743   3.434   0.181  15.748 -0.8135  0.0937  0.5024
 3369SOL    HW221744   3.447   0.254  15.876  0.5944  0.0352  0.6782
 3370SOL     OW21745   4.168   4.136   9.942  0.0563 -0.5125 -0.0305
 3370SOL    HW121746   4.176   4.219   9.895 -1.2939 -1.0422 -1.1998
 3370SOL    HW221747   4.080   4.104   9.919 -0.1224 -0.7394  0.9434
 3371SOL     OW21748   3.151   0.394   5.210  0.1865  0.2103  0.0649
 3371SOL    HW121749   3.109   0.348   5.137  0.4286  3.3601 -2.0687
 3371SOL    HW221750   3.190   0.473   5.171 -1.5573 -0.1307 -2.3921
 3372SOL     OW21751   1.686   3.901   4.262 -0.2331 -0.1781 -0.4146
 3372SOL    HW121752   1.647   3.983   4.232 -0.4152 -0.6672 -1.4856
 3372SOL    HW221753   1.706   3.915   4.355 -0.6539 -0.8361 -0.2201
 3373SOL     OW21754   3.604   0.708   4.138 -0.2828  0.3077 -0.3848
 3373SOL    HW121755   3.620   0.745   4.051 -0.2155 -0.2865 -0.6240
 3373SOL    HW221756   3.537   0.641   4.127 -0.5539  0.8093 -1.7760
 3374SOL     OW21757   2.017   4.445   6.150 -0.2797  0.4486  0.1267
 3374SOL    HW121758   2.081   4.394   6.199 -1.2081 -0.2149  0.6467
 3374SOL    HW221759   1.930   4.411   6.168 -0.8517  3.8362  3.7066
 3375SOL     OW21760   1.374   3.832   6.466  0.3317 -0.1975  0.3969
 3375SOL    HW121761   1.306   3.771   6.496 -0.9280  1.0611  0.1277
 3375SOL    HW221762   1.324   3.895   6.414  1.5143 -0.6195 -1.2354
 3376SOL     OW21763   3.602   1.005  16.250  0.0798  0.1876 -0.0548
 3376SOL    HW121764   3.604   0.926  16.196 -3.9277  0.8307 -1.1096
 3376SOL    HW221765   3.672   1.054  16.206  0.3029 -1.0924 -1.1197
 3377SOL     OW21766   3.750   1.052   6.017  0.7355 -0.5207  0.0617
 3377SOL    HW121767   3.807   1.045   5.940 -0.5735 -1.7158 -0.7929
 3377SOL    HW221768   3.671   1.095   5.986  1.5034  1.0153  0.2629
 3378SOL     OW21769   4.111   4.467   6.239  0.4136  0.3811 -0.3109
 3378SOL    HW121770   4.068   4.418   6.168  1.4859 -0.1297 -0.6009
 3378SOL    HW221771   4.037   4.501   6.289 -0.0547  1.7368 -1.9156
 3379SOL     OW21772   0.800   4.658  12.894  0.8089 -0.4780  0.3182
 3379SOL    HW121773   0.874   4.620  12.941  1.5418  0.8348  0.2319
 3379SOL    HW221774   0.746   4.698  12.963 -1.8451 -0.4267 -1.7936
 3380SOL     OW21775   1.009   3.549  16.467  0.0270 -0.0054 -0.0410
 3380SOL    HW121776   1.080   3.608  16.492  0.0132 -0.4102  0.9354
 3380SOL    HW221777   1.057   3.469  16.488 -0.2606 -0.8546 -2.5935
 3381SOL     OW21778   1.231   1.385   2.006  0.2115 -0.6640 -0.8127
 3381SOL    HW121779   1.186   1.304   2.030 -0.1038 -0.7863 -1.8186
 3381SOL    HW221780   1.173   1.450   2.045  2.5582  1.5738 -1.0712
 3382SOL     OW21781   3.255   3.120  12.171 -0.2000 -0.0483  0.1505
 3382SOL    HW121782   3.284   3.139  12.260  0.1253  2.1499 -0.4433
 3382SOL    HW221783   3.316   3.047  12.155  1.7714  2.3120 -3.1054
 3383SOL     OW21784   1.721   3.331   7.324  0.1759 -0.1468 -0.1281
 3383SOL    HW121785   1.662   3.324   7.398 -0.0860 -0.1895 -0.3405
 3383SOL    HW221786   1.786   3.267   7.353  2.1295  2.8812  2.1190
 3384SOL     OW21787   0.856   3.155  16.431 -0.0069  0.2730 -0.3757
 3384SOL    HW121788   0.880   3.211  16.357 -1.3290 -0.0548 -1.0549
 3384SOL    HW221789   0.859   3.066  16.396  0.4391 -0.4054  1.4332
 3385SOL     OW21790   4.600   4.124   9.336 -0.3726 -0.7094 -0.3504
 3385SOL    HW121791   4.684   4.167   9.322 -0.8304  0.8270  1.6928
 3385SOL    HW221792   4.620   4.030   9.339 -0.3191 -0.6640  0.6912
 3386SOL     OW21793   1.644   3.035  15.607 -0.1864  0.2871 -0.0176
 3386SOL    HW121794   1.575   3.070  15.662 -1.7688 -2.2800 -0.3845
 3386SOL    HW221795   1.712   3.100  15.622 -0.5536  0.5148  0.6248
 3387SOL     OW21796   1.770   3.802   7.044  0.4811  0.3508  0.5746
 3387SOL    HW121797   1.777   3.713   7.081  1.9172 -0.0859 -0.7670
 3387SOL    HW221798   1.686   3.819   7.088  0.7759 -2.4990  2.2652
 3388SOL     OW21799   2.839   1.341  15.270  0.3361 -0.1112 -0.5651
 3388SOL    HW121800   2.898   1.372  15.339  0.1686 -2.6141  0.6966
 3388SOL    HW221801   2.770   1.407  15.271  0.1971 -0.2682 -0.0213
 3389SOL     OW21802   0.021   2.917   5.674  0.3578 -0.4848 -0.3758
 3389SOL    HW121803   0.041   2.850   5.608 -0.8844 -1.4975  0.2822
 3389SOL    HW221804   0.023   2.867   5.756 -0.5704  0.7357  0.4007
 3390SOL     OW21805   1.577   2.940   7.003 -0.7328 -0.3673  0.3530
 3390SOL    HW121806   1.587   3.034   7.018  1.0706 -0.5709  0.4542
 3390SOL    HW221807   1.483   2.948   6.992 -0.8630 -0.0856  1.6849
 3391SOL     OW21808   1.060   3.369   5.714  0.0996  0.4556 -0.2168
 3391SOL    HW121809   1.134   3.403   5.764 -0.2195  0.0507  0.5315
 3391SOL    HW221810   1.113   3.341   5.639  2.1403 -0.3532  1.5215
 3392SOL     OW21811   1.984   3.528  12.654 -0.2844  0.3170 -0.0547
 3392SOL    HW121812   1.930   3.462  12.698  0.2505  1.3397  2.1264
 3392SOL    HW221813   1.941   3.544  12.570 -1.3810 -2.9582 -0.1284
 3393SOL     OW21814   1.881   3.647  15.109 -0.3231  0.1846 -0.2861
 3393SOL    HW121815   1.963   3.688  15.079  0.5016 -0.3038  1.2656
 3393SOL    HW221816   1.836   3.622  15.029  0.8710  1.6462 -1.4319
 3394SOL     OW21817   4.681   1.957   7.128 -0.3576  0.0588 -0.0720
 3394SOL    HW121818   4.730   1.875   7.118  0.3679  0.3939  0.7695
 3394SOL    HW221819   0.007   1.997   7.190 -1.7780  2.3700 -0.1846
 3395SOL     OW21820   2.667   3.186   8.258 -0.1424 -0.3735  0.3273
 3395SOL    HW121821   2.578   3.153   8.265 -0.8058  1.2535 -0.3355
 3395SOL    HW221822   2.658   3.260   8.318 -0.3043 -0.0578 -0.0806
 3396SOL     OW21823   1.280   0.654   7.954 -0.0753  0.4864  0.5265
 3396SOL    HW121824   1.312   0.583   8.010 -0.9480 -0.5330 -0.2731
 3396SOL    HW221825   1.241   0.601   7.884 -0.3890  1.1951  0.1624
 3397SOL     OW21826   2.493   3.027   3.626  0.0964 -0.2728 -0.3193
 3397SOL    HW121827   2.578   3.036   3.668 -1.0777 -1.8228  2.4098
 3397SOL    HW221828   2.433   3.005   3.698  0.7755  0.4805  0.4765
 3398SOL     OW21829   2.966   4.302   3.233  0.3793 -0.1803  0.2893
 3398SOL    HW121830   3.060   4.303   3.252  0.5776  1.4524 -0.7876
 3398SOL    HW221831   2.920   4.291   3.316  0.7699 -0.4843  0.4689
 3399SOL     OW21832   2.777   0.125   4.175 -0.4191 -0.4246  0.3180
 3399SOL    HW121833   2.729   0.205   4.155 -0.7241 -0.7441 -0.2471
 3399SOL    HW221834   2.700   0.069   4.187  1.1291 -2.8628 -1.0876
 3400SOL     OW21835   2.342   3.779   6.707 -1.2298 -0.0136  0.1262
 3400SOL    HW121836   2.399   3.707   6.682  0.5781  1.6142 -0.4343
 3400SOL    HW221837   2.343   3.835   6.630  0.6367 -0.0907  0.0880
 3401SOL     OW21838   2.446   1.657   7.958 -0.4564  0.1336  0.5069
 3401SOL    HW121839   2.471   1.569   7.932  0.3453  0.7132 -0.7143
 3401SOL    HW221840   2.528   1.705   7.972 -1.6835  2.8653 -1.6041
 3402SOL     OW21841   3.288   1.524  16.144 -0.0737  0.6822  0.3150
 3402SOL    HW121842   3.343   1.585  16.194 -2.6269  2.6267  0.7182
 3402SOL    HW221843   3.330   1.440  16.164 -1.0260  0.5988  1.9380
 3403SOL     OW21844   3.623   0.168  11.455  0.2632 -0.8448  0.7517
 3403SOL    HW121845   3.623   0.134  11.544  2.3369 -0.9696  0.6965
 3403SOL    HW221846   3.616   0.261  11.478 -1.0760 -0.4797 -1.1534
 3404SOL     OW21847   1.562   0.553   6.110 -0.2316 -0.4160 -0.5637
 3404SOL    HW121848   1.552   0.563   6.016 -1.7030  1.2787 -0.2436
 3404SOL    HW221849   1.503   0.479   6.119 -2.0019  0.7347 -2.8880
 3405SOL     OW21850   3.341   3.212   5.678 -0.3978 -0.2056 -0.4047
 3405SOL    HW121851   3.348   3.136   5.736  1.5168  1.6895  1.8866
 3405SOL    HW221852   3.430   3.248   5.674 -1.0422  1.3209 -0.8315
 3406SOL     OW21853   3.397   2.915   3.932  0.0989  0.3031 -0.2292
 3406SOL    HW121854   3.397   2.978   3.859 -0.5232  0.6156  0.0405
 3406SOL    HW221855   3.403   2.982   4.000  2.1546 -0.2888  0.1887
 3407SOL     OW21856   1.255   1.952   5.357 -0.8082 -0.5407 -0.8237
 3407SOL    HW121857   1.238   2.021   5.420  2.5554 -0.2260 -0.2603
 3407SOL    HW221858   1.196   1.887   5.395  0.6230 -0.6590  1.2651
 3408SOL     OW21859   0.096   0.326   2.216  0.4761  0.0203 -0.1382
 3408SOL    HW121860   0.102   0.271   2.294 -0.0965 -0.2090 -0.2585
 3408SOL    HW221861   0.162   0.281   2.162 -1.1723 -1.6065 -0.7935
 3409SOL     OW21862   2.138   4.339   3.520 -0.2614 -1.2067 -0.0273
 3409SOL    HW121863   2.226   4.336   3.557  0.5717  2.4185 -1.7252
 3409SOL    HW221864   2.159   4.301   3.435 -2.1842 -0.4540 -0.8491
 3410SOL     OW21865   1.914   4.444   4.096  0.1144  0.9172  0.5607
 3410SOL    HW121866   1.980   4.438   4.165 -2.2382 -1.0939  2.6357
 3410SOL    HW221867   1.899   4.538   4.096  1.1357  1.0778  2.3722
 3411SOL     OW21868   4.126   4.418  17.194 -0.1218 -0.4699 -0.4831
 3411SOL    HW121869   4.048   4.447  17.147  0.6553 -1.2909 -2.2568
 3411SOL    HW221870   4.093   4.377  17.274  0.5861 -0.5360 -0.2190
 3412SOL     OW21871   0.128   2.121   0.190 -0.2612  0.1126 -0.0239
 3412SOL    HW121872   0.111   2.040   0.143 -0.0047 -0.5345  1.0155
 3412SOL    HW221873   0.043   2.131   0.233  0.0988  3.1739  0.0202
 3413SOL     OW21874   4.096   1.868   7.665  0.5988 -0.6183  0.0313
 3413SOL    HW121875   4.125   1.936   7.604  1.7759  0.8601  2.2139
 3413SOL    HW221876   4.168   1.808   7.682  0.0302 -1.0320  0.9608
 3414SOL     OW21877   2.291   0.711  15.988  0.4397  0.3048 -0.5557
 3414SOL    HW121878   2.341   0.787  16.019  1.0347 -1.1998  2.2288
 3414SOL    HW221879   2.342   0.645  16.034 -1.5642 -0.6932  0.2096
 3415SOL     OW21880   0.506   2.030   4.989  0.5574 -0.8013  0.7833
 3415SOL    HW121881   0.528   1.953   4.937 -2.6509  0.5150 -2.5561
 3415SOL    HW221882   0.431   2.009   5.046  0.3059 -2.0007  0.0024
 3416SOL     OW21883   0.025   0.148   4.586  0.0668  0.2389 -0.1748
 3416SOL    HW121884   4.697   0.186   4.647  1.8503  0.3027  1.6486
 3416SOL    HW221885   0.098   0.210   4.591 -0.5524  0.9811 -0.3925
 3417SOL     OW21886   2.170   1.689   5.692  0.5369 -0.1553 -0.1213
 3417SOL    HW121887   2.090   1.663   5.646 -0.4140 -0.1046  1.5258
 3417SOL    HW221888   2.212   1.742   5.624 -1.9488  1.7190 -0.1986
 3418SOL     OW21889   3.049   2.487   6.357  0.0831  0.5072 -0.2101
 3418SOL    HW121890   3.067   2.413   6.300 -2.3288 -0.2311 -0.0027
 3418SOL    HW221891   3.009   2.548   6.296  0.5682  0.9222 -0.1242
 3419SOL     OW21892   3.219   0.740   6.156  0.2421 -0.0677 -0.0874
 3419SOL    HW121893   3.196   0.648   6.150  1.8354 -0.3275 -2.2946
 3419SOL    HW221894   3.307   0.739   6.118  0.1563  0.6834 -0.3266
 3420SOL     OW21895   3.922   0.238   5.470  0.3548  0.4303 -0.1635
 3420SOL    HW121896   3.977   0.168   5.507 -0.7794 -0.5254 -0.2802
 3420SOL    HW221897   3.972   0.277   5.398  1.0129 -0.9054 -0.4325
 3421SOL     OW21898   1.690   2.965  12.883 -0.2415  0.5491  0.5599
 3421SOL    HW121899   1.743   3.020  12.941 -0.3509  0.5331  0.6736
 3421SOL    HW221900   1.623   2.929  12.940  0.2799  2.3584  2.3345
 3422SOL     OW21901   1.402   3.733   3.595  0.5850 -0.2766 -0.2471
 3422SOL    HW121902   1.426   3.752   3.686 -3.0689 -2.2123  1.1495
 3422SOL    HW221903   1.400   3.821   3.557  0.4098 -0.3808 -0.4791
 3423SOL     OW21904   0.697   0.087   4.464  0.2727  0.6435 -0.1303
 3423SOL    HW121905   0.785   0.065   4.435  1.0052  0.5789  2.0969
 3423SOL    HW221906   0.706   0.058   4.555  2.5458  0.9988 -0.2296
 3424SOL     OW21907   0.216   4.153   5.825 -0.2378  0.0038  0.2173
 3424SOL    HW121908   0.152   4.213   5.788  0.0097  1.0609  1.5169
 3424SOL    HW221909   0.168   4.072   5.810 -1.1374  0.6411 -0.3708
 3425SOL     OW21910   4.361   2.929   6.496 -0.0922 -0.5250  0.1039
 3425SOL    HW121911   4.414   2.948   6.574  0.6713 -0.8187 -0.3402
 3425SOL    HW221912   4.302   2.856   6.514 -0.4870 -0.1545  0.2936
 3426SOL     OW21913   2.528   1.416   7.854 -0.1632 -0.4595 -0.4751
 3426SOL    HW121914   2.616   1.420   7.892 -0.0586  0.3642 -0.8098
 3426SOL    HW221915   2.539   1.345   7.791 -0.7755  0.1082 -1.2168
 3427SOL     OW21916   1.281   4.545   8.957 -0.0027 -0.3390 -0.1640
 3427SOL    HW121917   1.281   4.453   8.983  2.0073 -0.3400 -0.1890
 3427SOL    HW221918   1.226   4.536   8.880 -0.7454  1.9092  0.1026
 3428SOL     OW21919   4.464   4.611   7.260  0.1156  0.1290  0.3238
 3428SOL    HW121920   4.482   4.555   7.335  2.7827  1.1204  0.4090
 3428SOL    HW221921   4.547   4.615   7.212 -1.6984 -1.3488 -2.9015
 3429SOL     OW21922   3.775   0.907   5.048 -0.5259  0.2877 -0.7422
 3429SOL    HW121923   3.754   1.000   5.038 -0.5351  0.6759  2.8423
 3429SOL    HW221924   3.836   0.895   4.975  0.1693  0.4064 -0.1834
 3430SOL     OW21925   0.677   2.243  11.476 -0.2577 -0.1629  0.4195
 3430SOL    HW121926   0.768   2.272  11.472 -0.4305  0.0906 -1.9727
 3430SOL    HW221927   0.655   2.230  11.568 -1.4845  0.3755  0.2056
 3431SOL     OW21928   2.510   0.914   9.137  0.0205 -0.2044  0.3579
 3431SOL    HW121929   2.598   0.914   9.173 -0.4057 -0.8555  1.3989
 3431SOL    HW221930   2.540   0.960   9.059 -1.4023 -0.3457 -0.2824
 3432SOL     OW21931   0.092   3.576  10.443  0.3022  0.1227  0.1655
 3432SOL    HW121932   0.076   3.670  10.449 -2.9720 -0.3154 -1.4962
 3432SOL    HW221933   0.035   3.554  10.518 -1.1070 -1.6374 -1.4078
 3433SOL     OW21934   4.205   3.131  13.702 -0.2711 -0.0312  0.1923
 3433SOL    HW121935   4.299   3.131  13.685 -0.3379  1.4478 -0.1703
 3433SOL    HW221936   4.215   3.063  13.769  1.0271 -0.7863 -0.7799
 3434SOL     OW21937   3.356   4.433   2.540  0.2471 -0.0332  0.6006
 3434SOL    HW121938   3.430   4.377   2.514 -0.1551 -0.7658  1.0231
 3434SOL    HW221939   3.286   4.390   2.490  0.3263  1.3835 -0.7304
 3435SOL     OW21940   3.391   3.611  15.674  0.4541  0.2296  0.2061
 3435SOL    HW121941   3.396   3.704  15.651  0.1881 -0.0645 -1.0628
 3435SOL    HW221942   3.335   3.624  15.750  0.7495  0.7974  0.3261
 3436SOL     OW21943   3.009   4.615   6.250  0.3856 -0.0266  0.1189
 3436SOL    HW121944   3.058   4.549   6.300  1.1365 -0.3591 -1.0315
 3436SOL    HW221945   2.933   4.564   6.221 -1.5591  1.9096  1.8281
 3437SOL     OW21946   2.307   2.696  16.457  0.2913  1.0495  0.3013
 3437SOL    HW121947   2.389   2.730  16.492  1.0612 -0.7356  0.2485
 3437SOL    HW221948   2.308   2.726  16.366 -1.0846  2.5052  0.7674
 3438SOL     OW21949   0.353   1.981   2.434 -0.3639 -0.6086 -0.2012
 3438SOL    HW121950   0.442   2.014   2.451 -0.0637 -1.9898  0.9811
 3438SOL    HW221951   0.362   1.893   2.471  0.1127 -1.1063 -1.4675
 3439SOL     OW21952   1.906   2.060   5.503  0.4411 -0.0838  0.5316
 3439SOL    HW121953   1.980   2.000   5.492  2.0479  1.7050  1.6644
 3439SOL    HW221954   1.868   2.040   5.588  0.5282  1.6253  0.9835
 3440SOL     OW21955   2.104   4.541   2.050  0.4637 -0.4938 -0.3471
 3440SOL    HW121956   2.195   4.516   2.033 -0.6257 -3.8563 -1.3711
 3440SOL    HW221957   2.065   4.537   1.963  0.3823  0.9522 -0.3781
 3441SOL     OW21958   1.968   4.079  13.352 -0.3864  0.0597  0.5485
 3441SOL    HW121959   1.939   4.049  13.266 -0.5340  3.0236 -0.4442
 3441SOL    HW221960   1.897   4.046  13.406  0.2885 -0.1906  1.2780
 3442SOL     OW21961   3.811   0.613   6.507 -0.1794 -0.0249  0.9120
 3442SOL    HW121962   3.716   0.607   6.501 -0.2912  1.1138  1.6076
 3442SOL    HW221963   3.824   0.638   6.599  4.1628 -1.8819  0.8387
 3443SOL     OW21964   1.843   2.425  12.586  0.0046 -0.7126 -0.4088
 3443SOL    HW121965   1.831   2.331  12.574 -2.1058 -0.2509 -1.9134
 3443SOL    HW221966   1.938   2.434  12.593 -0.4806  1.6669  3.1933
 3444SOL     OW21967   2.983   3.982  16.626 -0.0687  0.0777 -0.1929
 3444SOL    HW121968   2.889   3.964  16.619 -0.3261  0.8529  1.2433
 3444SOL    HW221969   3.017   3.905  16.672 -1.2144  0.0203  0.5663
 3445SOL     OW21970   3.072   3.518   3.475  0.6215  0.3574  0.4195
 3445SOL    HW121971   3.088   3.526   3.569  2.2579 -0.9164  0.2437
 3445SOL    HW221972   3.045   3.427   3.467  1.2384  0.1279  1.0187
 3446SOL     OW21973   3.452   2.973   6.565  0.1449 -0.1767 -0.0185
 3446SOL    HW121974   3.546   2.959   6.570  0.0044 -1.0987  0.0949
 3446SOL    HW221975   3.446   3.068   6.576  0.2321 -0.3396  1.3554
 3447SOL     OW21976   3.481   2.918   2.137  0.2023  0.1378 -0.7543
 3447SOL    HW121977   3.414   2.917   2.068 -0.4379 -1.4056 -0.1102
 3447SOL    HW221978   3.560   2.895   2.090 -1.1873  0.5042 -3.2663
 3448SOL     OW21979   0.451   4.567  13.189 -0.1661 -0.4559 -0.1393
 3448SOL    HW121980   0.482   4.609  13.269 -0.6373 -2.8343  1.2974
 3448SOL    HW221981   0.378   4.516  13.225 -1.3509 -0.0596 -1.9602
 3449SOL     OW21982   0.940   4.537   2.943  0.3826  0.0620 -0.2359
 3449SOL    HW121983   0.961   4.583   3.024  1.3333 -0.6865 -0.0633
 3449SOL    HW221984   0.964   4.604   2.879 -0.7316 -0.4831 -1.2206
 3450SOL     OW21985   0.018   2.620  13.452  0.0522 -0.1294 -0.2065
 3450SOL    HW121986   0.063   2.535  13.456 -1.2123 -0.7033  1.8150
 3450SOL    HW221987   4.732   2.637  13.544 -0.4518  1.3790 -0.6049
 3451SOL     OW21988   0.996   2.405   7.874  0.3257  0.2636 -0.1169
 3451SOL    HW121989   0.979   2.470   7.942  0.2154  0.7945 -0.6521
 3451SOL    HW221990   0.966   2.454   7.798  1.2633  0.9637 -0.0386
 3452SOL     OW21991   3.879   0.016   2.233  0.1017 -0.5006 -0.0085
 3452SOL    HW121992   3.824   0.091   2.252 -2.4694 -3.0192  2.4742
 3452SOL    HW221993   3.874   4.711   2.320  1.1188  0.1311  0.3463
 3453SOL     OW21994   2.039   4.247   9.718 -0.2321 -0.6422  0.0348
 3453SOL    HW121995   2.118   4.279   9.761  0.7443 -0.0636 -2.1627
 3453SOL    HW221996   2.050   4.152   9.724  1.0657 -0.5370 -0.7845
 3454SOL     OW21997   3.058   1.774   4.303 -0.1776 -0.0900 -0.1108
 3454SOL    HW121998   2.985   1.832   4.326 -0.4102  1.0493 -3.6794
 3454SOL    HW221999   3.015   1.734   4.227  0.3978 -1.1557  0.1271
 3455SOL     OW22000   0.122   3.974  16.601 -0.2962  0.8009  0.8992
 3455SOL    HW122001   0.058   3.913  16.636 -0.1660  0.1875  0.0740
 3455SOL    HW222002   0.131   3.948  16.509 -2.1771 -0.3104  1.0429
 3456SOL     OW22003   0.757   2.886   8.397  0.2134 -0.2060 -0.2471
 3456SOL    HW122004   0.828   2.928   8.347  0.9857 -0.0068  1.0088
 3456SOL    HW222005   0.678   2.937   8.377  0.9505  0.8520 -0.5034
 3457SOL     OW22006   4.106   2.406  13.142  0.1177  0.2905 -0.0879
 3457SOL    HW122007   4.038   2.378  13.081 -0.6399  0.2557  0.7675
 3457SOL    HW222008   4.158   2.456  13.079 -0.1918 -0.6944 -1.1337
 3458SOL     OW22009   0.467   3.731  10.385  0.3659 -0.3698  0.3345
 3458SOL    HW122010   0.435   3.699  10.468  2.3779 -1.7580  0.5796
 3458SOL    HW222011   0.403   3.801  10.372 -0.3379 -1.2802 -1.0448
 3459SOL     OW22012   0.382   1.242   7.964  0.4020  0.1490  0.4200
 3459SOL    HW122013   0.444   1.246   7.891 -2.3003  3.1837 -1.7498
 3459SOL    HW222014   0.422   1.178   8.022 -0.1330 -1.4783 -0.9933
 3460SOL     OW22015   0.105   1.173  17.127  0.0088  0.0154  0.2286
 3460SOL    HW122016   0.100   1.163  17.032  1.4799  0.5720  0.0852
 3460SOL    HW222017   0.199   1.190  17.138  0.0249 -0.7997  1.3585
 3461SOL     OW22018   1.072   2.745   5.192 -0.3484  0.3013  0.0408
 3461SOL    HW122019   1.066   2.681   5.264 -1.1714 -0.6147 -0.8381
 3461SOL    HW222020   0.979   2.754   5.171 -0.5662  0.5548  1.1370
 3462SOL     OW22021   1.013   2.989   5.690  0.8260  0.4991  0.2802
 3462SOL    HW122022   1.096   3.031   5.710  0.4990  0.5952  1.4405
 3462SOL    HW222023   1.017   2.978   5.595  0.0006 -1.8687  0.5299
 3463SOL     OW22024   4.363   4.420  14.418 -0.0828  0.2125  1.2133
 3463SOL    HW122025   4.453   4.401  14.389 -0.1288 -0.4625  1.4985
 3463SOL    HW222026   4.378   4.514  14.424 -0.0966  0.4401 -2.2842
 3464SOL     OW22027   0.897   3.235   6.320  0.1534  0.7894 -0.5138
 3464SOL    HW122028   0.898   3.153   6.269  1.6919  0.9683 -0.7832
 3464SOL    HW222029   0.939   3.290   6.254  0.1053 -1.7228 -2.6899
 3465SOL     OW22030   3.503   1.445   0.039 -0.5944  0.4051 -0.3436
 3465SOL    HW122031   3.483   1.532   0.072 -0.1675  0.4293 -0.1430
 3465SOL    HW222032   3.415   1.409   0.049  0.2843 -2.0638 -1.2656
 3466SOL     OW22033   1.482   0.175  16.729  0.8052  0.4925 -0.5380
 3466SOL    HW122034   1.431   0.102  16.764 -0.4147  1.5521 -0.1218
 3466SOL    HW222035   1.530   0.122  16.665  0.9138  2.1980 -1.8886
 3467SOL     OW22036   3.500   1.840   9.078  0.1003 -0.1518 -0.3022
 3467SOL    HW122037   3.475   1.755   9.115  2.0933 -0.6413 -0.0931
 3467SOL    HW222038   3.540   1.880   9.156 -2.8143 -1.3479  1.8109
 3468SOL     OW22039   0.586   2.626   1.179  0.6692  0.2388  0.2219
 3468SOL    HW122040   0.534   2.599   1.255  0.4802 -0.7709 -0.2614
 3468SOL    HW222041   0.573   2.720   1.193 -0.3322  0.0341  0.6793
 3469SOL     OW22042   0.201   1.499   7.630 -0.3750 -0.0427 -0.9839
 3469SOL    HW122043   0.196   1.524   7.723 -1.4970  0.3490 -1.1451
 3469SOL    HW222044   0.295   1.514   7.629 -0.0410 -2.0808  0.5825
 3470SOL     OW22045   3.645   0.783  14.200 -0.2481  0.0620 -0.5026
 3470SOL    HW122046   3.621   0.839  14.274 -0.8867 -2.2818  1.0500
 3470SOL    HW222047   3.566   0.731  14.187 -0.4528  0.3075 -0.2335
 3471SOL     OW22048   2.853   4.336  10.839 -0.1063  0.2152  0.2081
 3471SOL    HW122049   2.831   4.387  10.761  0.4123  0.4648  0.2229
 3471SOL    HW222050   2.940   4.376  10.849 -0.6716  2.1382 -2.6032
 3472SOL     OW22051   3.732   1.598   4.102  0.1192  0.2771  0.9141
 3472SOL    HW122052   3.717   1.669   4.164 -0.6736  0.7358  0.2098
 3472SOL    HW222053   3.691   1.634   4.023  2.7191 -3.3140 -2.0098
 3473SOL     OW22054   3.746   1.329   8.347  0.2955 -0.6613 -0.5614
 3473SOL    HW122055   3.831   1.313   8.306  0.0503 -1.9644 -0.5602
 3473SOL    HW222056   3.718   1.238   8.351 -1.1674 -0.1808  0.2807
 3474SOL     OW22057   0.979   2.121   6.168 -0.1537  0.7883  0.1281
 3474SOL    HW122058   1.053   2.062   6.176 -0.5430  0.1844 -0.7263
 3474SOL    HW222059   0.943   2.111   6.256  1.7842 -2.5696  0.5199
 3475SOL     OW22060   4.646   0.623   7.688 -0.6487 -0.2928 -0.0757
 3475SOL    HW122061   4.689   0.569   7.754 -0.8956  0.3954  0.6514
 3475SOL    HW222062   4.556   0.617   7.720 -0.9262  1.0438 -0.5705
 3476SOL     OW22063   2.744   0.958  15.630  0.0520  0.2294  0.1262
 3476SOL    HW122064   2.686   0.898  15.677  0.7649 -0.4327  0.1561
 3476SOL    HW222065   2.796   0.993  15.703  0.3661  0.0850 -0.0275
 3477SOL     OW22066   4.295   1.474   3.835 -0.0640  0.0810  0.8384
 3477SOL    HW122067   4.372   1.488   3.891  0.0714  0.9208  0.4379
 3477SOL    HW222068   4.288   1.379   3.832  0.2044  0.0454  1.4043
 3478SOL     OW22069   1.542   2.787   5.808 -0.4609 -0.1296  0.1599
 3478SOL    HW122070   1.546   2.883   5.810 -0.3328 -0.1527  1.2375
 3478SOL    HW222071   1.563   2.773   5.901 -0.5179  2.1902  0.5265
 3479SOL     OW22072   1.869   3.152   7.512 -0.2650  0.0954 -0.6086
 3479SOL    HW122073   1.780   3.123   7.535 -0.2871  0.9911  0.4202
 3479SOL    HW222074   1.906   3.191   7.591 -2.4210 -2.6662  1.7307
 3480SOL     OW22075   4.391   3.891   8.991  0.0457 -0.1583  0.2340
 3480SOL    HW122076   4.393   3.987   8.990  1.8488 -0.2090 -0.4843
 3480SOL    HW222077   4.319   3.881   8.929 -0.1429 -1.9618  0.7665
 3481SOL     OW22078   0.261   3.731  12.668  0.1298  0.1077 -0.3082
 3481SOL    HW122079   0.315   3.768  12.738  2.1507  0.5365 -2.1071
 3481SOL    HW222080   0.202   3.677  12.721 -1.7528  1.3004 -1.1884
 3482SOL     OW22081   2.678   3.706   1.664  0.4256  0.1100 -0.3354
 3482SOL    HW122082   2.677   3.642   1.735  1.0061  1.4363  0.8652
 3482SOL    HW222083   2.584   3.721   1.652  0.5227  1.4320  0.5669
 3483SOL     OW22084   3.040   0.455   8.711 -0.1263  0.3750  0.0794
 3483SOL    HW122085   2.994   0.372   8.697 -3.1072  1.6794  2.0071
 3483SOL    HW222086   3.004   0.490   8.793  1.1158  0.7033  0.4779
 3484SOL     OW22087   1.048   4.586  13.012  0.4178  0.0134  0.0031
 3484SOL    HW122088   1.102   4.605  13.088  1.8979 -0.4729 -0.9349
 3484SOL    HW222089   1.088   4.638  12.943 -1.5911  1.9855  0.3112
 3485SOL     OW22090   1.092   0.763   5.926 -0.0497 -0.3876 -0.8058
 3485SOL    HW122091   1.002   0.778   5.954  0.1057  0.8426 -0.9589
 3485SOL    HW222092   1.127   0.717   6.002 -1.3876 -0.3745 -0.1816
 3486SOL     OW22093   2.220   3.387   3.152  0.4154 -0.0499 -0.2154
 3486SOL    HW122094   2.276   3.461   3.175 -2.1903  1.7133  0.5111
 3486SOL    HW222095   2.182   3.354   3.234 -2.0576  2.3239 -0.4076
 3487SOL     OW22096   0.416   3.267   0.203  0.0916 -0.2112  0.2523
 3487SOL    HW122097   0.460   3.317   0.271 -0.0330 -1.0836  0.9752
 3487SOL    HW222098   0.339   3.233   0.249 -0.5669  0.2036 -0.5182
 3488SOL     OW22099   4.089   2.746   8.775 -0.2958 -0.0178 -0.8728
 3488SOL    HW122100   4.013   2.702   8.738  0.8004 -1.1214 -1.8271
 3488SOL    HW222101   4.059   2.736   8.865  0.5306 -0.2039 -0.6188
 3489SOL     OW22102   0.830   0.135  16.649  0.2044  0.2845 -0.5894
 3489SOL    HW122103   0.912   0.116  16.604  0.7967  0.0082  0.6053
 3489SOL    HW222104   0.864   0.215  16.688  0.4667 -0.4915  0.7776
 3490SOL     OW22105   1.054   4.235  13.049  0.2286 -0.0957  0.0008
 3490SOL    HW122106   0.987   4.240  12.980 -0.8980  1.9134  1.2517
 3490SOL    HW222107   1.019   4.169  13.108 -2.2679  1.0451 -0.1934
 3491SOL     OW22108   2.940   1.541   1.795 -0.0631 -0.0915 -0.7273
 3491SOL    HW122109   2.965   1.479   1.863  0.1967  0.7399 -0.0745
 3491SOL    HW222110   3.028   1.561   1.765 -0.3806  1.6405 -0.4676
 3492SOL     OW22111   3.230   0.075   3.816 -0.2242 -0.0285 -0.3916
 3492SOL    HW122112   3.293   0.111   3.878  0.1524  0.2740 -0.9420
 3492SOL    HW222113   3.264   4.723   3.795 -0.0211 -0.7597  3.0147
 3493SOL     OW22114   2.982   4.428   5.175 -0.6346  0.1040  0.2762
 3493SOL    HW122115   3.066   4.413   5.218 -0.6655 -0.8490 -0.0045
 3493SOL    HW222116   3.009   4.439   5.084  2.2350 -1.3389  0.9500
 3494SOL     OW22117   2.290   2.148   2.297 -0.2142 -0.4923 -0.1469
 3494SOL    HW122118   2.255   2.234   2.318  0.5150 -0.4014  0.6942
 3494SOL    HW222119   2.229   2.084   2.333  0.8954 -1.2845  0.3632
 3495SOL     OW22120   1.273   4.447  14.679  0.2487  0.1277  0.6626
 3495SOL    HW122121   1.258   4.510  14.609 -1.0396  0.0589  0.8868
 3495SOL    HW222122   1.281   4.363  14.633  2.0195  0.5578  0.1593
 3496SOL     OW22123   1.613   3.803  16.956 -0.1255  0.3722  0.0898
 3496SOL    HW122124   1.668   3.797  17.035  0.4953 -3.5045 -0.6481
 3496SOL    HW222125   1.527   3.767  16.977 -0.4834  1.0418 -0.2027
 3497SOL     OW22126   3.045   2.900   7.544 -0.1625  0.4397 -0.3069
 3497SOL    HW122127   3.123   2.845   7.541  1.1632  2.3250 -0.3180
 3497SOL    HW222128   2.985   2.836   7.583  0.8911 -1.1961 -1.3602
 3498SOL     OW22129   2.351   2.805   2.281 -0.1640  0.6828 -0.2525
 3498SOL    HW122130   2.398   2.733   2.325  1.2227  1.7031 -0.0506
 3498SOL    HW222131   2.342   2.868   2.352 -0.0336 -0.2532  0.6013
 3499SOL     OW22132   1.013   3.392   0.509  0.2096  0.0145  0.0338
 3499SOL    HW122133   0.981   3.394   0.419  0.4069 -1.6862 -0.0690
 3499SOL    HW222134   1.074   3.319   0.500  0.2255  0.1186 -0.7065
 3500SOL     OW22135   0.300   4.631   9.552 -0.7023 -0.3251  0.0509
 3500SOL    HW122136   0.346   4.634   9.636  0.5191 -1.9437 -0.5456
 3500SOL    HW222137   0.332   4.549   9.515 -2.3920 -0.1524 -1.7908
 3501SOL     OW22138   3.992   1.979  16.687 -0.3145  0.2451 -0.4150
 3501SOL    HW122139   4.077   2.018  16.709 -0.9008  1.4131 -0.1865
 3501SOL    HW222140   4.017   1.909  16.627  0.8286 -1.0269  1.5578
 3502SOL     OW22141   1.456   4.555  11.458 -0.1315  0.5012  0.4974
 3502SOL    HW122142   1.451   4.644  11.424 -0.8780 -0.4065 -1.7735
 3502SOL    HW222143   1.462   4.565  11.553  1.7367 -0.6881  0.5205
 3503SOL     OW22144   0.614   4.351  17.637 -0.2158 -0.4742 -0.2104
 3503SOL    HW122145   0.628   4.276  17.578 -3.1546 -0.7527 -0.5802
 3503SOL    HW222146   0.601   4.413  17.565 -0.6623  1.2150  1.3446
 3504SOL     OW22147   4.381   3.399   7.428 -0.4774  0.2024  0.0083
 3504SOL    HW122148   4.369   3.341   7.353  1.2450  2.5973 -2.1152
 3504SOL    HW222149   4.292   3.433   7.440 -0.2135  0.0995  2.3032
 3505SOL     OW22150   1.217   1.918   3.424 -0.2388  0.0756 -0.3267
 3505SOL    HW122151   1.137   1.971   3.427  0.6527  1.3850  0.5694
 3505SOL    HW222152   1.268   1.990   3.386 -0.9182  0.2327 -0.9371
 3506SOL     OW22153   2.635   2.122   7.281 -0.2594  0.1079 -0.0129
 3506SOL    HW122154   2.562   2.065   7.303  0.1312  0.2828  1.7260
 3506SOL    HW222155   2.694   2.047   7.279 -2.0929 -1.3099 -0.6046
 3507SOL     OW22156   2.232   4.390   8.995  0.2731 -0.0510 -0.4347
 3507SOL    HW122157   2.295   4.460   8.978 -0.2111  0.7932  1.2310
 3507SOL    HW222158   2.263   4.317   8.942 -0.2370 -0.3405 -0.3343
 3508SOL     OW22159   0.399   1.101  16.972  0.0967 -0.4601 -0.0586
 3508SOL    HW122160   0.410   1.031  17.037  0.8928 -1.8464 -1.7005
 3508SOL    HW222161   0.367   1.176  17.022  0.2183 -0.4778  0.0464
 3509SOL     OW22162   3.336   0.932  14.636  0.0123  0.0241 -0.3488
 3509SOL    HW122163   3.375   0.850  14.608  0.7531  0.5526 -0.8520
 3509SOL    HW222164   3.281   0.898  14.707  0.3101  0.6361  0.1807
 3510SOL     OW22165   0.943   4.223  15.150 -0.0609 -0.5033  0.2800
 3510SOL    HW122166   0.915   4.309  15.180 -1.7798 -1.0863  0.3086
 3510SOL    HW222167   0.994   4.251  15.074  1.5826 -3.0154  0.4332
 3511SOL     OW22168   3.360   4.119   1.442 -0.4472 -0.1726  0.2015
 3511SOL    HW122169   3.412   4.198   1.429  0.5913 -0.9033 -0.2059
 3511SOL    HW222170   3.398   4.079   1.363  2.3706  0.7430  1.1007
 3512SOL     OW22171   2.545   2.074   1.029  0.1727 -0.5950  0.4108
 3512SOL    HW122172   2.566   2.165   1.010 -2.8956 -0.2813 -1.6329
 3512SOL    HW222173   2.537   2.039   0.940  0.1814 -0.8465  0.5087
 3513SOL     OW22174   2.886   4.106  10.000 -0.5506 -0.7576 -0.1825
 3513SOL    HW122175   2.933   4.099  10.083  0.0538 -2.1754 -0.6415
 3513SOL    HW222176   2.919   4.030   9.953  0.0906 -0.2009 -0.6347
 3514SOL     OW22177   0.666   2.885   4.791 -0.4463 -0.5746 -0.6366
 3514SOL    HW122178   0.620   2.957   4.748  2.5547  1.0097 -1.1644
 3514SOL    HW222179   0.759   2.905   4.787 -0.5565 -0.2605 -1.4833
 3515SOL     OW22180   0.014   3.652  11.618  0.2368  0.8513 -0.1597
 3515SOL    HW122181   0.054   3.735  11.591  2.0342  0.0193 -0.0592
 3515SOL    HW222182   0.039   3.591  11.549  1.4159  0.5311  0.5488
 3516SOL     OW22183   1.225   3.786   1.980  0.4165 -0.8156 -0.1956
 3516SOL    HW122184   1.224   3.757   2.071 -0.1480 -2.1610 -0.6219
 3516SOL    HW222185   1.257   3.876   1.987  0.1525 -0.5977 -1.6929
 3517SOL     OW22186   0.166   1.757   4.509  0.2685 -0.1387 -0.1249
 3517SOL    HW122187   0.135   1.688   4.450  3.3085  0.6727 -2.6856
 3517SOL    HW222188   0.187   1.716   4.593 -0.8966 -2.0288 -0.7498
 3518SOL     OW22189   2.604   1.370   4.796 -0.5902 -0.0460 -0.4443
 3518SOL    HW122190   2.585   1.363   4.889  0.7622 -0.5074 -0.2083
 3518SOL    HW222191   2.564   1.454   4.772  1.3033  1.2387  0.9516
 3519SOL     OW22192   1.606   1.685   6.695 -0.6471  0.1758 -0.2570
 3519SOL    HW122193   1.610   1.775   6.663 -0.4738  0.4360  0.4901
 3519SOL    HW222194   1.521   1.661   6.731 -1.9126  3.0593 -1.4003
 3520SOL     OW22195   0.615   0.345  13.082  0.4411  0.5716  0.5565
 3520SOL    HW122196   0.532   0.365  13.041  0.4411  1.1352  0.8217
 3520SOL    HW222197   0.674   0.376  13.013  0.4012  0.3187  0.4089
 3521SOL     OW22198   0.354   4.003  10.677 -0.4175 -0.2301  0.4025
 3521SOL    HW122199   0.410   3.927  10.692 -2.4382 -0.9056  4.5252
 3521SOL    HW222200   0.418   4.066  10.710  0.7339 -0.8306 -0.6936
 3522SOL     OW22201   4.466   1.784   3.378  0.3626 -0.0410 -0.3264
 3522SOL    HW122202   4.545   1.780   3.432 -0.6710 -1.8754  1.0540
 3522SOL    HW222203   4.487   1.859   3.323  1.8692  0.0096  0.3219
 3523SOL     OW22204   4.665   2.765   5.236  0.3666  0.1240 -0.3697
 3523SOL    HW122205   4.580   2.721   5.237  0.6865 -0.5239 -1.3343
 3523SOL    HW222206   4.649   2.850   5.195  0.0202 -0.3904 -1.3152
 3524SOL     OW22207   0.723   4.335   9.066  0.2043  0.4688 -0.6521
 3524SOL    HW122208   0.676   4.400   9.014 -1.0968  0.8080  0.9687
 3524SOL    HW222209   0.797   4.387   9.095 -0.2661  0.3596  0.7376
 3525SOL     OW22210   3.473   1.056   5.943 -0.8910 -0.3977  0.6767
 3525SOL    HW122211   3.396   1.089   5.896 -1.2770 -1.0657  0.8217
 3525SOL    HW222212   3.452   0.962   5.945 -2.2052 -0.1410 -1.0818
 3526SOL     OW22213   2.091   3.137   1.723  0.7161  0.1638 -0.4259
 3526SOL    HW122214   2.131   3.201   1.664 -0.5999  1.0973 -0.2822
 3526SOL    HW222215   2.133   3.061   1.682 -0.5920 -0.7273 -0.1250
 3527SOL     OW22216   4.302   4.329  13.215  0.3682  0.1879 -0.0128
 3527SOL    HW122217   4.398   4.333  13.210  0.4363 -0.5853  0.6743
 3527SOL    HW222218   4.267   4.321  13.126  3.3902  0.6694 -1.2520
 3528SOL     OW22219   3.589   3.357   3.659  0.1527 -0.0784  0.2511
 3528SOL    HW122220   3.573   3.420   3.588  1.2256  0.3787  0.4095
 3528SOL    HW222221   3.643   3.292   3.614  0.1666 -1.2847  1.9855
 3529SOL     OW22222   2.923   2.816  14.865 -0.8170  0.5187  0.4745
 3529SOL    HW122223   2.869   2.812  14.786 -2.0047 -1.4811  1.3940
 3529SOL    HW222224   2.864   2.778  14.929 -0.6151 -1.0251 -0.2685
 3530SOL     OW22225   2.694   2.457  13.860 -0.0482  0.7327 -0.7722
 3530SOL    HW122226   2.676   2.372  13.818 -1.8279  0.9132 -0.3794
 3530SOL    HW222227   2.742   2.495  13.787 -2.4307  1.8787 -1.7504
 3531SOL     OW22228   4.281   1.974   6.360  0.4806 -0.6429 -0.4041
 3531SOL    HW122229   4.208   2.034   6.373  0.3767 -0.5369 -1.4922
 3531SOL    HW222230   4.289   1.987   6.266  0.7612 -0.3549 -0.3418
 3532SOL     OW22231   1.937   1.816   3.840 -0.3300  0.3964  0.5505
 3532SOL    HW122232   1.994   1.828   3.916 -0.7826 -0.6831  1.0693
 3532SOL    HW222233   1.884   1.743   3.872 -3.3874  1.9524 -0.9731
 3533SOL     OW22234   3.179   1.616   3.321 -0.6406 -0.0972 -0.3625
 3533SOL    HW122235   3.151   1.639   3.233 -1.6318  0.5877  0.1394
 3533SOL    HW222236   3.128   1.682   3.368 -2.3377 -0.1061 -2.2323
 3534SOL     OW22237   2.613   1.484   1.264 -0.1504 -0.2515 -0.3880
 3534SOL    HW122238   2.648   1.440   1.342 -0.6237 -0.7392 -0.4507
 3534SOL    HW222239   2.605   1.570   1.306  0.2447  0.1693 -1.1701
 3535SOL     OW22240   3.867   0.060   2.770  0.5009  0.5792 -0.1628
 3535SOL    HW122241   3.814   0.139   2.782 -1.3758 -1.0279  2.1105
 3535SOL    HW222242   3.826   0.006   2.837  1.5292  1.0898  0.8713
 3536SOL     OW22243   1.428   0.675   7.234 -0.6584 -0.1064  0.1375
 3536SOL    HW122244   1.488   0.600   7.240  3.3434  2.9888 -1.6350
 3536SOL    HW222245   1.453   0.708   7.148  0.6011  0.4556  0.7236
 3537SOL     OW22246   4.134   3.835  15.965  0.1783 -0.6366 -0.0048
 3537SOL    HW122247   4.210   3.879  16.001  0.0536  1.1753 -1.9228
 3537SOL    HW222248   4.163   3.818  15.875  0.6845 -1.3578  0.3029
 3538SOL     OW22249   1.821   3.767  16.309 -0.0736  0.9440 -0.2192
 3538SOL    HW122250   1.799   3.800  16.222 -1.3075  1.1139  0.1520
 3538SOL    HW222251   1.909   3.734  16.293 -0.4517  0.6352 -1.6775
 3539SOL     OW22252   3.380   0.284   9.053 -0.6148  0.0037  0.2074
 3539SOL    HW122253   3.433   0.279   8.974 -0.6722 -0.3465  0.1910
 3539SOL    HW222254   3.373   0.378   9.067  0.2198  0.3619 -1.7939
 3540SOL     OW22255   0.576   2.785   7.495  0.2404  0.5878 -0.7975
 3540SOL    HW122256   0.525   2.720   7.543  0.8907 -0.8538 -2.0560
 3540SOL    HW222257   0.664   2.751   7.513 -0.5877 -2.0369 -1.6837
 3541SOL     OW22258   4.091   1.022   2.866  0.2600  0.4036  0.0032
 3541SOL    HW122259   4.122   1.109   2.891 -0.8601  1.2279 -1.4491
 3541SOL    HW222260   4.172   0.987   2.828  0.5904 -1.3149  2.3390
 3542SOL     OW22261   0.479   1.583   7.572 -0.0203 -0.3643 -0.2892
 3542SOL    HW122262   0.490   1.526   7.496  0.0006  0.9833 -1.3033
 3542SOL    HW222263   0.565   1.575   7.613  0.2770  0.0803 -0.8336
 3543SOL     OW22264   1.032   3.438  15.824  0.1953  0.5585 -0.0212
 3543SOL    HW122265   0.961   3.386  15.860  0.9459 -0.1924  0.3707
 3543SOL    HW222266   1.003   3.523  15.858  1.5090  0.6091  0.9760
 3544SOL     OW22267   4.135   1.340  16.027 -0.6782 -0.2521 -0.6394
 3544SOL    HW122268   4.226   1.313  16.016 -0.2758  0.6271  0.5654
 3544SOL    HW222269   4.129   1.406  15.957  0.7565  2.0022  1.3849
 3545SOL     OW22270   2.512   3.606   6.333 -0.4047  0.4375 -0.5157
 3545SOL    HW122271   2.579   3.603   6.401  0.6182 -1.8409 -1.6382
 3545SOL    HW222272   2.566   3.639   6.261 -0.3581  4.0737  1.1611
 3546SOL     OW22273   2.292   3.435  16.227  0.4386 -0.1038 -0.4772
 3546SOL    HW122274   2.301   3.423  16.133  3.6063 -1.6126  0.0076
 3546SOL    HW222275   2.378   3.470  16.253  0.6705 -0.7453 -0.3885
 3547SOL     OW22276   4.478   0.501  17.383  0.5934 -0.0588 -0.0881
 3547SOL    HW122277   4.498   0.589  17.414  1.7781 -0.1027 -0.7038
 3547SOL    HW222278   4.383   0.503  17.380  0.6268  0.8367 -0.5362
 3548SOL     OW22279   3.325   1.424   6.956 -0.5575 -0.3206 -0.2829
 3548SOL    HW122280   3.276   1.444   6.877  0.6087  1.8708 -0.4570
 3548SOL    HW222281   3.404   1.479   6.955 -1.1825  0.6109  1.6578
 3549SOL     OW22282   1.711   2.123   8.745 -0.2260 -0.4105  0.3359
 3549SOL    HW122283   1.709   2.075   8.663  0.8851  0.7183 -0.3582
 3549SOL    HW222284   1.786   2.080   8.786 -0.1151  1.4291  2.0952
 3550SOL     OW22285   3.364   1.663   0.109 -0.1300  0.2361 -0.2021
 3550SOL    HW122286   3.397   1.701   0.190  0.8042  1.0798 -0.9788
 3550SOL    HW222287   3.303   1.725   0.069 -0.2475 -0.4297 -1.0463
 3551SOL     OW22288   1.235   4.445   6.717  0.5356  0.0537 -0.8051
 3551SOL    HW122289   1.247   4.539   6.704 -0.9123  0.6128  2.0521
 3551SOL    HW222290   1.296   4.409   6.652 -0.7722 -3.0255 -0.3430
 3552SOL     OW22291   0.262   3.479  13.210  0.2336  0.3325  0.0631
 3552SOL    HW122292   0.283   3.444  13.297  1.5384  1.4470  0.1956
 3552SOL    HW222293   0.258   3.399  13.157  2.1618  0.8710 -0.9084
 3553SOL     OW22294   1.277   1.176  14.350  0.3757 -0.0210  0.4392
 3553SOL    HW122295   1.193   1.192  14.307  1.2044  0.6054 -0.9679
 3553SOL    HW222296   1.322   1.160  14.267 -0.4782  0.5770 -0.1405
 3554SOL     OW22297   0.624   0.779  16.230  0.0611  0.1647 -0.5370
 3554SOL    HW122298   0.544   0.746  16.189 -0.5048 -1.3477  1.7722
 3554SOL    HW222299   0.687   0.706  16.226 -0.2447 -0.1491  0.1876
 3555SOL     OW22300   0.930   0.177   5.731  0.0870  0.3945  0.6437
 3555SOL    HW122301   0.854   0.166   5.675  2.4071  0.3478 -2.4759
 3555SOL    HW222302   0.894   0.214   5.812  3.3149  0.8329  1.8943
 3556SOL     OW22303   3.734   0.421   5.577 -0.4058 -0.1881 -0.0626
 3556SOL    HW122304   3.817   0.382   5.551  0.7019  0.5884  2.3275
 3556SOL    HW222305   3.674   0.347   5.583 -1.2123  0.4479 -0.1982
 3557SOL     OW22306   3.015   3.215  13.683 -0.2055  0.3408  0.1381
 3557SOL    HW122307   3.015   3.279  13.754  3.3506  0.1254  0.3197
 3557SOL    HW222308   3.096   3.164  13.688  0.0852  0.8781  0.9692
 3558SOL     OW22309   4.080   0.651   6.063 -0.2120 -0.5110  0.3257
 3558SOL    HW122310   4.093   0.737   6.103 -1.6294 -0.5671  0.8827
 3558SOL    HW222311   4.168   0.656   6.023 -1.1120 -0.1930 -1.6248
 3559SOL     OW22312   1.640   0.434  14.209  0.2015  0.3087 -0.5003
 3559SOL    HW122313   1.642   0.343  14.239 -0.3280  0.8909  1.3534
 3559SOL    HW222314   1.556   0.454  14.169 -0.0186  1.1516  0.3599
 3560SOL     OW22315   0.815   2.474   5.840 -0.4175  0.3591  0.2626
 3560SOL    HW122316   0.770   2.390   5.856 -0.8628  0.5636  0.0889
 3560SOL    HW222317   0.903   2.445   5.864 -0.9850 -1.4820  0.1762
 3561SOL     OW22318   4.532   4.388   3.459  0.2721  0.1903 -0.5409
 3561SOL    HW122319   4.627   4.395   3.469  0.3093  0.9282 -1.5147
 3561SOL    HW222320   4.485   4.453   3.512 -1.6234 -0.8171 -0.9913
 3562SOL     OW22321   2.885   0.793   7.470  0.6873 -0.1903 -0.0961
 3562SOL    HW122322   2.884   0.798   7.565 -1.5406  1.3145 -0.1939
 3562SOL    HW222323   2.808   0.842   7.442 -0.2273 -0.4282  2.0036
 3563SOL     OW22324   3.827   3.102   2.380 -0.0822  0.2360  0.1743
 3563SOL    HW122325   3.796   3.012   2.385 -0.0983  0.2140 -0.3996
 3563SOL    HW222326   3.744   3.134   2.344 -1.0007 -0.3078  1.8001
 3564SOL     OW22327   1.432   2.374   3.239  0.1120  0.0840 -0.6625
 3564SOL    HW122328   1.428   2.468   3.222  0.1323  0.0243 -1.0039
 3564SOL    HW222329   1.506   2.372   3.299  0.8725 -0.0079 -1.5955
 3565SOL     OW22330   1.089   4.205  12.707 -0.8124 -0.4400  0.0240
 3565SOL    HW122331   1.135   4.286  12.685 -0.7586 -0.9198 -1.5742
 3565SOL    HW222332   1.004   4.212  12.666 -0.6182 -0.4932 -0.3831
 3566SOL     OW22333   4.474   2.611   4.247  0.7547  0.4694 -0.3237
 3566SOL    HW122334   4.557   2.570   4.274 -0.3591 -2.0864 -0.8324
 3566SOL    HW222335   4.469   2.673   4.321  1.8918  0.2418 -0.0538
 3567SOL     OW22336   1.318   2.990  13.943  0.0234  0.3015  0.1233
 3567SOL    HW122337   1.379   3.059  13.919 -1.5807  1.6595 -0.1016
 3567SOL    HW222338   1.256   3.003  13.871  0.0444  1.3201  0.2942
 3568SOL     OW22339   2.329   1.017   5.422 -0.4225 -0.2261  0.6566
 3568SOL    HW122340   2.239   1.008   5.389 -0.7441 -0.2960  1.5631
 3568SOL    HW222341   2.370   0.940   5.382  2.9453  0.7405  2.2473
 3569SOL     OW22342   0.542   0.835   4.140  0.1450  0.3894  0.0218
 3569SOL    HW122343   0.604   0.765   4.118 -2.2644 -1.3584 -1.1647
 3569SOL    HW222344   0.515   0.876   4.057 -0.6413  0.2553  0.2104
 3570SOL     OW22345   3.396   0.408  15.301 -0.1238 -0.3848  0.2892
 3570SOL    HW122346   3.474   0.420  15.248 -0.5148  0.6925 -0.0474
 3570SOL    HW222347   3.338   0.479  15.272 -1.5132 -1.2454  0.9794
 3571SOL     OW22348   2.071   2.648   4.993  0.0482 -0.0516  0.2802
 3571SOL    HW122349   2.068   2.586   4.920 -2.7584 -0.1751  0.4917
 3571SOL    HW222350   2.051   2.730   4.947 -0.1267  0.4591  1.2616
 3572SOL     OW22351   1.853   3.881   5.180  0.2206 -0.3648 -1.0529
 3572SOL    HW122352   1.927   3.868   5.240 -0.4422 -1.8020 -0.5319
 3572SOL    HW222353   1.880   3.952   5.122 -0.4846  0.2657 -0.6117
 3573SOL     OW22354   1.485   1.958   6.233 -0.2969  0.2276 -0.1158
 3573SOL    HW122355   1.513   2.044   6.201  3.3082 -0.7552  0.3890
 3573SOL    HW222356   1.560   1.929   6.284 -0.8118  0.1436  0.6015
 3574SOL     OW22357   0.850   1.771   7.316 -0.0070 -0.0110 -1.0590
 3574SOL    HW122358   0.827   1.699   7.375  2.1678  0.0364 -0.1591
 3574SOL    HW222359   0.779   1.834   7.328  1.1537  1.3067 -1.1327
 3575SOL     OW22360   2.579   4.731   5.773  0.1716 -0.2259  0.3781
 3575SOL    HW122361   2.670   0.025   5.766  0.8475 -1.9612  2.3045
 3575SOL    HW222362   2.522   0.008   5.696 -0.5027 -1.0421  0.7533
 3576SOL     OW22363   1.207   1.673  10.830  0.1039 -0.1300 -1.0684
 3576SOL    HW122364   1.247   1.759  10.816 -0.3178  0.0355 -1.2683
 3576SOL    HW222365   1.230   1.672  10.922 -0.3205 -1.5910 -0.9893
 3577SOL     OW22366   4.318   0.952   5.293 -0.1769 -0.2993  0.6513
 3577SOL    HW122367   4.238   0.920   5.334 -1.5598 -1.0215 -2.6785
 3577SOL    HW222368   4.362   0.881   5.246 -1.4684 -1.4621  1.2045
 3578SOL     OW22369   0.215   4.057   6.766 -0.3268  0.2049 -0.0234
 3578SOL    HW122370   0.162   4.024   6.693  1.1821 -1.5812 -0.3129
 3578SOL    HW222371   0.183   4.148   6.768 -0.6984  0.0539  0.7571
 3579SOL     OW22372   2.264   0.840   1.570 -0.6408  0.0147 -0.4995
 3579SOL    HW122373   2.198   0.839   1.639 -0.2122 -1.6943 -0.1225
 3579SOL    HW222374   2.227   0.918   1.528 -0.7648 -0.5239 -1.3707
 3580SOL     OW22375   3.378   3.903   4.520  0.0328  0.4336 -0.1540
 3580SOL    HW122376   3.461   3.935   4.555 -1.1573  1.9688  1.2548
 3580SOL    HW222377   3.354   3.834   4.581 -0.1434 -1.2237 -2.0845
 3581SOL     OW22378   3.251   3.748   1.703 -0.3282  0.2287  0.4532
 3581SOL    HW122379   3.263   3.842   1.691 -1.2697  0.3059  0.1192
 3581SOL    HW222380   3.160   3.739   1.674 -0.1065  1.5377 -0.6325
 3582SOL     OW22381   2.230   2.262  13.608 -0.1024 -0.5331  0.2210
 3582SOL    HW122382   2.299   2.306  13.559 -2.0480 -0.4014 -2.4147
 3582SOL    HW222383   2.151   2.283  13.558  0.0804 -0.3195  0.0285
 3583SOL     OW22384   0.862   1.044   1.083 -0.3122 -0.2139 -0.1472
 3583SOL    HW122385   0.796   1.082   1.026  0.3678  2.7109  1.0069
 3583SOL    HW222386   0.919   1.117   1.107  0.2612 -1.2390  1.6217
 3584SOL     OW22387   2.516   2.212   3.978  0.3178  0.1228  0.1550
 3584SOL    HW122388   2.455   2.285   3.975  0.3084  0.0575 -1.4654
 3584SOL    HW222389   2.462   2.134   3.993 -1.1001  1.1613  0.5002
 3585SOL     OW22390   0.806   0.656   8.826  0.6856 -0.2652  0.1028
 3585SOL    HW122391   0.770   0.722   8.766  2.0396 -0.0053 -0.4216
 3585SOL    HW222392   0.778   0.577   8.780 -0.5999  0.1552  0.1583
 3586SOL     OW22393   3.944   3.018   4.675  0.4647 -0.1302 -0.0435
 3586SOL    HW122394   3.951   2.966   4.595  3.6178  1.0660 -0.5499
 3586SOL    HW222395   3.957   3.105   4.637 -0.9373 -0.5018 -1.3746
 3587SOL     OW22396   3.361   1.088   0.657  0.1247  0.2776 -0.3742
 3587SOL    HW122397   3.331   1.158   0.716  0.3957  0.2844 -0.2426
 3587SOL    HW222398   3.293   1.102   0.592 -0.9797 -1.2234  0.4551
 3588SOL     OW22399   4.312   0.029   4.733  0.0468 -0.3180  0.2886
 3588SOL    HW122400   4.242   0.078   4.777  0.4499  0.9976 -0.5591
 3588SOL    HW222401   4.383   0.089   4.755  0.0880 -0.1224 -0.3912
 3589SOL     OW22402   2.823   0.885   9.269 -0.1482 -0.4123 -0.1344
 3589SOL    HW122403   2.888   0.919   9.208  0.8902 -1.5507  0.3408
 3589SOL    HW222404   2.804   0.801   9.226 -1.7194 -0.6227  0.9835
 3590SOL     OW22405   1.156   2.300  14.366  0.3680 -0.0533 -0.3907
 3590SOL    HW122406   1.131   2.208  14.358 -0.2099  0.0098  0.6356
 3590SOL    HW222407   1.081   2.340  14.412  0.2441  0.9442 -1.4599
 3591SOL     OW22408   1.374   0.481   1.758  0.0878  0.3868 -0.2117
 3591SOL    HW122409   1.422   0.563   1.752 -3.2156  2.2440 -1.5437
 3591SOL    HW222410   1.282   0.498   1.781  0.9998  3.7433  0.9495
 3592SOL     OW22411   1.754   0.435  12.096  0.2656 -0.7935 -0.8442
 3592SOL    HW122412   1.829   0.408  12.149 -0.5998  0.2715  0.9055
 3592SOL    HW222413   1.686   0.375  12.127 -0.1961 -1.4261 -3.0568
 3593SOL     OW22414   3.854   2.189   6.244  0.3238  0.5551 -0.2613
 3593SOL    HW122415   3.800   2.158   6.171 -1.7530  1.3389  0.9499
 3593SOL    HW222416   3.824   2.124   6.308 -0.2403 -0.9114 -2.0077
 3594SOL     OW22417   1.829   3.829  10.453 -0.6933  0.1408 -0.1252
 3594SOL    HW122418   1.906   3.852  10.506 -1.3593  1.1112  0.4125
 3594SOL    HW222419   1.823   3.912  10.406  1.1895  0.0570 -0.5333
 3595SOL     OW22420   4.122   3.358   8.271 -0.0215 -0.5359 -0.1153
 3595SOL    HW122421   4.162   3.426   8.216 -2.8586  0.6810 -0.6488
 3595SOL    HW222422   4.127   3.401   8.356  0.6249 -1.4816  0.3239
 3596SOL     OW22423   1.008   3.202   6.573 -0.8948  0.2588 -0.1618
 3596SOL    HW122424   1.041   3.113   6.558 -0.5355  0.7400 -2.2632
 3596SOL    HW222425   0.959   3.227   6.495  0.6028  2.7786 -0.2893
 3597SOL     OW22426   3.725   0.781   6.049  0.1602 -0.1703 -0.0396
 3597SOL    HW122427   3.774   0.764   6.129  1.0963 -2.5660 -1.1326
 3597SOL    HW222428   3.721   0.876   6.036  0.7673  0.0982  1.6753
 3598SOL     OW22429   1.591   3.484   9.638  0.4280 -0.2438 -0.2012
 3598SOL    HW122430   1.664   3.421   9.640  0.7286  0.1860  2.5472
 3598SOL    HW222431   1.525   3.420   9.664 -0.6813  1.5405  1.3227
 3599SOL     OW22432   0.617   3.211   7.452 -0.2891 -0.0982  0.2282
 3599SOL    HW122433   0.536   3.170   7.423  0.0387 -1.5712  1.4257
 3599SOL    HW222434   0.641   3.258   7.372 -1.8695  0.8018  0.2675
 3600SOL     OW22435   4.630   3.882  17.476  0.1904 -0.1394 -0.3975
 3600SOL    HW122436   4.577   3.803  17.488  0.4055 -0.0885  0.8349
 3600SOL    HW222437   4.584   3.915  17.398  0.4353  3.0415  0.7983
 3601SOL     OW22438   0.770   2.944  13.666  0.4546  0.2337  0.5067
 3601SOL    HW122439   0.780   2.853  13.640  0.1647  0.2345  0.4002
 3601SOL    HW222440   0.791   2.945  13.759 -0.8105  2.2160  0.7732
 3602SOL     OW22441   2.667   4.016   5.832  0.5251  0.1429 -0.3085
 3602SOL    HW122442   2.647   3.953   5.762 -0.0129  0.0845 -0.1037
 3602SOL    HW222443   2.678   4.102   5.791 -1.1473 -1.1805 -3.5413
 3603SOL     OW22444   1.402   1.039   5.414  1.0153 -0.1010 -0.5424
 3603SOL    HW122445   1.356   1.118   5.389 -0.4154 -0.9165 -0.4899
 3603SOL    HW222446   1.330   0.978   5.395 -0.0584  0.8973  0.3326
 3604SOL     OW22447   0.267   2.095   3.886 -0.3683  0.3322  0.2635
 3604SOL    HW122448   0.339   2.031   3.886 -1.2718 -0.6800  3.0840
 3604SOL    HW222449   0.320   2.164   3.927 -0.0278  0.3792 -0.2438
 3605SOL     OW22450   4.175   0.003   1.254  0.0332  0.0361 -0.7160
 3605SOL    HW122451   4.180   4.651   1.293 -1.0610 -0.3616 -1.4666
 3605SOL    HW222452   4.183   4.712   1.162  0.2963 -0.7980 -0.4580
 3606SOL     OW22453   2.068   4.563   8.178 -0.1010  0.1778  0.1303
 3606SOL    HW122454   2.102   4.640   8.133 -1.1914  3.0229  4.1668
 3606SOL    HW222455   2.152   4.524   8.201  0.4469  0.1973 -1.7914
 3607SOL     OW22456   1.873   2.551  15.633 -0.2930  0.2933  0.0912
 3607SOL    HW122457   1.845   2.518  15.548 -1.5710  2.1743 -0.2211
 3607SOL    HW222458   1.861   2.646  15.621  0.0911  0.4709  1.1148
 3608SOL     OW22459   0.671   3.793   9.694 -0.2091  0.1530 -0.2606
 3608SOL    HW122460   0.651   3.700   9.694  0.5405 -0.0112  0.9601
 3608SOL    HW222461   0.630   3.805   9.779  1.9779  1.2026  0.6372
 3609SOL     OW22462   3.864   0.682   6.252  0.6901  0.1420  0.1472
 3609SOL    HW122463   3.836   0.624   6.323 -0.5041 -0.0372 -0.4692
 3609SOL    HW222464   3.939   0.642   6.207  0.8551  1.3839 -0.7016
 3610SOL     OW22465   0.161   1.182   7.620  0.0997  0.1860  0.4957
 3610SOL    HW122466   0.232   1.245   7.625 -1.4335  1.8473  1.2354
 3610SOL    HW222467   0.078   1.221   7.648 -1.0940 -2.7812  1.0741
 3611SOL     OW22468   2.683   0.634   4.375 -0.0089 -0.0798 -0.3948
 3611SOL    HW122469   2.693   0.729   4.374  0.0358 -0.0738  0.2406
 3611SOL    HW222470   2.763   0.606   4.330  0.5817  3.9992 -1.8506
 3612SOL     OW22471   3.250   1.468  17.514  0.1893  0.3485 -0.4210
 3612SOL    HW122472   3.201   1.440  17.437  0.9963 -0.4354 -0.6428
 3612SOL    HW222473   3.272   1.557  17.485  1.9191  0.2511  0.6158
 3613SOL     OW22474   3.015   0.150  15.871  0.4656  0.2050  0.4535
 3613SOL    HW122475   3.077   0.212  15.832 -1.1314  1.5975  0.1320
 3613SOL    HW222476   3.029   0.073  15.817  1.2217  0.5141  0.2126
 3614SOL     OW22477   0.194   2.356   0.462  0.3237 -0.2421 -0.4614
 3614SOL    HW122478   0.215   2.449   0.472  0.0985 -0.3227  0.7855
 3614SOL    HW222479   0.117   2.351   0.519 -0.1333  0.6261 -1.0005
 3615SOL     OW22480   3.053   3.946   4.917 -0.3646 -0.9553 -0.1484
 3615SOL    HW122481   2.993   3.880   4.882  0.5906 -0.5463 -2.5280
 3615SOL    HW222482   2.999   4.023   4.899 -0.3139 -1.1659 -1.1479
 3616SOL     OW22483   1.608   2.397   2.076 -0.0278  0.3412 -0.5245
 3616SOL    HW122484   1.539   2.455   2.045 -0.5854  0.3555  0.7469
 3616SOL    HW222485   1.684   2.454   2.083 -0.0877  0.9056 -4.7095
 3617SOL     OW22486   0.903   2.388   2.788  0.3868  0.3228  0.0484
 3617SOL    HW122487   0.993   2.420   2.797 -0.5388  2.4409  1.7018
 3617SOL    HW222488   0.862   2.461   2.834 -1.6925 -1.5618  1.1727
 3618SOL     OW22489   1.840   2.029   4.135 -0.2459 -0.6126  0.4785
 3618SOL    HW122490   1.923   2.003   4.174 -1.2290 -1.2420  2.1563
 3618SOL    HW222491   1.844   2.123   4.154 -2.6549 -1.3204  4.5680
 3619SOL     OW22492   2.018   2.841  15.720 -0.3285  0.7450 -0.2271
 3619SOL    HW122493   2.065   2.925  15.720  0.6265  0.1933  1.4641
 3619SOL    HW222494   2.053   2.809  15.802 -1.5403 -0.0173 -0.0156
 3620SOL     OW22495   0.417   2.564   1.391 -0.2056  0.5311 -0.3776
 3620SOL    HW122496   0.326   2.549   1.363 -0.1634 -2.5617  1.1410
 3620SOL    HW222497   0.406   2.600   1.479  0.7693  0.4630 -0.2308
 3621SOL     OW22498   2.323   2.482   7.057 -0.1067  0.2075  0.6531
 3621SOL    HW122499   2.339   2.388   7.052 -1.3933 -0.0274  0.8224
 3621SOL    HW222500   2.397   2.506   7.111  1.6547  1.3099 -2.2392
 3622SOL     OW22501   4.251   0.525   6.325 -0.3302 -0.1929 -0.1866
 3622SOL    HW122502   4.289   0.438   6.334  1.1730  0.4356 -0.4616
 3622SOL    HW222503   4.162   0.498   6.304 -1.4521  3.3242  0.0468
 3623SOL     OW22504   2.688   2.654   2.871  0.3109 -0.6027  0.0206
 3623SOL    HW122505   2.705   2.686   2.960  3.7064  1.1867 -1.2852
 3623SOL    HW222506   2.608   2.603   2.885  0.1918 -0.4043  0.0540
 3624SOL     OW22507   1.568   0.884   6.349  0.2669  0.0351 -0.8931
 3624SOL    HW122508   1.601   0.974   6.347  1.0081 -0.2482 -1.5142
 3624SOL    HW222509   1.495   0.891   6.410 -1.2862 -0.9644 -2.6386
 3625SOL     OW22510   3.028   0.900  15.560 -0.4363 -0.3902 -0.0622
 3625SOL    HW122511   3.004   0.823  15.612 -1.0068  0.1768  0.5156
 3625SOL    HW222512   2.941   0.933  15.538  0.5737  2.3218  0.0510
 3626SOL     OW22513   2.447   1.170   2.113  0.2010 -0.3867  0.2199
 3626SOL    HW122514   2.378   1.122   2.067  1.7150 -1.5156 -0.8537
 3626SOL    HW222515   2.416   1.261   2.113 -1.0181 -0.7998  0.4105
 3627SOL     OW22516   3.684   3.683   4.073 -0.4293  1.1371 -0.0366
 3627SOL    HW122517   3.644   3.616   4.018  0.8812 -0.7982  1.3599
 3627SOL    HW222518   3.738   3.627   4.130 -1.1864 -1.3686 -1.8156
 3628SOL     OW22519   3.901   1.008   7.423  0.2020  0.3571 -0.5616
 3628SOL    HW122520   3.896   0.993   7.517 -3.2196  0.2976 -0.7589
 3628SOL    HW222521   3.862   0.928   7.388 -0.3551  0.4415 -0.1341
 3629SOL     OW22522   1.902   3.692   2.978 -0.6882 -0.0418 -0.0300
 3629SOL    HW122523   1.951   3.754   2.922  0.0624 -0.5624  0.0526
 3629SOL    HW222524   1.822   3.744   2.973 -1.6302 -1.5158 -0.2622
 3630SOL     OW22525   1.685   4.256   9.544 -0.3351  0.5725 -0.0668
 3630SOL    HW122526   1.650   4.197   9.611  0.5913 -1.1418 -1.0858
 3630SOL    HW222527   1.702   4.190   9.477  0.4929  0.7728 -0.0502
 3631SOL     OW22528   4.521   2.043   5.611 -0.6695  0.4357  0.1270
 3631SOL    HW122529   4.550   2.126   5.575 -0.0204  0.7621  1.3963
 3631SOL    HW222530   4.433   2.033   5.576 -0.4839 -1.8894  0.3319
 3632SOL     OW22531   1.938   0.565   4.338 -0.0322  0.1226 -0.2803
 3632SOL    HW122532   1.913   0.584   4.248  0.6412 -1.1151 -0.7192
 3632SOL    HW222533   1.905   0.643   4.383 -1.3513 -0.3027 -0.5286
 3633SOL     OW22534   0.159   1.886  11.670 -0.6556  0.8075  0.0832
 3633SOL    HW122535   0.190   1.968  11.708  1.4303  0.3954 -0.7356
 3633SOL    HW222536   0.165   1.822  11.741  1.9712  0.5085 -0.4258
 3634SOL     OW22537   2.527   3.520  16.847 -0.4442  0.0437 -0.3051
 3634SOL    HW122538   2.434   3.519  16.868 -0.2660 -1.0665  0.4479
 3634SOL    HW222539   2.533   3.501  16.753  0.3608 -1.2297  0.0049
 3635SOL     OW22540   0.939   4.328   3.456  0.6794  0.5246  0.2427
 3635SOL    HW122541   1.033   4.348   3.451  1.0892 -1.6663 -1.0230
 3635SOL    HW222542   0.916   4.399   3.515  0.6211 -0.6468  1.6111
 3636SOL     OW22543   3.182   3.166   8.050  0.0139  0.3529  0.5873
 3636SOL    HW122544   3.199   3.094   7.988 -1.1014  0.2130  0.4582
 3636SOL    HW222545   3.110   3.130   8.101 -2.3232  0.9076 -2.3531
 3637SOL     OW22546   1.994   2.732   4.094  0.1882  0.1562  0.7331
 3637SOL    HW122547   1.914   2.745   4.043  1.7130 -0.7688 -1.9109
 3637SOL    HW222548   2.058   2.754   4.026 -0.4776  1.5681  0.5758
 3638SOL     OW22549   0.949   0.384   2.398  0.3590 -0.6568 -0.2815
 3638SOL    HW122550   0.899   0.304   2.384  0.1848 -1.2000  3.5570
 3638SOL    HW222551   0.899   0.417   2.473  1.1957 -3.6562  1.5608
 3639SOL     OW22552   4.685   3.199   5.917 -0.8010 -0.0458 -0.2432
 3639SOL    HW122553   4.713   3.284   5.949  2.8470 -0.4333 -2.3887
 3639SOL    HW222554   4.599   3.187   5.958  0.4318  0.0338  2.3278
 3640SOL     OW22555   2.625   0.829  10.153  0.0661  0.2830  0.1896
 3640SOL    HW122556   2.617   0.734  10.143 -0.0597  0.0874  2.1565
 3640SOL    HW222557   2.621   0.835  10.249  0.6161  0.1693  0.2203
 3641SOL     OW22558   2.339   4.488  14.164 -0.3448 -0.0234  0.6824
 3641SOL    HW122559   2.367   4.559  14.221  1.4330  0.5049 -0.8241
 3641SOL    HW222560   2.409   4.473  14.100 -0.5390 -0.3516  0.5512
 3642SOL     OW22561   2.395   1.176   8.423 -0.2555 -0.3339  0.5753
 3642SOL    HW122562   2.355   1.177   8.336  1.3051  1.7122 -0.1228
 3642SOL    HW222563   2.449   1.255   8.411  1.3443 -1.1881  2.0252
 3643SOL     OW22564   2.873   3.565   1.885  0.0826  0.0777  0.2260
 3643SOL    HW122565   2.908   3.626   1.821  0.1345  1.2092  1.3334
 3643SOL    HW222566   2.859   3.617   1.964  1.6668  0.3108  0.3673
 3644SOL     OW22567   0.012   4.314   4.893  0.5807  0.3419 -0.5377
 3644SOL    HW122568   0.096   4.302   4.849  0.0383 -1.0653 -1.1899
 3644SOL    HW222569   0.047   4.321   4.982 -0.0686 -0.9369 -0.1786
 3645SOL     OW22570   2.940   0.071   4.934  0.4703  0.5140 -0.3685
 3645SOL    HW122571   2.924   0.074   4.840  2.2258  0.7216 -0.6583
 3645SOL    HW222572   3.031   0.099   4.941  0.9966 -1.5011  1.1041
 3646SOL     OW22573   2.832   1.568   4.351  0.3682  0.3668 -0.2875
 3646SOL    HW122574   2.751   1.521   4.371 -0.2178  1.2706 -0.5671
 3646SOL    HW222575   2.810   1.606   4.266 -1.1831  0.9032  0.3589
 3647SOL     OW22576   2.277   0.065   5.849  0.2668  0.5073 -0.1195
 3647SOL    HW122577   2.319   0.151   5.858  1.4390  0.1562 -2.2194
 3647SOL    HW222578   2.237   0.044   5.933  0.2357 -0.2203 -0.3134
 3648SOL     OW22579   0.550   3.497   7.957  0.1466  0.4566  0.2557
 3648SOL    HW122580   0.556   3.449   7.874  0.1136 -0.8676  1.0036
 3648SOL    HW222581   0.488   3.447   8.010 -0.2438  0.5120 -0.1541
 3649SOL     OW22582   0.488   2.532   6.246 -0.0266  0.2223 -0.7226
 3649SOL    HW122583   0.526   2.500   6.164  1.3429 -0.5576  0.2134
 3649SOL    HW222584   0.464   2.445   6.276  2.6633 -0.2267  0.1608
 3650SOL     OW22585   2.677   2.283   2.962  0.0393  0.0367 -0.1596
 3650SOL    HW122586   2.582   2.278   2.949 -0.5362  1.2440  3.3765
 3650SOL    HW222587   2.683   2.198   3.006  0.0050 -0.3700 -0.9497
 3651SOL     OW22588   3.121   4.371   1.551 -0.1173  0.4316 -0.5334
 3651SOL    HW122589   3.185   4.340   1.487  0.8030  1.1296  0.0375
 3651SOL    HW222590   3.177   4.431   1.600 -1.0081  0.7821  0.0506
 3652SOL     OW22591   4.307   3.116   9.932  0.3539  0.3842  0.6572
 3652SOL    HW122592   4.294   3.046   9.995 -0.8638 -0.4537 -0.5521
 3652SOL    HW222593   4.341   3.191   9.981  1.4682  1.4994 -1.8124
 3653SOL     OW22594   1.703   4.259   7.891 -0.4283  0.5117 -0.1268
 3653SOL    HW122595   1.760   4.291   7.821 -0.1984 -0.1047 -0.2266
 3653SOL    HW222596   1.628   4.233   7.837 -0.3059  0.5327 -0.3093
 3654SOL     OW22597   4.157   4.543   7.299 -0.8266  0.0481 -0.2470
 3654SOL    HW122598   4.106   4.614   7.259  0.6934  0.3981 -1.5570
 3654SOL    HW222599   4.186   4.497   7.220 -1.2529  2.0101 -1.5699
 3655SOL     OW22600   0.650   2.784  13.947 -0.0299  0.2530  0.1350
 3655SOL    HW122601   0.634   2.724  13.875  0.9904  0.5000 -0.3011
 3655SOL    HW222602   0.734   2.826  13.925  0.3593 -0.3765  0.4117
 3656SOL     OW22603   0.776   0.826   5.487  0.1912  0.3769 -0.0923
 3656SOL    HW122604   0.757   0.897   5.426  0.3105 -1.1562 -1.8970
 3656SOL    HW222605   0.719   0.842   5.562 -1.2432  0.9240 -1.3048
 3657SOL     OW22606   0.521   2.744   5.869 -0.5035 -0.4035  0.0316
 3657SOL    HW122607   0.577   2.798   5.812 -0.6606  1.1766  1.3908
 3657SOL    HW222608   0.454   2.806   5.896 -1.3462 -1.5591  0.5876
 3658SOL     OW22609   2.538   1.504  11.779  0.4043 -0.3592 -0.0514
 3658SOL    HW122610   2.623   1.548  11.789  0.9582 -1.3904 -0.1631
 3658SOL    HW222611   2.484   1.555  11.840 -1.2766  0.0334 -1.8861
 3659SOL     OW22612   2.394   3.970   6.222  0.6010 -0.0188  0.0347
 3659SOL    HW122613   2.327   4.024   6.180  0.5621 -0.1721 -0.1052
 3659SOL    HW222614   2.404   3.908   6.149  0.0405 -0.7301  0.5688
 3660SOL     OW22615   1.483   3.151   4.316 -0.5172 -0.3147  0.5673
 3660SOL    HW122616   1.523   3.170   4.231  0.2236 -1.4639  0.6527
 3660SOL    HW222617   1.546   3.185   4.380 -1.6149  1.9407  0.4423
 3661SOL     OW22618   3.146   3.448   2.103 -0.1555  0.2004  0.1752
 3661SOL    HW122619   3.121   3.365   2.062  0.5595  0.2941 -0.4556
 3661SOL    HW222620   3.177   3.506   2.034 -0.5624 -1.1193 -1.1184
 3662SOL     OW22621   2.402   3.786   2.545 -0.0563  0.2975 -0.2619
 3662SOL    HW122622   2.391   3.880   2.561  1.1935  0.0127  2.0930
 3662SOL    HW222623   2.324   3.756   2.591  1.3990  0.2337  2.1594
 3663SOL     OW22624   3.370   2.413   3.719 -0.0571 -0.1138  0.1816
 3663SOL    HW122625   3.424   2.491   3.708  0.7814 -0.8215 -0.6517
 3663SOL    HW222626   3.344   2.437   3.808 -3.1511 -1.4836 -0.3240
 3664SOL     OW22627   3.633   0.686   9.871 -0.6344  0.2861 -0.2882
 3664SOL    HW122628   3.625   0.599   9.831  1.7039 -1.1507  2.3348
 3664SOL    HW222629   3.552   0.700   9.920  0.0301  0.7505  0.6780
 3665SOL     OW22630   4.028   0.733   5.637  0.0435 -0.3635  0.1244
 3665SOL    HW122631   4.074   0.651   5.656  1.0729  0.6485  2.0309
 3665SOL    HW222632   3.946   0.724   5.685 -0.0470 -0.3642 -0.0329
 3666SOL     OW22633   4.238   2.729  14.066 -0.3825 -0.3598 -0.3134
 3666SOL    HW122634   4.325   2.699  14.091 -0.1884  1.1793  0.8421
 3666SOL    HW222635   4.189   2.692  14.140 -1.9095  0.1956 -1.0484
 3667SOL     OW22636   3.793   2.214   5.069 -0.0730 -0.1868 -0.4727
 3667SOL    HW122637   3.704   2.202   5.101 -0.6193  3.4330 -0.6206
 3667SOL    HW222638   3.847   2.221   5.148  0.6470 -0.8124 -0.9128
 3668SOL     OW22639   2.932   0.246   9.467 -0.2508  0.4414  0.1509
 3668SOL    HW122640   3.008   0.188   9.457  0.6239  1.3570  1.5219
 3668SOL    HW222641   2.869   0.184   9.504 -1.5397  1.7726  0.1946
 3669SOL     OW22642   1.790   0.995   5.489 -0.2593 -0.0263 -0.2077
 3669SOL    HW122643   1.755   1.082   5.507  0.5640  0.3609 -0.4725
 3669SOL    HW222644   1.736   0.961   5.417  1.5114 -1.5335 -0.8303
 3670SOL     OW22645   1.449   2.679  12.913  0.9355  0.2461  0.2663
 3670SOL    HW122646   1.473   2.747  12.976 -0.4533  0.5424  0.4802
 3670SOL    HW222647   1.530   2.657  12.868  0.2756 -0.1928 -0.7252
 3671SOL     OW22648   3.904   1.091   2.512  0.6669 -0.3897 -0.2817
 3671SOL    HW122649   3.864   1.148   2.577 -0.0954  0.0836 -1.1662
 3671SOL    HW222650   3.879   1.002   2.536 -0.3766  0.1361  0.5617
 3672SOL     OW22651   1.442   0.189   7.874  0.0710 -0.8003  0.0282
 3672SOL    HW122652   1.451   0.185   7.779 -2.2640  0.1263 -0.2271
 3672SOL    HW222653   1.441   0.100   7.907 -0.6375 -0.2595  1.4538
 3673SOL     OW22654   3.070   0.724   9.654 -0.0384 -0.4724  0.3559
 3673SOL    HW122655   3.071   0.729   9.750 -1.3550  0.2894  0.3416
 3673SOL    HW222656   3.097   0.634   9.640  2.8031  0.7447 -1.8328
 3674SOL     OW22657   1.280   3.107   3.257 -0.3602 -0.5240 -0.6515
 3674SOL    HW122658   1.293   3.157   3.176 -0.5803 -2.1555 -1.7072
 3674SOL    HW222659   1.217   3.163   3.303  2.5379 -0.6280  3.4068
 3675SOL     OW22660   0.001   1.921   0.050  0.4280  0.0589 -0.2419
 3675SOL    HW122661   4.667   1.876   0.097 -0.6855  0.0047 -1.9322
 3675SOL    HW222662   0.020   1.858  17.719 -1.4671 -1.4115  0.5739
 3676SOL     OW22663   0.198   2.294   5.506 -0.6674  0.2770  0.2546
 3676SOL    HW122664   0.232   2.336   5.427  0.0632  0.2749  0.5758
 3676SOL    HW222665   0.116   2.344   5.508 -2.1556 -2.1888  1.9457
 3677SOL     OW22666   1.267   4.645   8.286  0.4323 -0.0721 -0.0488
 3677SOL    HW122667   1.348   4.693   8.268 -0.1085  0.9700  0.2663
 3677SOL    HW222668   1.216   4.713   8.331 -1.3082 -2.4192  1.5065
 3678SOL     OW22669   1.786   4.206  15.889  0.4391  0.3179  0.3748
 3678SOL    HW122670   1.753   4.248  15.809  2.0199  0.3240 -0.2857
 3678SOL    HW222671   1.708   4.158  15.916  0.0723 -0.5163 -2.1150
 3679SOL     OW22672   1.833   0.347   8.112 -0.4761  0.2626  0.1097
 3679SOL    HW122673   1.740   0.345   8.088  0.0385  0.2289 -1.8821
 3679SOL    HW222674   1.860   0.428   8.069 -0.8609  1.0300  1.3107
 3680SOL     OW22675   3.105   3.784   7.522  0.2715  0.0711 -0.2771
 3680SOL    HW122676   3.153   3.813   7.599  2.2027  0.1701 -1.5228
 3680SOL    HW222677   3.144   3.697   7.523 -0.4009 -0.2138  0.7658
 3681SOL     OW22678   3.813   1.790   9.332  0.1242  0.3594 -0.1763
 3681SOL    HW122679   3.863   1.751   9.403 -0.5056  0.7555  0.4878
 3681SOL    HW222680   3.884   1.838   9.290  1.7989 -0.5449  1.6489
 3682SOL     OW22681   3.762   3.737   4.392  0.6255  0.2252  0.5630
 3682SOL    HW122682   3.790   3.699   4.309 -0.7037  0.1743  0.1445
 3682SOL    HW222683   3.846   3.747   4.438  1.3093  1.0069 -0.8583
 3683SOL     OW22684   4.599   1.031   5.312 -0.2951 -0.4455  0.2278
 3683SOL    HW122685   4.650   0.981   5.248 -1.1664 -1.1461  0.0806
 3683SOL    HW222686   4.513   0.992   5.299  0.6350 -2.0154 -1.2483
 3684SOL     OW22687   1.395   2.133   1.915 -0.4250 -0.0139  0.2838
 3684SOL    HW122688   1.365   2.176   1.835  0.6623  0.9830  0.4069
 3684SOL    HW222689   1.379   2.039   1.905 -0.3927 -0.0250  0.3397
 3685SOL     OW22690   0.281   0.699   7.048 -0.2509  0.3670  0.1072
 3685SOL    HW122691   0.324   0.625   7.005  1.2311  0.8959  0.6948
 3685SOL    HW222692   0.326   0.774   7.009  0.2844 -0.3189 -0.5837
 3686SOL     OW22693   2.420   2.920   2.947  0.9362  0.0109 -0.3433
 3686SOL    HW122694   2.358   2.909   3.019  0.0803 -0.0077 -1.0887
 3686SOL    HW222695   2.494   2.947   3.002  1.1793 -0.5837 -0.3772
 3687SOL     OW22696   2.061   0.020   4.730  0.4140 -0.0496  0.2200
 3687SOL    HW122697   2.135   0.038   4.672 -0.0121 -1.5426 -0.7838
 3687SOL    HW222698   2.094   4.673   4.767  2.2395  1.7269  2.5284
 3688SOL     OW22699   0.066   3.547   4.078 -0.1687  0.4523 -0.0121
 3688SOL    HW122700   0.015   3.478   4.121 -0.3719 -0.0057 -0.9955
 3688SOL    HW222701   0.026   3.622   4.123 -2.1924  0.9613 -2.6207
 3689SOL     OW22702   1.509   1.352   1.340 -0.2002 -0.1315  0.3299
 3689SOL    HW122703   1.529   1.375   1.250  0.3016  0.2287  0.5358
 3689SOL    HW222704   1.460   1.270   1.334 -1.3449  0.6072 -0.2982
 3690SOL     OW22705   3.408   0.343   3.685 -0.7328 -0.1112 -0.1258
 3690SOL    HW122706   3.371   0.266   3.643 -1.7771  0.9476 -1.1674
 3690SOL    HW222707   3.500   0.316   3.685  0.4367  3.9373 -4.1194
 3691SOL     OW22708   0.940   2.419  10.014 -0.1638 -0.7750  0.0582
 3691SOL    HW122709   0.979   2.403   9.927  1.6815 -0.7535  0.8723
 3691SOL    HW222710   0.977   2.504  10.038  1.9976 -2.2988  2.1860
 3692SOL     OW22711   3.714   2.485  10.133  0.1667  0.0341  0.2095
 3692SOL    HW122712   3.769   2.508  10.058  0.4445 -1.3699 -0.0123
 3692SOL    HW222713   3.629   2.516  10.099 -0.1962 -0.4019  0.7298
 3693SOL     OW22714   2.768   2.087   3.154 -0.5786 -0.5435  0.6553
 3693SOL    HW122715   2.729   2.009   3.194 -0.8280 -0.5490  0.4004
 3693SOL    HW222716   2.785   2.127   3.239 -1.9515  0.9645  0.2248
 3694SOL     OW22717   3.911   2.250  15.766  0.6273  0.1314  0.6606
 3694SOL    HW122718   3.909   2.344  15.750  1.8374 -0.3492 -2.4943
 3694SOL    HW222719   3.872   2.240  15.852  0.5043  0.3613  0.6325
 3695SOL     OW22720   0.699   3.867  10.275 -1.2528 -0.0292  0.2106
 3695SOL    HW122721   0.637   3.811  10.322 -0.1380 -0.5464  1.0573
 3695SOL    HW222722   0.767   3.883  10.340 -0.9121 -0.1355 -0.1183
 3696SOL     OW22723   0.499   0.569   2.085 -0.2466 -0.0070  0.1218
 3696SOL    HW122724   0.593   0.586   2.088  0.3650 -2.9279 -1.8277
 3696SOL    HW222725   0.472   0.576   2.176  0.2682 -0.9012  0.3451
 3697SOL     OW22726   1.460   1.080   8.677 -0.4047 -0.0882  0.3623
 3697SOL    HW122727   1.550   1.108   8.693 -0.2880  0.7260 -1.6685
 3697SOL    HW222728   1.407   1.159   8.668 -2.0043 -1.0833  1.1284
 3698SOL     OW22729   1.339   2.991   6.403  0.7817  0.6056 -0.2273
 3698SOL    HW122730   1.252   2.955   6.420  1.6688 -0.9167  1.1095
 3698SOL    HW222731   1.322   3.078   6.367  0.0042 -0.4465 -2.4168
 3699SOL     OW22732   1.168   0.904  14.131  0.0008  0.0599 -0.3670
 3699SOL    HW122733   1.110   0.920  14.206  0.9323  1.4779  0.0624
 3699SOL    HW222734   1.227   0.834  14.159  1.2403  0.7008 -1.3766
 3700SOL     OW22735   0.119   2.880   4.733  0.4114 -0.0773  0.5183
 3700SOL    HW122736   0.191   2.890   4.670  0.5645  2.3054  1.0495
 3700SOL    HW222737   0.160   2.921   4.810 -1.1951  2.2395  0.1473
 3701SOL     OW22738   1.398   1.946   8.578  0.6622  0.3608 -0.2078
 3701SOL    HW122739   1.492   1.931   8.586  0.4536 -1.6442 -1.4534
 3701SOL    HW222740   1.384   1.866   8.528 -1.5989 -0.6018  1.9808
 3702SOL     OW22741   1.799   0.203   6.313 -0.1907  0.3167 -0.2914
 3702SOL    HW122742   1.711   0.217   6.347  0.0054 -1.4389  0.9482
 3702SOL    HW222743   1.781   0.207   6.219  2.1539 -3.0901 -0.8927
 3703SOL     OW22744   0.268   0.570  11.398 -0.4506 -0.4498  0.3603
 3703SOL    HW122745   0.209   0.604  11.465  0.6023  2.0395 -0.0038
 3703SOL    HW222746   0.246   0.477  11.408 -1.8205  0.0438  1.9746
 3704SOL     OW22747   4.142   3.513   7.443 -0.4005 -0.4354 -0.3056
 3704SOL    HW122748   4.115   3.580   7.506 -1.3169 -1.0143 -0.0816
 3704SOL    HW222749   4.060   3.466   7.427 -0.4467 -0.6161  0.4767
 3705SOL     OW22750   3.109   1.928  15.438 -0.3176  0.2605  0.5415
 3705SOL    HW122751   3.135   2.020  15.437  2.2309 -0.4867 -1.0802
 3705SOL    HW222752   3.014   1.929  15.426 -0.2222  0.5638 -0.1659
 3706SOL     OW22753   2.517   3.482   7.694  0.4777  0.0267 -0.1374
 3706SOL    HW122754   2.465   3.506   7.771 -0.5065  0.9870 -1.1130
 3706SOL    HW222755   2.499   3.388   7.683 -0.0617 -0.0683  1.5691
 3707SOL     OW22756   2.032   2.424  10.338 -0.0168  0.7644  0.1018
 3707SOL    HW122757   1.981   2.485  10.284 -0.5283  0.5706  0.3618
 3707SOL    HW222758   2.118   2.463  10.326 -0.6750  1.4783 -2.4230
 3708SOL     OW22759   0.313   1.649   2.932  0.1893 -0.2365  0.4421
 3708SOL    HW122760   0.232   1.614   2.894  0.7161  0.7572 -1.5974
 3708SOL    HW222761   0.370   1.590   2.883 -0.0727 -0.1680  0.0515
 3709SOL     OW22762   2.977   3.701   8.497 -0.6136 -0.3181  0.1664
 3709SOL    HW122763   2.897   3.649   8.492 -0.7255  0.0574 -2.3411
 3709SOL    HW222764   3.000   3.696   8.589  1.4370 -1.0668 -0.3646
 3710SOL     OW22765   1.523   0.156   5.799 -0.5219 -0.4271  0.5493
 3710SOL    HW122766   1.572   0.140   5.718 -1.5032 -0.3745 -0.0462
 3710SOL    HW222767   1.453   0.216   5.774  0.1876  0.3357  0.3842
 3711SOL     OW22768   2.821   1.822   0.284  0.3427  0.6317 -0.9292
 3711SOL    HW122769   2.736   1.814   0.241 -0.3709  0.7710  0.4731
 3711SOL    HW222770   2.800   1.882   0.355  2.4043  1.3936 -0.9600
 3712SOL     OW22771   0.821   1.279   4.342 -0.1659  0.1220  0.7107
 3712SOL    HW122772   0.801   1.248   4.430 -0.9355 -2.0736 -0.2354
 3712SOL    HW222773   0.874   1.357   4.359  1.6587 -0.4032 -2.5031
 3713SOL     OW22774   1.694   1.377  11.876  0.0027  0.4313 -0.2145
 3713SOL    HW122775   1.708   1.371  11.781  1.4344 -0.9933  0.0888
 3713SOL    HW222776   1.787   1.377  11.901 -0.8932  1.5451  3.0998
 3714SOL     OW22777   4.347   3.543   1.078  0.1942  0.1149  0.1215
 3714SOL    HW122778   4.401   3.528   1.000  2.9774  1.0151  1.9127
 3714SOL    HW222779   4.262   3.577   1.049 -0.2214 -0.7303  0.3678
 3715SOL     OW22780   0.357   0.025  10.108  0.2869  0.0426 -0.0744
 3715SOL    HW122781   0.346   0.040  10.202 -1.6066  2.8497 -0.7433
 3715SOL    HW222782   0.450   0.005  10.108  0.0889 -0.9184  0.8541
 3716SOL     OW22783   2.139   2.763   8.276  0.2421  0.1896 -0.3652
 3716SOL    HW122784   2.054   2.777   8.318 -0.0619  1.1704 -1.2958
 3716SOL    HW222785   2.158   2.854   8.256  2.7104 -0.1388  0.4330
 3717SOL     OW22786   2.363   0.825   3.519  0.1289  0.7163 -0.3758
 3717SOL    HW122787   2.301   0.754   3.507 -2.1772  2.4432  1.4092
 3717SOL    HW222788   2.314   0.869   3.589 -1.0470  1.6942 -1.8335
 3718SOL     OW22789   2.658   1.856   6.107  0.2503 -0.7978  0.4088
 3718SOL    HW122790   2.597   1.810   6.050  0.4029 -1.3392  0.6804
 3718SOL    HW222791   2.622   1.818   6.188  1.6362 -1.3783  0.7653
 3719SOL     OW22792   2.759   4.493  10.641 -0.3235  0.4664 -0.2158
 3719SOL    HW122793   2.672   4.530  10.629 -0.0296  1.0894 -0.4429
 3719SOL    HW222794   2.815   4.569  10.657  1.5962 -0.9509 -0.1664
 3720SOL     OW22795   0.892   3.516  14.477 -0.3320 -0.2923 -0.4846
 3720SOL    HW122796   0.933   3.485  14.558 -0.1470  2.0051  0.2929
 3720SOL    HW222797   0.848   3.438  14.442  1.3139 -0.8607 -1.3022
 3721SOL     OW22798   3.869   0.391   9.831  0.1649 -0.2375  0.7428
 3721SOL    HW122799   3.817   0.434   9.899 -0.9015  1.2289 -1.0086
 3721SOL    HW222800   3.913   0.328   9.889  0.2711  1.0199  2.0445
 3722SOL     OW22801   4.413   1.085   4.803 -0.3100 -0.3921  0.6383
 3722SOL    HW122802   4.404   1.011   4.742  0.3772 -0.9096  1.1553
 3722SOL    HW222803   4.329   1.131   4.797  0.0316  0.3918  2.0264
 3723SOL     OW22804   2.333   4.574   1.895 -0.5596 -0.0692  0.0534
 3723SOL    HW122805   2.349   4.669   1.902  1.2974 -0.2461 -1.7841
 3723SOL    HW222806   2.371   4.566   1.808  1.9347  0.6682  1.0786
 3724SOL     OW22807   1.790   3.098   3.301 -0.2903 -0.3243 -0.5985
 3724SOL    HW122808   1.707   3.110   3.345 -0.3324 -1.9382 -0.2089
 3724SOL    HW222809   1.814   3.181   3.262  0.0058 -0.0279  0.2119
 3725SOL     OW22810   1.897   4.071  10.306  0.3940  0.5708  0.5025
 3725SOL    HW122811   1.876   4.164  10.316  0.9031  0.4956  2.4091
 3725SOL    HW222812   1.978   4.058  10.354 -0.1541 -0.2477  1.2086
 3726SOL     OW22813   2.468   3.323   2.524  0.2718 -0.2816 -0.7790
 3726SOL    HW122814   2.563   3.308   2.533  0.0885 -0.1137  1.2464
 3726SOL    HW222815   2.457   3.374   2.604  0.1463  0.3528 -1.2010
 3727SOL     OW22816   2.050   3.437  11.748 -0.2597 -0.4024  0.3016
 3727SOL    HW122817   2.067   3.531  11.742  4.3296 -1.2993 -0.6215
 3727SOL    HW222818   2.139   3.407  11.731  0.2412  1.0100  0.4556
 3728SOL     OW22819   0.531   2.982   6.643  0.3795 -0.1481  0.2346
 3728SOL    HW122820   0.606   3.036   6.669 -0.0138  0.0834  0.9006
 3728SOL    HW222821   0.475   2.982   6.721  0.5017 -0.5060  0.3222
 3729SOL     OW22822   2.656   4.257   9.635 -0.4493 -0.0767  0.5056
 3729SOL    HW122823   2.633   4.164   9.642 -0.3384  0.0078  1.9924
 3729SOL    HW222824   2.695   4.272   9.721  1.7683 -0.1148 -0.4739
 3730SOL     OW22825   0.548   0.030  16.845 -0.0658  0.0630 -0.4679
 3730SOL    HW122826   0.512   0.038  16.933 -0.7457 -0.3961 -0.7043
 3730SOL    HW222827   0.541   4.674  16.816  1.7891  0.1473 -1.1643
 3731SOL     OW22828   1.800   1.881  12.331 -0.9711  0.6329  0.2257
 3731SOL    HW122829   1.850   1.952  12.371  0.9024  0.6544 -2.0962
 3731SOL    HW222830   1.765   1.833  12.406 -0.8153 -0.9630 -0.7213
 3732SOL     OW22831   0.986   0.448   9.482  0.0044  0.6695  0.1146
 3732SOL    HW122832   1.021   0.415   9.399 -0.4195 -1.0607  0.6217
 3732SOL    HW222833   1.025   0.388   9.545  0.6830  1.1138  0.1109
 3733SOL     OW22834   0.655   1.153   2.325  0.3783 -0.6129  0.1245
 3733SOL    HW122835   0.744   1.168   2.295  0.9795 -1.8366  1.3018
 3733SOL    HW222836   0.649   1.228   2.384 -0.3679 -0.7412  0.2158
 3734SOL     OW22837   2.943   0.548  11.541  0.6726  0.7341 -0.3089
 3734SOL    HW122838   3.006   0.620  11.533 -0.8250  2.0895  0.1218
 3734SOL    HW222839   2.998   0.482  11.583  0.0501  0.0853 -0.5106
 3735SOL     OW22840   1.582   3.574  17.287  0.1723 -0.0642  0.5726
 3735SOL    HW122841   1.564   3.482  17.306 -1.4189  0.1266 -0.0483
 3735SOL    HW222842   1.512   3.587  17.223 -0.0642  2.4124  1.3320
 3736SOL     OW22843   4.174   0.455  10.460  0.2149 -0.1079 -0.9769
 3736SOL    HW122844   4.173   0.377  10.404  1.6985 -1.1154  0.4025
 3736SOL    HW222845   4.222   0.419  10.534 -2.1745 -0.3234  0.4635
 3737SOL     OW22846   4.489   1.287  15.233  0.3404  0.8346  0.4056
 3737SOL    HW122847   4.480   1.289  15.328 -1.9796 -0.0894  0.1961
 3737SOL    HW222848   4.458   1.201  15.206 -1.1639  1.7792 -0.8753
 3738SOL     OW22849   1.834   0.502  16.997 -0.2348  0.1069 -0.0659
 3738SOL    HW122850   1.891   0.574  16.971  0.3925 -1.0557 -1.9261
 3738SOL    HW222851   1.749   0.545  16.993 -0.1819  0.2365  0.2061
 3739SOL     OW22852   1.139   3.354   9.672  0.1680 -0.1862 -0.2177
 3739SOL    HW122853   1.067   3.302   9.709 -1.7499  2.8523  0.3348
 3739SOL    HW222854   1.143   3.424   9.737  0.9735 -0.1231 -0.3376
 3740SOL     OW22855   0.972   1.119  10.158 -0.5414  0.6624  0.1455
 3740SOL    HW122856   1.012   1.092  10.076  0.7132  1.5663  0.4567
 3740SOL    HW222857   0.884   1.126  10.122 -0.5840 -2.5063 -0.3795
 3741SOL     OW22858   0.469   2.889  13.565 -0.1396 -0.1833  0.1268
 3741SOL    HW122859   0.411   2.931  13.630 -0.6208  1.2214 -1.2215
 3741SOL    HW222860   0.419   2.814  13.533  1.4279  0.0474 -2.8449
 3742SOL     OW22861   4.641   1.686   2.099  0.3709 -0.1089  0.2679
 3742SOL    HW122862   4.601   1.773   2.099  0.5414 -0.0292 -0.1710
 3742SOL    HW222863   4.714   1.696   2.038 -0.9034  1.2895 -1.0217
 3743SOL     OW22864   4.493   1.242  12.182 -0.0399 -0.2389  0.2743
 3743SOL    HW122865   4.425   1.194  12.136 -0.3414 -0.6004  1.1003
 3743SOL    HW222866   4.473   1.334  12.166 -0.3831 -0.3128  0.2940
 3744SOL     OW22867   2.247   4.376  16.063  0.2289 -0.1153 -0.0460
 3744SOL    HW122868   2.300   4.433  16.007  3.2086 -1.6583  1.2197
 3744SOL    HW222869   2.280   4.406  16.148 -0.6021 -1.0759  0.6160
 3745SOL     OW22870   3.591   0.055  15.982  0.3855 -0.7552 -0.0191
 3745SOL    HW122871   3.557   0.115  15.915  1.0452  0.0354  0.3510
 3745SOL    HW222872   3.667   0.024  15.933  1.3963 -0.7169  1.5490
 3746SOL     OW22873   0.324   4.532  14.880  0.1632  0.0060 -0.5247
 3746SOL    HW122874   0.404   4.536  14.933 -1.0059 -1.7318  1.3704
 3746SOL    HW222875   0.306   4.624  14.902 -2.2248 -0.5643 -0.0399
 3747SOL     OW22876   4.658   3.860   9.370 -0.2139 -0.0115 -0.1071
 3747SOL    HW122877   4.683   3.813   9.290 -0.1562 -0.0605 -0.0605
 3747SOL    HW222878   4.720   3.825   9.435  1.2761  2.0578 -0.4059
 3748SOL     OW22879   0.378   2.486  14.332  0.2893  0.1609  0.0197
 3748SOL    HW122880   0.470   2.461  14.340  0.4702  1.1251  0.8828
 3748SOL    HW222881   0.359   2.428  14.257 -0.0021  1.3297 -0.8126
 3749SOL     OW22882   1.274   4.165  16.518 -0.0955 -0.0580  0.3450
 3749SOL    HW122883   1.219   4.244  16.513  0.0262  0.0798  1.1244
 3749SOL    HW222884   1.213   4.091  16.516  0.7394 -0.7275 -0.1687
 3750SOL     OW22885   4.228   2.092  14.309 -0.4409 -0.1578  0.0279
 3750SOL    HW122886   4.220   2.023  14.244  0.2100  0.0749 -0.3010
 3750SOL    HW222887   4.313   2.068  14.346  0.0758  0.0671 -1.0056
 3751SOL     OW22888   0.303   0.804  16.358  0.0745  0.3843  0.7004
 3751SOL    HW122889   0.280   0.866  16.290 -1.6919  1.0643  1.9209
 3751SOL    HW222890   0.216   0.773  16.383 -0.4011  0.9923 -0.2490
 3752SOL     OW22891   3.917   1.541   6.756 -0.2362  0.4464 -0.1815
 3752SOL    HW122892   3.823   1.528   6.744 -0.0364  1.9414 -3.0860
 3752SOL    HW222893   3.955   1.456   6.732 -0.5365  0.1756  0.2984
 3753SOL     OW22894   2.732   2.021   0.476 -0.2993 -0.5030 -0.3559
 3753SOL    HW122895   2.640   2.010   0.499 -0.7283  1.7382 -0.9749
 3753SOL    HW222896   2.777   2.003   0.558  1.6918  0.6521 -1.1756
 3754SOL     OW22897   3.442   3.238   6.588 -0.1911  0.5011  0.0708
 3754SOL    HW122898   3.463   3.252   6.496  0.6760  0.3534  0.2488
 3754SOL    HW222899   3.477   3.320   6.623  0.3344  0.4116 -0.2545
 3755SOL     OW22900   2.429   1.181   6.847  0.7713 -0.6781 -0.0969
 3755SOL    HW122901   2.345   1.170   6.891  0.6880 -3.2331 -0.9093
 3755SOL    HW222902   2.492   1.151   6.913  2.1633 -0.6987 -1.4531
 3756SOL     OW22903   0.484   3.780   6.590  0.2048 -0.2484  0.4337
 3756SOL    HW122904   0.413   3.769   6.528  1.1271 -1.1495 -0.4670
 3756SOL    HW222905   0.560   3.756   6.536  0.8287  1.2052  0.6573
 3757SOL     OW22906   3.922   1.602  16.777  0.0541  0.1639 -0.1480
 3757SOL    HW122907   3.988   1.570  16.838 -1.5715  2.3537  2.7943
 3757SOL    HW222908   3.851   1.539  16.786 -1.6697  2.4732  2.2765
 3758SOL     OW22909   2.404   2.102   5.518 -0.3472  0.1459  0.3994
 3758SOL    HW122910   2.412   2.044   5.594  0.9708 -0.8579 -0.5150
 3758SOL    HW222911   2.354   2.053   5.453  1.6135 -0.6715 -0.4879
 3759SOL     OW22912   0.027   2.276   2.821  0.2157 -0.1360 -0.0547
 3759SOL    HW122913   0.058   2.335   2.752  1.6163 -2.0214 -1.0283
 3759SOL    HW222914   0.109   2.282   2.871  1.0604 -1.1493 -1.3275
 3760SOL     OW22915   2.545   2.885  11.163 -0.0109  0.8422  0.3391
 3760SOL    HW122916   2.488   2.810  11.181 -1.2393  1.4446 -1.0960
 3760SOL    HW222917   2.627   2.849  11.197 -0.4742 -0.1219  0.4668
 3761SOL     OW22918   1.400   3.482   4.840 -0.7456 -0.4048 -0.1726
 3761SOL    HW122919   1.474   3.436   4.880 -0.0304  0.2029 -0.7904
 3761SOL    HW222920   1.406   3.574   4.867  0.3530  0.0716 -2.0541
 3762SOL     OW22921   0.602   0.941  12.607  0.2191 -0.3998  0.8322
 3762SOL    HW122922   0.539   0.870  12.606 -0.1674 -0.0419 -0.4763
 3762SOL    HW222923   0.668   0.905  12.667 -0.7260  0.2506  2.2416
 3763SOL     OW22924   1.185   2.818   1.865 -1.0372 -0.4038 -0.0859
 3763SOL    HW122925   1.160   2.910   1.856 -1.4021 -0.6676 -1.7300
 3763SOL    HW222926   1.268   2.829   1.911 -0.8100  0.0166 -0.5988
 3764SOL     OW22927   1.106   0.186   8.340 -0.1196  0.1620  0.8340
 3764SOL    HW122928   1.156   0.219   8.264 -1.3032 -0.2460 -0.1167
 3764SOL    HW222929   1.021   0.218   8.311 -1.3395 -2.8398  1.1789
 3765SOL     OW22930   1.175   3.283  14.965 -0.1121 -0.3100 -0.3348
 3765SOL    HW122931   1.090   3.314  14.932 -0.1098  0.2849  0.2189
 3765SOL    HW222932   1.160   3.190  14.950 -0.8620 -0.0756 -1.0536
 3766SOL     OW22933   4.367   1.107  11.288  0.0423 -0.2682  0.3161
 3766SOL    HW122934   4.325   1.191  11.306  1.2161  0.1671  1.0764
 3766SOL    HW222935   4.456   1.120  11.320 -0.6512 -1.2872  2.6293
 3767SOL     OW22936   0.782   3.173   2.869  0.6191 -0.1281 -0.5115
 3767SOL    HW122937   0.835   3.213   2.800 -1.1573  3.4984  0.2400
 3767SOL    HW222938   0.706   3.136   2.823 -0.9472  0.6461  1.4513
 3768SOL     OW22939   2.124   3.869   6.840 -0.4492 -0.5518  0.0590
 3768SOL    HW122940   2.097   3.782   6.870 -1.4800  0.3937  1.8539
 3768SOL    HW222941   2.197   3.839   6.785 -0.9976 -0.0117 -0.9658
 3769SOL     OW22942   3.157   1.785  14.824  0.3973 -0.6334 -0.1443
 3769SOL    HW122943   3.180   1.838  14.900  2.2335 -1.4389 -0.1421
 3769SOL    HW222944   3.188   1.838  14.750 -0.5176  0.6244  0.3667
 3770SOL     OW22945   2.609   1.702   2.535  0.2708  0.0586  0.4296
 3770SOL    HW122946   2.572   1.666   2.615  2.0495  2.0015  2.1422
 3770SOL    HW222947   2.537   1.757   2.505 -1.5005 -3.2179 -1.2719
 3771SOL     OW22948   1.445   3.900  16.601  0.2763 -0.1093 -0.2271
 3771SOL    HW122949   1.352   3.926  16.603  0.1411 -0.7096  1.6341
 3771SOL    HW222950   1.491   3.960  16.660  1.6570 -3.9917  2.6200
 3772SOL     OW22951   1.808   1.084   3.533 -0.0845  0.3677 -0.4806
 3772SOL    HW122952   1.780   1.101   3.623  0.6879 -0.7375 -0.0421
 3772SOL    HW222953   1.860   1.164   3.521 -1.0983  1.0958 -0.0321
 3773SOL     OW22954   1.223   0.408   6.916  0.0624  0.2857  0.1187
 3773SOL    HW122955   1.200   0.484   6.969 -0.8165  1.0874 -1.4246
 3773SOL    HW222956   1.295   0.366   6.963  0.8771  1.0998 -0.4086
 3774SOL     OW22957   0.200   4.582   3.767  0.7112 -0.0556  0.6895
 3774SOL    HW122958   0.243   4.505   3.731 -0.2976  0.1524 -0.9770
 3774SOL    HW222959   0.106   4.568   3.752  0.6520  0.8410  0.2055
 3775SOL     OW22960   0.252   0.732   8.230 -0.2135 -0.4508  0.0367
 3775SOL    HW122961   0.335   0.707   8.189 -0.1951 -0.2134 -0.0728
 3775SOL    HW222962   0.241   0.665   8.297  1.7395  0.0917  0.8804
 3776SOL     OW22963   4.534   3.609   2.587  0.4506 -0.3821  0.2310
 3776SOL    HW122964   4.588   3.535   2.614  1.2750  0.3689  0.6703
 3776SOL    HW222965   4.599   3.664   2.543  0.5795 -0.2247  0.6199
 3777SOL     OW22966   0.678   2.972   3.591 -0.3768  0.7876 -0.3480
 3777SOL    HW122967   0.600   2.999   3.640 -0.8503  1.3724 -1.4216
 3777SOL    HW222968   0.690   3.037   3.523 -1.6804  1.3470 -0.0561
 3778SOL     OW22969   2.101   2.293  17.214  0.0588 -0.4891 -0.6055
 3778SOL    HW122970   2.131   2.336  17.134 -0.8039 -3.2065 -2.4106
 3778SOL    HW222971   2.053   2.215  17.185 -0.4287  0.1328 -1.4631
 3779SOL     OW22972   2.792   1.494  14.617  0.6514  0.1800 -0.3980
 3779SOL    HW122973   2.859   1.426  14.610 -0.9532 -1.3671 -0.7086
 3779SOL    HW222974   2.838   1.554  14.676 -1.1856 -0.9108  2.1472
 3780SOL     OW22975   1.452   1.833   7.225 -0.0005 -0.1229 -0.2335
 3780SOL    HW122976   1.358   1.829   7.205 -0.1541  2.1269  0.0155
 3780SOL    HW222977   1.456   1.785   7.308  1.1078 -1.7661 -1.2475
 3781SOL     OW22978   2.358   1.833  12.578 -0.3594  0.0011  0.2818
 3781SOL    HW122979   2.447   1.823  12.546 -0.8896 -0.5076 -1.0209
 3781SOL    HW222980   2.314   1.848  12.495 -0.7752 -1.6926  0.1858
 3782SOL     OW22981   1.428   0.788  11.662 -0.5818  0.7560 -0.6845
 3782SOL    HW122982   1.516   0.824  11.659 -0.0175 -0.3138  2.6756
 3782SOL    HW222983   1.434   0.742  11.578 -0.6336 -0.6258  0.0535
 3783SOL     OW22984   0.414   2.274   6.279  0.2729  0.0620 -0.3027
 3783SOL    HW122985   0.488   2.215   6.291 -0.0227 -0.3663 -0.6135
 3783SOL    HW222986   0.363   2.224   6.215 -0.0924 -1.0149  0.8277
 3784SOL     OW22987   2.496   2.779   7.668  0.2193  0.6389 -0.7566
 3784SOL    HW122988   2.541   2.820   7.594  2.4905  2.8805  1.8368
 3784SOL    HW222989   2.560   2.710   7.687 -0.6166 -0.2089 -1.0857
 3785SOL     OW22990   1.633   2.547   4.049  0.1328  0.1769  0.0389
 3785SOL    HW122991   1.544   2.534   4.080  0.1648 -1.6946 -0.6522
 3785SOL    HW222992   1.638   2.477   3.983 -1.1367  0.5069 -0.3976
 3786SOL     OW22993   0.139   0.437   4.963  0.1268  0.5931 -0.4328
 3786SOL    HW122994   0.175   0.423   5.051 -0.6611  3.4650  0.3280
 3786SOL    HW222995   0.211   0.463   4.906 -0.4621  1.7051 -0.6634
 3787SOL     OW22996   1.085   0.667   4.394  0.1945 -1.1414 -0.2795
 3787SOL    HW122997   1.119   0.755   4.379  0.5331 -0.6676  3.2376
 3787SOL    HW222998   1.137   0.623   4.327  0.6654  1.1094 -1.3769
 3788SOL     OW22999   2.424   1.012   6.131  0.3833  0.2510  0.1377
 3788SOL    HW123000   2.369   1.006   6.053 -1.6117 -1.3337  1.6440
 3788SOL    HW223001   2.384   0.952   6.194 -0.1029  2.2707  1.7386
 3789SOL     OW23002   0.331   2.098   4.651 -0.2235  0.0273  0.2330
 3789SOL    HW123003   0.380   2.042   4.590 -2.7827 -2.2369  0.2475
 3789SOL    HW223004   0.283   2.033   4.703  0.1161 -1.6802 -1.5924
 3790SOL     OW23005   3.678   2.589   8.166 -0.3891  0.3531 -0.8173
 3790SOL    HW123006   3.635   2.599   8.251 -0.1251  0.1533 -0.6623
 3790SOL    HW223007   3.763   2.557   8.194 -0.3920  1.0802  0.0389
 3791SOL     OW23008   2.810   1.249  15.563 -0.3195 -0.1657  0.0515
 3791SOL    HW123009   2.881   1.309  15.542  0.6064 -0.7288  1.5240
 3791SOL    HW223010   2.855   1.166  15.574  1.1544  1.0354  3.0816
 3792SOL     OW23011   1.859   1.269  16.762  0.1762 -0.3064  0.2615
 3792SOL    HW123012   1.910   1.240  16.686 -1.1865 -1.6654 -0.1267
 3792SOL    HW223013   1.849   1.364  16.754  1.5083 -0.0492  1.6712
 3793SOL     OW23014   3.932   1.515   6.107 -0.0338 -0.2168 -0.5510
 3793SOL    HW123015   3.980   1.449   6.158 -0.6080  1.9198  2.6804
 3793SOL    HW223016   3.921   1.464   6.026  1.6731  0.4319 -1.1862
 3794SOL     OW23017   3.693   4.517   9.750  0.3639  0.4280 -0.2383
 3794SOL    HW123018   3.726   4.447   9.807 -1.7090 -0.4566 -0.1322
 3794SOL    HW223019   3.733   4.498   9.666  0.6322  2.1650 -0.5106
 3795SOL     OW23020   1.664   1.625   7.142 -0.0162 -0.4720  0.3533
 3795SOL    HW123021   1.724   1.692   7.175  0.5608 -0.5886 -0.4442
 3795SOL    HW223022   1.593   1.684   7.115 -0.4784 -0.5391  1.4412
 3796SOL     OW23023   3.642   2.391   1.305  0.1095  0.1176 -0.1171
 3796SOL    HW123024   3.570   2.331   1.287 -2.2253  3.1074 -0.7954
 3796SOL    HW223025   3.701   2.340   1.360 -0.4657 -0.6760 -0.2339
 3797SOL     OW23026   3.652   1.614  11.460 -0.8351 -0.4997  0.1487
 3797SOL    HW123027   3.738   1.588  11.491 -0.5061 -0.2985 -0.6097
 3797SOL    HW223028   3.633   1.555  11.386 -1.2196 -1.4693  1.0141
 3798SOL     OW23029   2.892   2.296   4.383 -0.1249 -0.4622 -0.3475
 3798SOL    HW123030   2.803   2.315   4.354 -0.7281 -3.1913 -0.2998
 3798SOL    HW223031   2.929   2.241   4.314  1.9451 -0.4798  0.7840
 3799SOL     OW23032   1.238   4.033  17.105  0.1834 -0.2397 -0.2648
 3799SOL    HW123033   1.164   4.066  17.156  0.5461  0.6906 -0.3385
 3799SOL    HW223034   1.307   4.031  17.171 -0.0366 -0.2316 -0.0350
 3800SOL     OW23035   0.736   2.516  15.636 -0.1105 -0.1669 -0.1145
 3800SOL    HW123036   0.742   2.493  15.729  0.4087 -0.6273 -0.2607
 3800SOL    HW223037   0.774   2.435  15.602 -0.5625 -1.0203  1.3858
 3801SOL     OW23038   3.712   2.174  15.378  0.0946  0.2172 -0.0945
 3801SOL    HW123039   3.763   2.093  15.381 -0.1038  0.1343  1.3517
 3801SOL    HW223040   3.697   2.180  15.284  4.0539  0.9925 -0.6552
 3802SOL     OW23041   2.226   3.703   4.823  0.0878 -0.0248  0.2936
 3802SOL    HW123042   2.193   3.766   4.888 -0.6730  0.8581 -0.9268
 3802SOL    HW223043   2.310   3.745   4.803 -0.2060  0.1472 -0.5919
 3803SOL     OW23044   3.472   4.546   0.598  0.1027 -0.0619  0.0274
 3803SOL    HW123045   3.418   4.476   0.561 -3.1440  3.6068 -2.3419
 3803SOL    HW223046   3.471   4.606   0.523 -1.3931  0.4199  0.4192
 3804SOL     OW23047   4.695   2.868   3.592 -0.0663  0.3227  0.1164
 3804SOL    HW123048   4.663   2.958   3.587  1.7492  1.0579  1.4829
 3804SOL    HW223049   0.004   2.859   3.507 -2.3277 -0.6121 -0.9397
 3805SOL     OW23050   2.650   4.226   1.889  0.2903  0.1755  0.7622
 3805SOL    HW123051   2.574   4.212   1.946 -0.6620  1.8258 -0.0876
 3805SOL    HW223052   2.704   4.278   1.949 -0.4528  0.8072  0.8891
 3806SOL     OW23053   3.552   0.979  14.404 -0.0845 -0.2652  0.1378
 3806SOL    HW123054   3.509   1.010  14.484  0.0977  1.2397 -0.3425
 3806SOL    HW223055   3.564   1.059  14.352 -0.2035  0.4718  1.2321
 3807SOL     OW23056   2.651   2.793  17.628  0.2362 -0.1456  0.5325
 3807SOL    HW123057   2.670   2.783  17.535  0.1733 -0.1273  0.5178
 3807SOL    HW223058   2.606   2.710  17.648  2.4726 -1.5720 -0.3938
 3808SOL     OW23059   2.853   3.466   4.898  0.3599 -0.9829 -0.0918
 3808SOL    HW123060   2.797   3.412   4.954  0.7775 -0.0220  1.2411
 3808SOL    HW223061   2.828   3.555   4.921  0.0755 -1.6672  2.2514
 3809SOL     OW23062   2.892   3.784   3.490  0.2327  0.4156  0.0316
 3809SOL    HW123063   2.811   3.734   3.492  0.7934 -0.4908 -0.2679
 3809SOL    HW223064   2.966   3.725   3.477  1.2850  1.3613  1.5976
 3810SOL     OW23065   2.048   1.890   9.147  0.1070  0.4979 -0.3217
 3810SOL    HW123066   1.997   1.937   9.214  1.1141 -0.3186  1.0261
 3810SOL    HW223067   2.064   1.805   9.189 -0.9278  0.7756  0.6586
 3811SOL     OW23068   0.729   4.038   1.908 -0.1417  0.0650  0.0051
 3811SOL    HW123069   0.716   3.974   1.839  0.5524  1.3303 -1.3094
 3811SOL    HW223070   0.821   4.062   1.900  0.2229 -0.3958  3.0143
 3812SOL     OW23071   1.586   4.731  14.949 -0.2789  0.3744  0.2598
 3812SOL    HW123072   1.556   4.733  14.858 -1.7890 -0.4363  0.7385
 3812SOL    HW223073   1.519   0.054  14.985 -0.8145  0.2192 -0.4882
 3813SOL     OW23074   1.058   2.357  13.356 -0.1327 -0.6386  0.3874
 3813SOL    HW123075   1.060   2.347  13.260 -2.2999 -1.2853  0.4050
 3813SOL    HW223076   1.024   2.270  13.378 -1.6903  0.0091  0.5424
 3814SOL     OW23077   4.150   0.226   8.940  0.3419 -0.4090  0.7391
 3814SOL    HW123078   4.142   0.131   8.938  1.4626 -0.5465  2.5116
 3814SOL    HW223079   4.242   0.236   8.913  0.2138  0.6079  0.6703
 3815SOL     OW23080   0.948   1.735  14.194  0.3032  0.0603 -0.3417
 3815SOL    HW123081   0.973   1.664  14.135  2.6998 -1.5378  2.5979
 3815SOL    HW223082   1.020   1.732  14.256  0.8047 -2.2042 -1.0390
 3816SOL     OW23083   2.226   2.809   4.609 -0.2782 -0.5405  0.5361
 3816SOL    HW123084   2.213   2.739   4.546 -1.9807 -0.8805  1.2888
 3816SOL    HW223085   2.163   2.875   4.581 -2.4722 -2.3757  1.2050
 3817SOL     OW23086   2.764   3.610   7.757  0.5620 -0.1374  0.3459
 3817SOL    HW123087   2.812   3.585   7.678 -0.8208  1.0514 -0.8656
 3817SOL    HW223088   2.674   3.582   7.745  1.2311 -1.2865 -1.8025
 3818SOL     OW23089   0.270   2.162   1.842  0.1418 -0.0859 -0.3677
 3818SOL    HW123090   0.234   2.244   1.874 -1.1391 -0.9995  0.5126
 3818SOL    HW223091   0.232   2.164   1.754  1.1549 -1.3341 -0.8411
 3819SOL     OW23092   2.663   4.396   7.352 -0.0741 -0.0221  0.3304
 3819SOL    HW123093   2.695   4.381   7.441  1.1346  0.1992 -0.0739
 3819SOL    HW223094   2.744   4.391   7.302 -1.6898 -0.9446 -2.1903
 3820SOL     OW23095   1.781   4.071   3.114 -0.0214  0.1095 -0.0620
 3820SOL    HW123096   1.808   4.128   3.186  1.0881  1.6691 -1.7068
 3820SOL    HW223097   1.751   3.997   3.167  0.4787 -0.3748 -0.4631
 3821SOL     OW23098   0.117   1.137   4.051 -0.2597  0.1514 -0.0391
 3821SOL    HW123099   0.205   1.120   4.085  0.6105 -0.7207 -2.7437
 3821SOL    HW223100   0.131   1.083   3.973  1.9038 -0.5424  0.8304
 3822SOL     OW23101   0.493   1.684  11.919  0.2581 -0.0377  0.2168
 3822SOL    HW123102   0.535   1.677  12.005 -0.6119 -1.0528  0.5652
 3822SOL    HW223103   0.524   1.605  11.875 -0.6280 -0.6728  0.7369
 3823SOL     OW23104   3.918   3.936   5.461 -0.4768 -0.6641 -0.3717
 3823SOL    HW123105   4.001   3.983   5.457 -0.6575 -0.3142  0.1286
 3823SOL    HW223106   3.892   3.967   5.547 -0.6374 -1.2043 -0.2241
 3824SOL     OW23107   0.770   0.794   0.961  0.0834  0.3235 -0.5121
 3824SOL    HW123108   0.787   0.808   1.054 -0.0939  0.7917 -0.5470
 3824SOL    HW223109   0.720   0.873   0.940 -1.0626 -0.7589 -1.8712
 3825SOL     OW23110   4.056   3.601   6.014 -0.6887  0.0939 -0.3604
 3825SOL    HW123111   4.049   3.506   6.027  0.9541  0.0826  0.5535
 3825SOL    HW223112   3.970   3.625   5.982 -1.5361 -1.5649  0.6645
 3826SOL     OW23113   0.062   0.181   8.341 -0.0809  0.7070 -0.3676
 3826SOL    HW123114   0.111   0.106   8.309  0.4662  0.1024  1.9051
 3826SOL    HW223115   0.071   0.169   8.435  0.7992  1.2247 -0.3814
 3827SOL     OW23116   1.221   0.239   4.519 -0.2152 -0.0672 -0.5077
 3827SOL    HW123117   1.253   0.329   4.518 -1.9886  0.5738 -0.2943
 3827SOL    HW223118   1.128   0.245   4.541  0.2322 -0.6758  1.5749
 3828SOL     OW23119   2.309   3.566   8.492 -0.2999 -0.6217  0.1313
 3828SOL    HW123120   2.247   3.543   8.424 -1.4209 -1.4806  1.4571
 3828SOL    HW223121   2.281   3.651   8.525 -0.2341 -0.6201  0.1834
 3829SOL     OW23122   4.649   4.542  14.141  0.0408  0.3130  0.6213
 3829SOL    HW123123   4.597   4.622  14.150  0.6826  0.6273  1.5401
 3829SOL    HW223124   4.612   4.498  14.217  1.4485  1.7575  2.1325
 3830SOL     OW23125   2.153   2.551  15.659  0.0629 -0.3138 -0.1361
 3830SOL    HW123126   2.059   2.553  15.673  0.1843 -1.2005  0.8265
 3830SOL    HW223127   2.181   2.465  15.627  1.7089  0.8813 -1.8879
 3831SOL     OW23128   3.796   4.273   5.445  0.2046  0.3100 -0.2229
 3831SOL    HW123129   3.705   4.243   5.443  0.5420 -0.8799  2.7955
 3831SOL    HW223130   3.804   4.274   5.350  1.7948 -0.4546 -0.1086
 3832SOL     OW23131   2.268   3.199   6.725 -0.0844  0.3202 -0.1089
 3832SOL    HW123132   2.223   3.262   6.782  2.2549  0.4432  1.5846
 3832SOL    HW223133   2.350   3.245   6.710  0.6056 -1.6839 -2.4604
 3833SOL     OW23134   1.325   0.918  10.562 -0.2175  0.3501 -0.6481
 3833SOL    HW123135   1.302   0.978  10.633  0.8509  0.7477 -0.6375
 3833SOL    HW223136   1.251   0.928  10.502 -1.7643 -2.6506  0.7768
 3834SOL     OW23137   1.156   3.989   2.409  0.3736  0.1688 -0.6816
 3834SOL    HW123138   1.250   3.971   2.403  0.1272 -0.8639 -1.2608
 3834SOL    HW223139   1.154   4.077   2.371 -3.1674  0.4362  0.1246
 3835SOL     OW23140   1.438   3.213   8.560 -0.4044  0.3282 -0.1170
 3835SOL    HW123141   1.358   3.231   8.610  0.0398 -2.3705  1.5359
 3835SOL    HW223142   1.393   3.206   8.476 -0.2474 -1.4171 -0.0573
 3836SOL     OW23143   0.480   0.442   3.892  0.4592 -0.1476 -0.1469
 3836SOL    HW123144   0.415   0.504   3.925 -0.5299 -0.3474 -1.7585
 3836SOL    HW223145   0.469   0.369   3.953 -2.0398 -1.1543 -1.8227
 3837SOL     OW23146   0.201   4.578  11.741 -0.1574 -0.2289  0.2787
 3837SOL    HW123147   0.255   4.515  11.694  0.7041  0.5043  0.2756
 3837SOL    HW223148   0.271   4.617  11.794  0.2909 -0.2726 -0.2853
 3838SOL     OW23149   4.703   1.932   4.374  0.1815  0.0841 -0.1754
 3838SOL    HW123150   0.027   1.863   4.404 -0.1373 -1.1660 -2.4397
 3838SOL    HW223151   4.715   2.008   4.431 -0.5970  0.0761  0.0025
 3839SOL     OW23152   2.763   3.209   6.708 -0.1711  0.0106  0.4569
 3839SOL    HW123153   2.739   3.117   6.716 -1.0041  0.1059 -0.9422
 3839SOL    HW223154   2.762   3.218   6.612  1.0086  1.2528  0.5627
 3840SOL     OW23155   0.000   1.360   8.244  0.1921  0.2397  0.2322
 3840SOL    HW123156   4.647   1.379   8.274  0.3770  0.1006  0.8633
 3840SOL    HW223157   4.720   1.322   8.157 -0.9485 -0.1036  0.5843
 3841SOL     OW23158   1.856   4.037   3.592 -0.3623 -0.2641  0.2342
 3841SOL    HW123159   1.787   4.086   3.637 -1.0420 -0.2824 -0.8158
 3841SOL    HW223160   1.935   4.081   3.624  0.3905 -3.3258  2.6158
 3842SOL     OW23161   2.718   0.490  11.908 -0.8745 -0.1092 -0.0336
 3842SOL    HW123162   2.720   0.416  11.848 -0.8933 -0.0778 -0.0729
 3842SOL    HW223163   2.635   0.528  11.876 -0.6223 -0.0498 -0.6134
 3843SOL     OW23164   1.833   0.508  11.337 -0.4318  0.9400 -0.3882
 3843SOL    HW123165   1.929   0.502  11.337 -0.6157 -2.2783  0.0769
 3843SOL    HW223166   1.812   0.417  11.357 -0.3830  1.0151  0.0013
 3844SOL     OW23167   3.332   4.243   7.614  0.1300  0.3137  0.2837
 3844SOL    HW123168   3.385   4.219   7.690 -0.4213 -0.9710  0.2580
 3844SOL    HW223169   3.355   4.182   7.544  2.4656  1.1661  0.3045
 3845SOL     OW23170   0.929   1.858   4.340  0.0061  0.9473  0.3687
 3845SOL    HW123171   0.956   1.949   4.334 -1.9468  1.3947 -1.4944
 3845SOL    HW223172   0.885   1.844   4.257  0.4876  5.0208 -0.5546
 3846SOL     OW23173   0.893   3.036   6.110 -0.4252 -0.0640 -0.2442
 3846SOL    HW123174   0.933   2.952   6.130  2.6008  1.5081  0.4272
 3846SOL    HW223175   0.937   3.061   6.029 -0.8222 -0.0012 -0.4413
 3847SOL     OW23176   1.514   1.451   2.716  0.0440 -0.1771 -0.0843
 3847SOL    HW123177   1.516   1.545   2.699  1.0475 -0.4971 -1.7984
 3847SOL    HW223178   1.437   1.445   2.772  0.1509 -0.4931  0.0278
 3848SOL     OW23179   1.920   4.149   4.157  0.2581  0.1023 -0.4961
 3848SOL    HW123180   1.857   4.098   4.106  1.3527 -0.9771 -0.7801
 3848SOL    HW223181   1.897   4.238   4.130  0.3182  0.5758  1.0170
 3849SOL     OW23182   1.612   2.314  13.995  0.2216 -0.2604  0.0456
 3849SOL    HW123183   1.596   2.269  14.078  0.0342  0.6018  0.4753
 3849SOL    HW223184   1.594   2.405  14.017 -0.8827 -0.0464 -1.6816
 3850SOL     OW23185   1.930   2.026   8.399 -0.0476  0.1797  0.0280
 3850SOL    HW123186   2.000   2.029   8.334  0.2915  0.5813  0.4122
 3850SOL    HW223187   1.947   1.941   8.439  0.1995  0.6248  0.8825
 3851SOL     OW23188   0.945   1.543   3.003 -0.0340 -0.0894 -0.2535
 3851SOL    HW123189   0.904   1.542   3.089 -1.2844 -0.1683 -0.8504
 3851SOL    HW223190   0.978   1.632   2.992  2.2847 -0.7929  0.8816
 3852SOL     OW23191   1.013   1.838  16.719  0.5873 -0.0822 -0.5719
 3852SOL    HW123192   1.028   1.932  16.706 -0.8518  0.4685  1.7339
 3852SOL    HW223193   0.920   1.837  16.743  1.7345 -0.5892  3.8194
 3853SOL     OW23194   2.517   3.513   5.875 -0.5331  0.6902 -0.2411
 3853SOL    HW123195   2.604   3.480   5.854 -1.8028 -1.2865 -2.3595
 3853SOL    HW223196   2.462   3.448   5.831 -0.0699 -0.2610  0.5641
 3854SOL     OW23197   2.563   0.304   9.630  0.0260  0.0366 -0.0824
 3854SOL    HW123198   2.506   0.232   9.657 -0.4828  0.8989  1.1379
 3854SOL    HW223199   2.503   0.378   9.642  0.3839  0.5316 -1.3651
 3855SOL     OW23200   2.984   2.306  15.599 -0.1227 -0.0334 -0.1762
 3855SOL    HW123201   2.974   2.225  15.650  2.8890 -1.0350 -1.2049
 3855SOL    HW223202   3.058   2.290  15.540 -0.2473  2.2171 -0.9453
 3856SOL     OW23203   2.083   4.022   3.124 -0.7367  0.2175 -0.3206
 3856SOL    HW123204   2.031   3.980   3.194 -0.7413 -3.0540 -2.2747
 3856SOL    HW223205   2.009   4.049   3.070 -1.3470 -3.1929 -1.1966
 3857SOL     OW23206   0.767   4.528   6.563  0.5490  0.4179 -0.7161
 3857SOL    HW123207   0.815   4.475   6.500  1.0719 -2.2513  1.9380
 3857SOL    HW223208   0.788   4.616   6.534 -0.8360  1.7867  2.4065
 3858SOL     OW23209   1.311   2.406  14.993 -0.2185 -0.2465  0.2695
 3858SOL    HW123210   1.266   2.468  14.935  1.0600  0.5879  0.1617
 3858SOL    HW223211   1.254   2.395  15.069 -0.8746  2.9425  0.2403
 3859SOL     OW23212   0.613   0.467  13.591 -0.1315 -0.2998 -0.1284
 3859SOL    HW123213   0.597   0.462  13.497  1.9784 -1.6427 -0.4342
 3859SOL    HW223214   0.530   0.509  13.613  1.1273  2.4130 -0.4927
 3860SOL     OW23215   3.267   4.281  12.156 -0.0137  0.2124 -0.1473
 3860SOL    HW123216   3.318   4.205  12.183  0.0253  0.6742  1.0846
 3860SOL    HW223217   3.179   4.259  12.186  0.7973 -1.7809  0.7617
 3861SOL     OW23218   1.773   1.342  15.568  0.0251  0.3826  0.4645
 3861SOL    HW123219   1.838   1.400  15.528 -0.6104 -0.1751 -1.4123
 3861SOL    HW223220   1.783   1.351  15.662 -3.0276  0.4362  0.7981
 3862SOL     OW23221   3.369   4.143   6.690  0.2675 -0.4199  0.0196
 3862SOL    HW123222   3.422   4.093   6.753 -2.2805  0.9463  3.2738
 3862SOL    HW223223   3.375   4.092   6.609 -2.2059 -0.2114 -0.2967
 3863SOL     OW23224   2.182   0.052   8.600 -0.5019  0.3372  0.4072
 3863SOL    HW123225   2.212   0.103   8.675  2.4389  1.5542 -1.6104
 3863SOL    HW223226   2.252   0.072   8.538 -0.1522 -1.5085  0.1902
 3864SOL     OW23227   3.349   3.685   5.569  0.3808  0.2830  0.7222
 3864SOL    HW123228   3.299   3.608   5.541  1.4405  1.2490 -3.8977
 3864SOL    HW223229   3.418   3.700   5.503  0.0575 -0.1625  0.2802
 3865SOL     OW23230   3.108   0.256  10.858  0.0460  0.3366 -0.3068
 3865SOL    HW123231   3.195   0.283  10.827  0.5611 -0.4083  0.4918
 3865SOL    HW223232   3.052   0.252  10.780 -1.1959  1.5626  0.5291
 3866SOL     OW23233   1.090   2.829   1.552 -0.0738  0.1243  0.3849
 3866SOL    HW123234   1.067   2.823   1.645 -1.4278  1.0114  0.0997
 3866SOL    HW223235   1.178   2.867   1.550 -0.3250  0.6021 -2.1468
 3867SOL     OW23236   2.739   0.189  16.649 -0.2392 -0.0916 -0.4028
 3867SOL    HW123237   2.798   0.182  16.575 -0.2355  1.9681 -0.5910
 3867SOL    HW223238   2.744   0.095  16.668 -1.0979 -0.0726 -0.0395
 3868SOL     OW23239   4.581   1.091   7.698 -0.2346  0.7071  0.6488
 3868SOL    HW123240   4.608   1.005   7.728 -0.8322  0.7479  1.2990
 3868SOL    HW223241   4.628   1.085   7.615 -0.9370 -0.3713  0.3392
 3869SOL     OW23242   4.111   1.889   8.133 -0.7691 -0.1389 -0.3108
 3869SOL    HW123243   4.130   1.983   8.138 -2.5144  0.1934  0.1234
 3869SOL    HW223244   4.177   1.857   8.072 -1.1810 -0.0320 -0.8084
 3870SOL     OW23245   4.209   2.867   5.538 -0.4852 -0.5470  0.5225
 3870SOL    HW123246   4.166   2.913   5.611 -0.7716 -1.5301  0.9770
 3870SOL    HW223247   4.302   2.872   5.560 -0.5281  2.7445 -0.0908
 3871SOL     OW23248   2.880   4.211   4.858  0.2724  0.4989  0.0715
 3871SOL    HW123249   2.947   4.265   4.816  0.7264 -0.9522 -1.0865
 3871SOL    HW223250   2.831   4.180   4.781  0.1556 -0.8969  0.7120
 3872SOL     OW23251   2.788   3.520  14.513  0.0385 -0.4990  0.1721
 3872SOL    HW123252   2.728   3.458  14.554 -0.4956  0.0297  0.1941
 3872SOL    HW223253   2.728   3.538  14.440 -0.7306 -1.5761  0.5475
 3873SOL     OW23254   0.118   2.178   4.943 -0.6519 -0.4888 -0.0297
 3873SOL    HW123255   0.130   2.099   4.890 -0.4611  0.0042 -0.7325
 3873SOL    HW223256   0.209   2.187   4.972 -1.2969 -0.5333  1.9548
 3874SOL     OW23257   0.905   3.921   1.297  0.8097  0.2074  0.3102
 3874SOL    HW123258   0.841   3.949   1.232  0.9218 -0.6250 -0.1612
 3874SOL    HW223259   0.984   3.941   1.247  0.4485  0.9284  0.0313
 3875SOL     OW23260   2.026   3.265   2.516  0.2512 -0.3083  0.3147
 3875SOL    HW123261   2.103   3.248   2.570  0.1964 -1.6314 -0.0194
 3875SOL    HW223262   2.008   3.178   2.480 -2.0290  0.5760 -0.6997
 3876SOL     OW23263   2.711   4.053  17.144  0.1811 -0.3672  0.2427
 3876SOL    HW123264   2.745   4.026  17.229  0.0519  0.0097  0.4119
 3876SOL    HW223265   2.781   4.094  17.094 -0.6601  2.1223  1.1489
 3877SOL     OW23266   2.944   3.809  14.450 -0.6665 -0.2367 -0.2441
 3877SOL    HW123267   2.990   3.752  14.511  1.0398 -0.5497 -1.8375
 3877SOL    HW223268   2.916   3.882  14.505 -2.2148 -0.5206 -0.6611
 3878SOL     OW23269   4.437   2.872   2.476  0.2901  0.6303 -0.0526
 3878SOL    HW123270   4.475   2.868   2.564 -1.2804  1.0406  0.6413
 3878SOL    HW223271   4.364   2.810   2.483  1.3757 -0.7511 -0.9187
 3879SOL     OW23272   0.627   1.763   5.367  0.2879 -0.4191 -0.1125
 3879SOL    HW123273   0.549   1.786   5.317  0.5936  2.4106  0.6966
 3879SOL    HW223274   0.647   1.672   5.345 -0.5466 -0.8438  0.9078
 3880SOL     OW23275   4.023   4.594   6.913 -0.4389  0.1905 -0.1860
 3880SOL    HW123276   4.006   4.585   6.820 -1.2862 -0.4056  0.0166
 3880SOL    HW223277   4.110   4.554   6.912 -1.3184 -1.7697  1.4093
 3881SOL     OW23278   3.173   2.078  13.663 -0.3119  0.1518 -0.0136
 3881SOL    HW123279   3.124   2.141  13.717  1.4252  0.9727  0.5870
 3881SOL    HW223280   3.118   2.075  13.585  1.3076 -0.2227 -1.1342
 3882SOL     OW23281   3.089   4.153   6.834  0.5406 -0.2108 -0.1690
 3882SOL    HW123282   3.176   4.168   6.798 -0.7293  0.6227 -2.8961
 3882SOL    HW223283   3.084   4.214   6.908  0.1598 -1.5750  0.9317
 3883SOL     OW23284   0.474   1.657   1.157 -0.3669  0.7274 -0.1947
 3883SOL    HW123285   0.483   1.569   1.122 -2.2362 -0.5231  2.4136
 3883SOL    HW223286   0.437   1.623   1.239 -1.6913  2.0437 -0.2469
 3884SOL     OW23287   1.670   0.528   5.038  0.3242 -0.1708 -0.3563
 3884SOL    HW123288   1.640   0.443   5.007 -0.1283 -0.3720  0.6497
 3884SOL    HW223289   1.699   0.504   5.126 -1.4879  3.6744  1.3052
 3885SOL     OW23290   0.455   1.113   1.115  0.2221  0.9125  0.4705
 3885SOL    HW123291   0.414   1.069   1.040  0.2227 -0.5585  1.3309
 3885SOL    HW223292   0.545   1.080   1.111 -0.4520 -0.8771  0.0276
 3886SOL     OW23293   4.351   4.184   7.304  0.4451  0.3897  0.0251
 3886SOL    HW123294   4.339   4.238   7.225 -2.4740  1.0553  0.9178
 3886SOL    HW223295   4.388   4.243   7.370  1.4677 -1.3347  0.9663
 3887SOL     OW23296   0.851   0.608   0.395  0.6302  0.2646  0.5039
 3887SOL    HW123297   0.856   0.514   0.412  0.9664  0.4039  1.1598
 3887SOL    HW223298   0.786   0.601   0.326  1.1557 -4.5006  0.4612
 3888SOL     OW23299   0.157   4.079   9.478  0.2141 -0.6689 -0.1731
 3888SOL    HW123300   0.231   4.042   9.526  1.7442  2.3932 -0.1898
 3888SOL    HW223301   0.119   4.110   9.560  1.0489 -1.2919  0.4535
 3889SOL     OW23302   4.597   1.864   8.133  0.1938 -0.4499 -0.6932
 3889SOL    HW123303   4.565   1.899   8.049  0.1383 -1.0490 -0.9194
 3889SOL    HW223304   4.518   1.811   8.141 -0.3526  0.5863  0.6775
 3890SOL     OW23305   0.470   1.177   5.334 -0.6339 -0.1115 -0.0665
 3890SOL    HW123306   0.406   1.224   5.281 -1.1500 -2.5565 -1.5846
 3890SOL    HW223307   0.417   1.105   5.370 -0.1058 -0.4780 -0.0219
 3891SOL     OW23308   0.289   4.102  11.516 -0.2908 -0.0031 -0.2840
 3891SOL    HW123309   0.374   4.117  11.557 -0.6350 -2.2852  1.2898
 3891SOL    HW223310   0.303   4.134  11.427 -0.5009 -0.6647 -0.5622
 3892SOL     OW23311   4.471   3.797   5.269 -0.8462 -0.3063  0.5550
 3892SOL    HW123312   4.549   3.745   5.289  0.5846  1.3449 -0.6512
 3892SOL    HW223313   4.491   3.800   5.175  1.3567  0.9754  1.0612
 3893SOL     OW23314   1.487   4.346   6.141  0.0668  0.8830 -0.0626
 3893SOL    HW123315   1.408   4.394   6.165  1.1790  2.7224 -0.0810
 3893SOL    HW223316   1.481   4.351   6.046 -0.0115  0.5950 -0.0713
 3894SOL     OW23317   4.676   0.532   4.249 -0.0509 -0.0936 -0.5332
 3894SOL    HW123318   4.617   0.575   4.187  0.0069 -1.3165 -1.4575
 3894SOL    HW223319   0.014   0.510   4.190  1.7531 -2.6311  2.6234
 3895SOL     OW23320   3.450   3.074  16.509 -0.1322  0.3619 -0.0267
 3895SOL    HW123321   3.415   3.037  16.428 -2.5144  0.7368  0.8189
 3895SOL    HW223322   3.426   3.166  16.509  0.7189  0.5838 -2.2365
 3896SOL     OW23323   3.238   4.580   4.385 -0.2254 -0.5248 -0.2507
 3896SOL    HW123324   3.225   4.489   4.356  2.0758 -0.8434 -0.2976
 3896SOL    HW223325   3.229   4.625   4.301  1.5660 -0.5890 -0.4863
 3897SOL     OW23326   4.160   1.549  16.389  0.2375 -0.5728  1.0837
 3897SOL    HW123327   4.111   1.469  16.372  1.0319 -0.8365  0.0230
 3897SOL    HW223328   4.205   1.528  16.471 -0.3970  0.0478  1.5854
 3898SOL     OW23329   3.149   4.138  12.373  0.1696 -0.0714 -0.1700
 3898SOL    HW123330   3.139   4.229  12.400  1.2512  0.3635 -1.1877
 3898SOL    HW223331   3.229   4.109  12.418  0.8020 -0.3435 -1.4567
 3899SOL     OW23332   3.238   1.971  17.332 -0.2061  0.0628 -0.4876
 3899SOL    HW123333   3.304   1.910  17.366 -2.3839 -0.3109  3.0317
 3899SOL    HW223334   3.292   2.019  17.269 -0.4689 -0.3112 -0.9968
 3900SOL     OW23335   2.878   4.008  12.424  0.5605  0.4409 -0.0332
 3900SOL    HW123336   2.897   3.924  12.383 -1.5218  0.0595 -0.2402
 3900SOL    HW223337   2.954   4.055  12.389  0.7586  0.7981  0.8796
 3901SOL     OW23338   0.809   3.564  15.333 -0.6478  0.1521  0.3787
 3901SOL    HW123339   0.896   3.603  15.324 -1.5409  2.1964  0.7809
 3901SOL    HW223340   0.818   3.494  15.397 -0.4488 -0.0790  0.0992
 3902SOL     OW23341   1.683   0.223   5.591  0.1798  0.0226  0.4049
 3902SOL    HW123342   1.754   0.256   5.647 -0.3301  0.0307  1.0502
 3902SOL    HW223343   1.645   0.298   5.545  1.1867 -0.2927 -0.9252
 3903SOL     OW23344   2.995   0.220  15.191  0.0888  0.1792 -0.3428
 3903SOL    HW123345   3.077   0.170  15.195  0.8454  1.3323 -1.3358
 3903SOL    HW223346   2.956   0.203  15.277  0.1389 -3.2293 -1.0073
 3904SOL     OW23347   2.836   1.960   5.920  0.1144  0.1965 -0.0490
 3904SOL    HW123348   2.884   2.014   5.983 -0.5897  0.4310  0.2874
 3904SOL    HW223349   2.783   1.902   5.974  0.1732  0.1531 -0.0378
 3905SOL     OW23350   3.009   0.868   3.912 -0.2748  0.0549  0.5458
 3905SOL    HW123351   3.048   0.781   3.923 -0.3119  0.0655  0.7458
 3905SOL    HW223352   3.000   0.859   3.817 -0.5185  3.0941  0.2776
 3906SOL     OW23353   1.736   3.589   7.978 -0.5997  0.2559  0.4506
 3906SOL    HW123354   1.707   3.554   8.063 -1.9812 -0.5978 -0.3717
 3906SOL    HW223355   1.827   3.604   8.001 -0.5514  1.4870 -0.5901
 3907SOL     OW23356   3.436   2.523   6.624  0.5822  0.5644  0.1033
 3907SOL    HW123357   3.467   2.502   6.536  1.5548  1.1474  0.2999
 3907SOL    HW223358   3.348   2.553   6.603 -0.8349 -0.3249  4.8557
 3908SOL     OW23359   3.433   4.348  13.432 -0.4112  0.9034 -0.1323
 3908SOL    HW123360   3.419   4.442  13.422 -2.2870  0.8118  1.7013
 3908SOL    HW223361   3.406   4.333  13.522  2.3777  0.2442  0.5896
 3909SOL     OW23362   0.915   0.440   2.126 -0.3711 -0.1451  0.2473
 3909SOL    HW123363   0.843   0.378   2.112 -0.1732 -0.5509  1.0511
 3909SOL    HW223364   0.936   0.433   2.219  1.2620 -1.2774 -0.2142
 3910SOL     OW23365   0.289   4.321   4.800 -0.3835  0.0048  0.5110
 3910SOL    HW123366   0.292   4.414   4.826 -0.2573  0.2745 -0.4709
 3910SOL    HW223367   0.331   4.337   4.716 -1.3385 -1.2989 -0.2109
 3911SOL     OW23368   4.166   1.495   1.526  0.6520  0.2726  0.3157
 3911SOL    HW123369   4.079   1.483   1.487  0.9567 -0.8786  0.0006
 3911SOL    HW223370   4.145   1.442   1.603 -0.2144 -0.9486 -0.7508
 3912SOL     OW23371   2.519   4.472   9.526  0.4681  0.0117 -0.4468
 3912SOL    HW123372   2.569   4.391   9.537  0.9181  0.2598 -0.7058
 3912SOL    HW223373   2.496   4.472   9.433 -0.4258  1.7142 -0.2202
 3913SOL     OW23374   3.766   1.190  13.674  0.1508 -0.1650 -0.2267
 3913SOL    HW123375   3.673   1.201  13.656  0.6520  1.6776 -1.6331
 3913SOL    HW223376   3.790   1.132  13.601  3.6315  2.3010 -1.0745
 3914SOL     OW23377   2.203   2.149  11.815 -0.3290  0.1959 -0.6130
 3914SOL    HW123378   2.137   2.212  11.788 -2.2841 -0.2724  3.0182
 3914SOL    HW223379   2.278   2.207  11.826 -0.9600  0.5896  1.5856
 3915SOL     OW23380   3.159   1.467  15.655 -0.0887 -0.3788 -0.1002
 3915SOL    HW123381   3.213   1.546  15.666  1.0759 -1.1335 -0.3437
 3915SOL    HW223382   3.199   1.439  15.573  0.2410 -0.4608  0.0863
 3916SOL     OW23383   1.285   3.334   1.111  0.2429 -0.4780  0.2584
 3916SOL    HW123384   1.193   3.315   1.127 -0.2229  0.1651 -1.6614
 3916SOL    HW223385   1.291   3.350   1.017  0.0700 -0.7961  0.1916
 3917SOL     OW23386   3.205   2.949   3.452  0.2145 -0.0741  0.5433
 3917SOL    HW123387   3.252   2.893   3.514  0.5769 -2.0004 -1.4710
 3917SOL    HW223388   3.230   2.918   3.365 -0.9482 -0.1398  0.2365
 3918SOL     OW23389   0.218   2.844  11.916  0.0595 -0.0156  0.3311
 3918SOL    HW123390   0.276   2.919  11.933 -0.2059 -0.3590  2.6784
 3918SOL    HW223391   0.284   2.804  11.860 -0.3886 -0.0529 -0.1714
 3919SOL     OW23392   3.763   2.483   6.925  0.2622  0.3122 -0.0683
 3919SOL    HW123393   3.796   2.403   6.884  1.4347 -0.6336  2.7079
 3919SOL    HW223394   3.728   2.525   6.847  0.7968  1.8729  0.5255
 3920SOL     OW23395   1.604   2.427  10.928  0.1999  0.2349 -0.5107
 3920SOL    HW123396   1.656   2.467  10.859 -0.9538  0.1580 -1.4304
 3920SOL    HW223397   1.664   2.432  11.002  0.0944  1.0797 -0.4853
 3921SOL     OW23398   2.649   2.797   8.361  0.0208 -0.7101 -0.3213
 3921SOL    HW123399   2.593   2.875   8.363  2.5182  1.0921 -0.4181
 3921SOL    HW223400   2.735   2.832   8.384 -0.3342 -0.5750  0.8095
 3922SOL     OW23401   3.633   3.652   6.198  0.1092  0.3999  1.0113
 3922SOL    HW123402   3.632   3.741   6.233  0.8559  0.1108  1.7764
 3922SOL    HW223403   3.659   3.605   6.277 -0.2674  0.6489  1.2769
 3923SOL     OW23404   3.253   1.186   3.317  0.6420  0.7925  0.1446
 3923SOL    HW123405   3.183   1.143   3.267  1.1277 -0.4316  0.5214
 3923SOL    HW223406   3.210   1.217   3.396  2.9295  1.8813  0.9315
 3924SOL     OW23407   1.254   3.220   8.325  0.4768 -0.1897 -0.1961
 3924SOL    HW123408   1.213   3.151   8.273  3.0966  0.0914 -2.6306
 3924SOL    HW223409   1.208   3.211   8.409  0.4046  1.2586 -0.0832
 3925SOL     OW23410   1.312   4.724  16.830 -0.3028 -0.3244 -0.5710
 3925SOL    HW123411   1.324   4.678  16.747  0.0549  1.1918 -1.3609
 3925SOL    HW223412   1.344   4.666  16.900 -1.4324  0.6059  0.7139
 3926SOL     OW23413   3.495   4.712   4.390  0.1011  0.1893  0.1873
 3926SOL    HW123414   3.412   4.681   4.425 -0.2833  2.1418  0.9917
 3926SOL    HW223415   3.467   0.048   4.332  1.3813  2.2448  2.0663
 3927SOL     OW23416   3.994   0.135   3.841  0.5521  0.3541 -0.6720
 3927SOL    HW123417   4.000   0.055   3.789 -1.8051 -1.4065  1.7245
 3927SOL    HW223418   3.898   0.140   3.842  0.5697  0.8952 -2.5083
 3928SOL     OW23419   1.787   1.140   3.796  0.1539 -0.4162  0.2708
 3928SOL    HW123420   1.715   1.202   3.788 -0.7309 -1.5294 -0.4436
 3928SOL    HW223421   1.740   1.059   3.818 -1.0662  0.8845  2.3693
 3929SOL     OW23422   2.851   2.028   6.524  0.5490 -0.1459 -0.8934
 3929SOL    HW123423   2.900   1.954   6.561  0.8125  0.9593  1.0112
 3929SOL    HW223424   2.774   2.022   6.580  1.9344 -1.4554  0.9174
 3930SOL     OW23425   2.401   3.712   7.903  0.0760 -0.5458  0.1672
 3930SOL    HW123426   2.335   3.781   7.911 -0.7366 -1.1969 -0.9942
 3930SOL    HW223427   2.430   3.732   7.814  0.8172 -0.7130  0.3695
 3931SOL     OW23428   1.207   1.676   7.326  0.1547 -0.2752  0.2264
 3931SOL    HW123429   1.251   1.594   7.349  2.3328  1.1109  0.9808
 3931SOL    HW223430   1.156   1.644   7.252  0.2726  0.3398 -0.1177
 3932SOL     OW23431   2.338   0.335  14.580  0.0459  0.4227 -0.3330
 3932SOL    HW123432   2.383   0.265  14.533  1.6472  1.1963  0.0529
 3932SOL    HW223433   2.410   0.375  14.629  2.0551 -2.7328 -0.7033
 3933SOL     OW23434   1.842   2.293   4.181 -1.0295 -0.4012  0.2036
 3933SOL    HW123435   1.894   2.338   4.114 -0.1946 -0.8395  0.5531
 3933SOL    HW223436   1.845   2.353   4.255  2.8427 -0.7087  0.2979
 3934SOL     OW23437   3.498   2.073   4.299  0.7871 -0.3711 -0.1236
 3934SOL    HW123438   3.449   2.111   4.371 -3.6637  0.3127 -3.5059
 3934SOL    HW223439   3.438   2.018   4.248  0.5392  0.6589 -0.9565
 3935SOL     OW23440   4.169   2.405   8.055  0.4883 -0.0842  0.1627
 3935SOL    HW123441   4.173   2.436   8.145 -1.0279  0.2381  0.1145
 3935SOL    HW223442   4.260   2.422   8.027  0.1117  0.5695 -0.6742
 3936SOL     OW23443   3.659   1.385  17.051 -0.3475 -0.0379  0.2209
 3936SOL    HW123444   3.658   1.475  17.085  0.3993  0.7735 -1.8952
 3936SOL    HW223445   3.575   1.348  17.079  0.8813 -1.1050  2.5419
 3937SOL     OW23446   2.862   1.979   6.926  0.0156 -0.0742 -0.0954
 3937SOL    HW123447   2.884   2.064   6.889  2.9385 -0.2790  1.1771
 3937SOL    HW223448   2.779   1.999   6.970  0.3234 -0.2831  0.5837
 3938SOL     OW23449   1.556   1.298   6.183 -0.0173  0.0377 -0.0025
 3938SOL    HW123450   1.616   1.367   6.213  1.7365 -1.1560 -0.7793
 3938SOL    HW223451   1.579   1.226   6.241  0.8611  0.3710  0.0753
 3939SOL     OW23452   2.622   1.111  16.836 -0.0613 -0.0604  0.4557
 3939SOL    HW123453   2.696   1.069  16.880  1.0527  1.0801 -0.3299
 3939SOL    HW223454   2.641   1.203  16.854  2.1879 -0.9023  2.3530
 3940SOL     OW23455   3.663   2.003   3.016  0.3156 -0.4683 -0.2743
 3940SOL    HW123456   3.656   1.994   3.111  0.5012 -1.8300 -0.3858
 3940SOL    HW223457   3.664   2.098   3.018 -1.5813 -0.4584  0.4335
 3941SOL     OW23458   1.140   0.970   4.213  0.4705 -0.3616 -0.1701
 3941SOL    HW123459   1.147   0.977   4.118 -1.9093  1.2387 -0.2227
 3941SOL    HW223460   1.222   1.013   4.240 -0.4883  1.6502 -0.4541
 3942SOL     OW23461   0.886   2.198   1.578 -0.3519 -0.8713  0.5818
 3942SOL    HW123462   0.850   2.286   1.572  0.5586 -0.5092  0.4882
 3942SOL    HW223463   0.975   2.204   1.546 -0.1664  1.5746  1.5767
 3943SOL     OW23464   2.451   4.114  17.194 -0.4483  0.1438 -0.1687
 3943SOL    HW123465   2.530   4.074  17.158 -0.0947  0.6024  0.0957
 3943SOL    HW223466   2.460   4.097  17.288  1.0272 -1.6355 -0.6264
 3944SOL     OW23467   4.035   2.002   7.193 -0.2183  0.5895 -0.0468
 3944SOL    HW123468   3.954   1.962   7.225 -1.4145  2.6523 -0.5414
 3944SOL    HW223469   4.076   1.916   7.194  0.5392  0.9602  1.3952
 3945SOL     OW23470   4.286   0.972  13.162 -0.0718  0.1626 -0.4276
 3945SOL    HW123471   4.321   1.060  13.152  1.3931 -0.2744  0.9865
 3945SOL    HW223472   4.296   0.953  13.068 -1.7716 -0.5619 -0.4839
 3946SOL     OW23473   0.490   0.986   8.054 -0.0409 -0.2320 -0.1336
 3946SOL    HW123474   0.579   0.993   8.019  0.6363 -1.4100  1.3907
 3946SOL    HW223475   0.454   0.933   7.982  0.7539  0.7340 -1.2481
 3947SOL     OW23476   2.004   0.923   0.180 -0.4523  0.5179 -0.2614
 3947SOL    HW123477   2.032   0.893   0.266 -3.0477 -0.1162  0.3444
 3947SOL    HW223478   1.913   0.895   0.173 -0.5529  0.8742 -0.3354
 3948SOL     OW23479   1.075   3.932   3.293  0.1846  0.4240  0.2292
 3948SOL    HW123480   0.996   3.896   3.251 -1.4594  3.8064  0.4533
 3948SOL    HW223481   1.051   3.938   3.385 -0.9897  0.5589 -0.0839
 3949SOL     OW23482   1.708   4.563   2.568  0.1096 -0.0253  0.3815
 3949SOL    HW123483   1.684   4.480   2.528  1.5537 -0.1569 -0.2311
 3949SOL    HW223484   1.625   4.610   2.572 -0.7260 -1.5983  1.2007
 3950SOL     OW23485   3.166   3.268   6.931 -0.1024  0.4800 -0.1191
 3950SOL    HW123486   3.145   3.239   6.842  0.2648 -1.9856  0.6119
 3950SOL    HW223487   3.219   3.347   6.917  1.9532 -0.3486  3.1449
 3951SOL     OW23488   0.190   1.777   6.855 -0.1238 -0.1019 -0.5872
 3951SOL    HW123489   0.180   1.763   6.949 -1.6150 -0.2187 -0.7725
 3951SOL    HW223490   0.103   1.754   6.822 -0.7359 -0.6608  1.4533
 3952SOL     OW23491   0.376   1.555  10.811 -0.1639 -0.3679  0.4243
 3952SOL    HW123492   0.357   1.541  10.903  0.4928  3.6674  1.2033
 3952SOL    HW223493   0.470   1.542  10.814 -0.0453  0.8194  1.6863
 3953SOL     OW23494   0.599   0.296  16.482 -0.3189 -0.0288  0.1007
 3953SOL    HW123495   0.553   0.291  16.398 -1.2003  0.3103  0.5565
 3953SOL    HW223496   0.684   0.333  16.458  0.7313 -1.5361  1.4763
 3954SOL     OW23497   4.041   0.018   4.090 -0.2903  0.6441 -0.0385
 3954SOL    HW123498   4.025   0.064   4.008  1.4473  1.3940  0.0334
 3954SOL    HW223499   4.107   0.071   4.135 -0.1954 -1.6850  2.5746
 3955SOL     OW23500   0.994   0.515   0.134 -0.0094  0.1053  0.0546
 3955SOL    HW123501   0.911   0.489   0.093  0.8765 -0.5912 -1.3120
 3955SOL    HW223502   0.973   0.520   0.227 -0.5449  2.1265 -0.1899
 3956SOL     OW23503   3.222   2.860   2.979 -0.0352 -0.3668  0.7731
 3956SOL    HW123504   3.164   2.789   2.953 -0.0906 -0.0832  0.1130
 3956SOL    HW223505   3.269   2.868   2.897 -2.6665 -0.6920 -0.7800
 3957SOL     OW23506   3.376   4.240  13.186  0.2765  0.2634  0.0711
 3957SOL    HW123507   3.444   4.173  13.193  0.6821  0.7599  0.8694
 3957SOL    HW223508   3.362   4.258  13.278 -1.5675 -0.6393 -0.0242
 3958SOL     OW23509   2.259   1.697   8.832  0.3154 -0.4437  0.0235
 3958SOL    HW123510   2.296   1.626   8.884 -1.4060 -1.5564 -0.2870
 3958SOL    HW223511   2.320   1.701   8.758  1.1581  0.6190  0.7683
 3959SOL     OW23512   3.222   0.058  14.111 -0.2249 -0.4953 -0.1392
 3959SOL    HW123513   3.217   0.014  14.026  0.2769 -0.1168 -0.3629
 3959SOL    HW223514   3.288   0.124  14.091  0.3273 -1.4941 -1.6623
 3960SOL     OW23515   0.277   3.563   7.210  0.0651  0.0248 -0.6770
 3960SOL    HW123516   0.322   3.646   7.231 -1.1435  0.5799 -0.2690
 3960SOL    HW223517   0.292   3.542   7.118 -0.3162  1.1903 -1.0110
 3961SOL     OW23518   3.530   3.277   8.153  0.7698  0.2563  0.1011
 3961SOL    HW123519   3.520   3.370   8.173  1.8308  0.6014 -0.9204
 3961SOL    HW223520   3.475   3.239   8.221  1.0986 -0.3623  0.0266
 3962SOL     OW23521   0.550   4.232   9.625 -0.0482  0.1909  0.1049
 3962SOL    HW123522   0.601   4.313   9.617 -0.9743  0.6796 -0.8505
 3962SOL    HW223523   0.495   4.230   9.547 -2.4877 -0.0630  1.8307
 3963SOL     OW23524   0.041   2.760   5.469 -0.2489  0.5492 -1.2213
 3963SOL    HW123525   4.722   2.764   5.391  0.6892 -2.9229 -2.0479
 3963SOL    HW223526   0.035   2.666   5.482  1.1555  0.2493 -2.6570
 3964SOL     OW23527   3.629   4.404  17.418  0.0965  0.0997  0.0999
 3964SOL    HW123528   3.715   4.427  17.384  0.6116 -0.9651  0.6714
 3964SOL    HW223529   3.589   4.380  17.335 -1.4859  0.5843  0.7132
 3965SOL     OW23530   4.600   0.297  11.437  0.2216 -0.8297 -0.3605
 3965SOL    HW123531   4.678   0.329  11.481 -0.7526  0.6315  0.2969
 3965SOL    HW223532   4.623   0.204  11.442  2.1697 -0.4150 -1.5083
 3966SOL     OW23533   1.167   1.533   5.477  0.1597 -0.4010 -0.2860
 3966SOL    HW123534   1.080   1.508   5.509  0.5685 -2.7864 -0.9922
 3966SOL    HW223535   1.156   1.627   5.466 -0.2375 -0.4233 -0.0749
 3967SOL     OW23536   2.957   2.131  13.916 -0.3801 -0.2310 -0.4387
 3967SOL    HW123537   2.895   2.197  13.885  0.5651  0.7629 -0.2353
 3967SOL    HW223538   2.932   2.127  14.008  0.6925  1.2607 -0.0877
 3968SOL     OW23539   0.173   3.787  16.352  0.5778  0.2041  0.5231
 3968SOL    HW123540   0.095   3.813  16.303  1.0680  0.6735  0.0008
 3968SOL    HW223541   0.230   3.756  16.281  1.9920 -0.3118  1.8817
 3969SOL     OW23542   1.812   2.051   2.974  1.0224 -0.5646  0.4298
 3969SOL    HW123543   1.806   2.073   2.881 -0.0545 -1.8561  0.1834
 3969SOL    HW223544   1.727   2.084   3.004  1.6385  1.2004  0.2332
 3970SOL     OW23545   2.954   3.443  16.216 -0.2161  0.5770  0.0054
 3970SOL    HW123546   2.867   3.415  16.185  0.6072 -1.9744 -0.0224
 3970SOL    HW223547   2.942   3.451  16.311 -0.5143 -1.5185  0.1346
 3971SOL     OW23548   3.286   4.235   7.151 -0.4454 -0.3880  0.2705
 3971SOL    HW123549   3.291   4.308   7.089  0.2979  0.1582  0.9736
 3971SOL    HW223550   3.194   4.211   7.139 -0.4821  0.0452 -0.3406
 3972SOL     OW23551   2.127   1.627   3.126  0.3664  0.2612 -0.1285
 3972SOL    HW123552   2.184   1.704   3.127  2.3804 -1.1628 -3.5111
 3972SOL    HW223553   2.141   1.588   3.040  0.9759 -0.8271  0.4593
 3973SOL     OW23554   3.588   3.888   4.832 -0.5320 -0.0625  0.0690
 3973SOL    HW123555   3.608   3.894   4.739 -2.9760 -1.5371 -0.5524
 3973SOL    HW223556   3.669   3.936   4.844  0.1110 -1.1566  0.1561
 3974SOL     OW23557   2.549   1.134   1.344  0.5479  0.2775 -0.0682
 3974SOL    HW123558   2.605   1.195   1.393  0.7501 -0.3295  0.4584
 3974SOL    HW223559   2.498   1.199   1.296  1.3316  0.9276 -0.0114
 3975SOL     OW23560   4.271   0.764   2.578  0.2909  0.1957 -0.2538
 3975SOL    HW123561   4.186   0.722   2.563  0.5308 -0.7378  1.0036
 3975SOL    HW223562   4.309   0.709   2.646 -0.3536 -0.6284 -0.5600
 3976SOL     OW23563   2.735   0.128  11.504 -0.1202  0.0743 -0.8000
 3976SOL    HW123564   2.686   0.047  11.518 -0.0504  0.4503  1.5812
 3976SOL    HW223565   2.785   0.113  11.423 -0.6621 -1.1745 -0.9030
 3977SOL     OW23566   3.104   2.026   8.104  0.2456  0.1925 -0.8117
 3977SOL    HW123567   3.150   2.085   8.046 -0.0411 -0.3822 -1.6236
 3977SOL    HW223568   3.019   2.010   8.063 -1.1106  1.4143  1.5330
 3978SOL     OW23569   1.269   3.625  15.867  0.3165  0.5109  0.2039
 3978SOL    HW123570   1.295   3.659  15.953 -0.9982  0.5774  0.5726
 3978SOL    HW223571   1.353   3.619  15.822 -1.0530  1.6068 -2.5231
 3979SOL     OW23572   0.356   3.954   9.642  0.2931 -0.2068  0.3448
 3979SOL    HW123573   0.312   3.970   9.725 -1.1030  0.7949 -0.5728
 3979SOL    HW223574   0.449   3.947   9.661  0.0471  1.1480  2.0488
 3980SOL     OW23575   2.448   4.445   7.935 -0.4463  0.4639  0.0205
 3980SOL    HW123576   2.490   4.518   7.889  1.1070 -0.6748 -0.3838
 3980SOL    HW223577   2.447   4.479   8.024  1.3376  1.6577 -0.4195
 3981SOL     OW23578   4.319   0.082   7.418 -0.1020 -0.6165  0.3348
 3981SOL    HW123579   4.344   4.730   7.389 -0.1008 -1.8610  4.0840
 3981SOL    HW223580   4.390   0.133   7.380 -0.4699 -1.0490 -0.9148
 3982SOL     OW23581   2.170   2.485  16.528 -0.6628  0.4211 -0.2137
 3982SOL    HW123582   2.212   2.562  16.490  1.0600 -0.8664 -0.9763
 3982SOL    HW223583   2.076   2.505  16.524 -0.3953  1.8012  0.6319
 3983SOL     OW23584   1.799   2.671   8.079 -0.6705  0.1158 -0.5326
 3983SOL    HW123585   1.885   2.652   8.042 -1.3757 -2.1831 -1.0178
 3983SOL    HW223586   1.748   2.679   7.998  0.3186  0.6784 -1.1003
 3984SOL     OW23587   3.529   3.652   9.377 -0.0831  0.0687  1.1623
 3984SOL    HW123588   3.529   3.744   9.402 -1.1971  0.5643 -0.6599
 3984SOL    HW223589   3.601   3.611   9.425  0.7793  1.3081  0.9155
 3985SOL     OW23590   0.037   2.226   3.843  0.0217 -0.2830  0.1273
 3985SOL    HW123591   0.117   2.185   3.876  0.1238 -0.1173  0.0882
 3985SOL    HW223592   0.014   2.164   3.774 -4.4413  1.0919  0.3725
 3986SOL     OW23593   1.362   3.513   7.392  0.4972 -0.1543 -0.2817
 3986SOL    HW123594   1.322   3.587   7.346 -0.6499 -2.5271 -3.1333
 3986SOL    HW223595   1.451   3.548   7.388 -1.2023  4.1547 -0.3353
 3987SOL     OW23596   3.123   4.044   2.927 -0.1414 -0.9578 -0.3546
 3987SOL    HW123597   3.130   3.994   2.846  0.9805 -0.0235 -0.8307
 3987SOL    HW223598   3.153   3.979   2.992  3.0136  1.0912  0.2393
 3988SOL     OW23599   3.917   1.257   2.131  0.3788  0.1775  0.0431
 3988SOL    HW123600   4.011   1.242   2.139  0.7236  0.9442 -2.4396
 3988SOL    HW223601   3.880   1.181   2.086  2.0502 -1.2605  1.1088
 3989SOL     OW23602   1.556   2.278   4.175  0.1064  0.1807  0.6315
 3989SOL    HW123603   1.604   2.206   4.135 -2.5643 -1.4455  0.3300
 3989SOL    HW223604   1.557   2.240   4.263  3.9394 -1.7551 -0.2834
 3990SOL     OW23605   3.856   3.281   2.659  0.0330  0.4570 -0.2269
 3990SOL    HW123606   3.765   3.297   2.635 -0.1888  1.8449  1.5459
 3990SOL    HW223607   3.890   3.371   2.655  0.1377  0.3460 -2.2694
 3991SOL     OW23608   3.993   2.319   3.704 -0.1975  0.2516  0.2824
 3991SOL    HW123609   4.076   2.286   3.740 -1.0078  1.4348  3.2107
 3991SOL    HW223610   3.936   2.270   3.763  0.1163  0.2570  0.5923
 3992SOL     OW23611   1.248   4.280   9.023  0.4779  0.2712 -0.4289
 3992SOL    HW123612   1.168   4.256   9.070  0.8222  0.7804  0.4100
 3992SOL    HW223613   1.231   4.259   8.931 -0.5894 -1.4043  0.1436
 3993SOL     OW23614   0.148   2.695   7.814  0.0112  0.2819  0.1180
 3993SOL    HW123615   0.130   2.646   7.734 -0.0378 -1.1331  0.9830
 3993SOL    HW223616   0.059   2.696   7.851  0.2687  2.8776  0.6586
 3994SOL     OW23617   0.392   4.360   5.856 -0.0216 -0.7876  0.1808
 3994SOL    HW123618   0.349   4.276   5.840  1.9011 -2.0501  1.5208
 3994SOL    HW223619   0.309   4.407   5.858  0.6802  0.4156  0.7960
 3995SOL     OW23620   0.847   4.218   3.203 -0.1608 -0.1228  0.4523
 3995SOL    HW123621   0.872   4.229   3.294  1.5543 -0.0934 -0.0219
 3995SOL    HW223622   0.786   4.291   3.192  0.0230  0.2643  1.9694
 3996SOL     OW23623   2.666   2.403   1.047  0.2821  0.6834  0.3656
 3996SOL    HW123624   2.641   2.477   0.991  0.7648 -0.6974 -1.6661
 3996SOL    HW223625   2.727   2.447   1.107  0.2006  0.0969  0.8720
 3997SOL     OW23626   2.375   4.141   2.317  0.0351 -0.9523 -0.0211
 3997SOL    HW123627   2.400   4.071   2.257  1.6664 -0.1864 -0.2453
 3997SOL    HW223628   2.309   4.180   2.260  0.5654  1.0770  0.7545
 3998SOL     OW23629   1.709   0.128   1.602 -0.2164 -0.2336 -0.6290
 3998SOL    HW123630   1.784   0.115   1.660 -1.5019 -1.0180  0.8581
 3998SOL    HW223631   1.698   0.223   1.612 -0.9084 -0.1166 -2.4508
 3999SOL     OW23632   0.716   2.693  17.595 -0.2876  0.6774  0.3359
 3999SOL    HW123633   0.686   2.735  17.676  0.3469  0.4134  0.7021
 3999SOL    HW223634   0.810   2.707  17.595 -0.5007  2.0955  1.4213
 4000SOL     OW23635   0.432   1.177  16.614  0.3136  0.1947  0.2624
 4000SOL    HW123636   0.392   1.148  16.532 -1.5314  0.1622  1.1637
 4000SOL    HW223637   0.362   1.219  16.664 -0.8912 -1.3664 -0.0969
 4001SOL     OW23638   3.442   1.921   6.326 -0.2053  0.3517  0.1640
 4001SOL    HW123639   3.491   1.848   6.364 -0.8493 -0.2664 -0.2054
 4001SOL    HW223640   3.365   1.921   6.383  1.2534 -0.0365  2.1808
 4002SOL     OW23641   0.842   1.941   7.852 -0.1918 -0.9673  0.8820
 4002SOL    HW123642   0.814   1.929   7.942 -1.6716  0.6765  0.6448
 4002SOL    HW223643   0.772   1.993   7.812 -0.6485 -1.1057  1.5006
 4003SOL     OW23644   1.799   2.929  17.162 -0.1192  0.1631  0.2888
 4003SOL    HW123645   1.850   2.907  17.240  1.2152 -1.8698 -1.1376
 4003SOL    HW223646   1.738   2.855  17.159  0.5413 -0.4032  0.8222
 4004SOL     OW23647   3.577   4.041   3.409 -0.4127  0.5390 -0.0832
 4004SOL    HW123648   3.638   4.073   3.475  0.2200  0.8379 -0.8058
 4004SOL    HW223649   3.506   4.094   3.446  0.0661  1.3566 -0.3227
 4005SOL     OW23650   3.765   0.462  13.278  0.0801  0.1761 -0.4362
 4005SOL    HW123651   3.683   0.413  13.276  0.7465 -0.9686  0.2241
 4005SOL    HW223652   3.809   0.423  13.353 -0.9379  0.7327  0.4385
 4006SOL     OW23653   1.525   1.129   4.138  0.2944  0.1131  0.0590
 4006SOL    HW123654   1.473   1.129   4.219 -0.2363  1.3303 -0.2784
 4006SOL    HW223655   1.473   1.066   4.087  1.8993 -0.4387 -0.8833
 4007SOL     OW23656   2.212   0.441   8.616 -0.4280 -0.2730  0.2719
 4007SOL    HW123657   2.188   0.403   8.532  0.2323 -1.8838  0.8120
 4007SOL    HW223658   2.209   0.364   8.674  0.1882 -0.0426  0.6063
 4008SOL     OW23659   4.312   0.376   9.489  0.0808  0.2875  0.1125
 4008SOL    HW123660   4.265   0.387   9.572  0.6313 -1.3859  0.6321
 4008SOL    HW223661   4.258   0.435   9.436  3.4719  2.3847 -0.9776
 4009SOL     OW23662   2.896   4.713   1.784 -0.0510 -0.3413  0.0180
 4009SOL    HW123663   2.928   4.656   1.714 -0.5962 -0.7211  0.0781
 4009SOL    HW223664   2.802   4.710   1.767  0.2134  2.0582 -1.7193
 4010SOL     OW23665   0.076   1.711   5.758 -0.0443 -0.3361  0.0586
 4010SOL    HW123666   4.734   1.681   5.808  0.3272  0.5505  1.1730
 4010SOL    HW223667   0.026   1.739   5.682 -1.4905 -0.0210  1.1036
 4011SOL     OW23668   3.731   3.979   5.670  0.2412 -0.0487 -0.5542
 4011SOL    HW123669   3.648   3.951   5.710  1.0824 -0.4849  0.8625
 4011SOL    HW223670   3.710   4.054   5.613  0.6508  1.4472  1.2500
 4012SOL     OW23671   3.590   0.523  17.035 -0.1694 -0.7225  0.3095
 4012SOL    HW123672   3.612   0.447  17.090  0.7518 -1.5578 -1.1930
 4012SOL    HW223673   3.609   0.595  17.095 -3.1100 -0.3418  0.7608
 4013SOL     OW23674   4.610   4.727   6.125  0.3047  0.3796 -0.1752
 4013SOL    HW123675   4.548   4.655   6.117 -0.0796  0.8487 -1.5064
 4013SOL    HW223676   4.592   0.025   6.213 -0.9077  2.2516 -1.1008
 4014SOL     OW23677   4.702   0.103   8.936 -0.0958  0.1611 -0.1674
 4014SOL    HW123678   4.704   0.109   9.031 -0.8257 -0.9159 -0.0842
 4014SOL    HW223679   4.723   0.193   8.909 -2.3603  0.7293 -0.0129
 4015SOL     OW23680   0.225   2.352   3.675 -0.0817 -0.2658 -0.3354
 4015SOL    HW123681   0.143   2.326   3.715  0.3163  0.9620  1.3047
 4015SOL    HW223682   0.204   2.326   3.585  0.1583  1.5099 -0.9205
 4016SOL     OW23683   1.175   4.535  15.283 -0.6007  0.5703  0.4361
 4016SOL    HW123684   1.109   4.593  15.320 -0.7901  0.9585 -0.5301
 4016SOL    HW223685   1.190   4.557  15.191 -1.3017  2.2605  0.7421
 4017SOL     OW23686   3.853   0.526  15.698 -0.2477 -0.5806  0.6205
 4017SOL    HW123687   3.782   0.484  15.650 -0.3327 -0.1457  0.3669
 4017SOL    HW223688   3.821   0.605  15.741 -0.1010 -1.1821  1.8135
 4018SOL     OW23689   2.604   0.465   8.134 -0.5368 -0.3547  0.7471
 4018SOL    HW123690   2.556   0.513   8.067  0.8490 -0.2108 -0.1408
 4018SOL    HW223691   2.674   0.435   8.076 -0.7797  1.0052 -0.2382
 4019SOL     OW23692   2.790   2.410   4.933 -0.2266  0.6858  0.3978
 4019SOL    HW123693   2.866   2.462   4.960 -0.0335  0.8784 -0.5173
 4019SOL    HW223694   2.827   2.323   4.916  0.8174  1.1296  0.3737
 4020SOL     OW23695   1.849   3.570   9.422 -0.5500  0.7593  0.3099
 4020SOL    HW123696   1.765   3.528   9.402 -0.5274  1.8865 -2.0931
 4020SOL    HW223697   1.914   3.509   9.388 -0.4514  1.5230 -0.8483
 4021SOL     OW23698   4.426   3.182  13.182  0.2731  0.4503  0.6912
 4021SOL    HW123699   4.450   3.090  13.184  0.9528  0.5893 -0.8415
 4021SOL    HW223700   4.393   3.204  13.269  0.4104 -0.8952  1.0752
 4022SOL     OW23701   4.647   4.656   4.161  0.6854  0.0548  0.0189
 4022SOL    HW123702   4.712   4.613   4.216  1.0327  0.7358  0.1428
 4022SOL    HW223703   4.617   4.729   4.216  0.2322 -0.2755  0.2078
 4023SOL     OW23704   3.004   1.208   4.121 -0.3903  0.8839  0.2459
 4023SOL    HW123705   2.937   1.141   4.109  0.2884  0.5827 -1.8137
 4023SOL    HW223706   3.085   1.158   4.110  1.1309  2.6926  3.1029
 4024SOL     OW23707   2.466   1.318   8.912  0.2607 -0.2887  0.3203
 4024SOL    HW123708   2.390   1.263   8.930 -0.7643  0.1198 -2.7897
 4024SOL    HW223709   2.437   1.403   8.945  0.0447 -0.9752  1.9379
 4025SOL     OW23710   0.111   0.486   6.863 -0.1382 -0.3734  0.6167
 4025SOL    HW123711   0.186   0.445   6.905 -0.6476 -1.0801  0.8293
 4025SOL    HW223712   0.082   0.542   6.935  1.3621  0.8068  0.3082
 4026SOL     OW23713   1.149   4.237  13.841 -0.3168 -0.3840 -0.1084
 4026SOL    HW123714   1.206   4.304  13.803 -2.2616  0.4536 -1.5184
 4026SOL    HW223715   1.178   4.161  13.790  2.0752  0.0854  0.5192
 4027SOL     OW23716   3.485   3.121   4.093 -0.0688 -0.2477  0.0074
 4027SOL    HW123717   3.514   3.066   4.166  1.2611 -2.7231 -2.3305
 4027SOL    HW223718   3.567   3.166   4.072  0.9809 -1.9713  0.3566
 4028SOL     OW23719   3.801   3.428   8.338 -0.1811  0.0243 -0.3357
 4028SOL    HW123720   3.713   3.394   8.354 -0.1437 -0.6518 -1.5322
 4028SOL    HW223721   3.844   3.387   8.413  0.1240 -0.8399 -0.9753
 4029SOL     OW23722   3.635   1.391   1.803 -0.1950  0.2745 -0.0651
 4029SOL    HW123723   3.587   1.343   1.871  1.0339  0.6079  1.0347
 4029SOL    HW223724   3.713   1.336   1.795 -0.1160  0.4404 -0.4227
 4030SOL     OW23725   0.159   0.014   6.421 -0.4620 -0.3840  0.9737
 4030SOL    HW123726   0.231   4.687   6.424  1.1124  1.4538  1.4762
 4030SOL    HW223727   0.090   4.684   6.409 -1.6949  0.4247  3.6835
 4031SOL     OW23728   1.170   2.951  17.489  0.2303  0.0472  0.2987
 4031SOL    HW123729   1.246   2.992  17.532  0.2426 -1.0499  1.3290
 4031SOL    HW223730   1.165   2.988  17.401  0.1312  0.5085  0.4959
 4032SOL     OW23731   3.171   2.685  14.902  0.1915  0.3114  0.4960
 4032SOL    HW123732   3.086   2.709  14.864  0.9595  4.4006  1.3206
 4032SOL    HW223733   3.230   2.690  14.826  0.3486  0.7011  0.6423
 4033SOL     OW23734   1.048   4.196  17.226  0.0277  0.0234  0.0985
 4033SOL    HW123735   1.099   4.275  17.242 -2.0024  1.5503 -1.0103
 4033SOL    HW223736   0.958   4.221  17.245  0.1080 -1.4025  2.3615
 4034SOL     OW23737   1.777   1.730   4.367 -0.6426 -0.4861  0.1457
 4034SOL    HW123738   1.816   1.776   4.442 -1.4540  0.8472 -0.2416
 4034SOL    HW223739   1.856   1.703   4.321 -1.4088 -0.5996 -1.0890
 4035SOL     OW23740   2.650   1.345  14.805 -0.7414  0.2864  0.0007
 4035SOL    HW123741   2.727   1.335  14.861 -0.2882 -0.7695 -0.8262
 4035SOL    HW223742   2.693   1.386  14.731 -0.6086  0.0348 -0.0599
 4036SOL     OW23743   2.581   2.209  13.511 -0.1510 -0.2372 -0.9228
 4036SOL    HW123744   2.526   2.286  13.494 -0.9651 -0.5878  0.1465
 4036SOL    HW223745   2.545   2.143  13.452  0.7589 -1.1486 -0.4567
 4037SOL     OW23746   3.947   0.923   1.789 -0.5215 -0.5246  0.4299
 4037SOL    HW123747   4.011   0.856   1.810 -1.3507 -1.2344  0.6579
 4037SOL    HW223748   3.930   0.905   1.697  0.5566  0.1410  0.0849
 4038SOL     OW23749   0.784   0.444   5.580 -0.0397 -0.2504  0.0326
 4038SOL    HW123750   0.864   0.478   5.620 -0.2376 -0.2583  0.4306
 4038SOL    HW223751   0.713   0.496   5.617  1.1395  0.8775  0.6960
 4039SOL     OW23752   0.997   4.254   2.967  0.0872 -0.3884  0.0668
 4039SOL    HW123753   0.939   4.250   3.044  1.8149  0.7289  1.4322
 4039SOL    HW223754   0.982   4.347   2.951  1.5963  0.1196  1.6515
 4040SOL     OW23755   4.630   2.135   1.788  0.0551  0.2629  0.2858
 4040SOL    HW123756   4.621   2.136   1.692 -2.4323 -2.1388  0.4990
 4040SOL    HW223757   4.617   2.042   1.802 -0.3487  0.3362  0.4132
 4041SOL     OW23758   3.289   1.323   1.788 -0.6933  0.4283 -0.6281
 4041SOL    HW123759   3.334   1.299   1.869 -0.9143  0.0989 -0.6037
 4041SOL    HW223760   3.225   1.253   1.779  2.1136 -2.0311 -1.6381
 4042SOL     OW23761   0.904   4.424  11.868 -0.9597  0.2758 -0.1967
 4042SOL    HW123762   0.962   4.426  11.792  0.7454 -1.1775  1.0902
 4042SOL    HW223763   0.858   4.342  11.853  2.2259 -1.2301 -1.6937
 4043SOL     OW23764   1.613   1.161  15.459  0.0872 -0.3088  0.0097
 4043SOL    HW123765   1.532   1.210  15.476 -0.7214 -1.2415 -1.2014
 4043SOL    HW223766   1.672   1.234  15.479 -0.8862  0.7854 -1.1243
 4044SOL     OW23767   0.187   2.750  14.263  0.8611 -0.3838  0.1252
 4044SOL    HW123768   0.195   2.790  14.350  1.2302  0.9480 -0.5332
 4044SOL    HW223769   0.119   2.809  14.230  1.8139  1.5036  1.5184
 4045SOL     OW23770   0.101   1.846   1.891  0.1801  0.2838  0.3858
 4045SOL    HW123771   0.140   1.779   1.834 -0.9120  0.2180 -0.2720
 4045SOL    HW223772   0.019   1.858   1.844  0.6493 -1.6581 -0.9646
 4046SOL     OW23773   0.398   2.227  13.871  0.8718 -0.4854 -0.1714
 4046SOL    HW123774   0.449   2.176  13.808 -1.5234 -1.3357 -1.4252
 4046SOL    HW223775   0.463   2.237  13.941 -1.6283 -2.0215  2.3882
 4047SOL     OW23776   1.286   0.994   7.549  0.1485 -0.0136  0.0690
 4047SOL    HW123777   1.348   0.995   7.622 -0.9941 -3.7891  1.0911
 4047SOL    HW223778   1.346   0.983   7.475  1.6015 -0.8941  1.3560
 4048SOL     OW23779   1.268   3.226   4.795 -0.2307 -0.1260 -0.9195
 4048SOL    HW123780   1.312   3.304   4.828  0.8002 -0.3477 -1.7847
 4048SOL    HW223781   1.237   3.255   4.709  1.9404  1.1671 -1.2679
 4049SOL     OW23782   3.606   3.659   5.001  0.4099 -0.8971  0.0578
 4049SOL    HW123783   3.631   3.706   4.921  1.3563  1.1344  1.5542
 4049SOL    HW223784   3.687   3.674   5.050  0.7410 -3.1210  0.1597
 4050SOL     OW23785   1.704   0.890   7.461 -0.7737 -0.0591  0.4921
 4050SOL    HW123786   1.705   0.960   7.527  3.0751  2.1535 -1.9673
 4050SOL    HW223787   1.713   0.814   7.520 -0.2661 -0.4076 -0.0419
 4051SOL     OW23788   3.216   0.406   5.566  0.2812 -0.0977  0.0830
 4051SOL    HW123789   3.241   0.495   5.543  1.5350 -0.2344  0.9032
 4051SOL    HW223790   3.253   0.350   5.497  0.3353  1.2933 -1.0025
 4052SOL     OW23791   1.516   3.102   3.404  0.3571 -0.4345 -0.3874
 4052SOL    HW123792   1.434   3.107   3.353 -0.4129 -0.2740  0.8630
 4052SOL    HW223793   1.474   3.044   3.468  0.3198  1.4564  1.2955
 4053SOL     OW23794   2.822   4.272   1.415 -0.0478  0.5033  0.0511
 4053SOL    HW123795   2.891   4.247   1.354 -0.5977 -0.5114 -0.1610
 4053SOL    HW223796   2.878   4.285   1.491 -0.0722 -1.0392  0.3471
 4054SOL     OW23797   0.844   3.545   9.507  0.3895  0.1665 -0.4671
 4054SOL    HW123798   0.830   3.584   9.421 -2.3406 -0.2096 -0.1865
 4054SOL    HW223799   0.937   3.565   9.515 -0.1175  2.6845 -0.9026
 4055SOL     OW23800   3.579   2.017   8.049  0.7240  0.0503 -0.4328
 4055SOL    HW123801   3.595   2.110   8.065  0.4178  0.1698 -0.8349
 4055SOL    HW223802   3.629   1.978   8.121 -0.3155  1.3595  0.9911
 4056SOL     OW23803   0.510   2.519   8.383  0.1607 -0.1754 -0.1482
 4056SOL    HW123804   0.493   2.586   8.449 -2.3139 -2.1126  1.1801
 4056SOL    HW223805   0.498   2.439   8.434  1.7188 -1.5571 -1.9507
 4057SOL     OW23806   2.893   3.476   3.730  0.2665 -0.3773 -0.0810
 4057SOL    HW123807   2.902   3.563   3.767  0.8307  0.1502 -1.4682
 4057SOL    HW223808   2.836   3.424   3.788  1.1683 -0.2813  0.8816
 4058SOL     OW23809   0.867   0.700   7.099 -0.7204  0.0662  0.5148
 4058SOL    HW123810   0.802   0.759   7.061 -0.0023 -0.3277 -1.3401
 4058SOL    HW223811   0.942   0.724   7.045 -0.5753 -2.5146 -0.4544
 4059SOL     OW23812   4.168   0.088   6.080  0.0777 -0.1381  0.0021
 4059SOL    HW123813   4.226   0.155   6.045  0.4458 -0.4885 -0.0627
 4059SOL    HW223814   4.213   0.055   6.158 -2.2296  0.1161  1.4600
 4060SOL     OW23815   0.116   4.160  12.490 -0.5623  0.2136  0.2005
 4060SOL    HW123816   0.188   4.216  12.463 -0.5412 -0.0420 -0.2627
 4060SOL    HW223817   0.039   4.210  12.462 -0.2776  0.1143 -0.7503
 4061SOL     OW23818   0.829   0.816   9.052  0.0497 -0.5276 -0.2366
 4061SOL    HW123819   0.793   0.899   9.021 -0.3811 -1.1162 -1.3168
 4061SOL    HW223820   0.807   0.763   8.976 -0.5639 -0.2538 -0.2458
 4062SOL     OW23821   2.676   3.793   2.489 -0.3883 -0.4584 -0.1180
 4062SOL    HW123822   2.581   3.796   2.503 -0.4357  0.1497 -0.5986
 4062SOL    HW223823   2.707   3.872   2.532 -2.3693 -0.4213  1.2363
 4063SOL     OW23824   3.041   2.026   5.261  0.1175 -0.0508 -0.0555
 4063SOL    HW123825   2.997   2.025   5.346  0.0109 -0.2084 -0.1139
 4063SOL    HW223826   2.968   1.995   5.209 -0.3343  1.8665 -0.5516
 4064SOL     OW23827   4.031   1.272  15.413 -0.2296  0.2108 -0.4217
 4064SOL    HW123828   3.938   1.276  15.390 -0.7653  4.0158  2.4628
 4064SOL    HW223829   4.070   1.315  15.336  1.8733  2.8550  2.1274
 4065SOL     OW23830   2.399   3.911   2.168  0.0351 -0.2170  0.2214
 4065SOL    HW123831   2.399   3.852   2.244  2.3047 -0.6991 -0.1548
 4065SOL    HW223832   2.316   3.893   2.126  0.8951  0.7012 -1.8733
 4066SOL     OW23833   1.121   3.128   7.143  0.8496  0.0612 -0.2748
 4066SOL    HW123834   1.200   3.082   7.115  0.8838  1.2298 -2.0975
 4066SOL    HW223835   1.077   3.135   7.058 -1.5929  1.9919  1.1239
 4067SOL     OW23836   4.705   2.802   5.911  0.1540 -0.3375 -0.1466
 4067SOL    HW123837   4.664   2.718   5.886  3.1521 -1.1500 -2.2916
 4067SOL    HW223838   4.640   2.857   5.954 -1.0388 -1.8594  0.0029
 4068SOL     OW23839   2.377   2.517   5.303  0.0074  0.1412  0.5654
 4068SOL    HW123840   2.383   2.493   5.396  0.7230  1.4141  0.8426
 4068SOL    HW223841   2.333   2.437   5.274 -0.3414  0.4422  0.2709
 4069SOL     OW23842   2.450   2.856   9.817  0.2036  0.0544 -0.6856
 4069SOL    HW123843   2.382   2.839   9.882  1.1133  0.0276  0.2677
 4069SOL    HW223844   2.467   2.950   9.819 -1.3883  0.3218 -0.1504
 4070SOL     OW23845   0.237   3.807   2.353  0.2226  0.1755 -0.3058
 4070SOL    HW123846   0.276   3.890   2.324 -2.2289  1.4589  0.0546
 4070SOL    HW223847   0.226   3.773   2.264 -2.5484 -1.2010  0.5625
 4071SOL     OW23848   2.848   0.055  12.262  0.2509 -0.1046  0.0250
 4071SOL    HW123849   2.845   0.013  12.176  0.3759 -1.0240  0.4697
 4071SOL    HW223850   2.864   0.146  12.239 -0.1253 -0.0833 -0.1467
 4072SOL     OW23851   1.780   0.087  16.135 -0.3022  0.2014  0.0163
 4072SOL    HW123852   1.720   0.155  16.104  2.0084  2.1919 -0.0362
 4072SOL    HW223853   1.756   0.098  16.227 -0.1442 -0.4414  0.1324
 4073SOL     OW23854   2.605   1.395   4.342  0.1965  0.1330 -0.1975
 4073SOL    HW123855   2.664   1.322   4.357  1.3928  1.0420 -0.5209
 4073SOL    HW223856   2.627   1.413   4.251 -3.5903  2.4506 -0.6931
 4074SOL     OW23857   4.521   0.202   7.275 -0.2244 -0.4413 -0.1419
 4074SOL    HW123858   4.567   0.272   7.321 -3.1353  0.5834  1.1895
 4074SOL    HW223859   4.572   0.189   7.195  1.2691 -2.2555  1.1083
 4075SOL     OW23860   2.313   2.744  16.203  0.9011  0.3264  0.4219
 4075SOL    HW123861   2.248   2.813  16.197 -2.0793 -2.5841 -0.8247
 4075SOL    HW223862   2.386   2.795  16.169  0.9833 -0.1621 -0.1317
 4076SOL     OW23863   2.088   3.568   5.780 -0.0599  0.5067  0.5654
 4076SOL    HW123864   2.141   3.494   5.753  1.8293  1.3085  2.0572
 4076SOL    HW223865   2.129   3.584   5.865  0.4709  1.0257  0.2135
 4077SOL     OW23866   2.951   2.467   4.053 -0.1833 -0.2747 -0.1530
 4077SOL    HW123867   2.970   2.561   4.054  0.9071 -0.5029 -0.3199
 4077SOL    HW223868   2.869   2.469   4.003 -1.3534  1.1931  1.8052
 4078SOL     OW23869   3.785   3.883   9.943 -0.0453  0.2032 -0.1746
 4078SOL    HW123870   3.712   3.909  10.000 -0.2381  0.2140 -0.4282
 4078SOL    HW223871   3.805   3.803   9.993 -1.5167 -0.4275 -0.6026
 4079SOL     OW23872   1.789   1.887  12.043  0.0962  0.0993  0.2218
 4079SOL    HW123873   1.793   1.896  12.139  1.1259 -0.4826  0.2310
 4079SOL    HW223874   1.713   1.940  12.018  0.5902  0.3399 -0.7462
 4080SOL     OW23875   3.728   4.546   3.974 -0.1300 -0.6493 -0.1640
 4080SOL    HW123876   3.748   4.452   3.973 -0.9825 -0.8719  2.1182
 4080SOL    HW223877   3.695   4.550   4.064  1.3840  1.8509  0.2718
 4081SOL     OW23878   2.149   3.143   5.321  0.1703 -0.5080  0.2109
 4081SOL    HW123879   2.056   3.127   5.309  0.4735 -0.2502 -2.3682
 4081SOL    HW223880   2.145   3.232   5.356 -1.5715 -0.1249 -0.9813
 4082SOL     OW23881   4.647   0.690   8.451  0.3984 -0.3681 -0.5002
 4082SOL    HW123882   4.624   0.625   8.518  1.2893 -1.3310 -1.1216
 4082SOL    HW223883   4.719   0.728   8.501 -0.6765  0.8512  0.1267
 4083SOL     OW23884   2.292   3.910   3.016 -0.7502  0.0036 -0.0582
 4083SOL    HW123885   2.217   3.962   3.046 -1.3194 -0.2474 -1.0305
 4083SOL    HW223886   2.311   3.961   2.937  1.3045  2.7492  2.2044
 4084SOL     OW23887   0.268   3.067   1.146 -0.0915  0.2658 -0.4561
 4084SOL    HW123888   0.273   2.996   1.081 -1.7213 -1.0183  0.8379
 4084SOL    HW223889   0.190   3.110   1.110 -0.6553 -1.0508 -0.7978
 4085SOL     OW23890   2.103   3.448   6.200 -0.3558 -0.4465 -0.3164
 4085SOL    HW123891   2.172   3.392   6.167  0.2818 -0.0247  0.3155
 4085SOL    HW223892   2.144   3.498   6.271 -1.6967  0.9682 -0.5252
 4086SOL     OW23893   4.058   4.060  15.165 -0.2308  0.7006  0.0934
 4086SOL    HW123894   4.108   3.983  15.139 -0.2954  1.5778 -2.7059
 4086SOL    HW223895   3.970   4.027  15.179 -0.0813  1.1190  2.0456
 4087SOL     OW23896   3.443   0.389   0.346 -0.8642  0.8642  0.0568
 4087SOL    HW123897   3.483   0.325   0.287  0.8469  1.0292  1.0305
 4087SOL    HW223898   3.402   0.447   0.282 -0.5031  0.0994 -0.8675
 4088SOL     OW23899   0.781   3.041   9.569  0.2728 -0.5556 -0.3587
 4088SOL    HW123900   0.811   2.951   9.568  0.7434 -0.4064  0.2768
 4088SOL    HW223901   0.817   3.063   9.484 -0.9285  0.1325 -0.6898
 4089SOL     OW23902   2.087   1.955  16.811 -0.0369 -1.2850  0.2639
 4089SOL    HW123903   2.071   2.047  16.830 -2.0701 -1.0302 -2.6482
 4089SOL    HW223904   2.115   1.959  16.719 -0.6338 -1.6898  0.0656
 4090SOL     OW23905   0.322   2.550   3.859 -0.9760  0.1741 -0.8486
 4090SOL    HW123906   0.353   2.638   3.837 -2.4595  0.9205  0.0224
 4090SOL    HW223907   0.331   2.504   3.775 -0.9880 -2.2834  0.5126
 4091SOL     OW23908   1.050   0.446   6.039 -0.2500  0.4493 -0.0059
 4091SOL    HW123909   1.047   0.432   6.134  3.0435  0.4104  0.0761
 4091SOL    HW223910   0.980   0.386   6.012 -0.5964  0.7530  0.2147
 4092SOL     OW23911   3.779   4.209   2.823 -0.3238 -0.1876 -0.0932
 4092SOL    HW123912   3.834   4.206   2.744  0.8290  1.0329  0.6625
 4092SOL    HW223913   3.772   4.116   2.842 -1.5639 -0.1015 -0.1282
 4093SOL     OW23914   3.626   1.647   2.499 -0.3491  0.4066 -0.8327
 4093SOL    HW123915   3.542   1.602   2.491 -0.0632 -0.4846  1.2374
 4093SOL    HW223916   3.602   1.739   2.499 -2.5828 -0.1751 -0.1944
 4094SOL     OW23917   0.074   2.293   2.129  0.1355 -0.1563  0.3271
 4094SOL    HW123918   0.086   2.212   2.179  1.2687 -0.5431 -0.5914
 4094SOL    HW223919   0.160   2.333   2.139  0.7553 -1.0189 -1.7194
 4095SOL     OW23920   1.526   3.783   5.401  0.3466 -0.0946 -0.1387
 4095SOL    HW123921   1.473   3.733   5.462 -0.2633 -0.3481 -0.8686
 4095SOL    HW223922   1.485   3.745   5.323 -3.5546  1.8116  1.0293
 4096SOL     OW23923   2.622   1.012   4.603  0.4414 -0.2364  0.3659
 4096SOL    HW123924   2.691   0.997   4.667  2.1095 -0.1194 -1.4037
 4096SOL    HW223925   2.553   1.052   4.657  0.9918  0.3235  0.6469
 4097SOL     OW23926   2.712   3.698   4.139  0.0533  0.7321 -0.6671
 4097SOL    HW123927   2.661   3.769   4.100  0.0519  0.8901 -0.3810
 4097SOL    HW223928   2.799   3.736   4.144  0.7269 -0.9110 -0.0048
 4098SOL     OW23929   0.098   3.692  17.321 -0.3232 -0.1121 -0.1435
 4098SOL    HW123930   0.157   3.704  17.246 -0.2083 -1.5331 -0.2856
 4098SOL    HW223931   0.093   3.783  17.350 -0.8541 -0.5278  1.0293
 4099SOL     OW23932   3.369   0.180   1.968  0.1281  0.2416  0.6803
 4099SOL    HW123933   3.444   0.219   2.014  1.7052 -0.9063 -0.8971
 4099SOL    HW223934   3.343   0.250   1.909  1.1200 -0.4731 -0.6180
 4100SOL     OW23935   3.563   1.005   7.690 -0.1091  0.6027  0.9692
 4100SOL    HW123936   3.636   1.068   7.696  1.2561 -0.9942  1.0332
 4100SOL    HW223937   3.543   0.997   7.783  0.5806  1.6395  1.2159
 4101SOL     OW23938   2.477   4.503   8.975  0.2019 -0.2104  0.1851
 4101SOL    HW123939   2.459   4.561   8.901  2.3078  0.0817 -0.1075
 4101SOL    HW223940   2.569   4.487   8.952 -0.7638 -2.9568 -1.7167
 4102SOL     OW23941   2.530   3.493   7.198  0.3125  0.4317 -0.3714
 4102SOL    HW123942   2.528   3.530   7.110 -1.3381 -1.1542 -0.9952
 4102SOL    HW223943   2.449   3.442   7.202 -0.0302  0.9600 -0.4413
 4103SOL     OW23944   1.285   4.478   7.096 -0.5774 -0.0936  0.7292
 4103SOL    HW123945   1.281   4.564   7.136  1.0259  0.1672  0.3388
 4103SOL    HW223946   1.270   4.417   7.169  1.9355 -0.1586  1.1947
 4104SOL     OW23947   3.402   4.124   3.136 -0.8186 -0.3886  0.2358
 4104SOL    HW123948   3.335   4.164   3.191 -0.4587 -0.0629  0.4417
 4104SOL    HW223949   3.402   4.035   3.170 -2.3911 -0.0534  1.1116
 4105SOL     OW23950   4.050   4.447   8.029  0.2802 -0.1519 -0.9951
 4105SOL    HW123951   4.048   4.445   8.124 -0.9319  2.6198 -0.9774
 4105SOL    HW223952   4.142   4.469   8.014  0.4985  0.2925  1.1321
 4106SOL     OW23953   0.507   2.075   3.452  0.0430 -0.0082 -0.1982
 4106SOL    HW123954   0.476   2.015   3.520 -0.4229  1.6520  1.0590
 4106SOL    HW223955   0.526   2.148   3.511  0.8031 -0.5896  0.2833
 4107SOL     OW23956   4.470   2.449   6.738 -0.2111 -0.1720  0.5798
 4107SOL    HW123957   4.455   2.544   6.741 -0.7596 -0.2289 -0.2540
 4107SOL    HW223958   4.509   2.428   6.822  1.0850 -1.3168 -0.3153
 4108SOL     OW23959   2.201   2.861   1.623  0.2575  0.4242  0.3290
 4108SOL    HW123960   2.189   2.855   1.717 -0.5197 -0.1348  0.1997
 4108SOL    HW223961   2.296   2.860   1.618  0.4246  2.8926  3.1817
 4109SOL     OW23962   0.986   2.795  17.579 -0.0047 -0.0972 -0.3038
 4109SOL    HW123963   1.048   2.854  17.538  0.8177 -0.0659  0.9913
 4109SOL    HW223964   1.031   2.713  17.559  0.8544  0.8464 -2.2721
 4110SOL     OW23965   2.966   4.673  10.553  0.2334 -0.5029  0.0282
 4110SOL    HW123966   2.998   4.694  10.465 -0.5845  0.2361 -0.0871
 4110SOL    HW223967   2.983   0.016  10.606 -0.3782  0.4697 -1.2169
 4111SOL     OW23968   2.178   3.771   3.656  0.3702 -0.7526  0.4613
 4111SOL    HW123969   2.141   3.859   3.649 -0.2118 -1.0028  0.3577
 4111SOL    HW223970   2.129   3.735   3.731  0.1284 -2.1460 -0.3776
 4112SOL     OW23971   1.207   0.641   7.063  0.1226 -0.5969  0.0631
 4112SOL    HW123972   1.294   0.681   7.059 -0.1888 -0.0591 -1.1820
 4112SOL    HW223973   1.171   0.675   6.981  1.9751 -1.0007 -0.9208
 4113SOL     OW23974   4.424   3.643   8.519 -0.2429 -0.0395 -0.3573
 4113SOL    HW123975   4.470   3.652   8.602 -0.6876  0.1258 -0.1248
 4113SOL    HW223976   4.438   3.553   8.488  3.6462  0.2984  0.5216
 4114SOL     OW23977   3.599   1.569   8.284 -0.3205  0.1829  0.5277
 4114SOL    HW123978   3.660   1.495   8.285  0.8079  1.1097 -0.1149
 4114SOL    HW223979   3.630   1.637   8.344  1.6153  0.2392 -0.5397
 4115SOL     OW23980   4.498   1.582   8.549 -0.1832  0.7435  0.4833
 4115SOL    HW123981   4.433   1.649   8.528 -0.1091  1.0479  1.1963
 4115SOL    HW223982   4.473   1.524   8.478 -0.0241  0.2679  0.8131
 4116SOL     OW23983   2.826   4.439   6.141 -0.4979  0.3342 -0.6084
 4116SOL    HW123984   2.741   4.472   6.111  0.4455  1.6558 -1.8497
 4116SOL    HW223985   2.873   4.413   6.061 -0.8624 -0.8778 -0.4310
 4117SOL     OW23986   0.775   2.093   7.034  0.0232 -0.1132 -0.0571
 4117SOL    HW123987   0.834   2.161   7.065  0.7493 -0.6484 -0.2441
 4117SOL    HW223988   0.819   2.016   7.070 -2.2913 -0.9053  1.0487
 4118SOL     OW23989   4.167   0.892   6.147  0.2741 -0.0789  0.1176
 4118SOL    HW123990   4.106   0.965   6.144  2.4376  1.7692  1.6932
 4118SOL    HW223991   4.246   0.930   6.108 -0.2254  1.7998  0.9373
 4119SOL     OW23992   0.768   1.859   3.895  0.4537 -0.1907  0.0586
 4119SOL    HW123993   0.858   1.828   3.883  0.4973 -0.0443 -0.0036
 4119SOL    HW223994   0.767   1.942   3.846  1.8695  0.2145  0.7029
 4120SOL     OW23995   3.701   0.546   3.074 -0.2294 -0.1261  0.5151
 4120SOL    HW123996   3.715   0.517   2.984  2.5417  1.9003  0.2703
 4120SOL    HW223997   3.671   0.636   3.062  0.2782 -0.3333 -2.2239
 4121SOL     OW23998   4.410   1.817   6.921 -0.0678 -0.5356 -0.1855
 4121SOL    HW123999   4.362   1.736   6.941 -0.4386 -0.6798 -1.6934
 4121SOL    HW224000   4.359   1.850   6.848 -1.4953  1.4964  1.7546
 4122SOL     OW24001   2.002   1.779   9.730  0.2589 -0.2145  0.1530
 4122SOL    HW124002   2.097   1.784   9.718  0.2101  0.4228 -0.0057
 4122SOL    HW224003   1.986   1.687   9.708  4.0835 -0.7222 -0.3994
 4123SOL     OW24004   0.506   1.061  10.079  0.1355  0.0668 -0.4705
 4123SOL    HW124005   0.503   1.140  10.133  1.7222 -2.6775  3.6959
 4123SOL    HW224006   0.583   1.079  10.024 -0.1701 -1.7369 -1.4858
 4124SOL     OW24007   1.231   3.459   8.998 -0.2773  0.3916 -0.2531
 4124SOL    HW124008   1.164   3.442   9.065 -0.0314  0.6450  0.0581
 4124SOL    HW224009   1.270   3.540   9.032  0.0209  0.9115 -1.8474
 4125SOL     OW24010   2.283   2.456   2.357 -0.0806  0.3845 -0.1561
 4125SOL    HW124011   2.262   2.401   2.432 -1.3173 -1.0302 -1.5290
 4125SOL    HW224012   2.360   2.502   2.389 -0.3501  0.1100  0.8719
 4126SOL     OW24013   0.121   1.349   7.955  0.3976  0.4439 -0.0123
 4126SOL    HW124014   0.162   1.434   7.939 -0.1526  0.6471 -0.3468
 4126SOL    HW224015   0.204   1.302   7.959 -0.2074 -0.5101  1.1872
 4127SOL     OW24016   0.635   3.758   7.244  0.2837  0.6154  0.4513
 4127SOL    HW124017   0.637   3.769   7.339  1.0885  3.6967  0.0889
 4127SOL    HW224018   0.546   3.789   7.228 -0.3553 -2.3596 -1.7407
 4128SOL     OW24019   2.169   1.053  16.692  0.0550 -0.1760 -0.3701
 4128SOL    HW124020   2.098   1.102  16.650 -0.1207 -0.2421 -0.1523
 4128SOL    HW224021   2.174   0.993  16.617 -1.1906 -0.7775  0.0156
 4129SOL     OW24022   0.178   2.850   3.895  0.1756 -0.2684  0.1276
 4129SOL    HW124023   0.195   2.822   3.805  0.2493 -1.8234  0.6196
 4129SOL    HW224024   0.094   2.807   3.911 -1.4163  2.5421 -0.7588
 4130SOL     OW24025   0.979   1.576  13.958 -0.2313  0.0346  0.2270
 4130SOL    HW124026   1.006   1.485  13.951 -1.0344 -0.4465  3.2473
 4130SOL    HW224027   0.966   1.582  13.864 -1.0735 -2.9138  0.1612
 4131SOL     OW24028   0.670   0.980   5.242  0.0964  0.4153 -0.1859
 4131SOL    HW124029   0.629   0.920   5.180 -0.4015  1.1556 -0.5727
 4131SOL    HW224030   0.600   1.040   5.269 -0.7930 -0.7147  0.0429
 4132SOL     OW24031   3.814   4.087   7.310  0.0639  0.3109  0.2869
 4132SOL    HW124032   3.860   4.003   7.304  0.8988  0.8169 -0.4010
 4132SOL    HW224033   3.813   4.098   7.405  0.8915 -3.2080  0.7215
 4133SOL     OW24034   2.959   1.119  13.731  0.1641  0.2607 -0.4812
 4133SOL    HW124035   3.011   1.166  13.796 -1.2197  2.6920 -1.1327
 4133SOL    HW224036   2.894   1.185  13.706 -0.1981  0.2026  0.2849
 4134SOL     OW24037   1.947   1.161  16.524  0.4016 -0.4665  0.1679
 4134SOL    HW124038   1.908   1.075  16.510  1.2994 -1.0461  1.3121
 4134SOL    HW224039   1.937   1.205  16.439  0.6587 -1.8854 -0.5922
 4135SOL     OW24040   3.554   3.362   9.055  0.3879 -0.6525 -0.0856
 4135SOL    HW124041   3.502   3.343   9.133  1.8438  1.3618  1.3775
 4135SOL    HW224042   3.537   3.455   9.041 -0.5170 -0.9441 -0.9200
 4136SOL     OW24043   4.404   1.095   7.414 -0.9524 -0.9229 -0.2716
 4136SOL    HW124044   4.403   1.034   7.488 -0.0137 -3.4771 -2.3621
 4136SOL    HW224045   4.326   1.147   7.431 -0.7616 -0.7548  0.1015
 4137SOL     OW24046   1.056   1.263  15.570 -0.2768  0.2069 -0.3832
 4137SOL    HW124047   1.097   1.294  15.651  0.1505  2.2779 -1.3884
 4137SOL    HW224048   1.110   1.319  15.514  0.9806 -2.7379 -2.1340
 4138SOL     OW24049   3.536   3.662   8.659  0.0168  0.0754  0.5251
 4138SOL    HW124050   3.448   3.629   8.674  0.9744 -1.9577  1.6525
 4138SOL    HW224051   3.520   3.731   8.594  1.0965 -0.3702 -0.2165
 4139SOL     OW24052   1.153   1.768   6.955  0.5815  0.4134  0.2210
 4139SOL    HW124053   1.111   1.750   6.871  2.4805  3.0661 -1.2914
 4139SOL    HW224054   1.103   1.708   7.011  0.0072  1.8849  1.2687
 4140SOL     OW24055   4.335   3.204   6.349  0.1333 -0.1452  0.0751
 4140SOL    HW124056   4.242   3.226   6.356 -0.3302 -2.0193 -0.3264
 4140SOL    HW224057   4.346   3.163   6.435 -0.4511  0.3599  0.3901
 4141SOL     OW24058   2.200   3.302   7.590 -0.4833  0.1877  0.4367
 4141SOL    HW124059   2.133   3.267   7.531  0.3464  1.4384 -1.2431
 4141SOL    HW224060   2.230   3.375   7.536  1.4619  0.6796  2.1903
 4142SOL     OW24061   4.461   1.712  10.349 -0.9647  0.6539 -0.3911
 4142SOL    HW124062   4.393   1.675  10.406 -1.3242 -0.8214 -1.7941
 4142SOL    HW224063   4.494   1.786  10.400 -3.1127  0.0306  1.9643
 4143SOL     OW24064   1.822   0.806   4.494  0.0656  0.3137 -0.1201
 4143SOL    HW124065   1.805   0.884   4.442 -0.4103  1.3421  1.6085
 4143SOL    HW224066   1.754   0.809   4.561  0.5179  1.4272  0.2753
 4144SOL     OW24067   4.499   3.557   4.427  0.1632 -0.5029  0.0769
 4144SOL    HW124068   4.444   3.579   4.351  0.6165  0.6679  0.0878
 4144SOL    HW224069   4.578   3.518   4.391  1.7543  0.7474  2.2278
 4145SOL     OW24070   4.482   3.233  13.673 -0.0474 -0.2802  0.1149
 4145SOL    HW124071   4.543   3.307  13.662 -0.7894  0.2277 -0.5809
 4145SOL    HW224072   4.454   3.232  13.581 -1.5466  1.5935  0.5584
 4146SOL     OW24073   0.932   0.083  14.913  0.7104  0.1726  0.3273
 4146SOL    HW124074   0.971   0.096  14.826  0.9891 -1.0278  0.2764
 4146SOL    HW224075   0.884   0.166  14.911 -0.0380 -0.3070 -2.0410
 4147SOL     OW24076   2.746   0.510   8.775 -0.2992 -0.0485  0.5560
 4147SOL    HW124077   2.805   0.572   8.733  0.4998  0.9436  3.1233
 4147SOL    HW224078   2.675   0.499   8.712  0.6785  2.1279 -0.9061
 4148SOL     OW24079   3.922   2.879   3.936 -0.0097 -0.0706 -0.2520
 4148SOL    HW124080   3.827   2.892   3.937 -0.2283 -1.7992  2.2849
 4148SOL    HW224081   3.937   2.873   3.842  1.4186 -0.5091  0.0090
 4149SOL     OW24082   4.334   2.553   1.291 -0.3582  0.1519  0.1505
 4149SOL    HW124083   4.317   2.486   1.358 -3.8523  2.3003  1.4217
 4149SOL    HW224084   4.368   2.628   1.340  4.1066 -0.9301 -1.3236
 4150SOL     OW24085   1.714   1.169   2.964 -0.0656 -0.0951 -0.0103
 4150SOL    HW124086   1.688   1.258   2.943 -2.2973 -0.6113  0.5517
 4150SOL    HW224087   1.638   1.126   3.004 -0.0972 -0.9318 -0.9528
 4151SOL     OW24088   3.439   2.258  13.474  0.6134 -0.3539 -0.1903
 4151SOL    HW124089   3.480   2.171  13.471 -1.6538 -1.4678  0.6129
 4151SOL    HW224090   3.494   2.324  13.515  2.0053  0.9248 -4.0809
 4152SOL     OW24091   4.407   3.471   6.787  0.4602  0.5485  0.0732
 4152SOL    HW124092   4.480   3.511   6.739 -0.0742  0.4868 -0.8050
 4152SOL    HW224093   4.437   3.488   6.876 -0.8625 -1.0701  0.8123
 4153SOL     OW24094   4.254   3.210   1.168  0.2870  0.0092 -0.4731
 4153SOL    HW124095   4.176   3.265   1.173  0.1251 -0.0482 -2.4255
 4153SOL    HW224096   4.277   3.222   1.076 -0.5331 -0.9063 -0.8021
 4154SOL     OW24097   3.393   1.379  17.142 -0.0255  0.1521 -0.2023
 4154SOL    HW124098   3.330   1.316  17.106 -1.1385  1.6721 -0.9029
 4154SOL    HW224099   3.366   1.464  17.107 -1.9703  0.5461  2.2555
 4155SOL     OW24100   1.728   2.988   3.039  0.5389 -0.1846  0.0633
 4155SOL    HW124101   1.721   2.989   3.135 -0.4181 -0.0450 -0.0016
 4155SOL    HW224102   1.736   3.082   3.025  2.1670 -0.5789 -1.5903
 4156SOL     OW24103   1.389   0.494   3.919  0.4803  0.3169  0.0211
 4156SOL    HW124104   1.312   0.549   3.929  0.4513  0.2633  0.0930
 4156SOL    HW224105   1.448   0.545   3.974  0.4698 -0.7154  1.0011
 4157SOL     OW24106   3.782   1.858   4.666 -0.2475 -0.2245 -0.7176
 4157SOL    HW124107   3.698   1.904   4.654 -1.6117 -2.2427  1.0383
 4157SOL    HW224108   3.848   1.909   4.620  0.5568  0.6246  1.3853
 4158SOL     OW24109   3.502   0.266   7.090 -0.4451 -0.4112 -0.1475
 4158SOL    HW124110   3.456   0.188   7.120 -0.7817 -0.5461 -1.0188
 4158SOL    HW224111   3.572   0.282   7.154 -0.3506  0.6631 -0.5260
 4159SOL     OW24112   0.237   3.258  13.785  0.6950  0.2251 -1.0074
 4159SOL    HW124113   0.159   3.218  13.823  1.1444  0.6611  0.3937
 4159SOL    HW224114   0.297   3.232  13.855  2.5166  3.1649 -1.4785
 4160SOL     OW24115   4.130   0.995  10.542 -0.5745  0.0837 -0.1574
 4160SOL    HW124116   4.160   0.923  10.486  0.1229 -0.6434  1.1452
 4160SOL    HW224117   4.040   0.963  10.555 -0.7798  0.6661 -0.1745
 4161SOL     OW24118   3.541   0.808  17.166  0.2952  0.4962 -0.0437
 4161SOL    HW124119   3.467   0.857  17.132  0.3424  1.0426  0.6255
 4161SOL    HW224120   3.600   0.879  17.193  0.9208  0.4799 -1.3862
 4162SOL     OW24121   4.103   1.291   9.322  0.3802  0.2103 -0.0955
 4162SOL    HW124122   4.088   1.238   9.401  1.2950 -0.6553 -0.5033
 4162SOL    HW224123   4.156   1.237   9.264  0.4777 -0.4738  0.6247
 4163SOL     OW24124   3.010   1.116   9.141  0.2111  0.6068 -0.3144
 4163SOL    HW124125   3.041   1.127   9.231  0.3533  3.5002 -0.7158
 4163SOL    HW224126   3.088   1.148   9.094  1.3940  1.4816  2.2490
 4164SOL     OW24127   3.257   1.340  15.412 -0.1969 -0.2926 -0.6861
 4164SOL    HW124128   3.348   1.310  15.410 -0.4481 -0.9037 -3.0386
 4164SOL    HW224129   3.243   1.394  15.334  0.2151  1.7069  0.6182
 4165SOL     OW24130   2.853   0.067   5.748  0.4208 -0.1908  0.2752
 4165SOL    HW124131   2.925   0.119   5.713 -0.6023 -0.5539 -2.4259
 4165SOL    HW224132   2.852   4.730   5.685  1.2302  0.3562 -0.3647
 4166SOL     OW24133   3.738   4.236   5.915  0.2174 -0.2212  0.1673
 4166SOL    HW124134   3.649   4.233   5.882  0.1977  0.7713  0.1496
 4166SOL    HW224135   3.769   4.293   5.845 -0.0129  0.8045  0.8921
 4167SOL     OW24136   0.490   2.275   8.506  0.1799 -0.2788 -0.0197
 4167SOL    HW124137   0.533   2.213   8.447 -0.1003 -0.3949 -0.1002
 4167SOL    HW224138   0.406   2.235   8.528 -0.1606  0.3836 -0.1371
 4168SOL     OW24139   1.365   4.331   8.086  0.3862  0.1699  0.2117
 4168SOL    HW124140   1.435   4.396   8.093  1.3519 -0.7109 -1.2303
 4168SOL    HW224141   1.392   4.291   8.169  0.8712  1.3952  0.6400
 4169SOL     OW24142   4.671   2.682   8.002  0.0789  0.2436  0.2207
 4169SOL    HW124143   4.687   2.602   8.051 -0.3595 -0.0599 -0.1285
 4169SOL    HW224144   4.718   2.744   8.058 -2.5051  2.1092  0.3323
 4170SOL     OW24145   0.035   2.363  10.380 -0.0566 -0.1845 -0.2895
 4170SOL    HW124146   0.030   2.269  10.364 -0.9209 -0.3172  0.7319
 4170SOL    HW224147   4.718   2.365  10.461  0.5946  1.9662  0.0954
 4171SOL     OW24148   4.603   3.981   3.409  0.1601  0.5492  0.3247
 4171SOL    HW124149   4.512   3.955   3.424 -0.4280  1.7691 -1.0741
 4171SOL    HW224150   4.650   3.960   3.490  1.6717 -1.3526 -1.0414
 4172SOL     OW24151   4.664   2.543  12.010 -0.4187 -0.0835 -0.5269
 4172SOL    HW124152   4.671   2.448  12.023 -1.1527 -0.1230 -0.4136
 4172SOL    HW224153   0.012   2.569  12.051 -1.1596  1.3128  0.0908
 4173SOL     OW24154   1.831   3.290  11.780  0.1027 -0.4600 -0.2693
 4173SOL    HW124155   1.910   3.343  11.781  0.2313 -0.6577  0.3247
 4173SOL    HW224156   1.858   3.200  11.800 -1.2721 -1.5251 -3.3004
 4174SOL     OW24157   0.302   0.227  13.016 -0.7800  0.1173  0.1453
 4174SOL    HW124158   0.368   0.159  12.999 -1.4448 -0.6031  0.4464
 4174SOL    HW224159   0.217   0.185  13.006 -1.2506  0.8501  1.1080
 4175SOL     OW24160   1.724   2.302   3.118 -0.0091  0.2666  0.6772
 4175SOL    HW124161   1.675   2.298   3.200 -0.3853  0.9672  0.4863
 4175SOL    HW224162   1.703   2.388   3.083 -3.2516 -0.4725  0.7806
 4176SOL     OW24163   3.763   2.928  10.907  0.7777 -0.0912  0.6460
 4176SOL    HW124164   3.677   2.943  10.947  0.9662  1.1633  0.5837
 4176SOL    HW224165   3.792   3.019  10.899 -0.5113  0.1761 -0.9479
 4177SOL     OW24166   1.439   4.515   0.665  0.5510  0.2997 -0.3199
 4177SOL    HW124167   1.448   4.530   0.571 -1.6856  0.9441 -0.4164
 4177SOL    HW224168   1.395   4.597   0.686 -1.7259 -1.1284  0.5157
 4178SOL     OW24169   1.076   1.825   4.553 -0.5201  0.4629  0.2768
 4178SOL    HW124170   1.148   1.878   4.519  0.6771 -0.8456  0.7610
 4178SOL    HW224171   1.023   1.810   4.475  0.4786 -1.3939 -0.0624
 4179SOL     OW24172   1.592   0.976  15.660  0.2807 -0.0322 -0.3058
 4179SOL    HW124173   1.654   1.000  15.729  0.9448  0.5302 -1.1047
 4179SOL    HW224174   1.618   1.033  15.587 -1.2208  2.1518  0.8754
 4180SOL     OW24175   2.775   3.561  16.918 -0.1398 -0.0555 -0.4182
 4180SOL    HW124176   2.751   3.623  16.987 -2.1314 -0.8610 -0.3766
 4180SOL    HW224177   2.689   3.520  16.912 -0.7591  1.1765 -0.0414
 4181SOL     OW24178   3.240   1.496   5.026 -0.6399 -0.1860  0.3840
 4181SOL    HW124179   3.198   1.497   4.940  2.0585 -1.7185 -0.9411
 4181SOL    HW224180   3.304   1.566   5.013 -0.8236 -0.0520  0.1921
 4182SOL     OW24181   1.815   1.703  10.089 -0.0643 -0.1259  0.2279
 4182SOL    HW124182   1.811   1.799  10.091  2.9582 -0.0136  0.7906
 4182SOL    HW224183   1.907   1.682  10.073  0.3410  0.7825  1.3110
 4183SOL     OW24184   1.819   3.163  17.035  0.2443 -0.4857  0.0950
 4183SOL    HW124185   1.904   3.179  17.074  0.9060 -1.9327 -0.7568
 4183SOL    HW224186   1.811   3.072  17.065  0.4448 -0.5055  0.0839
 4184SOL     OW24187   3.294   2.769   8.565  0.0408 -0.0612  0.0049
 4184SOL    HW124188   3.240   2.718   8.505  0.6893 -1.0926  0.2860
 4184SOL    HW224189   3.352   2.705   8.607 -0.5768 -0.5695  0.0948
 4185SOL     OW24190   0.938   0.633  15.680 -0.6780 -0.2936  0.4092
 4185SOL    HW124191   0.999   0.560  15.663  0.0659  0.3363  0.3784
 4185SOL    HW224192   0.851   0.595  15.669 -0.5410 -0.6282  0.4723
 4186SOL     OW24193   0.254   3.158   6.003  0.1706 -0.2752 -0.2198
 4186SOL    HW124194   0.206   3.238   6.022  0.4333 -0.4042  1.0207
 4186SOL    HW224195   0.190   3.098   6.040 -0.7657 -0.3520 -1.9649
 4187SOL     OW24196   2.987   1.572   5.943 -0.4938  0.8209  0.0436
 4187SOL    HW124197   2.903   1.605   5.911 -1.2945  0.2929  1.6430
 4187SOL    HW224198   3.048   1.623   5.889 -0.3903  0.9609  0.2963
 4188SOL     OW24199   1.162   1.854   4.809 -0.4793 -0.4463  0.2406
 4188SOL    HW124200   1.081   1.897   4.837  0.8708  1.9219  0.3960
 4188SOL    HW224201   1.144   1.824   4.720 -0.5747 -0.7745  0.3684
 4189SOL     OW24202   4.543   1.368   8.992 -0.3443  0.0826  0.1510
 4189SOL    HW124203   4.495   1.401   8.916 -1.2020 -2.1943 -0.2833
 4189SOL    HW224204   4.490   1.393   9.067  1.8445  2.2810  0.9733
 4190SOL     OW24205   1.112   1.661   5.970 -0.5675 -0.2353  0.2461
 4190SOL    HW124206   1.073   1.675   6.056 -0.9180  1.3435 -0.1787
 4190SOL    HW224207   1.188   1.719   5.980  0.1246 -0.6405 -2.7059
 4191SOL     OW24208   2.211   4.676   3.457  0.3865  0.4198 -0.2090
 4191SOL    HW124209   2.124   4.652   3.426  1.3487 -0.5318 -2.1561
 4191SOL    HW224210   2.185   0.000   3.528  2.9196  0.2910  0.8232
 4192SOL     OW24211   0.349   2.652  13.812  0.4336 -0.1092  0.6076
 4192SOL    HW124212   0.271   2.708  13.818 -0.4196 -1.0367 -1.8602
 4192SOL    HW224213   0.358   2.615  13.899  0.5336 -1.1006  0.1740
 4193SOL     OW24214   0.551   3.736   6.857  0.6157 -0.3390  0.4597
 4193SOL    HW124215   0.546   3.705   6.767 -1.5467 -0.9648  0.8003
 4193SOL    HW224216   0.532   3.829   6.846  0.4391 -0.5321 -0.7999
 4194SOL     OW24217   3.539   1.300  12.744 -0.5035  0.1564 -0.1470
 4194SOL    HW124218   3.475   1.371  12.743  1.0075  1.5764  2.7075
 4194SOL    HW224219   3.566   1.304  12.836 -1.3210 -1.0070  0.1561
 4195SOL     OW24220   3.891   0.757   3.440 -0.5736 -0.2597 -0.1420
 4195SOL    HW124221   3.823   0.800   3.389 -0.4653 -0.7712 -0.7166
 4195SOL    HW224222   3.914   0.700   3.367  4.4077 -1.0172  2.0095
 4196SOL     OW24223   3.747   0.838   8.140 -0.0648 -0.1403  0.1455
 4196SOL    HW124224   3.789   0.761   8.178 -1.1573 -0.9723 -0.3460
 4196SOL    HW224225   3.737   0.810   8.050  0.5180  1.1599 -0.3244
 4197SOL     OW24226   4.579   2.659   3.121  0.1900  0.1406 -0.0115
 4197SOL    HW124227   4.601   2.566   3.124 -0.1875 -0.0092 -1.6727
 4197SOL    HW224228   4.653   2.698   3.167  0.6957 -0.9924  0.1144
 4198SOL     OW24229   4.044   2.983   7.471 -0.4622  0.0195  0.3875
 4198SOL    HW124230   4.064   3.041   7.545  0.5022  0.2930 -0.1047
 4198SOL    HW224231   4.008   2.904   7.512 -0.0564 -1.3389 -1.8988
 4199SOL     OW24232   1.538   3.415  14.650  0.0579 -0.5230 -0.3954
 4199SOL    HW124233   1.459   3.410  14.596  0.3812  1.3599 -1.0609
 4199SOL    HW224234   1.595   3.465  14.591  0.1346 -0.1575 -0.0122
 4200SOL     OW24235   0.475   2.810   5.168 -0.3582 -0.2821  0.7573
 4200SOL    HW124236   0.484   2.829   5.262 -0.9821 -1.0092  0.9691
 4200SOL    HW224237   0.404   2.869   5.143 -1.0155 -1.7068 -0.7397
 4201SOL     OW24238   3.640   2.164   3.709  0.1131 -0.0365  0.6373
 4201SOL    HW124239   3.647   2.243   3.656  1.5571  0.3802  1.4558
 4201SOL    HW224240   3.677   2.100   3.648 -0.3822  0.5887 -0.3165
 4202SOL     OW24241   4.716   2.234   5.173 -0.0898 -0.2348  0.2048
 4202SOL    HW124242   0.038   2.220   5.098  1.6189  1.4839  1.1749
 4202SOL    HW224243   4.692   2.326   5.165 -0.0767 -0.0736  1.9308
 4203SOL     OW24244   3.132   0.439   4.535  0.5323 -0.8332 -0.2828
 4203SOL    HW124245   3.073   0.393   4.476  0.3956  2.1256 -2.4843
 4203SOL    HW224246   3.175   0.502   4.476  1.6869 -1.1780  0.1865
 4204SOL     OW24247   3.790   4.386   5.688  0.2076 -0.0110 -0.0684
 4204SOL    HW124248   3.800   4.340   5.605 -0.3542 -0.5052  0.1394
 4204SOL    HW224249   3.702   4.419   5.669  0.1354  0.4209  0.9783
 4205SOL     OW24250   1.571   2.460   1.758 -0.1785 -0.2257 -0.1712
 4205SOL    HW124251   1.490   2.415   1.735 -1.2546  1.8201 -0.3376
 4205SOL    HW224252   1.620   2.442   1.678  0.2004  1.3258 -0.2959
 4206SOL     OW24253   1.312   0.593  15.424 -0.7878  0.2629  0.4960
 4206SOL    HW124254   1.402   0.559  15.418  0.0027  2.8801 -2.4604
 4206SOL    HW224255   1.345   0.676  15.457  2.7004 -1.6370  1.8192
 4207SOL     OW24256   0.761   3.351   9.330 -0.1359 -0.4106 -0.2859
 4207SOL    HW124257   0.712   3.428   9.303  2.0622  0.4914 -1.6879
 4207SOL    HW224258   0.788   3.372   9.419 -1.4453  0.3831 -0.0662
 4208SOL     OW24259   2.355   2.697   3.789  0.3133  0.3318  0.9812
 4208SOL    HW124260   2.405   2.669   3.865  2.1956 -1.6860 -0.9964
 4208SOL    HW224261   2.363   2.792   3.792 -2.2134  0.6134 -0.6074
 4209SOL     OW24262   3.860   3.893  15.963  0.9765 -0.1139 -0.6996
 4209SOL    HW124263   3.950   3.860  15.968  0.0893 -1.9007  3.3140
 4209SOL    HW224264   3.876   3.986  15.981  0.6123 -0.2479  0.2976
 4210SOL     OW24265   3.585   0.855  12.074 -0.0751  0.3338 -0.3626
 4210SOL    HW124266   3.569   0.812  12.158  0.4645 -0.2290 -0.5465
 4210SOL    HW224267   3.658   0.910  12.099  0.3811 -1.2074  1.6767
 4211SOL     OW24268   3.974   3.140  10.812 -0.3393 -0.1688  0.5310
 4211SOL    HW124269   4.025   3.100  10.741  2.2913 -0.8260  2.7916
 4211SOL    HW224270   4.012   3.096  10.888 -1.9277 -2.2958  0.1175
 4212SOL     OW24271   2.471   2.966  16.137  0.2827  0.1422  0.5762
 4212SOL    HW124272   2.562   2.991  16.122  0.2098 -0.2608 -0.5567
 4212SOL    HW224273   2.463   3.034  16.203  0.3733  0.2163  0.5122
 4213SOL     OW24274   1.960   2.575   6.453 -0.6583 -0.1652  0.5703
 4213SOL    HW124275   2.007   2.542   6.377 -0.5207 -0.1165  0.6346
 4213SOL    HW224276   1.982   2.668   6.445 -0.3640 -0.2706  0.1232
 4214SOL     OW24277   1.004   2.780   6.156 -0.2658 -0.2481 -0.6748
 4214SOL    HW124278   1.012   2.705   6.215  0.5379  0.4611  0.1167
 4214SOL    HW224279   0.984   2.736   6.073  2.3733 -0.2156 -1.3243
 4215SOL     OW24280   3.437   4.507   9.749 -0.0203 -0.0747 -0.2219
 4215SOL    HW124281   3.414   4.422   9.713  1.3964 -0.2067 -0.8024
 4215SOL    HW224282   3.531   4.507   9.735  0.2139  1.0322  1.2457
 4216SOL     OW24283   1.827   2.610  16.047 -0.0091  0.1702 -0.5446
 4216SOL    HW124284   1.812   2.693  16.001 -2.1650  1.1844  1.9829
 4216SOL    HW224285   1.921   2.608  16.067  0.1811 -1.6344 -1.5673
 4217SOL     OW24286   2.580   2.860  14.983  0.2409 -0.1790  0.1265
 4217SOL    HW124287   2.549   2.879  14.894  1.3945  0.6338 -0.0945
 4217SOL    HW224288   2.539   2.933  15.029  0.2876 -0.1465  0.1168
 4218SOL     OW24289   0.561   1.444   4.376 -0.0179 -0.1011 -0.4896
 4218SOL    HW124290   0.624   1.458   4.306  0.8868 -2.1190 -0.0707
 4218SOL    HW224291   0.535   1.354   4.359 -1.3896  0.1875  0.0809
 4219SOL     OW24292   0.822   4.050   9.012 -0.1890 -0.4023 -0.3122
 4219SOL    HW124293   0.837   4.008   8.928  0.7500  0.4639 -0.5743
 4219SOL    HW224294   0.813   4.144   8.994  0.1099 -0.0849  1.1561
 4220SOL     OW24295   3.498   2.942  10.985  0.2442 -0.3031 -0.0978
 4220SOL    HW124296   3.432   2.927  11.053 -0.7370 -1.7351 -1.3759
 4220SOL    HW224297   3.435   2.938  10.913  0.3061 -0.7029 -0.1304
 4221SOL     OW24298   1.793   0.447   9.116  1.0616 -0.6176  0.2265
 4221SOL    HW124299   1.861   0.509   9.090 -0.7533  2.0906  1.9031
 4221SOL    HW224300   1.717   0.481   9.068  0.3497 -0.5147  1.4161
 4222SOL     OW24301   0.335   2.747  13.117  0.3748  0.1153  0.3412
 4222SOL    HW124302   0.240   2.731  13.118 -0.0028  2.0403 -2.6758
 4222SOL    HW224303   0.347   2.842  13.119 -1.1427  0.3073  0.3131
 4223SOL     OW24304   1.077   2.063   5.842 -0.0904  0.3575 -0.2924
 4223SOL    HW124305   1.143   2.051   5.910 -1.1663  1.0221  0.8553
 4223SOL    HW224306   1.032   1.979   5.833  0.7328 -0.1311  0.1075
 4224SOL     OW24307   3.600   0.575   2.145 -0.7179  0.6167  0.4394
 4224SOL    HW124308   3.538   0.582   2.073  0.0754  0.1037 -0.2947
 4224SOL    HW224309   3.677   0.623   2.115 -0.1973 -1.6472 -1.8264
 4225SOL     OW24310   1.316   0.287  16.521 -0.2716  0.3918  0.0191
 4225SOL    HW124311   1.375   0.240  16.579  0.9081 -0.0954 -1.5812
 4225SOL    HW224312   1.361   0.271  16.438  2.0324  0.3042  1.2987
 4226SOL     OW24313   3.841   1.002  10.322  0.6415 -0.0020 -0.0573
 4226SOL    HW124314   3.840   0.997  10.418  1.1462 -2.9821 -0.2064
 4226SOL    HW224315   3.760   0.954  10.303  0.3704  1.3266 -2.2192
 4227SOL     OW24316   2.928   1.870  11.929 -0.0878 -0.4348 -0.1699
 4227SOL    HW124317   2.927   1.783  11.968 -0.3995 -0.0015  0.8006
 4227SOL    HW224318   2.862   1.859  11.861 -0.0738  2.2759 -0.6321
 4228SOL     OW24319   2.644   1.460  13.059  0.0575  0.4038 -0.5849
 4228SOL    HW124320   2.633   1.553  13.039  1.7730  0.4934 -1.1697
 4228SOL    HW224321   2.556   1.425  13.074 -0.5614  1.9196 -0.6698
 4229SOL     OW24322   0.458   0.057   3.093  0.1036 -0.0225 -0.2593
 4229SOL    HW124323   0.417   0.135   3.056 -0.2563  0.2152  0.6276
 4229SOL    HW224324   0.506   0.104   3.162  1.6946 -1.4770 -0.3821
 4230SOL     OW24325   0.320   2.624   4.930 -0.5380 -0.0675 -0.1424
 4230SOL    HW124326   0.346   2.713   4.954 -0.6629  0.3584 -1.5955
 4230SOL    HW224327   0.267   2.598   5.005 -0.2147  2.1176  0.8673
 4231SOL     OW24328   3.795   3.481   7.738  0.9854  0.2113 -0.7170
 4231SOL    HW124329   3.802   3.394   7.779  0.6285 -0.1805 -1.4873
 4231SOL    HW224330   3.703   3.487   7.712  0.7261 -0.4441  0.0403
 4232SOL     OW24331   1.017   4.697   0.689 -0.1405 -0.4935  0.6967
 4232SOL    HW124332   0.948   0.029   0.693 -0.2527 -0.4559 -1.9194
 4232SOL    HW224333   0.976   4.624   0.737 -0.3349 -1.2463 -0.6217
 4233SOL     OW24334   3.559   1.223  14.310 -0.3939  0.5804  0.1814
 4233SOL    HW124335   3.546   1.300  14.365  1.3672  0.5148  0.7103
 4233SOL    HW224336   3.534   1.267  14.229 -2.7142 -0.8891  0.1049
 4234SOL     OW24337   2.574   0.058   5.252 -0.1496 -0.4281 -0.0968
 4234SOL    HW124338   2.652   0.023   5.209  1.8726  3.2725  0.5534
 4234SOL    HW224339   2.540   0.125   5.193  3.7827  1.0115 -0.7785
 4235SOL     OW24340   4.186   3.190   9.235 -0.4240  0.6983  0.0555
 4235SOL    HW124341   4.196   3.285   9.224 -0.2134  0.6549 -0.1326
 4235SOL    HW224342   4.257   3.170   9.296 -2.2379  0.4369  2.0912
 4236SOL     OW24343   3.757   2.857  14.844  0.3768  0.0772  0.6548
 4236SOL    HW124344   3.805   2.814  14.774 -0.9905  1.7302 -1.2783
 4236SOL    HW224345   3.710   2.783  14.884 -1.2550  1.5072  1.4075
 4237SOL     OW24346   0.094   0.804   7.969 -0.0134 -0.4932  0.3844
 4237SOL    HW124347   0.085   0.709   7.977 -0.3216 -0.4700  0.2947
 4237SOL    HW224348   0.173   0.816   8.022  1.4949 -3.3970 -1.2568
 4238SOL     OW24349   2.430   3.473   4.082 -0.0912  0.0477 -0.1523
 4238SOL    HW124350   2.448   3.539   4.015 -2.1766  0.2722 -0.5091
 4238SOL    HW224351   2.497   3.480   4.149 -1.4465  0.5581  1.1446
 4239SOL     OW24352   4.154   2.490   9.894  0.0893 -0.3545  0.4031
 4239SOL    HW124353   4.246   2.497   9.922 -0.1771 -0.5151  1.3168
 4239SOL    HW224354   4.132   2.582   9.909 -0.5140 -0.4810  0.2810
 4240SOL     OW24355   3.146   0.315  12.479  0.2312  0.1841 -0.3119
 4240SOL    HW124356   3.079   0.337  12.414  0.1968 -2.9376 -1.3205
 4240SOL    HW224357   3.098   0.261  12.541  1.2631 -0.4387 -0.0586
 4241SOL     OW24358   0.927   3.582   6.658 -0.5521 -0.5393  0.4749
 4241SOL    HW124359   0.904   3.629   6.738 -1.0699 -1.3932  0.8292
 4241SOL    HW224360   0.898   3.494   6.681  0.4902 -1.0127  0.0145
 4242SOL     OW24361   3.966   3.907   9.219  0.8788  0.1516 -0.3093
 4242SOL    HW124362   3.997   3.830   9.172  0.6782  0.3574 -0.7708
 4242SOL    HW224363   3.918   3.867   9.292  1.9175 -0.6599 -0.0689
 4243SOL     OW24364   2.122   3.009   9.471  0.1361  0.2107 -0.1653
 4243SOL    HW124365   2.102   2.994   9.379  3.2816  1.6069 -1.0966
 4243SOL    HW224366   2.140   2.919   9.495 -0.3148 -0.4899 -2.4282
 4244SOL     OW24367   0.260   4.180   0.248  0.1691 -0.0990 -0.2596
 4244SOL    HW124368   0.223   4.226   0.324  1.6898 -1.6648  1.4259
 4244SOL    HW224369   0.195   4.205   0.182 -1.1119  1.2841  1.5230
 4245SOL     OW24370   3.603   3.053  12.904 -0.2735 -0.4595  0.6103
 4245SOL    HW124371   3.545   2.977  12.899  0.1856 -0.7073 -0.9070
 4245SOL    HW224372   3.626   3.052  12.997  0.5886 -0.8213  0.3920
 4246SOL     OW24373   0.245   4.547   5.568 -0.1499  0.0392 -1.0635
 4246SOL    HW124374   0.325   4.497   5.548 -0.4418 -0.1889 -1.6794
 4246SOL    HW224375   0.271   4.618   5.626 -0.0440  0.5625 -1.7548
 4247SOL     OW24376   2.450   2.543   2.946  0.0628 -0.7547  0.1052
 4247SOL    HW124377   2.423   2.461   2.987 -0.2850 -1.0586 -0.7281
 4247SOL    HW224378   2.444   2.603   3.021  2.0006  1.2090 -1.3027
 4248SOL     OW24379   1.591   3.082   9.869 -0.6968 -0.0205 -0.0856
 4248SOL    HW124380   1.568   3.078   9.776 -1.2548  1.2787 -0.0022
 4248SOL    HW224381   1.643   3.002   9.872 -0.2712  0.3073  1.2106
 4249SOL     OW24382   1.103   3.697   8.535 -0.0709  1.2312 -0.1565
 4249SOL    HW124383   1.107   3.657   8.622 -0.2578 -0.4694 -0.9266
 4249SOL    HW224384   1.030   3.759   8.535 -1.4484 -0.3722 -0.2550
 4250SOL     OW24385   1.719   3.091  15.072  0.2916 -0.3796 -0.0795
 4250SOL    HW124386   1.785   3.155  15.100  0.2972 -1.6453  2.8383
 4250SOL    HW224387   1.691   3.056  15.157 -1.8074  0.2782 -0.5061
 4251SOL     OW24388   3.365   0.758   3.571 -0.1523  0.2755  0.2498
 4251SOL    HW124389   3.385   0.725   3.659  0.6596  1.0363  0.3502
 4251SOL    HW224390   3.347   0.677   3.525  0.7594  0.4640 -0.4336
 4252SOL     OW24391   2.860   2.569  11.924  0.3802  0.2393 -0.0125
 4252SOL    HW124392   2.940   2.523  11.950  0.5293 -1.5782 -3.8025
 4252SOL    HW224393   2.889   2.658  11.944 -2.5588  1.7298 -2.2734
 4253SOL     OW24394   0.389   4.482   8.948 -0.1252 -0.4694  0.1122
 4253SOL    HW124395   0.417   4.429   8.873 -0.7974  0.0304 -0.4952
 4253SOL    HW224396   0.355   4.563   8.911 -1.2474 -2.0249 -2.2654
 4254SOL     OW24397   2.237   3.819   8.564  0.1752  0.3542 -0.7644
 4254SOL    HW124398   2.222   3.888   8.500  0.5126  2.4528  1.4136
 4254SOL    HW224399   2.296   3.872   8.618 -2.2701  1.2433  1.0168
 4255SOL     OW24400   0.925   2.388   4.599 -0.1585 -0.1252 -0.5002
 4255SOL    HW124401   0.896   2.478   4.613 -1.6329 -0.5156 -1.1026
 4255SOL    HW224402   0.951   2.388   4.507  2.8738 -0.5107  0.3355
 4256SOL     OW24403   3.151   0.784   8.768  0.0435  0.5212  0.2151
 4256SOL    HW124404   3.186   0.855   8.714  0.1292 -0.6242 -1.2483
 4256SOL    HW224405   3.236   0.766   8.807 -0.2244  0.4217  0.7588
 4257SOL     OW24406   0.343   4.520   8.239 -0.4336 -0.0586  0.0560
 4257SOL    HW124407   0.386   4.435   8.249 -0.1966 -0.1078 -1.3579
 4257SOL    HW224408   0.422   4.573   8.241 -1.2523  1.2221 -1.4217
 4258SOL     OW24409   0.816   3.266  15.861 -0.4526  0.1190  0.1690
 4258SOL    HW124410   0.768   3.218  15.793  2.3150 -0.8882 -1.0703
 4258SOL    HW224411   0.763   3.345  15.871  0.1107  0.3640  1.2011
 4259SOL     OW24412   2.286   2.371   3.958 -0.5716 -0.2901 -0.2438
 4259SOL    HW124413   2.199   2.377   3.997 -1.5148 -1.6302 -2.1302
 4259SOL    HW224414   2.276   2.379   3.863 -2.5693  2.7518  0.1981
 4260SOL     OW24415   4.208   0.250  10.283  0.2916 -0.1290  0.2763
 4260SOL    HW124416   4.237   0.319  10.224 -1.1135  0.7175  0.5519
 4260SOL    HW224417   4.244   0.176  10.235  0.1359 -0.6407  0.9531
 4261SOL     OW24418   1.399   2.369  13.063 -0.1600  0.0481  0.3640
 4261SOL    HW124419   1.418   2.393  13.153  0.5456  0.0291  0.2183
 4261SOL    HW224420   1.326   2.429  13.047 -0.4664 -0.1781  0.9480
 4262SOL     OW24421   4.699   4.597   9.312 -0.7646 -0.5329  0.9977
 4262SOL    HW124422   4.630   4.539   9.279 -0.6975 -0.4712  0.7446
 4262SOL    HW224423   0.032   4.578   9.247 -3.5099  0.3570 -2.1714
 4263SOL     OW24424   0.468   2.267   5.644 -0.3704  0.5524 -0.4917
 4263SOL    HW124425   0.375   2.245   5.638 -0.4434  0.0861  2.3092
 4263SOL    HW224426   0.473   2.338   5.581 -0.2184  0.8403 -0.1575
 4264SOL     OW24427   1.413   3.852  11.604 -0.2862 -0.9342 -0.4063
 4264SOL    HW124428   1.388   3.831  11.694 -2.2262  0.4640 -0.6257
 4264SOL    HW224429   1.506   3.873  11.613 -1.4736  3.0309  2.4232
 4265SOL     OW24430   3.903   2.646   2.880 -0.3003  0.4023 -0.0991
 4265SOL    HW124431   3.941   2.641   2.792  0.9482  2.4599  0.3277
 4265SOL    HW224432   3.985   2.649   2.930  0.2609 -1.5091 -0.8918
 4266SOL     OW24433   1.444   4.421   9.581 -0.8627  0.1915  0.4289
 4266SOL    HW124434   1.373   4.387   9.527  1.6935 -2.2385 -1.4268
 4266SOL    HW224435   1.520   4.371   9.550 -2.2138 -1.7258  0.2016
 4267SOL     OW24436   2.497   1.744   6.295 -0.3859  0.1272 -0.2493
 4267SOL    HW124437   2.485   1.671   6.234 -0.7742 -1.4804  1.7638
 4267SOL    HW224438   2.416   1.795   6.292 -1.1903 -1.1288  0.2407
 4268SOL     OW24439   2.672   3.966   4.825  0.4228  0.1970  0.0905
 4268SOL    HW124440   2.706   4.007   4.744  0.3222 -1.4824 -0.7927
 4268SOL    HW224441   2.717   4.028   4.882 -1.4233  2.0793 -0.5144
 4269SOL     OW24442   0.022   3.774   9.652  0.6182  0.0895  0.5503
 4269SOL    HW124443   0.062   3.688   9.638  1.8667  0.3545  2.4405
 4269SOL    HW224444   0.102   3.826   9.659 -0.6857  2.1009  0.6411
 4270SOL     OW24445   0.787   3.433   0.659 -0.5103  0.1749 -0.6357
 4270SOL    HW124446   0.863   3.414   0.603 -1.3981  0.0229 -1.7848
 4270SOL    HW224447   0.798   3.358   0.717  0.9419  0.8291 -0.0501
 4271SOL     OW24448   2.957   0.811  17.157 -0.1308 -0.1786 -0.7203
 4271SOL    HW124449   3.047   0.786  17.135 -0.5517 -1.8357 -0.5257
 4271SOL    HW224450   2.930   0.731  17.202  2.2709  0.1497  1.2852
 4272SOL     OW24451   4.613   4.204   7.214  0.2840  0.2691  0.2022
 4272SOL    HW124452   4.573   4.266   7.275 -2.1690 -0.5527 -0.5693
 4272SOL    HW224453   4.574   4.121   7.241  0.2782  0.2146  0.0286
 4273SOL     OW24454   1.057   2.478   0.837  0.2502 -0.1715 -0.7446
 4273SOL    HW124455   1.050   2.388   0.805 -1.3907  0.6444 -2.6764
 4273SOL    HW224456   0.985   2.479   0.900  1.5306  2.5513  0.6572
 4274SOL     OW24457   0.659   1.218  16.883 -0.0138  0.2430  0.1090
 4274SOL    HW124458   0.568   1.200  16.906  0.8362 -1.0629  2.4363
 4274SOL    HW224459   0.669   1.165  16.804  1.8394 -0.6037  0.9038
 4275SOL     OW24460   0.427   3.666   0.504  0.3647 -0.1204  0.4592
 4275SOL    HW124461   0.381   3.700   0.427 -0.6000 -1.2371  0.5390
 4275SOL    HW224462   0.362   3.701   0.565 -0.7630  2.5075 -2.2042
 4276SOL     OW24463   4.155   2.073   3.438 -0.6797  0.3537  0.1017
 4276SOL    HW124464   4.207   2.089   3.359  0.2036  0.2581  0.6655
 4276SOL    HW224465   4.068   2.056   3.404 -0.7880 -2.4500  1.8692
 4277SOL     OW24466   3.756   1.458   8.898 -0.7787 -0.1718  0.3778
 4277SOL    HW124467   3.712   1.516   8.836 -0.2817 -0.5676 -0.3464
 4277SOL    HW224468   3.767   1.518   8.971 -3.0076  0.8981 -0.1528
 4278SOL     OW24469   4.112   0.087   5.255  0.3851 -0.2582 -0.0151
 4278SOL    HW124470   4.062   0.154   5.208 -1.9827 -1.2228  1.1516
 4278SOL    HW224471   4.040   0.025   5.268 -1.8229  2.5620  1.4452
 4279SOL     OW24472   1.726   3.911  12.965 -0.0854  0.0055  0.3067
 4279SOL    HW124473   1.705   3.830  12.919  1.8568 -0.4073  0.1585
 4279SOL    HW224474   1.680   3.911  13.048  1.2198  0.2941  1.0284
 4280SOL     OW24475   1.185   2.908  16.140 -0.4152  0.0743  0.0737
 4280SOL    HW124476   1.268   2.919  16.188 -0.4204  2.3836 -0.4756
 4280SOL    HW224477   1.181   2.999  16.113 -0.9653 -0.1072 -0.4528
 4281SOL     OW24478   1.289   0.040   7.098 -0.0877 -0.1684  0.0955
 4281SOL    HW124479   1.334   0.105   7.044 -2.4267  1.0697 -0.3693
 4281SOL    HW224480   1.215   0.022   7.040 -0.1927  1.4456 -0.2702
 4282SOL     OW24481   1.312   1.183  10.115  0.8467 -0.2399  0.4508
 4282SOL    HW124482   1.230   1.195  10.068  0.9796  3.0466  1.0107
 4282SOL    HW224483   1.334   1.276  10.126  1.4132 -0.3633  0.3960
 4283SOL     OW24484   0.300   2.521   7.080  0.1599 -0.0617  0.3817
 4283SOL    HW124485   0.372   2.557   7.028  1.4985 -1.1396  1.4887
 4283SOL    HW224486   0.228   2.515   7.017  1.4161  1.6351 -1.2186
 4284SOL     OW24487   0.222   4.042  14.092 -0.8284 -0.5495 -0.5270
 4284SOL    HW124488   0.155   3.980  14.064  0.3337 -1.9535 -0.2508
 4284SOL    HW224489   0.300   3.986  14.098  1.4538  2.6828  0.1109
 4285SOL     OW24490   0.140   0.911   1.457 -0.0242 -0.2722  0.1192
 4285SOL    HW124491   0.139   1.006   1.450 -0.9827 -0.1234  2.1684
 4285SOL    HW224492   0.219   0.888   1.408  0.9724 -0.1921  1.6777
 4286SOL     OW24493   0.370   3.110   6.261  0.3708  0.2261 -0.0287
 4286SOL    HW124494   0.349   3.089   6.170 -0.3596  2.4849 -0.3707
 4286SOL    HW224495   0.461   3.081   6.254  0.0089 -0.7768 -0.5374
 4287SOL     OW24496   4.505   3.626  16.055  0.6607  0.5550  0.2212
 4287SOL    HW124497   4.421   3.598  16.020  1.6614  0.2128 -1.9110
 4287SOL    HW224498   4.553   3.648  15.976  1.2843  0.3372  0.5359
 4288SOL     OW24499   3.875   3.288   3.767  0.2662  0.1830  0.1230
 4288SOL    HW124500   3.942   3.282   3.835  1.4846  4.0387 -0.7627
 4288SOL    HW224501   3.869   3.196   3.741 -0.5852  0.3372 -0.2222
 4289SOL     OW24502   4.312   2.423   3.012 -0.3780 -0.4187 -0.0806
 4289SOL    HW124503   4.289   2.374   2.933  0.2831  1.9134 -1.7047
 4289SOL    HW224504   4.246   2.492   3.006  0.5583  0.2790 -2.6055
 4290SOL     OW24505   1.169   0.505   5.491 -0.7956  0.1337 -0.3054
 4290SOL    HW124506   1.154   0.508   5.585 -1.5245  2.8754 -0.5250
 4290SOL    HW224507   1.131   0.421   5.466  1.1781 -0.9256  0.2134
 4291SOL     OW24508   2.533   2.736  13.317 -0.7339  0.1790  0.3276
 4291SOL    HW124509   2.575   2.707  13.398 -1.5483  1.0638  1.0738
 4291SOL    HW224510   2.443   2.722  13.346  0.4316 -2.5508  2.5692
 4292SOL     OW24511   2.704   0.520   6.507  0.2872 -0.5496 -0.4933
 4292SOL    HW124512   2.789   0.541   6.468 -0.2460  0.8594 -0.8868
 4292SOL    HW224513   2.731   0.437   6.548 -3.8131 -0.1731  2.9292
 4293SOL     OW24514   2.327   3.206   6.354 -0.0179 -0.0885  0.2185
 4293SOL    HW124515   2.376   3.273   6.402 -0.0716 -1.5672  2.3191
 4293SOL    HW224516   2.291   3.260   6.283 -2.4868 -1.3068  0.5592
 4294SOL     OW24517   0.199   2.317  13.161 -0.3680 -0.3381 -0.2043
 4294SOL    HW124518   0.173   2.396  13.210 -0.1054 -0.4115  0.0473
 4294SOL    HW224519   0.263   2.352  13.099 -1.6410  1.7803 -0.3537
 4295SOL     OW24520   1.032   1.400   3.767 -0.3133 -0.5483 -0.2165
 4295SOL    HW124521   1.102   1.465   3.759 -1.0362  0.0514 -1.7224
 4295SOL    HW224522   1.084   1.322   3.786  0.1998 -1.0152 -3.4868
 4296SOL     OW24523   3.783   3.586   2.171 -0.3542  0.4671  0.9003
 4296SOL    HW124524   3.830   3.512   2.211 -0.9049  0.5167  1.6303
 4296SOL    HW224525   3.701   3.543   2.147  1.0776 -1.7093 -0.1791
 4297SOL     OW24526   0.756   4.432   4.478 -0.2007 -0.5011  0.0436
 4297SOL    HW124527   0.850   4.433   4.460 -0.5311  1.3751 -1.6610
 4297SOL    HW224528   0.724   4.489   4.407 -0.6116 -2.6757 -1.5172
 4298SOL     OW24529   2.187   1.393   3.673  0.6672 -0.0864  0.1322
 4298SOL    HW124530   2.095   1.398   3.649  0.1144 -0.2711  2.2024
 4298SOL    HW224531   2.234   1.380   3.591  0.4098  0.6180 -0.1199
 4299SOL     OW24532   3.090   3.641   5.085 -0.5027 -0.4148  0.4005
 4299SOL    HW124533   3.159   3.699   5.052  0.4209 -0.8808  1.5112
 4299SOL    HW224534   3.015   3.698   5.068  0.4832  0.8107  0.1221
 4300SOL     OW24535   2.122   4.468   4.249  0.6003 -0.5343 -0.8313
 4300SOL    HW124536   2.120   4.563   4.252 -1.5830 -0.6270  0.0870
 4300SOL    HW224537   2.135   4.448   4.341  1.2035 -1.3076 -1.0780
 4301SOL     OW24538   4.520   1.621   2.608 -0.0823  0.2021  0.3530
 4301SOL    HW124539   4.570   1.582   2.536 -3.3740 -0.3529 -1.6858
 4301SOL    HW224540   4.479   1.691   2.556  0.8814  0.4222 -0.1178
 4302SOL     OW24541   4.056   2.626   1.086 -0.4652 -0.2697 -0.0558
 4302SOL    HW124542   4.106   2.694   1.131  0.1174 -1.0557  0.4983
 4302SOL    HW224543   4.006   2.679   1.024 -0.6087 -1.5108 -1.0099
 4303SOL     OW24544   0.146   1.375  12.200 -0.1662 -0.0265  0.6833
 4303SOL    HW124545   0.235   1.406  12.188  0.5966 -2.8829 -1.1475
 4303SOL    HW224546   0.094   1.454  12.213  0.8864  0.3642  2.4530
 4304SOL     OW24547   1.918   3.530   7.505 -0.7003 -0.0990 -0.6213
 4304SOL    HW124548   1.972   3.596   7.548 -0.1654 -0.2644 -1.0454
 4304SOL    HW224549   1.864   3.505   7.580 -1.3742  0.2467 -0.9856
 4305SOL     OW24550   1.950   4.054   7.563  0.3881 -0.3171 -0.5459
 4305SOL    HW124551   2.040   4.073   7.538  0.8952 -1.1275  0.6623
 4305SOL    HW224552   1.904   4.066   7.480 -0.0911 -1.2147 -0.4068
 4306SOL     OW24553   3.326   3.669   7.080 -0.4483 -0.1088  0.1044
 4306SOL    HW124554   3.266   3.736   7.115 -0.5523  0.0531 -0.3788
 4306SOL    HW224555   3.353   3.640   7.167  3.4326  2.1962 -0.3436
 4307SOL     OW24556   4.429   0.109   2.939 -0.0921  0.0493 -0.3650
 4307SOL    HW124557   4.349   0.131   2.987 -0.1639  1.2344 -1.0247
 4307SOL    HW224558   4.395   0.070   2.858  0.3778  0.9279 -0.9845
 4308SOL     OW24559   2.321   1.113   3.664  0.0644 -0.6880 -0.5602
 4308SOL    HW124560   2.241   1.165   3.676  3.0506  3.4176  1.5972
 4308SOL    HW224561   2.387   1.181   3.653 -2.4306  1.3570 -3.0064
 4309SOL     OW24562   0.501   1.964   3.847 -0.4595 -0.5968 -0.3962
 4309SOL    HW124563   0.471   1.889   3.797  0.9502 -2.2977  1.3146
 4309SOL    HW224564   0.558   1.922   3.911 -0.1700  0.7757  0.2433
 4310SOL     OW24565   1.072   0.282  12.051  0.6168 -0.2239  0.7319
 4310SOL    HW124566   1.063   0.317  12.139  0.0328 -0.6149  0.8326
 4310SOL    HW224567   1.082   0.362  11.999  0.6704 -1.3184 -0.9710
 4311SOL     OW24568   1.630   3.275  14.869  0.0312 -0.1298  0.1654
 4311SOL    HW124569   1.617   3.185  14.838  1.2212 -0.0977 -0.4064
 4311SOL    HW224570   1.598   3.326  14.795 -0.6176  0.0461  0.5712
 4312SOL     OW24571   1.137   4.321   8.253  0.0568 -0.3088 -0.0123
 4312SOL    HW124572   1.154   4.228   8.268  2.8833  0.2165  0.0252
 4312SOL    HW224573   1.197   4.334   8.180  1.1233 -0.2910  0.8777
 4313SOL     OW24574   1.301   2.831   4.903 -0.1560 -0.8372  0.3870
 4313SOL    HW124575   1.217   2.876   4.916 -0.0696 -0.3757 -0.6377
 4313SOL    HW224576   1.272   2.741   4.890 -1.3852 -0.2985 -0.6245
 4314SOL     OW24577   1.765   3.287   3.088 -1.0448  0.3843 -0.2025
 4314SOL    HW124578   1.832   3.340   3.046  0.2433 -0.2407  1.0832
 4314SOL    HW224579   1.707   3.362   3.100 -0.7583  0.1436  2.6898
 4315SOL     OW24580   3.321   0.676   2.652  0.1828  0.6283  1.3095
 4315SOL    HW124581   3.360   0.692   2.567  0.6702  0.8098  1.5671
 4315SOL    HW224582   3.246   0.733   2.636  1.3163  2.4575  2.5300
 4316SOL     OW24583   1.200   1.839  14.374 -0.2267  0.1883 -0.4876
 4316SOL    HW124584   1.209   1.748  14.402 -2.5172  0.8281  2.2825
 4316SOL    HW224585   1.231   1.832  14.284  2.4737 -0.0450  0.4315
 4317SOL     OW24586   1.151   3.350   8.036 -0.6511  0.1556 -0.1487
 4317SOL    HW124587   1.084   3.378   8.099  2.0180 -0.4529  2.9922
 4317SOL    HW224588   1.226   3.376   8.090 -1.3142 -3.3033  2.4692
 4318SOL     OW24589   3.791   1.868   7.217  0.1355 -0.2779  0.1144
 4318SOL    HW124590   3.807   1.786   7.171 -0.2748 -0.1704 -0.2176
 4318SOL    HW224591   3.750   1.835   7.297  0.2980 -0.7005  0.0203
 4319SOL     OW24592   0.539   3.790   4.721  0.5865 -0.1653  0.0701
 4319SOL    HW124593   0.493   3.856   4.669  0.4173 -1.7266 -1.7565
 4319SOL    HW224594   0.567   3.839   4.798 -1.3532  0.0434  0.6312
 4320SOL     OW24595   1.751   4.704   9.701  0.0802  0.3768  0.3270
 4320SOL    HW124596   1.657   4.693   9.710  0.1295  0.1357  0.5291
 4320SOL    HW224597   1.774   4.616   9.672 -0.6718 -0.1187  1.2286
 4321SOL     OW24598   4.520   0.770   7.163 -0.3692 -0.1484 -0.6068
 4321SOL    HW124599   4.450   0.759   7.099 -0.8791  1.5944 -0.3469
 4321SOL    HW224600   4.465   0.772   7.242  0.3634 -0.6158 -0.0773
 4322SOL     OW24601   2.346   2.537   2.686  0.3957  0.1874  0.0231
 4322SOL    HW124602   2.258   2.502   2.698  0.9132 -1.4794 -1.1201
 4322SOL    HW224603   2.374   2.530   2.777 -0.6471 -1.5404  0.2097
 4323SOL     OW24604   1.313   1.880  14.792 -0.2551  0.2275 -0.1573
 4323SOL    HW124605   1.310   1.849  14.883 -1.2116 -0.7562 -0.5290
 4323SOL    HW224606   1.231   1.924  14.768  0.0645  1.2876  0.6721
 4324SOL     OW24607   0.147   1.286  10.921  0.7290 -0.1153  0.3185
 4324SOL    HW124608   0.223   1.302  10.976  1.1844 -1.9568  0.2169
 4324SOL    HW224609   0.184   1.225  10.858  0.2054 -0.8876  0.7639
 4325SOL     OW24610   1.312   2.594   0.796 -0.6805  0.2835  0.7432
 4325SOL    HW124611   1.227   2.550   0.798 -0.0205 -1.0666 -0.9105
 4325SOL    HW224612   1.368   2.552   0.862 -0.2569  0.3266  0.4132
 4326SOL     OW24613   2.938   1.549  15.931  0.0107 -0.7924  0.3530
 4326SOL    HW124614   2.901   1.478  15.983 -0.0565 -0.6345  0.5201
 4326SOL    HW224615   2.930   1.510  15.844  1.7270  3.1957 -1.6235
 4327SOL     OW24616   3.546   2.142   5.220  0.1260 -0.0754 -0.1569
 4327SOL    HW124617   3.500   2.220   5.188 -1.3737 -1.2849 -0.9867
 4327SOL    HW224618   3.477   2.085   5.255  1.6923 -1.9482 -0.1403
 4328SOL     OW24619   1.880   2.027   5.199 -0.5089 -0.0139  0.0239
 4328SOL    HW124620   1.847   2.022   5.289  0.5501 -2.3917  0.2766
 4328SOL    HW224621   1.827   1.958   5.159 -1.5512  0.7674  0.0561
 4329SOL     OW24622   2.389   1.452  11.563 -0.1285 -0.1342  0.7960
 4329SOL    HW124623   2.414   1.386  11.498 -0.7870 -0.2359  0.6380
 4329SOL    HW224624   2.448   1.440  11.637 -0.0881 -0.8532  0.6433
 4330SOL     OW24625   0.618   4.052   1.251  0.0668  0.2632  0.0160
 4330SOL    HW124626   0.596   4.083   1.163 -2.3513  1.0173  0.8871
 4330SOL    HW224627   0.685   4.117   1.275 -0.4316  0.9825 -0.5310
 4331SOL     OW24628   3.130   2.141   3.834  0.1530  0.4941  0.2085
 4331SOL    HW124629   3.223   2.126   3.817  0.1847  0.0336  0.7883
 4331SOL    HW224630   3.125   2.178   3.922 -0.3918 -1.1533  0.8761
 4332SOL     OW24631   0.781   2.177  14.271  0.0765 -0.2425  0.0873
 4332SOL    HW124632   0.811   2.245  14.211 -0.1118 -1.1085 -1.0038
 4332SOL    HW224633   0.854   2.119  14.294  0.9891  1.7724  2.1856
 4333SOL     OW24634   0.176   2.662  12.111 -0.4116  0.1447 -0.5831
 4333SOL    HW124635   0.187   2.713  12.031  2.4649  0.0429 -0.2725
 4333SOL    HW224636   0.263   2.643  12.147 -0.4003 -1.4789 -1.4490
 4334SOL     OW24637   1.066   1.396   5.105  0.1279  0.2030  0.0232
 4334SOL    HW124638   1.008   1.401   5.181 -0.1880  0.7685 -0.2603
 4334SOL    HW224639   1.020   1.323   5.063 -0.9038 -0.7081  2.7798
 4335SOL     OW24640   4.588   1.896   8.416 -0.4245  0.1227 -0.2194
 4335SOL    HW124641   4.582   1.881   8.322  1.4737 -0.2985 -0.2692
 4335SOL    HW224642   4.513   1.842   8.442 -1.4303  1.8092  0.3331
 4336SOL     OW24643   1.302   3.444   6.477 -0.2652  0.0080 -0.3438
 4336SOL    HW124644   1.383   3.494   6.490  0.5472 -1.1185 -1.0332
 4336SOL    HW224645   1.242   3.516   6.493  0.6288  0.7412 -0.2915
 4337SOL     OW24646   1.705   0.690  14.172  0.0300 -0.1282 -0.2198
 4337SOL    HW124647   1.670   0.601  14.183  0.6537 -0.5450 -1.6143
 4337SOL    HW224648   1.780   0.692  14.231 -1.1482 -0.9856  1.3093
 4338SOL     OW24649   3.484   2.383   7.920  0.0286  0.2198 -0.5069
 4338SOL    HW124650   3.563   2.330   7.909  0.3326  0.8069 -1.1423
 4338SOL    HW224651   3.487   2.438   7.842  0.6189 -0.0293 -0.6644
 4339SOL     OW24652   0.607   4.294   2.864  0.4341 -0.2582  0.7178
 4339SOL    HW124653   0.523   4.255   2.839  0.6459 -0.1624 -0.1267
 4339SOL    HW224654   0.669   4.227   2.834 -1.1075 -1.0869 -0.6346
 4340SOL     OW24655   0.900   4.245  13.922  0.2572 -0.2504  0.2953
 4340SOL    HW124656   0.901   4.340  13.935  0.5988 -0.2255  0.0986
 4340SOL    HW224657   0.974   4.231  13.863 -1.6729  0.4299 -2.3220
 4341SOL     OW24658   4.268   1.915   6.710  0.5316  0.2152  0.4019
 4341SOL    HW124659   4.310   1.956   6.634 -0.7785  0.3583 -0.2476
 4341SOL    HW224660   4.206   1.980   6.743  0.3080  0.6179 -0.8057
 4342SOL     OW24661   2.561   0.752   7.087 -0.1181  0.0932 -0.0844
 4342SOL    HW124662   2.579   0.674   7.140  1.4212 -0.0384 -0.8097
 4342SOL    HW224663   2.468   0.746   7.065 -0.7082 -2.4647  3.0408
 4343SOL     OW24664   4.604   3.529  11.365 -0.1988 -0.2151  1.1013
 4343SOL    HW124665   4.689   3.486  11.380 -0.1830 -0.5400  0.1210
 4343SOL    HW224666   4.555   3.511  11.445 -2.4569 -0.2493 -0.2930
 4344SOL     OW24667   3.425   4.084  12.252  0.1763 -0.0343  0.2168
 4344SOL    HW124668   3.518   4.071  12.235  0.1048 -2.2303  1.5391
 4344SOL    HW224669   3.396   3.996  12.275 -0.2960  0.2950  0.8908
 4345SOL     OW24670   1.800   4.077   6.562  0.3277 -0.0973  0.0922
 4345SOL    HW124671   1.861   4.113   6.498  0.0477  0.9598  0.4189
 4345SOL    HW224672   1.762   4.006   6.510 -1.1742  0.7017  0.0959
 4346SOL     OW24673   3.080   3.116  16.775 -0.0986  0.3884 -0.3770
 4346SOL    HW124674   3.023   3.045  16.804 -1.8207  1.3873 -1.3389
 4346SOL    HW224675   3.160   3.065  16.761 -0.2459  0.1003 -0.1735
 4347SOL     OW24676   3.362   0.074   7.239 -0.4846 -0.1727  0.3967
 4347SOL    HW124677   3.390   4.718   7.240 -1.1693 -0.3881 -1.1896
 4347SOL    HW224678   3.281   0.074   7.188 -1.2657  2.0715  1.6104
 4348SOL     OW24679   4.699   1.818   3.559  0.1615  0.2482 -0.0138
 4348SOL    HW124680   4.703   1.775   3.645  1.1285 -1.1304 -0.7488
 4348SOL    HW224681   0.001   1.749   3.504 -1.6278 -0.9360  0.2559
 4349SOL     OW24682   1.652   0.468   6.823 -0.0297  0.1774 -0.5078
 4349SOL    HW124683   1.716   0.396   6.822  0.3633  0.5075  1.3365
 4349SOL    HW224684   1.607   0.451   6.740 -1.2817 -0.8040  0.3814
 4350SOL     OW24685   0.673   4.470  12.476  0.0489 -0.3811 -0.0016
 4350SOL    HW124686   0.614   4.415  12.528 -1.0586  0.3122 -0.5168
 4350SOL    HW224687   0.637   4.557  12.493 -1.2761 -0.9545  0.1832
 4351SOL     OW24688   1.563   0.400  15.341 -0.3582 -0.0170  0.2772
 4351SOL    HW124689   1.589   0.397  15.249 -2.0831  0.3560 -0.2166
 4351SOL    HW224690   1.641   0.432  15.387 -0.5626 -0.5090  0.9699
 4352SOL     OW24691   4.674   1.626   6.759  0.2933  0.1080  0.1737
 4352SOL    HW124692   0.003   1.555   6.753  0.5902  0.3389  0.6474
 4352SOL    HW224693   4.608   1.573   6.805 -0.9909  1.2405 -0.3715
 4353SOL     OW24694   4.326   4.536  17.364  0.1292 -0.6365  0.2058
 4353SOL    HW124695   4.273   4.499  17.293  1.0396 -0.3517 -0.6244
 4353SOL    HW224696   4.352   4.449  17.393  1.4072 -0.5124 -0.5502
 4354SOL     OW24697   2.561   3.736   4.725 -0.0646  0.6675 -0.4779
 4354SOL    HW124698   2.580   3.830   4.735 -2.1542  0.9797  0.6416
 4354SOL    HW224699   2.591   3.718   4.636  1.1226 -1.0376  0.2779
 4355SOL     OW24700   2.744   0.810   2.584  0.3046  0.6886  0.3098
 4355SOL    HW124701   2.650   0.801   2.600  0.6071  1.8472  2.7403
 4355SOL    HW224702   2.773   0.852   2.665 -2.8125  1.6223  0.9558
 4356SOL     OW24703   1.566   1.720   2.755 -0.5058  1.1227 -0.0766
 4356SOL    HW124704   1.660   1.742   2.755 -0.0834 -0.7060  1.7197
 4356SOL    HW224705   1.525   1.806   2.752 -1.8272  0.4904  0.0766
 4357SOL     OW24706   2.936   2.778   9.425 -0.2475  0.1811  0.5837
 4357SOL    HW124707   2.981   2.715   9.370 -1.6297  0.1422 -0.5069
 4357SOL    HW224708   2.910   2.723   9.499  0.7473 -1.7398 -0.4854
 4358SOL     OW24709   2.993   4.505   7.581  0.2514  0.0100  0.2189
 4358SOL    HW124710   2.903   4.479   7.600  0.8459 -1.5408  0.9098
 4358SOL    HW224711   3.025   4.424   7.541 -3.3490 -1.9217  1.2953
 4359SOL     OW24712   2.621   3.432   5.374 -0.5963  0.0627 -0.0876
 4359SOL    HW124713   2.708   3.420   5.413 -0.3938 -0.3275 -0.6651
 4359SOL    HW224714   2.618   3.350   5.325  0.1344 -0.0491  0.0385
 4360SOL     OW24715   0.213   0.644   6.135  0.0619 -0.1622 -0.0726
 4360SOL    HW124716   0.134   0.610   6.177 -0.2277 -0.6494 -1.0259
 4360SOL    HW224717   0.278   0.576   6.157 -0.7102 -0.7169  0.4820
 4361SOL     OW24718   3.855   3.527   4.205 -0.1760  0.2967 -0.4518
 4361SOL    HW124719   3.839   3.471   4.281  0.3159 -0.1264 -0.6650
 4361SOL    HW224720   3.946   3.503   4.188  0.0113  0.8897 -0.3048
 4362SOL     OW24721   3.035   1.088   0.410  0.0863 -0.1726  0.0282
 4362SOL    HW124722   2.973   1.117   0.477  1.6931 -0.0028  1.4390
 4362SOL    HW224723   2.999   1.000   0.396  1.2752 -0.7004  0.3488
 4363SOL     OW24724   4.664   4.203   4.680 -0.0757 -0.0648 -0.8706
 4363SOL    HW124725   4.624   4.121   4.709  0.1335 -0.2818 -1.1909
 4363SOL    HW224726   4.692   4.248   4.759  1.9631  0.2407 -1.7699
 4364SOL     OW24727   2.439   1.089  12.666 -0.2963 -0.6344 -0.1300
 4364SOL    HW124728   2.399   1.101  12.752  0.1017  0.7762 -0.1378
 4364SOL    HW224729   2.514   1.146  12.645  0.3514 -0.9768  1.2474
 4365SOL     OW24730   2.157   4.093   9.244 -0.3989  0.5785  0.0013
 4365SOL    HW124731   2.142   4.180   9.206 -0.8746 -0.3545 -1.9452
 4365SOL    HW224732   2.105   4.083   9.324 -3.4390  0.5752 -1.9565
 4366SOL     OW24733   2.422   2.288  11.910  0.4176 -0.0432  0.4388
 4366SOL    HW124734   2.512   2.311  11.887 -0.2159  0.5432 -1.4847
 4366SOL    HW224735   2.430   2.285  12.005 -1.5419 -2.0093  0.5549
 4367SOL     OW24736   3.018   4.541   1.965  0.5087  0.1174 -0.0494
 4367SOL    HW124737   3.064   4.609   2.015 -0.9664  2.0429 -1.2912
 4367SOL    HW224738   2.958   4.594   1.913  0.8047 -0.4611 -0.9925
 4368SOL     OW24739   2.694   2.557  11.130 -0.3411  0.4524  0.1356
 4368SOL    HW124740   2.749   2.607  11.190 -0.2635  0.9401 -0.3437
 4368SOL    HW224741   2.609   2.574  11.170 -0.9913  0.4116 -1.2152
 4369SOL     OW24742   1.951   4.403   1.112  0.7285  0.3441 -0.0289
 4369SOL    HW124743   1.927   4.476   1.168  1.6476  0.0221  0.7832
 4369SOL    HW224744   1.990   4.345   1.177 -0.5047 -1.1851 -0.6509
 4370SOL     OW24745   4.076   1.847   9.263 -0.3474  0.2814  0.2407
 4370SOL    HW124746   4.144   1.844   9.331  1.4795  0.4780 -1.5838
 4370SOL    HW224747   4.108   1.787   9.196  0.4418  0.1691  0.7192
 4371SOL     OW24748   0.242   2.446   2.325  0.0736 -0.8833  0.3751
 4371SOL    HW124749   0.265   2.409   2.410  1.2557  0.1169  0.4974
 4371SOL    HW224750   0.251   2.541   2.327  1.8557 -1.0322 -0.3345
 4372SOL     OW24751   4.697   2.953  16.811 -0.6873 -0.9705 -0.6641
 4372SOL    HW124752   0.049   2.976  16.777 -0.5393  0.1391  0.4490
 4372SOL    HW224753   4.684   2.870  16.765 -0.6039 -0.0955 -2.2683
 4373SOL     OW24754   3.839   1.671   2.842  0.7390 -0.7095 -0.0641
 4373SOL    HW124755   3.898   1.642   2.912 -0.7725 -1.8145  0.7647
 4373SOL    HW224756   3.769   1.607   2.855  1.2064 -1.4487 -1.2401
 4374SOL     OW24757   2.445   0.609   2.684  0.2015  0.5370  0.1790
 4374SOL    HW124758   2.523   0.567   2.721  0.3806  2.3378  1.8310
 4374SOL    HW224759   2.380   0.609   2.754 -3.2976  1.6169 -3.0854
 4375SOL     OW24760   4.077   1.714  11.684  0.7796 -0.0868  0.5291
 4375SOL    HW124761   3.996   1.666  11.663  0.4169  0.3876  0.8295
 4375SOL    HW224762   4.075   1.735  11.777 -1.5616  0.7127  0.3107
 4376SOL     OW24763   1.417   2.296   2.677 -0.1594  0.6497 -0.3059
 4376SOL    HW124764   1.512   2.289   2.678 -0.0413  1.9909 -1.7901
 4376SOL    HW224765   1.403   2.385   2.644  0.1579  0.8500  0.1033
 4377SOL     OW24766   2.011   0.606   3.736  0.6408 -0.6393  0.4587
 4377SOL    HW124767   2.055   0.635   3.656  0.6559  0.7060  0.9543
 4377SOL    HW224768   2.006   0.690   3.780  2.0843 -1.2592  1.8346
 4378SOL     OW24769   3.404   0.282   3.946 -0.1145  0.1384  0.0808
 4378SOL    HW124770   3.409   0.289   3.851  4.4605  0.9173  0.3796
 4378SOL    HW224771   3.494   0.276   3.980  0.3588  2.3324 -0.8052
 4379SOL     OW24772   4.181   0.845   9.675 -0.3789 -0.1215  0.0267
 4379SOL    HW124773   4.126   0.849   9.597  0.4308  1.4445 -0.4686
 4379SOL    HW224774   4.144   0.920   9.721 -0.0374 -0.4651  0.8647
 4380SOL     OW24775   1.976   2.898   1.240 -0.0592  0.1620  0.4048
 4380SOL    HW124776   2.046   2.833   1.235 -0.0665  0.4512 -3.4321
 4380SOL    HW224777   2.013   2.959   1.177 -2.0197  1.6449  0.6780
 4381SOL     OW24778   0.971   0.017  15.190  0.5589  0.9677  0.5722
 4381SOL    HW124779   1.035   0.087  15.197  0.8242  0.8011 -0.1470
 4381SOL    HW224780   0.932   0.046  15.108 -0.7706 -0.6928  0.6101
 4382SOL     OW24781   0.869   3.886   8.546  0.2354  0.5316 -0.4258
 4382SOL    HW124782   0.778   3.914   8.560  1.0443  2.1998  1.5544
 4382SOL    HW224783   0.906   3.898   8.634 -0.1539  2.8997 -0.5838
 4383SOL     OW24784   4.407   4.226  13.675 -0.0797  0.1861  0.4629
 4383SOL    HW124785   4.315   4.252  13.686  0.6385  2.9361 -0.0366
 4383SOL    HW224786   4.403   4.130  13.678  0.4121  0.1077 -1.1058
 4384SOL     OW24787   1.206   3.088   7.834  0.7444 -0.1907 -0.4247
 4384SOL    HW124788   1.209   3.179   7.803 -2.8512  0.2599  0.5268
 4384SOL    HW224789   1.134   3.060   7.778  1.3315 -2.9755  0.2544
 4385SOL     OW24790   3.707   0.800  13.941 -0.1203 -0.0557 -0.1566
 4385SOL    HW124791   3.696   0.785  14.035  1.0181  0.2275  0.0223
 4385SOL    HW224792   3.741   0.888  13.929  0.1297 -0.0308  0.7071
 4386SOL     OW24793   0.055   1.368   6.694 -0.1074  0.4481  0.3503
 4386SOL    HW124794   0.109   1.290   6.682  0.1843  0.7358 -0.1936
 4386SOL    HW224795   4.703   1.335   6.669  2.2709 -2.7092 -3.7338
 4387SOL     OW24796   3.033   3.080   6.519 -0.0189 -0.2039 -0.0067
 4387SOL    HW124797   3.064   3.028   6.593  1.7904  1.9260  0.7244
 4387SOL    HW224798   2.981   3.016   6.471 -0.8324  0.3093  0.1817
 4388SOL     OW24799   0.064   1.713   5.119 -0.0973 -0.4574 -0.0153
 4388SOL    HW124800   0.065   1.660   5.199  0.8259 -1.6320 -0.8203
 4388SOL    HW224801   0.028   1.794   5.157  0.2910 -0.5795  0.6135
 4389SOL     OW24802   3.793   3.791   3.085  0.2652 -0.3556  0.4105
 4389SOL    HW124803   3.704   3.762   3.062  0.1550 -0.1504  0.5764
 4389SOL    HW224804   3.779   3.881   3.114  1.6821 -0.1366  0.3849
 4390SOL     OW24805   4.669   3.427  13.835  0.4639 -0.1680  0.0961
 4390SOL    HW124806   4.684   3.500  13.896 -0.6572 -0.7270  1.0455
 4390SOL    HW224807   4.723   3.453  13.761  2.7471  0.3336  1.9397
 4391SOL     OW24808   1.696   3.369  15.214 -0.4037 -0.0538  0.0994
 4391SOL    HW124809   1.622   3.334  15.164  0.0451  0.5896 -1.0193
 4391SOL    HW224810   1.647   3.404  15.288  1.3185  3.1304 -0.2770
 4392SOL     OW24811   0.644   3.153  15.640  0.4942 -0.4600  0.2370
 4392SOL    HW124812   0.559   3.195  15.629  0.5754  0.2991  2.5611
 4392SOL    HW224813   0.618   3.064  15.663  1.6707 -0.9287 -0.2244
 4393SOL     OW24814   2.024   1.781   6.793 -0.7426  0.1351 -0.1329
 4393SOL    HW124815   1.986   1.834   6.723 -0.6711 -1.1247 -1.1200
 4393SOL    HW224816   2.109   1.751   6.762  0.2541  0.3871  2.3612
 4394SOL     OW24817   0.713   0.050   3.469  0.3291  0.7760 -0.4010
 4394SOL    HW124818   0.739   0.104   3.544  1.7031 -1.0473  0.4430
 4394SOL    HW224819   0.692   4.701   3.509  1.7324  0.5813 -0.0536
 4395SOL     OW24820   1.204   0.341   5.054 -0.3482  0.5362  0.1225
 4395SOL    HW124821   1.110   0.349   5.071 -0.1633 -1.9697  2.3381
 4395SOL    HW224822   1.209   0.328   4.959  1.0357 -0.5484  0.3501
 4396SOL     OW24823   2.968   3.591   4.445 -0.2207 -0.7526 -0.9232
 4396SOL    HW124824   2.978   3.515   4.501  1.7840 -0.3731 -0.7658
 4396SOL    HW224825   2.931   3.659   4.502  0.6628  0.3069 -1.6112
 4397SOL     OW24826   2.498   0.234  11.507 -0.0979 -0.3286 -0.4135
 4397SOL    HW124827   2.589   0.207  11.497  0.4019  0.6337  1.4165
 4397SOL    HW224828   2.509   0.321  11.469 -1.2314 -0.4750 -1.0621
 4398SOL     OW24829   1.288   2.481   1.422  0.3101 -0.2137  0.0266
 4398SOL    HW124830   1.216   2.535   1.389 -1.3150 -2.0504  0.5013
 4398SOL    HW224831   1.350   2.547   1.453  2.2894 -1.4607 -1.3138
 4399SOL     OW24832   3.407   4.680   7.771 -0.0235  0.1031  0.0882
 4399SOL    HW124833   3.461   4.690   7.692 -2.1316  1.9419 -1.1103
 4399SOL    HW224834   3.391   4.586   7.782 -0.1563  0.1193  0.0360
 4400SOL     OW24835   1.375   4.006   1.975  0.6602 -0.0019  0.1268
 4400SOL    HW124836   1.455   3.995   2.027  0.3422  2.1681  1.1010
 4400SOL    HW224837   1.402   4.076   1.915 -2.8535  0.6531 -0.7049
 4401SOL     OW24838   0.149   4.516   2.320  0.3505  0.1060  0.2061
 4401SOL    HW124839   0.171   4.437   2.369  0.2964  1.4456  2.3642
 4401SOL    HW224840   0.210   4.578   2.361  0.0701  1.8476 -1.9876
 4402SOL     OW24841   4.336   3.477   2.934  0.2446 -0.1876 -0.2991
 4402SOL    HW124842   4.259   3.518   2.895  1.4479 -0.7583 -3.3353
 4402SOL    HW224843   4.395   3.468   2.860 -0.4293  1.7795 -1.0679
 4403SOL     OW24844   2.627   4.543   3.809  0.3159 -0.1616  0.2963
 4403SOL    HW124845   2.630   4.452   3.780 -0.3806 -0.0870 -0.0209
 4403SOL    HW224846   2.669   4.582   3.732 -0.3003 -1.5360 -0.7360
 4404SOL     OW24847   0.064   1.136   7.144  0.5782 -0.2238  0.1002
 4404SOL    HW124848   0.077   1.114   7.236 -0.6413 -0.5286  0.1983
 4404SOL    HW224849   4.705   1.124   7.143  0.5964 -0.4263  1.6799
 4405SOL     OW24850   0.369   3.036   5.559  0.7796 -0.2817  0.2349
 4405SOL    HW124851   0.437   3.101   5.542 -1.6957  2.0558 -0.6108
 4405SOL    HW224852   0.361   3.056   5.652 -2.1930  1.0935 -0.3397
 4406SOL     OW24853   4.576   2.735   8.461  0.2951  0.1913 -0.0369
 4406SOL    HW124854   4.536   2.817   8.434  1.6563  0.9788  0.3174
 4406SOL    HW224855   4.506   2.670   8.471  0.0848 -0.0072 -2.9059
 4407SOL     OW24856   2.143   1.766   7.048  0.1572  0.2995 -0.4008
 4407SOL    HW124857   2.086   1.777   6.971  1.0200  1.3167 -0.8881
 4407SOL    HW224858   2.115   1.679   7.077 -0.6673  0.3716 -0.9688
 4408SOL     OW24859   0.197   4.676  14.066 -0.2013  0.1081 -0.3841
 4408SOL    HW124860   0.183   0.008  13.999 -1.2978  0.9228  0.6646
 4408SOL    HW224861   0.290   4.693  14.085 -0.8495  1.6652  1.4040
 4409SOL     OW24862   4.303   1.453   1.857 -0.4376  0.4394  0.2598
 4409SOL    HW124863   4.211   1.457   1.829 -0.0512 -2.1042 -1.3863
 4409SOL    HW224864   4.292   1.437   1.951  1.7885 -3.2477 -0.1147
 4410SOL     OW24865   1.364   0.161  15.067  0.4935  0.1123 -0.5227
 4410SOL    HW124866   1.317   0.193  15.144  0.0372 -0.5527 -0.5267
 4410SOL    HW224867   1.339   0.069  15.073 -0.4062  0.5113  1.8660
 4411SOL     OW24868   1.003   4.520  15.527 -0.4618  0.3804 -0.4919
 4411SOL    HW124869   1.021   4.609  15.559 -2.1072  1.1772 -1.8384
 4411SOL    HW224870   0.918   4.503  15.567 -0.0852  0.1543  0.2166
 4412SOL     OW24871   3.085   3.524   4.751  0.3799  0.5944  0.1860
 4412SOL    HW124872   3.094   3.461   4.680 -1.6067 -0.1451  0.6193
 4412SOL    HW224873   3.018   3.486   4.807  0.6086  2.3440  1.6715
 4413SOL     OW24874   0.108   2.727   8.482 -0.0182 -0.4725 -0.6781
 4413SOL    HW124875   0.135   2.700   8.569  0.8607  2.5953 -0.0109
 4413SOL    HW224876   0.013   2.735   8.489 -0.1880 -1.6952 -1.5437
 4414SOL     OW24877   1.461   2.777   3.054  0.6311  0.2207  0.2911
 4414SOL    HW124878   1.476   2.870   3.038  0.5716  0.1054 -0.4111
 4414SOL    HW224879   1.382   2.801   3.103  0.8142 -2.4089  1.8491
 4415SOL     OW24880   1.036   1.597  16.158  0.1351 -0.5416 -0.7502
 4415SOL    HW124881   0.959   1.654  16.155 -0.0211 -0.7458 -0.5659
 4415SOL    HW224882   1.010   1.530  16.220 -2.6205  1.6498  0.4346
 4416SOL     OW24883   3.150   1.064  14.987  0.1413  0.5072  0.3445
 4416SOL    HW124884   3.160   0.999  14.917  0.0613 -0.6964  1.4599
 4416SOL    HW224885   3.096   1.135  14.950  1.1779  0.6221 -0.9550
 4417SOL     OW24886   0.532   4.147  11.644 -0.0043  0.1088  0.3741
 4417SOL    HW124887   0.573   4.087  11.582 -2.1415  0.2886 -1.1839
 4417SOL    HW224888   0.614   4.164  11.690  0.6762 -1.2997 -0.3089
 4418SOL     OW24889   2.758   3.519   8.099 -0.1255  0.1103 -0.1281
 4418SOL    HW124890   2.666   3.492   8.106 -0.4167  1.1427  0.0491
 4418SOL    HW224891   2.744   3.603   8.056  0.4552 -0.7452 -1.9963
 4419SOL     OW24892   4.327   1.167   9.081 -0.5838  0.3640  0.0562
 4419SOL    HW124893   4.372   1.249   9.100  0.0992 -0.3825  1.6704
 4419SOL    HW224894   4.282   1.178   8.997 -3.4380  0.2574  1.5663
 4420SOL     OW24895   2.365   0.573  15.760 -0.7033  0.4139 -0.3116
 4420SOL    HW124896   2.410   0.540  15.838 -1.4330  0.5451  0.1647
 4420SOL    HW224897   2.312   0.635  15.809 -2.4221 -1.6826  0.4844
 4421SOL     OW24898   3.355   0.486  10.168  0.8479  0.5049  0.8781
 4421SOL    HW124899   3.363   0.400  10.127 -2.8727  0.7446 -0.3085
 4421SOL    HW224900   3.261   0.496  10.152  0.5965 -1.3842  1.0834
 4422SOL     OW24901   3.183   0.479   3.637  0.2539  0.0205 -0.1823
 4422SOL    HW124902   3.214   0.516   3.554  0.8728 -1.8821 -0.7917
 4422SOL    HW224903   3.254   0.424   3.668  0.2883  1.0799  1.5831
 4423SOL     OW24904   0.534   4.687   5.081 -0.2124  0.1242  0.3470
 4423SOL    HW124905   0.603   0.018   5.088 -1.5990  1.2066  3.6004
 4423SOL    HW224906   0.554   4.619   5.145 -2.3427  0.2125  1.0879
 4424SOL     OW24907   1.338   1.115  17.269 -0.1154 -0.3826 -0.3620
 4424SOL    HW124908   1.420   1.123  17.220  1.8291 -1.0385  2.7644
 4424SOL    HW224909   1.351   1.026  17.303  2.5818 -0.2118 -0.9666
 4425SOL     OW24910   0.689   1.069   8.983  0.8503  0.0744 -0.0812
 4425SOL    HW124911   0.631   1.099   9.053 -0.4780 -0.0534 -1.1345
 4425SOL    HW224912   0.623   1.054   8.915  0.7527  1.2685 -0.2638
 4426SOL     OW24913   3.548   1.479  15.076  0.2918 -0.4958  0.4499
 4426SOL    HW124914   3.471   1.422  15.084 -1.1209  1.3092 -0.3312
 4426SOL    HW224915   3.612   1.417  15.043  0.1770 -1.1469  1.4332
 4427SOL     OW24916   0.595   1.368  16.503 -0.1660 -0.0459  0.2037
 4427SOL    HW124917   0.617   1.296  16.444  0.6368  1.7157 -1.6505
 4427SOL    HW224918   0.536   1.319  16.560  1.6988 -1.6785  0.7299
 4428SOL     OW24919   2.141   0.509  11.808  0.8371 -0.0880  0.1626
 4428SOL    HW124920   2.117   0.556  11.728 -0.6511 -0.1744  0.5524
 4428SOL    HW224921   2.143   0.417  11.783 -0.2268 -1.3579  4.6994
 4429SOL     OW24922   1.353   1.228  10.421 -0.4382 -0.2055 -0.3611
 4429SOL    HW124923   1.401   1.168  10.364 -0.6000  0.5665 -1.3043
 4429SOL    HW224924   1.424   1.263  10.476 -0.2927  1.4202 -1.5781
 4430SOL     OW24925   4.373   1.920   1.380 -0.3318  0.4770 -0.1807
 4430SOL    HW124926   4.300   1.896   1.323 -1.0470  1.6604  0.2328
 4430SOL    HW224927   4.369   1.842   1.435  0.7094  1.6115  1.5248
 4431SOL     OW24928   1.046   4.038  10.031  0.0720 -0.1856 -0.1720
 4431SOL    HW124929   1.083   3.973  10.091 -1.8167 -0.5362  0.6267
 4431SOL    HW224930   0.961   3.996  10.019  1.7075 -3.0545 -1.5867
 4432SOL     OW24931   4.650   4.500   8.336  0.3448  0.2806  0.1577
 4432SOL    HW124932   4.676   4.410   8.357  0.2385 -0.2615 -2.0037
 4432SOL    HW224933   4.722   4.543   8.382 -0.8034  0.5255  1.6937
 4433SOL     OW24934   3.998   2.078   4.959 -0.7329  0.2268 -0.1800
 4433SOL    HW124935   4.015   2.072   4.865 -2.2153 -0.0461 -0.4268
 4433SOL    HW224936   3.908   2.105   4.978  0.1955  1.0765  3.1306
 4434SOL     OW24937   1.225   4.713   9.760  0.8255  0.0456  0.2410
 4434SOL    HW124938   1.229   0.038   9.834  1.7852  1.9292 -1.3623
 4434SOL    HW224939   1.228   4.636   9.818 -0.4389 -0.9748 -1.0712
 4435SOL     OW24940   1.487   1.449   7.257  0.8379  0.1080 -0.3697
 4435SOL    HW124941   1.564   1.492   7.220 -0.4090  0.0176 -3.0775
 4435SOL    HW224942   1.436   1.419   7.181 -0.5402 -0.5859  0.8270
 4436SOL     OW24943   3.483   3.943   5.221  0.4381 -0.0762 -0.5944
 4436SOL    HW124944   3.541   4.007   5.181  1.3324  0.7739  2.0590
 4436SOL    HW224945   3.404   3.977   5.179 -1.3570 -1.5674  1.5495
 4437SOL     OW24946   3.790   1.916   2.794 -0.3275  0.3968  0.1342
 4437SOL    HW124947   3.739   1.953   2.866  1.4039 -2.0441  2.6118
 4437SOL    HW224948   3.796   1.826   2.825 -1.6014  0.2363 -0.1012
 4438SOL     OW24949   4.258   1.600   5.409 -0.0249 -0.0503  0.2886
 4438SOL    HW124950   4.258   1.625   5.317 -0.2602  0.5296  0.4458
 4438SOL    HW224951   4.303   1.678   5.442  1.3460 -0.6458 -0.1967
 4439SOL     OW24952   4.242   2.699   4.122 -0.1912 -0.0639 -0.3024
 4439SOL    HW124953   4.296   2.763   4.077  1.0623 -0.6756  0.3445
 4439SOL    HW224954   4.310   2.647   4.164 -3.3252 -2.6471  1.6269
 4440SOL     OW24955   0.345   0.950  16.752  0.0123  0.2128  0.1410
 4440SOL    HW124956   0.402   1.004  16.697 -1.8319  2.8623  0.8307
 4440SOL    HW224957   0.366   0.983  16.839 -1.6938  0.4075  0.4771
 4441SOL     OW24958   1.313   1.828  15.549 -0.2072 -0.2081  0.3530
 4441SOL    HW124959   1.328   1.914  15.589  0.2599 -0.6587  1.1334
 4441SOL    HW224960   1.240   1.801  15.605  0.3458  1.5588  1.9165
 4442SOL     OW24961   3.755   3.304   3.328  0.9145 -0.1458 -0.3215
 4442SOL    HW124962   3.845   3.307   3.360 -0.9511  2.5031  4.5162
 4442SOL    HW224963   3.714   3.222   3.355 -0.8270  0.2714 -1.7462
 4443SOL     OW24964   1.308   3.745   5.213  0.1045 -0.3604  0.1003
 4443SOL    HW124965   1.262   3.827   5.230 -2.5984 -1.8893  0.2130
 4443SOL    HW224966   1.247   3.686   5.258 -0.3902 -2.6630 -3.6043
 4444SOL     OW24967   3.642   3.079   4.948 -0.1079  0.3519 -0.3256
 4444SOL    HW124968   3.736   3.098   4.954  0.3180 -1.1615 -2.2357
 4444SOL    HW224969   3.602   3.158   4.984  0.3642  0.2880  0.3409
 4445SOL     OW24970   3.428   1.524   4.027  0.4130 -0.3389  0.4172
 4445SOL    HW124971   3.420   1.597   3.966 -0.7461 -0.1487  0.7956
 4445SOL    HW224972   3.382   1.554   4.106  0.2368  0.3354  0.0593
 4446SOL     OW24973   1.602   0.124   1.142 -0.1525  0.3588  0.1831
 4446SOL    HW124974   1.515   0.163   1.129 -0.4060 -1.0646 -2.4479
 4446SOL    HW224975   1.617   0.071   1.063 -1.6710  0.2610 -0.0393
 4447SOL     OW24976   1.475   4.054   4.115 -0.1084  0.4274  0.0671
 4447SOL    HW124977   1.397   4.104   4.092  0.4404  1.5667  0.6948
 4447SOL    HW224978   1.490   4.085   4.204  1.6828  1.6907 -0.6757
 4448SOL     OW24979   4.293   3.918   7.362 -0.4418  0.3435 -0.2839
 4448SOL    HW124980   4.283   4.005   7.324 -0.4923  0.2411 -0.5043
 4448SOL    HW224981   4.206   3.886   7.385  0.8399 -3.1109 -0.2061
 4449SOL     OW24982   1.781   1.529  16.893  0.0031  0.0376  0.2590
 4449SOL    HW124983   1.774   1.623  16.875 -0.5566  0.4447  2.5381
 4449SOL    HW224984   1.873   1.515  16.916  0.0663 -0.1125 -0.0830
 4450SOL     OW24985   0.572   3.999   4.919 -0.4294  0.3949 -0.0295
 4450SOL    HW124986   0.480   4.013   4.943 -0.7721 -1.5033 -0.2780
 4450SOL    HW224987   0.608   4.045   4.995  1.2902  0.9775 -1.1969
 4451SOL     OW24988   0.173   2.620   4.706 -0.4029 -0.3679  0.3928
 4451SOL    HW124989   0.223   2.624   4.788  1.1010 -1.1300 -0.4962
 4451SOL    HW224990   0.121   2.701   4.709 -1.0321 -0.7120 -1.7345
 4452SOL     OW24991   4.365   1.049   7.920  0.0640  0.1335  0.3361
 4452SOL    HW124992   4.403   1.111   7.858  1.0459 -1.5202 -0.7039
 4452SOL    HW224993   4.446   1.017   7.960  0.1959 -0.1457 -0.1628
 4453SOL     OW24994   2.500   1.788  15.543 -0.2495 -0.5274 -0.0222
 4453SOL    HW124995   2.411   1.791  15.579  0.1714  0.7566  0.8926
 4453SOL    HW224996   2.560   1.795  15.616  1.4535  0.0377 -1.4809
 4454SOL     OW24997   3.267   1.953   4.187 -0.2687  0.1409  0.0877
 4454SOL    HW124998   3.199   1.977   4.250  1.6850  1.0909  1.8578
 4454SOL    HW224999   3.242   1.865   4.160 -1.3732  0.4210  0.1842
 4455SOL     OW25000   2.172   3.700  15.802  0.3335 -0.0033  0.0203
 4455SOL    HW125001   2.235   3.629  15.789  0.4552  0.4083 -1.7106
 4455SOL    HW225002   2.228   3.769  15.766 -2.6918  2.3325 -0.1994
 4456SOL     OW25003   1.054   0.294   6.269 -0.5500 -0.4027 -0.2934
 4456SOL    HW125004   0.970   0.247   6.260 -1.3576  0.8476  0.6852
 4456SOL    HW225005   1.115   0.234   6.226  0.2915 -0.4484  0.9780
 4457SOL     OW25006   3.183   1.135  14.476 -0.1650  0.3953 -0.0723
 4457SOL    HW125007   3.186   1.049  14.519 -1.5511  1.2649  1.7707
 4457SOL    HW225008   3.275   1.160  14.481  0.6352 -2.1771 -2.1817
 4458SOL     OW25009   1.634   2.417  16.118  0.4359  0.0950 -0.1010
 4458SOL    HW125010   1.712   2.458  16.081  2.4268 -1.6035  2.2118
 4458SOL    HW225011   1.588   2.378  16.044 -0.4797 -0.7496  0.9077
 4459SOL     OW25012   0.872   1.093  15.462  0.5308 -0.0773 -0.3228
 4459SOL    HW125013   0.936   1.158  15.490 -0.1582 -0.0253  1.1545
 4459SOL    HW225014   0.918   1.010  15.476  0.4388 -0.3769 -1.8674
 4460SOL     OW25015   2.416   0.497   1.955  0.0941  0.1865  0.0265
 4460SOL    HW125016   2.407   0.591   1.970 -0.9655  0.1099 -0.0950
 4460SOL    HW225017   2.338   0.467   2.003  0.3575 -0.6675 -0.0715
 4461SOL     OW25018   2.860   1.501   1.443 -0.1775  0.3160  0.7416
 4461SOL    HW125019   2.845   1.586   1.402  1.8176  0.8326  1.0895
 4461SOL    HW225020   2.925   1.454   1.391  0.9775  1.3880  1.2131
 4462SOL     OW25021   2.939   3.300   7.936 -0.1392 -0.0667  0.1853
 4462SOL    HW125022   2.988   3.255   8.006 -0.4843 -1.1353 -0.2579
 4462SOL    HW225023   2.874   3.350   7.984  2.1624 -0.1297  3.3765
 4463SOL     OW25024   0.104   2.566   2.997  0.4744 -0.2261 -0.3362
 4463SOL    HW125025   0.163   2.498   3.031 -0.6666 -1.2792 -0.4418
 4463SOL    HW225026   0.022   2.517   3.011  0.4903  0.3747  1.9124
 4464SOL     OW25027   2.488   0.376   7.631 -0.3196 -0.1370  0.3646
 4464SOL    HW125028   2.556   0.391   7.565  0.6822 -0.3806  1.3370
 4464SOL    HW225029   2.456   0.465   7.650 -0.2394 -0.2253  0.9182
 4465SOL     OW25030   3.030   0.242   5.667  0.1199 -0.4406  0.7143
 4465SOL    HW125031   3.106   0.294   5.641 -1.3659  1.2223 -0.1999
 4465SOL    HW225032   2.956   0.295   5.639  0.8792 -0.2007 -0.8022
 4466SOL     OW25033   3.291   0.163  11.193  0.6586 -0.5218 -0.4150
 4466SOL    HW125034   3.338   0.099  11.139  2.0478  0.0885  0.0715
 4466SOL    HW225035   3.273   0.129  11.280 -1.8740 -1.2251 -1.2144
 4467SOL     OW25036   2.051   0.636   9.418 -0.2465 -0.6092 -0.1951
 4467SOL    HW125037   2.092   0.556   9.451  0.7692  0.5264  1.3140
 4467SOL    HW225038   1.968   0.596   9.393 -1.5959  1.4476  0.9517
 4468SOL     OW25039   1.468   2.877   7.821 -0.3460 -1.0352 -0.4477
 4468SOL    HW125040   1.409   2.896   7.748 -1.4079 -0.5416  0.5324
 4468SOL    HW225041   1.536   2.829   7.774  0.8430  2.8245 -2.6782
 4469SOL     OW25042   4.554   1.474   7.100 -0.0072 -0.3709  0.6092
 4469SOL    HW125043   4.517   1.553   7.141  2.1622  1.9601 -1.9095
 4469SOL    HW225044   4.644   1.478   7.131  0.2300  1.3466 -0.2580
 4470SOL     OW25045   4.273   4.652   5.134 -1.1640 -0.2505  0.0371
 4470SOL    HW125046   4.347   4.705   5.164  0.4512 -2.6233  0.1910
 4470SOL    HW225047   4.202   4.698   5.180  0.4668  1.6461  0.6688
 4471SOL     OW25048   2.413   4.187   9.202  0.6715  0.1157  0.2859
 4471SOL    HW125049   2.332   4.158   9.159  2.1092 -2.2775 -0.7841
 4471SOL    HW225050   2.378   4.240   9.274 -1.8823 -1.3762  0.1410
 4472SOL     OW25051   2.285   4.478   9.636 -0.0110  0.0169 -0.5860
 4472SOL    HW125052   2.373   4.459   9.604  0.4245  1.8044 -0.4432
 4472SOL    HW225053   2.280   4.407   9.700 -2.3971 -2.8267 -3.9276
 4473SOL     OW25054   0.248   3.541   6.936  0.5302 -0.0979 -0.6350
 4473SOL    HW125055   0.291   3.531   6.851 -0.4235 -1.2158 -0.9872
 4473SOL    HW225056   0.180   3.474   6.934  0.0003  0.4521 -1.0243
 4474SOL     OW25057   0.936   3.698  10.390 -0.3423  0.9294  0.1549
 4474SOL    HW125058   0.915   3.779  10.436 -3.7289 -0.0385  0.2917
 4474SOL    HW225059   0.846   3.669  10.375  0.5650 -2.3741  1.1343
 4475SOL     OW25060   1.943   0.087   3.557  0.3897 -0.3342 -0.5038
 4475SOL    HW125061   1.945   4.730   3.584  0.7477 -0.6904 -1.7549
 4475SOL    HW225062   1.849   0.090   3.537  0.1586  0.9651  0.8145
 4476SOL     OW25063   1.581   0.472   7.250 -0.2354  0.0971 -0.2765
 4476SOL    HW125064   1.632   0.504   7.324 -1.3381  1.4566 -0.1161
 4476SOL    HW225065   1.597   0.377   7.250  1.3262  0.3680  0.9456
 4477SOL     OW25066   3.263   1.739   3.650  0.5997 -0.0153 -0.6933
 4477SOL    HW125067   3.219   1.656   3.669  1.7812 -0.1777  1.3716
 4477SOL    HW225068   3.214   1.763   3.572  0.6422  0.4282 -0.5827
 4478SOL     OW25069   2.378   4.007  16.459  0.5047 -0.3083 -0.1944
 4478SOL    HW125070   2.404   4.099  16.461 -2.5476  0.5860 -0.9018
 4478SOL    HW225071   2.285   4.029  16.459  0.4046 -0.7279  0.0252
 4479SOL     OW25072   1.091   4.057   2.752  0.4606  0.2962 -0.1643
 4479SOL    HW125073   1.072   4.128   2.814  1.1500 -0.6735  1.1581
 4479SOL    HW225074   1.031   3.989   2.784  0.5429  0.5262  0.4765
 4480SOL     OW25075   3.866   3.869   3.696 -0.4029  0.0724  0.3650
 4480SOL    HW125076   3.805   3.796   3.699  2.5094 -2.3856  0.0481
 4480SOL    HW225077   3.939   3.842   3.752  0.4968  1.8934  0.0617
 4481SOL     OW25078   1.901   3.021  13.823  0.3524 -0.0314  0.3262
 4481SOL    HW125079   1.838   2.956  13.791  0.2931 -0.5599  1.5116
 4481SOL    HW225080   1.950   2.967  13.884  0.3470  2.0408  2.1850
 4482SOL     OW25081   2.625   2.000  17.719 -0.6639 -0.1797 -0.6984
 4482SOL    HW125082   2.603   2.070  17.658 -0.4573  0.2515 -0.2846
 4482SOL    HW225083   2.568   2.014   0.055 -1.2939 -1.0279 -1.0248
 4483SOL     OW25084   3.394   0.806   2.885  0.1599  0.1345 -0.1990
 4483SOL    HW125085   3.388   0.750   2.808  1.0644 -0.5442  0.2307
 4483SOL    HW225086   3.305   0.838   2.900  0.2928  0.7272 -0.6803
 4484SOL     OW25087   0.418   0.773   7.900  0.3775 -0.1352 -0.4266
 4484SOL    HW125088   0.482   0.763   7.831  0.1067  0.1625 -0.7238
 4484SOL    HW225089   0.339   0.741   7.857  1.0918 -0.5910 -1.3780
 4485SOL     OW25090   3.820   1.026   8.344 -0.0669  0.2377 -0.1983
 4485SOL    HW125091   3.913   1.004   8.337 -0.2948  0.1966 -2.9279
 4485SOL    HW225092   3.787   0.984   8.265  0.6130  1.4340 -1.1297
 4486SOL     OW25093   2.465   4.500   0.334 -0.1064 -0.4158 -0.3788
 4486SOL    HW125094   2.479   4.540   0.419 -0.3660  0.4583 -0.7495
 4486SOL    HW225095   2.553   4.481   0.301  0.6821  0.1981  1.4058
 4487SOL     OW25096   0.079   2.008  17.221  0.2542 -0.5569  0.1974
 4487SOL    HW125097   0.120   2.087  17.187 -1.4035  0.8031  1.4036
 4487SOL    HW225098   4.729   2.045  17.245  0.4377 -1.0953  1.6807
 4488SOL     OW25099   2.191   0.767  17.274  0.6849  0.3082 -0.1916
 4488SOL    HW125100   2.144   0.746  17.194  2.3601  1.7106 -1.5411
 4488SOL    HW225101   2.138   0.831  17.323  0.3364 -0.8055  0.8686
 4489SOL     OW25102   1.093   1.328   2.991 -0.0137  0.3997  0.2659
 4489SOL    HW125103   1.041   1.408   3.006 -0.8021 -0.1602  0.4916
 4489SOL    HW225104   1.071   1.303   2.901 -0.0953  0.3954  0.2866
 4490SOL     OW25105   1.495   3.436   4.520  0.1385  0.1500  0.6937
 4490SOL    HW125106   1.577   3.388   4.529 -0.1832 -0.6839 -0.7318
 4490SOL    HW225107   1.476   3.459   4.611  0.3968 -1.7719  1.2426
 4491SOL     OW25108   1.474   2.208   3.559  0.3803  0.2178 -0.0479
 4491SOL    HW125109   1.379   2.211   3.565  0.5587  0.4902  2.7717
 4491SOL    HW225110   1.490   2.113   3.559 -0.7877  0.0159  1.5365
 4492SOL     OW25111   3.237   2.997   5.479  0.4536 -0.2147 -0.5108
 4492SOL    HW125112   3.301   3.065   5.501  2.8420 -2.7538  0.3073
 4492SOL    HW225113   3.198   3.036   5.400  0.1749  1.3286  0.3942
 4493SOL     OW25114   1.518   1.345   5.928 -0.0764 -0.0936 -0.0034
 4493SOL    HW125115   1.423   1.356   5.928 -0.1842 -0.9631  1.0034
 4493SOL    HW225116   1.535   1.328   6.021 -1.4841 -0.9260  0.0868
 4494SOL     OW25117   0.957   2.617   3.791  0.5708 -0.2440 -0.5934
 4494SOL    HW125118   0.932   2.674   3.864  2.3210  0.3634 -0.4563
 4494SOL    HW225119   0.906   2.666   3.728 -1.1360  0.2001  1.1258
 4495SOL     OW25120   4.159   0.005   2.808  0.3692 -0.0181 -0.4815
 4495SOL    HW125121   4.066   4.718   2.809  0.3946 -0.1200  0.6180
 4495SOL    HW225122   4.193   4.716   2.723  1.5310  0.7429 -0.2284
 4496SOL     OW25123   3.440   3.276   2.437 -0.4020  0.1650 -0.1943
 4496SOL    HW125124   3.476   3.226   2.364  1.4005 -0.4922  1.1412
 4496SOL    HW225125   3.403   3.348   2.386  0.2267  0.8055  0.2685
 4497SOL     OW25126   3.861   2.323   2.938  0.6019  0.1802  0.0804
 4497SOL    HW125127   3.948   2.363   2.928  0.0613  1.4418  0.4753
 4497SOL    HW225128   3.879   2.244   2.989 -0.7738 -1.0117 -1.2873
 4498SOL     OW25129   3.151   0.582  16.985  0.6002  0.4256  0.2625
 4498SOL    HW125130   3.204   0.599  17.063  2.6040 -0.5793 -0.8773
 4498SOL    HW225131   3.218   0.529  16.943  0.9827  0.4572  0.8361
 4499SOL     OW25132   2.123   3.326  13.418 -0.7243 -0.6374  0.0888
 4499SOL    HW125133   2.077   3.313  13.501  0.5944 -0.4718  0.8597
 4499SOL    HW225134   2.052   3.361  13.365 -0.5971  0.1244  0.4244
 4500SOL     OW25135   1.645   2.996   8.081 -0.3883  0.1025 -0.7324
 4500SOL    HW125136   1.595   2.924   8.119  2.5033  0.2422  3.2890
 4500SOL    HW225137   1.599   3.025   8.002 -0.6334 -1.4763 -1.1731
 4501SOL     OW25138   0.842   3.742   1.497  0.3716 -0.0926 -0.2706
 4501SOL    HW125139   0.806   3.667   1.450 -1.3603  1.3546 -1.2482
 4501SOL    HW225140   0.880   3.796   1.428  1.0558  0.6538  0.6937
 4502SOL     OW25141   2.438   2.468   7.464  0.1834  0.1943 -0.2009
 4502SOL    HW125142   2.426   2.451   7.557 -0.4867 -0.4975 -0.4084
 4502SOL    HW225143   2.391   2.550   7.450 -1.8154 -0.8818  0.0796
 4503SOL     OW25144   0.916   0.937  11.519  0.5184 -0.2082  0.1803
 4503SOL    HW125145   0.825   0.910  11.508  0.9042 -1.3576 -0.2076
 4503SOL    HW225146   0.963   0.878  11.460  1.7405  0.7320  0.2118
 4504SOL     OW25147   0.588   4.324   3.515 -0.3506  0.4978 -0.2673
 4504SOL    HW125148   0.562   4.232   3.512 -1.2380  0.6274  3.0377
 4504SOL    HW225149   0.564   4.346   3.425 -1.0613  0.2389 -0.1370
 4505SOL     OW25150   1.159   4.709   3.664  0.1148  0.4261 -0.1438
 4505SOL    HW125151   1.205   4.667   3.736 -0.4550 -0.8998 -0.5453
 4505SOL    HW225152   1.130   0.056   3.704 -1.1086  0.1590 -0.4682
 4506SOL     OW25153   2.614   2.166   3.692  0.2805  0.0458 -0.0442
 4506SOL    HW125154   2.626   2.155   3.787  3.1072 -0.3171 -0.4475
 4506SOL    HW225155   2.693   2.215   3.669 -2.5134  2.4918 -4.4008
 4507SOL     OW25156   4.214   1.054   4.233 -0.1636 -0.3083 -0.0656
 4507SOL    HW125157   4.162   1.134   4.230  0.0953 -0.1660 -0.7179
 4507SOL    HW225158   4.157   0.983   4.203  1.3758 -0.1955 -3.2582
 4508SOL     OW25159   3.342   4.254  16.863  0.2689 -0.6934  0.3759
 4508SOL    HW125160   3.336   4.240  16.768 -0.5056 -1.0157  0.4742
 4508SOL    HW225161   3.409   4.321  16.877 -0.3052 -0.5984  2.6130
 4509SOL     OW25162   3.788   0.598   2.407  0.1413 -0.6273 -0.8603
 4509SOL    HW125163   3.803   0.528   2.471  1.7339  1.0032  0.5956
 4509SOL    HW225164   3.703   0.571   2.374  0.5662 -1.3180 -1.3931
 4510SOL     OW25165   2.957   2.677   4.385 -0.2563 -0.1074  0.7309
 4510SOL    HW125166   2.863   2.658   4.388 -0.6871  1.1936 -4.3189
 4510SOL    HW225167   2.987   2.636   4.304 -2.7919 -1.1301  0.3141
 4511SOL     OW25168   3.300   2.664  14.018  0.1444 -0.2282 -0.0596
 4511SOL    HW125169   3.278   2.713  13.939  1.4472  0.3962 -0.0413
 4511SOL    HW225170   3.229   2.600  14.027 -0.3802  0.3653  0.0758
 4512SOL     OW25171   1.732   1.342   4.370 -0.3472  0.4457 -0.3015
 4512SOL    HW125172   1.693   1.263   4.408 -0.3766  0.5496 -0.1157
 4512SOL    HW225173   1.827   1.331   4.369 -0.3753  0.0673  1.6912
 4513SOL     OW25174   0.894   3.926   0.587 -0.1046  0.9357 -0.7239
 4513SOL    HW125175   0.882   3.958   0.498  0.4387  2.6329 -0.1848
 4513SOL    HW225176   0.833   3.852   0.595 -0.8591  1.2811 -3.5680
 4514SOL     OW25177   0.731   3.698   0.583 -0.3160  0.1221  0.0325
 4514SOL    HW125178   0.759   3.615   0.622  1.1018  1.4520  1.8711
 4514SOL    HW225179   0.667   3.661   0.522 -1.4844 -0.0412  1.3465
 4515SOL     OW25180   1.216   0.976   5.791 -0.0764 -0.1794  0.4247
 4515SOL    HW125181   1.165   0.973   5.710 -2.5612 -2.0134  2.0893
 4515SOL    HW225182   1.192   0.894   5.833 -1.5515 -0.6104 -1.2894
 4516SOL     OW25183   2.833   1.023  17.019 -0.4157  0.2401  0.3869
 4516SOL    HW125184   2.889   0.949  17.041  0.5575  0.5237 -1.1288
 4516SOL    HW225185   2.824   1.067  17.104 -0.6643  1.3657 -0.2256
 4517SOL     OW25186   4.361   0.153  11.656  0.1822 -0.4222 -0.0860
 4517SOL    HW125187   4.419   0.203  11.714 -0.2777 -0.5175  0.4640
 4517SOL    HW225188   4.408   0.070  11.644 -0.5513 -0.8427  0.0049
 4518SOL     OW25189   1.506   3.603   6.082  0.0840  0.6164 -0.0384
 4518SOL    HW125190   1.515   3.698   6.083 -0.2106  0.6465 -0.6944
 4518SOL    HW225191   1.412   3.601   6.096  0.2151 -0.5351  0.6832
 4519SOL     OW25192   1.467   0.028  16.502 -0.1104 -0.4744 -0.3730
 4519SOL    HW125193   1.395   4.699  16.508 -0.9256  0.4860  0.0718
 4519SOL    HW225194   1.458   0.078  16.421 -0.3048  1.5275  0.9055
 4520SOL     OW25195   4.222   0.619   3.722 -0.5849 -0.0603  0.4767
 4520SOL    HW125196   4.251   0.528   3.735  0.5825  0.3439  0.7470
 4520SOL    HW225197   4.188   0.645   3.807 -0.1245 -1.5296  1.1167
 4521SOL     OW25198   3.779   1.417  10.914  0.4114 -0.3374  0.3052
 4521SOL    HW125199   3.730   1.466  10.847  0.4504 -0.7182 -0.0020
 4521SOL    HW225200   3.775   1.325  10.889  1.5281 -0.8407  1.9941
 4522SOL     OW25201   3.438   0.339  14.747  0.3100  0.3476 -0.1602
 4522SOL    HW125202   3.407   0.344  14.656 -0.3243  1.4825  0.1084
 4522SOL    HW225203   3.392   0.259  14.771 -0.3760  0.6735 -0.3900
 4523SOL     OW25204   0.525   2.845   2.899 -0.3630  0.3865 -0.0546
 4523SOL    HW125205   0.533   2.844   2.994 -1.0257  0.4241 -0.0014
 4523SOL    HW225206   0.479   2.929   2.895 -2.0326 -0.6200 -1.9710
 4524SOL     OW25207   3.358   1.598   9.049 -0.1359  0.0614 -0.1788
 4524SOL    HW125208   3.425   1.536   9.018 -0.9676 -0.8628 -0.1375
 4524SOL    HW225209   3.286   1.537   9.061 -0.9188  1.2135  0.9784
 4525SOL     OW25210   2.266   2.027   1.038 -0.2292 -0.4522  0.1738
 4525SOL    HW125211   2.334   2.065   1.093 -0.1996 -2.4552  1.5372
 4525SOL    HW225212   2.314   2.002   0.960  1.1891 -0.3640  1.0109
 4526SOL     OW25213   3.707   3.150   5.899 -0.6674  0.0900 -0.4196
 4526SOL    HW125214   3.624   3.140   5.852 -2.4768  2.2273  2.3117
 4526SOL    HW225215   3.678   3.133   5.989 -0.5071  2.0937 -0.0037
 4527SOL     OW25216   4.215   1.023   3.650 -0.2403 -0.4199  0.0045
 4527SOL    HW125217   4.190   1.077   3.576 -0.9352  0.8052  1.1388
 4527SOL    HW225218   4.139   0.964   3.645 -0.9182  0.2733  1.8396
 4528SOL     OW25219   1.638   0.920   2.441 -0.5616 -0.2548 -0.0227
 4528SOL    HW125220   1.654   0.973   2.519  0.0514  0.0596 -0.3681
 4528SOL    HW225221   1.640   0.993   2.380 -2.6819 -0.3055 -0.1645
 4529SOL     OW25222   3.491   1.791   6.698  0.1591  0.3218  0.2893
 4529SOL    HW125223   3.526   1.826   6.616  0.7895 -0.2187  0.3336
 4529SOL    HW225224   3.538   1.710   6.716 -2.0983 -0.3465  3.0838
 4530SOL     OW25225   4.534   2.483  13.156  0.3009  0.5237 -0.0537
 4530SOL    HW125226   4.575   2.397  13.168  0.9604  0.5970 -1.7747
 4530SOL    HW225227   4.502   2.499  13.245 -2.3059 -1.1456 -0.6959
 4531SOL     OW25228   4.302   2.160  17.373 -0.0815 -0.7867 -0.0366
 4531SOL    HW125229   4.297   2.167  17.468 -0.4014 -0.5933 -0.0680
 4531SOL    HW225230   4.213   2.182  17.344 -0.6089 -1.6894  0.8891
 4532SOL     OW25231   1.971   2.601   1.608 -0.0185 -0.2043 -0.5992
 4532SOL    HW125232   2.009   2.687   1.628  0.1800 -0.0990 -1.4523
 4532SOL    HW225233   1.938   2.621   1.521 -2.1432 -3.5930 -0.5734
 4533SOL     OW25234   0.363   4.076   3.210  0.6516 -0.3915 -0.1383
 4533SOL    HW125235   0.446   4.028   3.203 -0.6237 -2.7529  0.9775
 4533SOL    HW225236   0.314   4.041   3.135 -0.9707  0.5438  0.4877
 4534SOL     OW25237   2.507   1.307   7.377  0.2901 -0.0733 -0.2335
 4534SOL    HW125238   2.454   1.232   7.350  0.5949 -0.5883  0.6027
 4534SOL    HW225239   2.452   1.377   7.342  1.7072  0.4425 -1.4309
 4535SOL     OW25240   4.601   2.611   0.579  0.2132  0.1536 -0.2532
 4535SOL    HW125241   4.584   2.616   0.485 -0.2022  1.0273 -0.1304
 4535SOL    HW225242   4.654   2.691   0.581 -0.5432  0.6500  0.0401
 4536SOL     OW25243   1.565   4.503   8.116 -0.3021 -0.9175 -0.1043
 4536SOL    HW125244   1.647   4.476   8.075  0.4548  0.5623  0.4447
 4536SOL    HW225245   1.589   4.506   8.208 -0.7500 -0.1348 -0.0214
 4537SOL     OW25246   1.134   3.017  13.752 -0.3754 -0.2148 -0.2875
 4537SOL    HW125247   1.148   2.969  13.671  1.5813 -1.1531  0.6173
 4537SOL    HW225248   1.131   3.109  13.724 -1.5107 -0.8570 -2.3021
 4538SOL     OW25249   0.709   4.098  10.152 -0.3860  0.4367 -0.4548
 4538SOL    HW125250   0.670   4.016  10.182  0.0614 -0.0094 -1.0961
 4538SOL    HW225251   0.634   4.158  10.151 -0.7018  0.0307 -1.3532
 4539SOL     OW25252   2.849   3.655   3.063 -0.2224  0.1876  0.4775
 4539SOL    HW125253   2.943   3.658   3.045 -0.3191 -0.6354 -0.1514
 4539SOL    HW225254   2.809   3.677   2.979  2.5338  2.9770 -0.1230
 4540SOL     OW25255   2.393   0.216  16.536  0.0735  0.4765 -0.2688
 4540SOL    HW125256   2.349   0.235  16.619 -1.2533 -0.3455 -0.7759
 4540SOL    HW225257   2.331   0.249  16.471 -0.3087  2.2214  0.9873
 4541SOL     OW25258   0.267   2.553  10.755 -0.2116 -0.0071  0.1518
 4541SOL    HW125259   0.296   2.462  10.757  1.5764  0.5866  0.7232
 4541SOL    HW225260   0.287   2.583  10.843  1.7809 -1.8792  0.3095
 4542SOL     OW25261   2.445   0.150   7.166 -0.1903 -0.4869  0.3311
 4542SOL    HW125262   2.385   0.149   7.240 -1.7514 -0.9324 -0.9329
 4542SOL    HW225263   2.461   0.056   7.161  0.5983 -0.3203 -0.2868
 4543SOL     OW25264   3.907   3.160   9.544  0.3112  0.4350  0.1608
 4543SOL    HW125265   3.963   3.159   9.621  1.3155  1.9731 -0.5382
 4543SOL    HW225266   3.849   3.234   9.563  1.1814  0.7882  1.4583
 4544SOL     OW25267   4.377   2.575   6.094  0.0811 -0.1947 -0.6603
 4544SOL    HW125268   4.416   2.562   6.007 -0.2862  1.5307 -1.0986
 4544SOL    HW225269   4.442   2.637   6.128  0.7135 -0.4625 -1.3626
 4545SOL     OW25270   3.116   1.993  12.082 -0.6678  0.1657  0.1101
 4545SOL    HW125271   3.096   2.060  12.147  1.3488 -1.1081  2.0661
 4545SOL    HW225272   3.037   1.979  12.031  1.0029 -0.5034 -2.2922
 4546SOL     OW25273   0.813   1.767  12.058  0.3703 -0.6307 -0.1857
 4546SOL    HW125274   0.884   1.704  12.068  1.2209  0.5693  1.3698
 4546SOL    HW225275   0.875   1.839  12.044  1.4428 -1.3255  1.0282
 4547SOL     OW25276   0.664   2.479   4.473  0.2626 -0.3775 -0.4565
 4547SOL    HW125277   0.724   2.534   4.523  0.1250 -0.2589 -0.4246
 4547SOL    HW225278   0.692   2.500   4.384  1.9835  0.7608  0.3552
 4548SOL     OW25279   0.524   2.988   7.718 -0.8290 -0.1540  0.2230
 4548SOL    HW125280   0.615   3.018   7.724 -0.7237 -0.9013  2.5349
 4548SOL    HW225281   0.511   2.959   7.628 -1.2391  0.0164  0.2280
 4549SOL     OW25282   0.971   2.168  11.832  0.0644  0.1490  0.5476
 4549SOL    HW125283   1.000   2.082  11.861  0.5107 -0.0783 -0.5711
 4549SOL    HW225284   0.877   2.151  11.819  0.2866 -1.3775  0.9230
 4550SOL     OW25285   2.416   3.884   6.476 -0.0948 -0.0213 -0.0971
 4550SOL    HW125286   2.401   3.898   6.383 -3.8053  0.4571  0.5659
 4550SOL    HW225287   2.510   3.900   6.485 -0.2933  0.3140  1.4068
 4551SOL     OW25288   4.089   3.714   7.611 -0.6797 -0.1810 -0.1621
 4551SOL    HW125289   4.072   3.684   7.700  2.1844 -0.0268  0.4557
 4551SOL    HW225290   4.080   3.809   7.618 -0.4016 -0.2674  1.4720
 4552SOL     OW25291   4.711   4.348   3.215 -0.1071  0.1958 -0.5220
 4552SOL    HW125292   4.718   4.379   3.305  3.8893  0.8392 -1.0451
 4552SOL    HW225293   4.644   4.404   3.176 -0.3418 -1.0260 -1.8985
 4553SOL     OW25294   0.180   3.605   7.624  0.0061  0.1428 -0.3916
 4553SOL    HW125295   0.213   3.531   7.674  2.3324  2.2238  1.1335
 4553SOL    HW225296   0.090   3.615   7.656  0.0940  0.4528 -0.2409
 4554SOL     OW25297   2.000   3.266  13.682 -0.0478  0.2616  0.2518
 4554SOL    HW125298   1.925   3.276  13.623  0.6460  1.6629 -0.3877
 4554SOL    HW225299   1.962   3.196  13.734  0.1612  0.5546  0.7952
 4555SOL     OW25300   3.393   2.061   7.747 -0.1419  0.3112 -0.7185
 4555SOL    HW125301   3.391   2.063   7.651  2.2824  2.0202 -0.7535
 4555SOL    HW225302   3.486   2.062   7.769 -0.1249 -0.6078 -0.7629
 4556SOL     OW25303   2.551   0.347   6.779 -0.5625 -0.5733  0.5692
 4556SOL    HW125304   2.491   0.313   6.846 -1.6515  0.8021  0.3083
 4556SOL    HW225305   2.634   0.362   6.824 -0.5318 -0.8647  0.6048
 4557SOL     OW25306   1.034   0.873  15.554 -0.1765  0.5360  0.4625
 4557SOL    HW125307   1.000   0.802  15.608  0.8364  0.5123  1.0606
 4557SOL    HW225308   1.102   0.825  15.508  0.3144  0.2327  1.5262
 4558SOL     OW25309   0.638   2.082   9.503  0.1456  0.2623 -0.4102
 4558SOL    HW125310   0.674   2.127   9.426  0.4636 -1.5014 -1.3059
 4558SOL    HW225311   0.661   1.993   9.476 -1.0818  0.0268 -0.7152
 4559SOL     OW25312   0.162   4.566  10.474  0.7003 -0.1503  0.0886
 4559SOL    HW125313   0.104   4.640  10.456 -1.2720 -1.0490  2.7550
 4559SOL    HW225314   0.184   4.547  10.383  3.3071  0.9205  0.4839
 4560SOL     OW25315   4.047   4.644  16.193 -0.2977  0.2026  0.1244
 4560SOL    HW125316   4.036   0.001  16.170  0.7336  0.1003 -0.7956
 4560SOL    HW225317   4.078   4.607  16.110 -0.5634 -0.5026  0.3329
 4561SOL     OW25318   1.542   3.066   5.847 -0.0951 -0.4136 -0.4959
 4561SOL    HW125319   1.574   3.095   5.932 -1.8258 -2.3493  0.8217
 4561SOL    HW225320   1.590   3.132   5.797 -0.1167  1.5415  2.0993
 4562SOL     OW25321   2.153   4.294   8.134  0.1429  0.5224 -0.0069
 4562SOL    HW125322   2.093   4.324   8.202  0.4486  0.4651  0.2858
 4562SOL    HW225323   2.100   4.308   8.055 -1.2602  0.2241  0.8826
 4563SOL     OW25324   2.375   2.947   4.806  0.2497 -0.0334 -0.3532
 4563SOL    HW125325   2.321   2.899   4.744 -1.0093  0.9336  0.0034
 4563SOL    HW225326   2.340   3.035   4.796 -1.3919 -0.8701 -2.0390
 4564SOL     OW25327   3.966   4.262   3.687  0.1391  0.0281 -0.5855
 4564SOL    HW125328   4.048   4.228   3.653 -0.1531 -1.7169  0.4325
 4564SOL    HW225329   3.969   4.242   3.781 -0.4754 -2.6943 -1.1382
 4565SOL     OW25330   3.277   1.579  14.470  0.1242 -0.1800  0.7084
 4565SOL    HW125331   3.240   1.622  14.393  0.6451 -1.9111 -0.5163
 4565SOL    HW225332   3.197   1.572  14.521  0.4017 -0.3552  1.1181
 4566SOL     OW25333   1.562   0.907  14.074  0.3586  0.6295 -0.1240
 4566SOL    HW125334   1.642   0.855  14.071 -1.8291 -2.6843 -0.8390
 4566SOL    HW225335   1.505   0.840  14.111 -1.1454  0.8113 -2.1342
 4567SOL     OW25336   0.820   0.863   7.824 -0.5178 -0.2344 -0.1322
 4567SOL    HW125337   0.866   0.947   7.828  0.7667 -0.9385 -0.2296
 4567SOL    HW225338   0.878   0.811   7.879 -1.3211  0.7094  1.6216
 4568SOL     OW25339   2.824   0.602   2.868  0.3109  0.4724 -0.3144
 4568SOL    HW125340   2.761   0.652   2.920  1.7191 -0.3489  2.2229
 4568SOL    HW225341   2.769   0.533   2.831  0.9443  0.9809 -2.1967
 4569SOL     OW25342   2.525   0.901   4.891 -0.0128 -0.0114 -0.0289
 4569SOL    HW125343   2.554   0.967   4.954 -2.1078  0.1100  0.8198
 4569SOL    HW225344   2.481   0.966   4.837 -0.1850 -0.8734 -0.9222
 4570SOL     OW25345   4.123   2.265   7.147 -0.0337  0.0109 -0.6168
 4570SOL    HW125346   4.080   2.181   7.163 -1.2474  0.3898 -1.8739
 4570SOL    HW225347   4.218   2.251   7.157 -0.1101 -1.9777 -2.5573
 4571SOL     OW25348   2.622   2.839   7.409  0.5605 -0.5781 -0.1553
 4571SOL    HW125349   2.670   2.775   7.357  0.7197  0.0866 -0.8288
 4571SOL    HW225350   2.683   2.910   7.430 -0.5476  0.2657  0.2067
 4572SOL     OW25351   0.637   1.808   9.513 -0.8189 -0.0912  0.2303
 4572SOL    HW125352   0.625   1.713   9.510  0.5624 -0.2773  0.4909
 4572SOL    HW225353   0.558   1.832   9.464  1.5183  1.4040 -2.8358
 4573SOL     OW25354   4.259   4.096   7.827  0.2521 -0.1915  0.3633
 4573SOL    HW125355   4.278   4.178   7.782  1.9351 -2.2844 -2.7246
 4573SOL    HW225356   4.301   4.032   7.770 -0.1676  0.0894 -0.2553
 4574SOL     OW25357   2.592   3.895   5.583  0.0885  0.3007  0.0668
 4574SOL    HW125358   2.564   3.916   5.493  2.5275 -2.0258 -1.2339
 4574SOL    HW225359   2.566   3.803   5.586  2.9727 -0.4823  0.3158
 4575SOL     OW25360   4.195   3.176   3.646  0.1388 -0.1236  0.0639
 4575SOL    HW125361   4.246   3.109   3.692  1.7883  1.9001  1.1414
 4575SOL    HW225362   4.106   3.170   3.683  0.5984 -2.4230  0.8513
 4576SOL     OW25363   1.924   0.006   9.944 -0.2553  0.7395  0.1652
 4576SOL    HW125364   1.984   0.074   9.913 -1.0583  0.5231 -1.8305
 4576SOL    HW225365   1.921   4.684   9.868  0.1290 -1.2086  1.6039
 4577SOL     OW25366   1.264   2.147  13.071  0.1419 -0.5043  0.0864
 4577SOL    HW125367   1.339   2.206  13.076 -1.3497  1.4631 -0.6749
 4577SOL    HW225368   1.292   2.104  12.990 -2.2151  1.5641 -1.8098
 4578SOL     OW25369   2.968   3.765   3.805  0.1729 -0.3458 -0.3756
 4578SOL    HW125370   2.933   3.839   3.756 -0.4184  1.1563  2.2917
 4578SOL    HW225371   2.965   3.795   3.896 -2.0066 -0.4364 -0.4179
 4579SOL     OW25372   1.413   3.755   4.162 -0.3469  0.2197  0.5928
 4579SOL    HW125373   1.458   3.671   4.153  2.6383  1.8100  0.6655
 4579SOL    HW225374   1.491   3.811   4.162 -1.0410  1.1616 -0.4242
 4580SOL     OW25375   4.274   2.713   8.426 -0.1231  0.1277 -0.0155
 4580SOL    HW125376   4.211   2.784   8.437 -0.2120  0.1354 -0.5393
 4580SOL    HW225377   4.288   2.691   8.518 -1.6178  0.3637  0.2727
 4581SOL     OW25378   0.819   4.457  10.957 -0.2166 -0.1757 -0.7150
 4581SOL    HW125379   0.776   4.372  10.954 -1.7763  0.5551  0.9267
 4581SOL    HW225380   0.912   4.450  10.979 -0.6510  0.5911  1.3763
 4582SOL     OW25381   1.061   2.654   6.635 -0.0385 -0.8851 -0.0369
 4582SOL    HW125382   1.036   2.594   6.565  1.6777 -1.2054 -0.3629
 4582SOL    HW225383   1.114   2.722   6.594 -0.3384  0.9790  2.6511
 4583SOL     OW25384   1.581   3.206   2.177  0.1833 -0.1295 -0.1194
 4583SOL    HW125385   1.564   3.156   2.098  0.7668 -1.3293  0.5037
 4583SOL    HW225386   1.525   3.165   2.243 -2.8159  3.6764 -0.3073
 4584SOL     OW25387   3.904   3.974   3.402  0.4525 -0.6919  0.1690
 4584SOL    HW125388   3.988   3.958   3.359  0.4859 -0.4254  0.1323
 4584SOL    HW225389   3.908   3.916   3.478  0.2570 -0.0688  0.6519
 4585SOL     OW25390   3.878   2.566   6.464 -0.1033  0.2721 -0.0122
 4585SOL    HW125391   3.938   2.538   6.534 -0.6472 -1.5197 -0.2612
 4585SOL    HW225392   3.936   2.575   6.388  0.2503  0.3103  0.2612
 4586SOL     OW25393   2.856   1.091   2.062  0.0764 -0.5202  0.2640
 4586SOL    HW125394   2.835   1.084   2.155 -1.3922  0.6448  0.0246
 4586SOL    HW225395   2.853   1.186   2.047  1.0695 -0.5631 -0.2036
 4587SOL     OW25396   3.785   3.143   9.218  0.1219 -0.2321 -0.5323
 4587SOL    HW125397   3.739   3.217   9.258  0.6802 -0.2216  0.1046
 4587SOL    HW225398   3.801   3.092   9.298  1.4962  0.4029 -0.4003
 4588SOL     OW25399   0.316   4.493   7.933 -0.2561 -1.0438 -0.0840
 4588SOL    HW125400   0.237   4.496   7.879 -0.0422 -0.1551 -0.3528
 4588SOL    HW225401   0.289   4.435   8.004 -0.4603 -2.2803 -1.1711
 4589SOL     OW25402   1.516   3.602   6.520 -0.1232  0.1207 -0.4008
 4589SOL    HW125403   1.491   3.694   6.525 -2.5245 -0.6433  1.8684
 4589SOL    HW225404   1.574   3.598   6.597 -0.0544  2.8643 -0.3215
 4590SOL     OW25405   3.273   2.027   2.768  0.3461 -0.8094 -0.0072
 4590SOL    HW125406   3.303   2.066   2.850  3.0156 -1.6817 -0.5702
 4590SOL    HW225407   3.321   2.079   2.703  1.2439 -0.6038  0.8320
 4591SOL     OW25408   1.262   4.643  15.031 -0.4647 -0.4360  0.1066
 4591SOL    HW125409   1.208   4.656  14.953 -0.9692  1.5050  0.7754
 4591SOL    HW225410   1.315   4.565  15.018  0.0113  0.0151 -0.6497
 4592SOL     OW25411   1.173   3.134   8.931 -0.4995 -0.3888  0.0434
 4592SOL    HW125412   1.187   3.050   8.974  1.1944 -0.0029  0.2816
 4592SOL    HW225413   1.136   3.192   8.998  0.4850 -0.0528  0.3101
 4593SOL     OW25414   3.317   2.760   4.147  0.2204 -0.0010 -0.2745
 4593SOL    HW125415   3.371   2.800   4.079  2.1499  0.8544  1.7863
 4593SOL    HW225416   3.379   2.757   4.219  0.0949 -0.3185 -0.1777
 4594SOL     OW25417   2.815   1.914   7.225 -0.4278 -0.1473  0.3023
 4594SOL    HW125418   2.823   1.825   7.260  2.5559 -0.1851 -0.4273
 4594SOL    HW225419   2.865   1.898   7.145 -0.0935  0.4973  0.3822
 4595SOL     OW25420   1.120   4.227   2.313 -0.3854  0.1386 -0.2154
 4595SOL    HW125421   1.142   4.269   2.230  0.6579  0.4877  0.2294
 4595SOL    HW225422   1.063   4.288   2.360 -2.4526 -1.6169 -0.4281
 4596SOL     OW25423   4.048   4.044  13.075 -0.5643  0.0704 -0.9069
 4596SOL    HW125424   4.049   4.139  13.071  2.2835  0.1383  1.1787
 4596SOL    HW225425   4.111   4.017  13.008  2.1591  0.2174  1.6092
 4597SOL     OW25426   2.964   4.548   3.583  0.4465 -0.4813 -0.8241
 4597SOL    HW125427   2.880   4.595   3.588  1.2288  0.6782  1.6482
 4597SOL    HW225428   3.021   4.606   3.533 -0.8134  2.8873  1.6001
 4598SOL     OW25429   3.761   3.263   0.254 -0.0254 -0.4426 -0.2689
 4598SOL    HW125430   3.676   3.297   0.225 -1.0398 -2.7109 -0.0147
 4598SOL    HW225431   3.810   3.292   0.178  0.0887 -0.8316 -0.3442
 4599SOL     OW25432   0.517   4.530   6.311 -0.0422  0.2416  0.8884
 4599SOL    HW125433   0.525   4.554   6.219  1.4256 -3.2879  0.1236
 4599SOL    HW225434   0.586   4.464   6.317 -0.6081 -0.3693  0.7322
 4600SOL     OW25435   1.360   1.443  14.135 -0.0813 -0.1000  0.6470
 4600SOL    HW125436   1.285   1.458  14.077  2.0939  0.3399 -2.0295
 4600SOL    HW225437   1.387   1.358  14.101 -0.5075 -1.3099  3.3466
 4601SOL     OW25438   4.226   1.790  11.439  0.1765  0.4154  0.0334
 4601SOL    HW125439   4.165   1.754  11.375  1.3631 -1.4858 -0.0135
 4601SOL    HW225440   4.192   1.760  11.523  0.6204  0.7787  0.3421
 4602SOL     OW25441   4.091   3.343   2.886 -0.0351 -0.4245  0.0044
 4602SOL    HW125442   4.058   3.418   2.935 -0.5502  1.3659 -3.0875
 4602SOL    HW225443   4.086   3.378   2.797  0.4152 -1.0864 -0.2845
 4603SOL     OW25444   4.613   1.263   7.972  0.1780 -0.3033  0.1800
 4603SOL    HW125445   4.615   1.174   7.938 -1.1323 -0.8569  1.5892
 4603SOL    HW225446   4.704   1.279   7.944 -0.8358  0.7075 -2.6128
 4604SOL     OW25447   2.959   0.995   4.538 -0.0621  0.5551  0.2427
 4604SOL    HW125448   3.049   0.966   4.553 -0.4869  0.1816  2.0484
 4604SOL    HW225449   2.917   0.966   4.619  1.4049 -2.1011  0.0566
 4605SOL     OW25450   3.140   0.682   7.553 -0.0483 -0.1685  0.1100
 4605SOL    HW125451   3.208   0.699   7.488  0.7319 -0.1390  0.9368
 4605SOL    HW225452   3.058   0.687   7.504 -0.1552 -0.8168  0.2227
 4606SOL     OW25453   2.412   3.617   2.026 -0.5197 -0.3557  0.0692
 4606SOL    HW125454   2.467   3.543   2.001  0.5894  0.7924 -0.8507
 4606SOL    HW225455   2.411   3.628   2.121  1.3099  0.3825  0.0012
 4607SOL     OW25456   1.339   0.445  14.409  0.2368  0.1571  0.0105
 4607SOL    HW125457   1.358   0.525  14.458  2.0435 -0.5490  0.4684
 4607SOL    HW225458   1.263   0.485  14.367  0.1772  1.0128  0.9272
 4608SOL     OW25459   4.374   4.540   5.545 -0.5231 -0.4764 -0.6164
 4608SOL    HW125460   4.390   4.507   5.457  2.1460  0.0873 -0.3303
 4608SOL    HW225461   4.363   4.634   5.531 -0.1957 -0.2398  0.7167
 4609SOL     OW25462   3.871   4.671   0.424 -0.2668 -0.6319  0.1795
 4609SOL    HW125463   3.953   4.626   0.403  0.8676  0.5322  2.1281
 4609SOL    HW225464   3.860   0.009   0.363  2.4581  0.4783  1.0417
 4610SOL     OW25465   2.407   2.628  13.732  0.4789 -0.7545 -0.5644
 4610SOL    HW125466   2.486   2.650  13.682  1.0478 -1.6592 -0.0588
 4610SOL    HW225467   2.444   2.561  13.790  0.3344 -1.0837 -0.8552
 4611SOL     OW25468   2.028   0.901   4.889  0.5070 -0.3067 -0.0692
 4611SOL    HW125469   1.955   0.848   4.922 -0.2131  0.2381 -0.7860
 4611SOL    HW225470   2.098   0.836   4.885  0.7053  0.0444 -2.3397
 4612SOL     OW25471   4.437   3.323  10.071  0.0888 -0.2400 -0.3818
 4612SOL    HW125472   4.368   3.348  10.132  0.6640  1.2732 -0.3318
 4612SOL    HW225473   4.472   3.412  10.058 -0.2197 -0.2042 -0.9548
 4613SOL     OW25474   0.318   3.768   0.723 -0.5932 -0.1322 -0.1250
 4613SOL    HW125475   0.317   3.689   0.777 -1.5629 -0.2416 -0.2979
 4613SOL    HW225476   0.336   3.835   0.788 -0.8240 -0.5462  0.3654
 4614SOL     OW25477   0.961   1.237  15.963 -0.2451 -0.5521 -0.1992
 4614SOL    HW125478   0.978   1.166  15.900  0.9618 -0.5227  0.0824
 4614SOL    HW225479   0.968   1.315  15.909  0.1365  1.6648  3.0394
 4615SOL     OW25480   3.692   2.518   7.550 -0.1732  0.4314  0.3284
 4615SOL    HW125481   3.752   2.569   7.605  1.1818 -1.2785  0.4136
 4615SOL    HW225482   3.744   2.512   7.470  0.3617 -2.5257  0.9004
 4616SOL     OW25483   4.459   3.453   1.317 -0.3256  0.2821  0.2368
 4616SOL    HW125484   4.411   3.464   1.235 -0.6740  3.0623  0.8364
 4616SOL    HW225485   4.462   3.357   1.317 -2.0704  0.2186 -1.8401
 4617SOL     OW25486   4.078   4.320  13.041 -0.2583  0.9466 -0.0006
 4617SOL    HW125487   4.024   4.332  12.963  1.0091  2.4147 -0.6675
 4617SOL    HW225488   4.129   4.401  13.033  0.2664  0.6738  0.6845
 4618SOL     OW25489   2.559   4.239   4.246 -0.2628  0.6286 -0.2343
 4618SOL    HW125490   2.532   4.248   4.155  2.9635 -0.7573 -1.3221
 4618SOL    HW225491   2.634   4.298   4.253  0.8319 -0.7049 -0.7565
 4619SOL     OW25492   2.425   0.459   9.133  0.2186  0.2063  0.0144
 4619SOL    HW125493   2.472   0.520   9.077  0.1516  0.8423  0.6591
 4619SOL    HW225494   2.367   0.517   9.182 -0.8714  0.7533 -1.8866
 4620SOL     OW25495   2.968   0.487   0.049 -0.1962  0.9892  0.2859
 4620SOL    HW125496   2.898   0.552   0.054 -2.0428 -0.8360 -2.0347
 4620SOL    HW225497   2.984   0.491  17.694  1.1446  1.5176  0.5326
 4621SOL     OW25498   1.115   4.141   7.991 -0.1116  0.3865  0.0588
 4621SOL    HW125499   1.169   4.179   7.922  0.0367 -1.4227 -0.8170
 4621SOL    HW225500   1.184   4.093   8.035  0.5625  1.6551  0.3721
 4622SOL     OW25501   3.124   0.293   4.956 -0.3632  0.3106  0.7150
 4622SOL    HW125502   3.074   0.353   4.902  1.7719  0.4578 -1.1064
 4622SOL    HW225503   3.167   0.247   4.884 -0.2277  0.2977  0.8035
 4623SOL     OW25504   1.897   2.334  11.979  0.1408 -0.3198  0.6772
 4623SOL    HW125505   1.923   2.267  12.042 -0.2155  2.2534  3.5728
 4623SOL    HW225506   1.963   2.333  11.910 -1.5826 -1.0338 -0.9583
 4624SOL     OW25507   2.605   2.034   7.011  0.1110  0.1543 -0.1398
 4624SOL    HW125508   2.530   1.978   7.028 -0.9453  1.4093 -0.6942
 4624SOL    HW225509   2.594   2.105   7.074 -1.0160 -0.3307  0.2100
 4625SOL     OW25510   4.689   1.044   2.666 -0.4693 -0.0262 -0.2373
 4625SOL    HW125511   4.621   1.097   2.624 -0.0060  3.1082  2.9931
 4625SOL    HW225512   4.650   0.998   2.741 -1.6133 -4.0223 -3.2536
 4626SOL     OW25513   3.130   4.419  13.946 -0.0347 -0.0966 -0.0467
 4626SOL    HW125514   3.198   4.355  13.964  1.0264  1.3673  1.1332
 4626SOL    HW225515   3.054   4.380  13.989  0.9024  0.0815  1.7468
 4627SOL     OW25516   2.344   3.287   2.948  0.4484 -0.0819 -0.4589
 4627SOL    HW125517   2.294   3.300   3.029  2.2176  0.3293  0.5640
 4627SOL    HW225518   2.422   3.246   2.986 -0.5231 -1.3890  0.1009
 4628SOL     OW25519   4.335   1.402   6.618  0.3270 -0.3843 -0.7153
 4628SOL    HW125520   4.319   1.407   6.524  1.4595  0.2712 -0.8745
 4628SOL    HW225521   4.275   1.468   6.654 -0.5025 -2.0935  1.0346
 4629SOL     OW25522   3.811   1.188   1.421  0.3180  0.3327  0.1474
 4629SOL    HW125523   3.845   1.141   1.346 -0.8277  0.1077 -0.2392
 4629SOL    HW225524   3.767   1.261   1.376 -0.3719  0.2932  0.7516
 4630SOL     OW25525   4.248   1.101   1.399 -0.1501  0.3778 -0.3628
 4630SOL    HW125526   4.269   1.156   1.324 -2.9085  1.1909 -0.5692
 4630SOL    HW225527   4.318   1.112   1.463  0.0224  0.2921 -0.5369
 4631SOL     OW25528   4.006   0.901   7.984  0.1280  0.0513  0.0533
 4631SOL    HW125529   4.025   0.866   7.897  0.6746 -0.3314  0.3226
 4631SOL    HW225530   4.072   0.865   8.043 -0.9664  0.4414  1.5145
 4632SOL     OW25531   2.936   3.374   7.047  0.1395 -0.0932 -0.1971
 4632SOL    HW125532   2.948   3.464   7.015 -2.3269  0.5037  0.5443
 4632SOL    HW225533   2.993   3.317   6.995  0.8619  1.5114 -1.1732
 4633SOL     OW25534   1.458   1.924   2.432  0.3154  0.6296  0.3464
 4633SOL    HW125535   1.393   1.948   2.366  0.5096  0.6046  0.1455
 4633SOL    HW225536   1.415   1.962   2.509 -0.3414 -1.0070  0.7841
 4634SOL     OW25537   1.829   0.945   9.027 -0.4361 -0.4524 -0.6405
 4634SOL    HW125538   1.769   1.013   8.998  1.6572  0.8818 -1.8087
 4634SOL    HW225539   1.840   0.894   8.946  0.4433 -2.3646  0.6796
 4635SOL     OW25540   3.864   2.244   3.920 -0.2040  0.4332  0.0626
 4635SOL    HW125541   3.905   2.273   4.002  0.0240 -0.9583  0.4530
 4635SOL    HW225542   3.776   2.279   3.930  0.0425  0.7503  1.0964
 4636SOL     OW25543   2.343   0.727   2.450  0.2880 -0.2390 -0.0128
 4636SOL    HW125544   2.414   0.691   2.398 -0.3942 -0.9768 -0.4363
 4636SOL    HW225545   2.338   0.655   2.513  0.8739 -1.1716 -1.0423
 4637SOL     OW25546   0.213   0.295   3.590  0.1283  0.3034  0.0539
 4637SOL    HW125547   0.279   0.228   3.609 -1.2617 -1.0612  0.1429
 4637SOL    HW225548   0.250   0.324   3.507  1.6336 -0.2018  0.5583
 4638SOL     OW25549   1.798   2.536   4.619 -0.1440 -1.1256 -0.3982
 4638SOL    HW125550   1.715   2.565   4.658  0.6205 -0.8143  0.9663
 4638SOL    HW225551   1.760   2.453   4.590 -0.7669 -0.4915 -1.4144
 4639SOL     OW25552   3.622   4.263   4.680  0.1124  0.0554 -0.7995
 4639SOL    HW125553   3.680   4.296   4.611  0.5832  2.2980  0.6661
 4639SOL    HW225554   3.534   4.269   4.645 -0.2913 -0.4695  0.1151
 4640SOL     OW25555   0.198   2.468  11.782  0.3667  0.2039  0.1948
 4640SOL    HW125556   0.228   2.410  11.712  0.1963 -0.6892  0.8629
 4640SOL    HW225557   0.123   2.509  11.739 -0.0275  0.0544  0.7488
 4641SOL     OW25558   2.773   4.658   2.574 -0.0653  0.1128 -0.6813
 4641SOL    HW125559   2.866   4.659   2.555  0.6310 -0.6381  2.5763
 4641SOL    HW225560   2.765   4.594   2.645 -0.3482  1.3943  0.4439
 4642SOL     OW25561   4.187   2.291  14.107  0.2058 -0.8166  0.2438
 4642SOL    HW125562   4.257   2.227  14.094 -0.7918 -1.7126 -0.7505
 4642SOL    HW225563   4.133   2.256  14.178 -0.3252 -0.1439  0.1694
 4643SOL     OW25564   1.038   0.111   1.276 -0.2708 -0.3787 -0.1871
 4643SOL    HW125565   1.094   0.045   1.316 -1.5326 -0.4702  1.4406
 4643SOL    HW225566   1.018   0.158   1.357  0.8381  0.0178 -0.1475
 4644SOL     OW25567   3.800   3.190   6.501  0.3945 -0.1926  0.3313
 4644SOL    HW125568   3.783   3.096   6.508  1.1375 -0.3008  0.6957
 4644SOL    HW225569   3.772   3.220   6.588 -0.3284 -3.3815  1.1880
 4645SOL     OW25570   1.893   2.336   7.441  0.3621  0.1184 -0.3451
 4645SOL    HW125571   1.927   2.330   7.351  2.5495 -3.0088  0.7058
 4645SOL    HW225572   1.808   2.294   7.427  0.1819  0.8700 -1.5321
 4646SOL     OW25573   1.986   3.504  16.659  0.2832 -0.0295  0.1389
 4646SOL    HW125574   1.997   3.593  16.625  2.9057 -0.2566  0.4284
 4646SOL    HW225575   2.061   3.473  16.608 -0.8797 -1.5625 -0.6279
 4647SOL     OW25576   3.749   3.743   6.843 -0.7097 -0.4370  0.5280
 4647SOL    HW125577   3.669   3.789   6.869  0.2247  1.2401  0.4081
 4647SOL    HW225578   3.799   3.743   6.924  1.0681  1.4709 -0.5774
 4648SOL     OW25579   0.600   1.376   9.982 -0.0542  0.2983 -0.9051
 4648SOL    HW125580   0.577   1.442  10.047 -0.9088  0.3267 -1.2297
 4648SOL    HW225581   0.685   1.338  10.005  0.1687 -0.0155 -2.2365
 4649SOL     OW25582   0.056   1.631   5.395 -0.1214 -0.2742  0.4521
 4649SOL    HW125583   0.022   1.708   5.441  1.6600 -0.1495  1.5420
 4649SOL    HW225584   0.019   1.561   5.450  0.1631 -0.9277 -0.1967
 4650SOL     OW25585   0.361   0.793   9.056 -0.3284 -0.0704  0.0202
 4650SOL    HW125586   0.298   0.837   9.000  0.8527 -2.5150 -3.1812
 4650SOL    HW225587   0.419   0.749   8.994  0.2732 -0.8168  1.1025
 4651SOL     OW25588   0.698   2.903   7.056  0.4619 -0.2040 -0.3586
 4651SOL    HW125589   0.653   2.982   7.084  1.6407  1.1747 -2.3383
 4651SOL    HW225590   0.671   2.846   7.128 -0.0220 -0.2208 -0.5587
 4652SOL     OW25591   4.163   1.768  10.024 -0.3603 -0.3052 -0.0752
 4652SOL    HW125592   4.221   1.842  10.041 -0.7456  0.3461 -1.6474
 4652SOL    HW225593   4.082   1.792  10.069 -1.8114 -0.6003 -2.5190
 4653SOL     OW25594   1.158   4.565   8.049  0.1913 -0.4507  0.1019
 4653SOL    HW125595   1.126   4.479   8.077 -1.0306 -0.0077  0.0866
 4653SOL    HW225596   1.191   4.599   8.132 -0.2884  1.9941 -0.7091
 4654SOL     OW25597   4.702   3.386   2.963 -0.3764  0.0072  0.2481
 4654SOL    HW125598   0.030   3.318   2.985 -1.9336 -0.3815  3.4782
 4654SOL    HW225599   4.649   3.393   3.042 -0.1453  0.6609  0.3503
 4655SOL     OW25600   1.979   4.151  16.151 -0.0524 -0.5729  0.7274
 4655SOL    HW125601   1.977   4.245  16.132 -0.0737 -0.7159  0.0237
 4655SOL    HW225602   1.884   4.141  16.154 -0.1100 -0.0102  0.6718
 4656SOL     OW25603   4.418   3.293  15.171 -0.2516 -0.0090 -0.1342
 4656SOL    HW125604   4.370   3.315  15.091  0.6321  0.0148 -0.6538
 4656SOL    HW225605   4.496   3.246  15.143  0.5048  0.4539  1.2021
 4657SOL     OW25606   0.761   4.619   5.578 -0.1510 -0.1219 -0.2629
 4657SOL    HW125607   0.676   4.657   5.603  0.3020 -1.8042  3.7683
 4657SOL    HW225608   0.772   4.554   5.647  1.6043  2.3262  1.7606
 4658SOL     OW25609   2.071   0.807  15.887  0.6936  0.1063 -0.0203
 4658SOL    HW125610   2.088   0.897  15.917 -1.1851 -0.1078  1.6887
 4658SOL    HW225611   2.143   0.756  15.924 -0.5742 -2.1119 -0.6621
 4659SOL     OW25612   2.907   3.345   4.574  0.3703 -0.1511 -0.8924
 4659SOL    HW125613   2.871   3.281   4.635 -0.1370  0.2506 -0.7737
 4659SOL    HW225614   2.903   3.298   4.490 -4.2708 -0.9697 -0.1971
 4660SOL     OW25615   3.430   2.770   4.397 -0.5009 -0.6797  0.5643
 4660SOL    HW125616   3.456   2.859   4.422  2.6837 -1.4892  0.0845
 4660SOL    HW225617   3.503   2.725   4.438 -0.1782 -1.5394 -0.9850
 4661SOL     OW25618   4.356   1.638   3.616  0.3567  0.3233  0.3521
 4661SOL    HW125619   4.398   1.590   3.545  1.2540  0.5982  0.6984
 4661SOL    HW225620   4.341   1.569   3.681  1.5890  0.2171  0.5261
 4662SOL     OW25621   1.209   0.176   9.933 -0.3084 -0.3016  0.5690
 4662SOL    HW125622   1.251   0.262   9.940  1.8285 -1.2030 -1.4854
 4662SOL    HW225623   1.154   0.188  10.011  0.6953  3.7203  0.6282
 4663SOL     OW25624   3.527   0.494   9.698  0.2026 -0.0491 -0.3987
 4663SOL    HW125625   3.438   0.521   9.674 -1.0078 -2.3405  1.4274
 4663SOL    HW225626   3.579   0.505   9.618  1.5789 -0.5016  0.4429
 4664SOL     OW25627   2.667   3.174  16.639 -0.3867 -0.4018  0.3264
 4664SOL    HW125628   2.579   3.199  16.611  0.6807  0.5223 -2.2108
 4664SOL    HW225629   2.655   3.104  16.702  0.5862 -1.7687 -1.0016
 4665SOL     OW25630   4.180   3.364   5.520  0.2323 -0.4152  0.7302
 4665SOL    HW125631   4.154   3.402   5.604 -2.6236  0.8930 -0.7480
 4665SOL    HW225632   4.100   3.324   5.485 -0.7357  1.2601  1.0100
 4666SOL     OW25633   2.150   2.420   5.720  0.3244  0.1682 -0.3061
 4666SOL    HW125634   2.234   2.408   5.676  0.8218 -1.4619  1.0623
 4666SOL    HW225635   2.090   2.440   5.648 -0.9779  1.2466  1.0572
 4667SOL     OW25636   2.152   4.106   8.489 -0.3000 -0.1103 -0.3754
 4667SOL    HW125637   2.188   4.129   8.575 -1.6360 -0.2461  0.2312
 4667SOL    HW225638   2.230   4.098   8.435  0.5282  0.6446  0.6995
 4668SOL     OW25639   1.144   2.638   9.049  0.2272 -0.2087  0.0782
 4668SOL    HW125640   1.087   2.654   8.973  0.5192 -0.8868 -0.2831
 4668SOL    HW225641   1.216   2.586   9.015  0.2733 -1.2212  1.7455
 4669SOL     OW25642   1.389   4.446   3.638  0.2468  0.7170 -0.2646
 4669SOL    HW125643   1.480   4.421   3.653  0.0074  0.0676  0.1089
 4669SOL    HW225644   1.358   4.487   3.719  1.1991  1.3185 -0.2203
 4670SOL     OW25645   3.677   3.253   1.987 -0.0154  0.1899  0.4274
 4670SOL    HW125646   3.719   3.321   1.935  0.4035  0.3704  1.0058
 4670SOL    HW225647   3.633   3.205   1.917  1.9727  1.8794 -1.9556
 4671SOL     OW25648   0.983   4.007  11.910  0.3556  0.3705  1.0148
 4671SOL    HW125649   1.045   3.986  11.980  1.4305 -1.2546 -0.4046
 4671SOL    HW225650   0.929   3.927  11.909  1.1564 -0.1317 -1.4532
 4672SOL     OW25651   0.282   2.652   0.497 -0.3765  0.9377  0.2892
 4672SOL    HW125652   0.350   2.663   0.431 -1.3545  1.7726 -0.5776
 4672SOL    HW225653   0.335   2.641   0.576 -0.7153  0.0658  0.3959
 4673SOL     OW25654   0.731   1.812  16.661  0.1881 -0.1708  0.3933
 4673SOL    HW125655   0.688   1.883  16.613  0.3987 -0.0471  0.3917
 4673SOL    HW225656   0.670   1.739  16.647  0.8498 -1.1954  2.7291
 4674SOL     OW25657   2.234   0.835  11.523  0.5167  0.0877  0.4190
 4674SOL    HW125658   2.212   0.795  11.439 -1.2359 -0.8471  1.3290
 4674SOL    HW225659   2.211   0.927  11.504 -0.5467 -0.2125  0.2508
 4675SOL     OW25660   3.195   3.123   5.934 -0.6610 -0.5597 -0.5997
 4675SOL    HW125661   3.150   3.040   5.921 -1.4420 -0.4863  1.7088
 4675SOL    HW225662   3.145   3.179   5.875 -1.7282 -0.7683  0.1010
 4676SOL     OW25663   2.343   4.161   4.408  0.2947  0.2949  0.4934
 4676SOL    HW125664   2.283   4.125   4.343 -1.3965 -2.1316  3.4318
 4676SOL    HW225665   2.410   4.201   4.351 -0.5114  1.1523  0.1422
 4677SOL     OW25666   2.088   2.578  16.158 -0.1177  0.0151  0.2973
 4677SOL    HW125667   2.180   2.591  16.180  0.5187 -0.6450 -1.9762
 4677SOL    HW225668   2.063   2.511  16.222  0.3316 -0.1273  0.3294
 4678SOL     OW25669   1.193   4.730   4.399  0.0789 -0.3898  0.5062
 4678SOL    HW125670   1.200   0.089   4.417  2.6260 -0.6388  0.8164
 4678SOL    HW225671   1.251   4.693   4.467  2.1965  0.4340 -0.8466
 4679SOL     OW25672   3.064   4.177  15.432  0.1507 -0.2822 -0.6796
 4679SOL    HW125673   3.012   4.175  15.352 -1.7847 -2.7303  0.6593
 4679SOL    HW225674   3.150   4.158  15.395 -0.7691 -1.5110 -2.1760
 4680SOL     OW25675   1.740   3.191   4.486  0.5540  0.2110 -0.0014
 4680SOL    HW125676   1.812   3.192   4.423  0.2246 -0.2376 -0.3837
 4680SOL    HW225677   1.759   3.272   4.532  0.6452  0.3678 -0.3165
 4681SOL     OW25678   3.363   3.488   2.278  0.0689  0.0140  0.3555
 4681SOL    HW125679   3.430   3.523   2.219  0.8558  0.5918  1.5749
 4681SOL    HW225680   3.279   3.500   2.234  1.9152  0.3755 -3.0591
 4682SOL     OW25681   1.179   1.403   8.104 -0.0639 -0.3453 -0.0333
 4682SOL    HW125682   1.090   1.437   8.092 -0.0987 -0.1480  0.7791
 4682SOL    HW225683   1.189   1.370   8.015  0.0916 -0.4973  0.0412
 4683SOL     OW25684   2.336   4.599   1.445 -0.0966  0.2144  0.0080
 4683SOL    HW125685   2.368   4.620   1.358  3.4963 -2.3833  0.7182
 4683SOL    HW225686   2.416   4.566   1.486 -1.3996  0.4234  2.7357
 4684SOL     OW25687   3.912   1.010   5.804  0.6315  0.2573  0.2453
 4684SOL    HW125688   3.965   0.940   5.766 -0.2644  0.5747 -1.6136
 4684SOL    HW225689   3.954   1.086   5.763 -0.8529  0.9403 -0.0138
 4685SOL     OW25690   3.866   0.726   5.246  0.2434 -0.3449 -0.0370
 4685SOL    HW125691   3.833   0.778   5.173  0.7207  0.1541  0.1066
 4685SOL    HW225692   3.791   0.669   5.265  0.1294  0.3434  1.5254
 4686SOL     OW25693   3.162   0.961   3.501  0.4553  0.3218  0.2052
 4686SOL    HW125694   3.223   0.889   3.519  0.5281  0.9022  2.3609
 4686SOL    HW225695   3.193   1.034   3.555 -0.7432  0.4776  0.6769
 4687SOL     OW25696   4.471   1.934  17.583 -0.2503  0.2350  0.4792
 4687SOL    HW125697   4.480   1.882  17.663  0.7764 -0.5267 -0.1311
 4687SOL    HW225698   4.378   1.955  17.580 -0.2681  0.4036  2.1571
 4688SOL     OW25699   0.635   0.965   6.793  0.0319 -0.1865 -0.0268
 4688SOL    HW125700   0.654   0.920   6.710  0.7739  0.8184 -0.4054
 4688SOL    HW225701   0.648   1.056   6.767  2.9461 -0.2000  1.4940
 4689SOL     OW25702   2.163   3.998  14.583  0.3820 -0.5670 -0.1159
 4689SOL    HW125703   2.097   3.957  14.639  1.6124 -0.5260  1.3780
 4689SOL    HW225704   2.115   4.069  14.542 -2.9527 -2.3987  0.6624
 4690SOL     OW25705   1.780   0.176   9.029  0.4146  0.1010 -0.1430
 4690SOL    HW125706   1.774   0.252   9.087  2.8954  1.0426 -1.1176
 4690SOL    HW225707   1.855   0.127   9.064  0.1184 -0.7370 -0.6826
 4691SOL     OW25708   1.412   4.320   5.858 -0.6017 -0.0076 -0.2777
 4691SOL    HW125709   1.324   4.358   5.851 -0.1750  1.2419  1.0738
 4691SOL    HW225710   1.462   4.390   5.816 -0.7928  1.1909  1.4891
 4692SOL     OW25711   0.923   2.839   3.589 -0.3269 -0.1006 -0.2482
 4692SOL    HW125712   0.839   2.881   3.601  0.3944  1.2277  0.1366
 4692SOL    HW225713   0.949   2.882   3.508  0.0717  2.4135  1.2123
 4693SOL     OW25714   0.723   1.483   4.155 -0.1610  0.3008  0.6873
 4693SOL    HW125715   0.808   1.442   4.168  1.0200  2.4318 -0.3499
 4693SOL    HW225716   0.744   1.577   4.151 -0.0752  0.2266 -0.7109
 4694SOL     OW25717   2.051   4.170   2.825 -0.5297 -0.1861 -0.2740
 4694SOL    HW125718   2.141   4.139   2.840  0.0706  2.7128  1.9848
 4694SOL    HW225719   2.056   4.259   2.791 -0.9381  0.3555  1.1030
 4695SOL     OW25720   2.751   0.560  16.146 -0.0322  0.1755 -0.5292
 4695SOL    HW125721   2.657   0.566  16.161 -0.2466 -2.3646 -0.8187
 4695SOL    HW225722   2.792   0.549  16.232 -1.9452  0.8503  0.4475
 4696SOL     OW25723   3.277   1.515   4.755 -0.4475 -0.1225  1.1262
 4696SOL    HW125724   3.294   1.433   4.708 -1.5652  0.4487 -0.2826
 4696SOL    HW225725   3.243   1.569   4.683  0.8439  0.0132  0.6093
 4697SOL     OW25726   1.519   4.094   6.220  1.0370  0.1966 -0.3494
 4697SOL    HW125727   1.433   4.109   6.257  1.3415 -3.4379  1.8094
 4697SOL    HW225728   1.527   4.174   6.168 -2.2939  2.4605  2.6488
 4698SOL     OW25729   0.948   1.938   8.730  0.2906 -0.5926 -0.2483
 4698SOL    HW125730   0.930   1.995   8.805 -0.4476  0.4549 -1.2220
 4698SOL    HW225731   0.923   1.988   8.653  1.4573  0.7051  0.2285
 4699SOL     OW25732   0.517   2.550   3.353 -0.1166  0.3834 -0.7113
 4699SOL    HW125733   0.512   2.462   3.392  0.1192  0.1807 -1.1423
 4699SOL    HW225734   0.556   2.600   3.425 -1.7125  1.1691 -0.3873
 4700SOL     OW25735   0.009   0.298   9.752  0.0754 -0.3996 -0.6647
 4700SOL    HW125736   4.692   0.369   9.789  1.7772 -0.2899  1.5414
 4700SOL    HW225737   4.719   0.301   9.660  1.9933 -0.4982 -1.1901
 4701SOL     OW25738   1.422   3.995   8.860  0.4694  0.3293  0.3685
 4701SOL    HW125739   1.438   4.034   8.946  1.0114  1.1266 -0.0922
 4701SOL    HW225740   1.474   3.915   8.856 -1.1246 -0.7544  1.0964
 4702SOL     OW25741   1.894   0.015   7.813  0.2770  0.0060  0.4802
 4702SOL    HW125742   1.901   4.723   7.722 -1.1318  1.7265 -0.1339
 4702SOL    HW225743   1.833   4.683   7.844  0.5674 -1.3007 -1.8029
 4703SOL     OW25744   3.685   1.687   3.834 -0.0282  0.0066  0.6223
 4703SOL    HW125745   3.629   1.761   3.811 -1.1798 -0.8211  0.7811
 4703SOL    HW225746   3.756   1.696   3.771 -0.2941  1.3078  0.5105
 4704SOL     OW25747   3.782   2.320   6.708  0.1925 -0.2807  0.0151
 4704SOL    HW125748   3.868   2.356   6.688  0.8996 -1.1637  1.4695
 4704SOL    HW225749   3.791   2.225   6.711  0.3153 -0.2830 -0.4818
 4705SOL     OW25750   3.083   1.101   9.401 -0.4574  0.0849  0.2999
 4705SOL    HW125751   3.037   1.042   9.461  0.0342 -1.4234 -0.7942
 4705SOL    HW225752   3.170   1.089   9.439 -0.8173  0.6388  1.2919
 4706SOL     OW25753   2.279   0.002   9.553  0.4849 -0.0760  0.5284
 4706SOL    HW125754   2.249   4.646   9.558  1.9404 -0.7246 -2.5558
 4706SOL    HW225755   2.370   4.720   9.578  0.3048  0.8393  1.8005
 4707SOL     OW25756   2.453   1.944   7.365  0.2620 -0.1269 -0.2417
 4707SOL    HW125757   2.442   1.876   7.298 -2.8965 -0.1521  0.3097
 4707SOL    HW225758   2.381   1.915   7.421 -0.2808  2.0235  0.1536
 4708SOL     OW25759   0.672   1.691   8.632 -0.2954  0.0285  0.2603
 4708SOL    HW125760   0.626   1.609   8.652 -1.4956  0.4789 -0.6535
 4708SOL    HW225761   0.727   1.665   8.558  0.9053  1.1154  0.7770
 4709SOL     OW25762   0.621   2.330   7.544 -0.1108  0.3264  0.1224
 4709SOL    HW125763   0.602   2.308   7.453 -0.3538  1.1358 -0.0192
 4709SOL    HW225764   0.673   2.252   7.566 -1.3850 -0.2625  1.0787
 4710SOL     OW25765   4.730   3.014   0.773 -0.3012 -0.0538 -0.2414
 4710SOL    HW125766   4.645   3.014   0.816  0.2233 -1.8256  0.7991
 4710SOL    HW225767   4.731   3.094   0.721 -0.5623 -0.5217 -0.9737
 4711SOL     OW25768   3.964   4.578   5.260  0.0892  0.0213  0.0015
 4711SOL    HW125769   3.873   4.556   5.240 -0.0077 -0.9180  1.4249
 4711SOL    HW225770   3.958   4.554   5.353  2.4045  2.7540  0.8389
 4712SOL     OW25771   3.455   2.853  14.143 -0.5643 -0.4340 -0.0861
 4712SOL    HW125772   3.409   2.788  14.091  0.0280 -0.5685 -0.4342
 4712SOL    HW225773   3.399   2.860  14.221  1.5400  1.9889  1.2101
 4713SOL     OW25774   1.322   2.483  14.241  0.3935  0.0431  0.3838
 4713SOL    HW125775   1.273   2.412  14.283  1.9701 -0.3342  1.5589
 4713SOL    HW225776   1.250   2.545  14.225  1.5426  1.3803  0.3322
 4714SOL     OW25777   4.307   4.154   8.086 -0.2496  0.0398  0.6494
 4714SOL    HW125778   4.310   4.115   7.999  1.3006  0.8504  0.3440
 4714SOL    HW225779   4.213   4.143   8.105 -0.7457  0.9023 -1.2815
 4715SOL     OW25780   3.908   4.558  13.270 -0.2252 -0.4271 -0.1467
 4715SOL    HW125781   3.968   4.499  13.316  0.6570  0.3761 -0.2589
 4715SOL    HW225782   3.839   4.493  13.257  0.4170 -1.2886  0.6896
 4716SOL     OW25783   2.306   2.561   8.274  0.4652  0.6789 -0.0962
 4716SOL    HW125784   2.239   2.628   8.257 -1.2165 -1.0096 -0.1280
 4716SOL    HW225785   2.297   2.544   8.368 -0.3014  0.8545 -0.1345
 4717SOL     OW25786   3.774   1.597   9.146  0.1151 -0.4623 -1.0675
 4717SOL    HW125787   3.773   1.533   9.217 -0.0522  0.8887  0.1237
 4717SOL    HW225788   3.769   1.683   9.186 -1.7641 -0.4104 -1.4446
 4718SOL     OW25789   3.048   1.897   2.670 -0.4379 -0.2121  0.1629
 4718SOL    HW125790   2.999   1.883   2.751 -0.5746  3.1533  0.6444
 4718SOL    HW225791   3.130   1.925   2.710  0.4749  0.8972 -2.4960
 4719SOL     OW25792   0.991   3.950   6.563  0.4153 -0.1749  0.5460
 4719SOL    HW125793   0.987   4.030   6.510 -1.9335 -1.1425 -0.6952
 4719SOL    HW225794   1.019   3.982   6.649 -0.8911  0.9428  0.5506
 4720SOL     OW25795   2.109   0.670   2.321 -0.3593  0.0246  0.5398
 4720SOL    HW125796   2.115   0.757   2.282 -0.7167  0.3294  1.1623
 4720SOL    HW225797   2.176   0.687   2.388 -0.6002 -0.7736  0.9811
 4721SOL     OW25798   3.439   1.768  17.119 -0.2983  0.5815 -0.3790
 4721SOL    HW125799   3.500   1.730  17.056  2.2611 -1.6552  3.4601
 4721SOL    HW225800   3.383   1.817  17.059 -1.0571 -0.9368 -0.9268
 4722SOL     OW25801   0.793   2.757   3.986  0.2424  0.0761  0.0851
 4722SOL    HW125802   0.757   2.827   4.041 -2.8663 -2.2438  1.0481
 4722SOL    HW225803   0.879   2.749   4.026  0.4333 -1.9799 -0.7747
 4723SOL     OW25804   3.510   3.309   7.867 -0.0035 -0.0899 -0.2667
 4723SOL    HW125805   3.503   3.282   7.959  0.8078  0.1395 -0.1364
 4723SOL    HW225806   3.439   3.372   7.858 -0.1167 -0.1049  0.5304
 4724SOL     OW25807   4.616   3.734   3.251  0.2395 -0.2442 -0.2666
 4724SOL    HW125808   4.605   3.828   3.263 -2.8700 -0.5375 -1.0536
 4724SOL    HW225809   4.654   3.729   3.164  0.0161 -0.4544 -0.3502
 4725SOL     OW25810   2.841   0.771   7.738 -0.5107  0.4495 -0.0481
 4725SOL    HW125811   2.917   0.823   7.764 -0.5288 -0.5006  1.8909
 4725SOL    HW225812   2.843   0.699   7.801 -0.1953 -0.1148 -0.7045
 4726SOL     OW25813   4.072   4.292  13.791 -0.5579 -0.5363 -0.6276
 4726SOL    HW125814   4.068   4.210  13.840  0.5282  0.2879  0.8580
 4726SOL    HW225815   4.052   4.359  13.856 -0.4066 -3.1614  2.1115
 4727SOL     OW25816   0.420   4.378  15.172  0.2200 -0.1110  0.3622
 4727SOL    HW125817   0.331   4.364  15.141  0.6762  1.3172 -1.6658
 4727SOL    HW225818   0.458   4.436  15.105  0.3488 -0.9202 -0.2717
 4728SOL     OW25819   2.669   4.214   6.068 -0.0205 -0.0223 -0.0205
 4728SOL    HW125820   2.602   4.232   6.002 -2.0872 -0.4415  1.9784
 4728SOL    HW225821   2.745   4.228   6.011 -0.6160  2.1989 -0.2737
 4729SOL     OW25822   2.717   1.287   1.499 -0.1769  0.1396 -0.3302
 4729SOL    HW125823   2.789   1.232   1.529  2.6567  3.0535 -1.8772
 4729SOL    HW225824   2.759   1.373   1.490  0.5573 -0.2018 -0.1597
 4730SOL     OW25825   4.219   3.595   6.356 -0.2661  0.3359  0.1386
 4730SOL    HW125826   4.126   3.609   6.372 -0.4702 -0.3306 -0.5097
 4730SOL    HW225827   4.220   3.521   6.415 -0.2435  0.8205  0.7489
 4731SOL     OW25828   2.913   4.362   6.573 -0.0131  0.8139 -0.4226
 4731SOL    HW125829   2.838   4.314   6.607 -0.3733  1.4373 -0.3427
 4731SOL    HW225830   2.952   4.288   6.527  0.7895  1.1249 -0.2326
 4732SOL     OW25831   3.417   0.177   4.852 -1.1690  0.5476  0.3515
 4732SOL    HW125832   3.371   0.196   4.770  1.4591 -0.8639 -1.4537
 4732SOL    HW225833   3.497   0.227   4.840 -1.1365 -0.2802 -2.9131
 4733SOL     OW25834   1.043   4.704   7.011 -0.2492  0.0894 -0.4768
 4733SOL    HW125835   1.019   4.626   6.960  0.7415 -0.8983  0.5598
 4733SOL    HW225836   1.016   4.670   7.096 -3.1313  1.3230 -0.8811
 4734SOL     OW25837   2.637   4.325   4.622 -0.0920  0.1341 -0.1732
 4734SOL    HW125838   2.651   4.417   4.645  2.9762 -0.0805 -1.2238
 4734SOL    HW225839   2.564   4.338   4.562  0.9829  1.5144 -1.1771
 4735SOL     OW25840   3.894   3.843   8.252  0.0842 -0.3544 -0.1342
 4735SOL    HW125841   3.858   3.776   8.311 -1.8930 -1.0453 -2.1268
 4735SOL    HW225842   3.818   3.875   8.204  0.5667  1.9716  0.6468
 4736SOL     OW25843   4.563   2.621   4.647 -0.3531  0.2010  0.0905
 4736SOL    HW125844   4.525   2.690   4.700  1.3409  1.0980  0.1427
 4736SOL    HW225845   4.578   2.674   4.568  0.4149  1.4073  1.0466
 4737SOL     OW25846   3.312   0.958  17.081  0.1826  0.1493  0.2843
 4737SOL    HW125847   3.229   0.969  17.129  0.2120 -2.4509  0.9447
 4737SOL    HW225848   3.300   1.024  17.013  0.2884 -0.7470 -0.5897
 4738SOL     OW25849   0.842   4.639   3.908  0.2363 -0.2582 -0.0325
 4738SOL    HW125850   0.876   4.724   3.933  1.3625 -0.5246 -0.6700
 4738SOL    HW225851   0.838   4.584   3.986 -1.6066  0.1850  0.1999
 4739SOL     OW25852   4.595   3.594   6.640  0.0414 -0.2091 -0.0443
 4739SOL    HW125853   4.587   3.605   6.545  0.1402 -0.3687 -0.0724
 4739SOL    HW225854   4.653   3.667   6.662  0.1118  0.0217 -0.9821
 4740SOL     OW25855   2.784   2.263  14.341  0.3764 -0.4331  0.7667
 4740SOL    HW125856   2.713   2.199  14.332  0.1887 -0.4020  2.1153
 4740SOL    HW225857   2.773   2.314  14.260  0.9057 -0.8689  0.4177
 4741SOL     OW25858   0.369   3.017  14.561  0.0703  0.2002 -0.1003
 4741SOL    HW125859   0.375   2.922  14.563 -1.9777  0.1155  1.9219
 4741SOL    HW225860   0.404   3.028  14.649  2.0940 -2.4308 -0.5931
 4742SOL     OW25861   3.237   1.097   5.315 -0.2023 -0.4039 -0.4253
 4742SOL    HW125862   3.330   1.112   5.302 -0.4315  1.5835  0.2867
 4742SOL    HW225863   3.230   1.054   5.400 -0.2562  1.0435  0.2949
 4743SOL     OW25864   1.994   0.389   5.146  0.2998  0.2724  0.1257
 4743SOL    HW125865   1.942   0.314   5.176 -1.9138  1.6209 -0.3354
 4743SOL    HW225866   1.996   0.441   5.227 -0.4078  3.5567 -1.9982
 4744SOL     OW25867   4.461   2.219   4.333  0.4572  0.0143  0.7705
 4744SOL    HW125868   4.551   2.203   4.304 -0.1781  0.5259 -1.5172
 4744SOL    HW225869   4.486   2.298   4.381 -0.2262  0.5835  0.1954
 4745SOL     OW25870   3.781   3.408  17.734 -0.4427  0.3090  0.2214
 4745SOL    HW125871   3.793   3.359  17.653  0.3210  1.1875 -0.1991
 4745SOL    HW225872   3.718   3.477  17.716 -0.4926 -0.3309 -2.0081
 4746SOL     OW25873   2.559   0.556   4.593  0.7713  0.4411 -0.1342
 4746SOL    HW125874   2.610   0.594   4.522 -0.9148  2.8222 -0.0590
 4746SOL    HW225875   2.624   0.504   4.642 -0.4109  0.0318  1.0157
 4747SOL     OW25876   4.636   3.999  11.987 -0.3383 -0.1540 -0.3774
 4747SOL    HW125877   4.667   3.980  11.899  0.3216  0.5555 -0.2992
 4747SOL    HW225878   4.586   3.924  12.020 -1.0464  1.0896  1.3741
 4748SOL     OW25879   3.981   3.484   9.578  0.3491  0.4920  0.0066
 4748SOL    HW125880   4.046   3.417   9.556  1.3140  1.4124  0.0498
 4748SOL    HW225881   4.031   3.564   9.560  0.2733 -0.0643 -2.6490
 4749SOL     OW25882   0.865   4.247  10.661  0.2821  0.3070  0.4911
 4749SOL    HW125883   0.951   4.289  10.656  0.1884  0.4617  0.1924
 4749SOL    HW225884   0.852   4.215  10.572  0.2692  1.9052 -0.0877
 4750SOL     OW25885   3.895   3.546   4.752 -0.1385 -0.0288  0.1055
 4750SOL    HW125886   3.975   3.575   4.796  1.3852 -3.0764 -0.6330
 4750SOL    HW225887   3.845   3.624   4.779  0.7683  0.1988  1.1398
 4751SOL     OW25888   0.413   3.601  12.478 -0.2734 -0.0984 -0.1086
 4751SOL    HW125889   0.360   3.664  12.527  2.1962  1.8544  0.0616
 4751SOL    HW225890   0.495   3.598  12.527 -0.7922 -0.4169  0.7579
 4752SOL     OW25891   1.744   3.744   2.300 -0.1154 -0.0041  0.2505
 4752SOL    HW125892   1.704   3.665   2.337  0.8841 -0.8635 -0.5047
 4752SOL    HW225893   1.832   3.727   2.333  0.6299 -2.3705 -3.0254
 4753SOL     OW25894   1.307   2.064   2.624  0.7018 -0.6109 -0.2679
 4753SOL    HW125895   1.325   2.157   2.635 -0.8133 -0.5587  1.6887
 4753SOL    HW225896   1.214   2.064   2.601  0.8100 -0.3897 -0.7055
 4754SOL     OW25897   0.298   2.279  10.399 -0.5135 -0.4116 -0.0894
 4754SOL    HW125898   0.369   2.292  10.462 -0.8002  0.1972  0.1031
 4754SOL    HW225899   0.233   2.349  10.409  0.1425  0.0975  0.6115
 4755SOL     OW25900   4.316   3.295   5.874 -0.8508  0.5044 -0.2441
 4755SOL    HW125901   4.303   3.366   5.936 -3.6021  0.5274 -0.8498
 4755SOL    HW225902   4.378   3.243   5.927 -1.0238  0.0335 -0.5004
 4756SOL     OW25903   0.607   3.660   8.736 -0.2529  0.5271  0.2100
 4756SOL    HW125904   0.568   3.694   8.816 -0.1484 -1.6461  1.1812
 4756SOL    HW225905   0.623   3.731   8.674 -0.6727  0.2295 -0.2461
 4757SOL     OW25906   0.917   2.006  11.095  0.2440  0.6061  0.4435
 4757SOL    HW125907   0.881   1.918  11.088  0.1878  0.4567  2.7772
 4757SOL    HW225908   0.948   2.025  11.006  1.0101  4.9278  1.6375
 4758SOL     OW25909   3.336   2.493  12.226  0.1437  0.6185 -0.5124
 4758SOL    HW125910   3.405   2.555  12.249  1.7384 -0.7101 -1.7195
 4758SOL    HW225911   3.327   2.502  12.131  1.7914  0.6786 -0.6663
 4759SOL     OW25912   1.081   4.261   3.932 -0.3387  0.5631  0.6278
 4759SOL    HW125913   1.058   4.177   3.970  1.7403 -1.0716 -1.7356
 4759SOL    HW225914   1.167   4.289   3.964  0.4311  0.6582 -1.4731
 4760SOL     OW25915   4.038   1.669   8.271  0.2322  0.1461 -0.5809
 4760SOL    HW125916   4.011   1.710   8.353  2.0400  0.9065 -0.3836
 4760SOL    HW225917   4.060   1.748   8.222  0.4429  1.4516  1.6102
 4761SOL     OW25918   2.903   3.910  11.410  0.5146 -0.3212 -0.1129
 4761SOL    HW125919   2.934   3.883  11.497 -1.0183 -0.0258  0.5124
 4761SOL    HW225920   2.896   4.003  11.429 -0.9580 -0.7325  1.3515
 4762SOL     OW25921   4.601   3.131   9.217  0.2071 -0.4755 -0.2163
 4762SOL    HW125922   4.689   3.147   9.251  0.0574  0.1493 -0.1182
 4762SOL    HW225923   4.600   3.036   9.214  0.0764 -0.5096  0.9116
 4763SOL     OW25924   3.093   3.417   2.876  0.1636 -0.5933 -0.4618
 4763SOL    HW125925   3.181   3.433   2.843  0.9678 -1.8825  1.0668
 4763SOL    HW225926   3.119   3.399   2.967 -1.5743 -3.2358 -0.4984
 4764SOL     OW25927   1.422   4.021   5.561  0.4205  0.0793 -0.2514
 4764SOL    HW125928   1.515   4.027   5.583  0.6539  0.5906 -1.3808
 4764SOL    HW225929   1.412   4.100   5.509  0.0416  0.9054  1.0818
 4765SOL     OW25930   3.337   2.053   3.310  0.0515  0.4194  0.0962
 4765SOL    HW125931   3.323   2.137   3.353 -1.2129  0.3490 -0.1918
 4765SOL    HW225932   3.247   2.023   3.317  0.0942 -0.0029 -1.0652
 4766SOL     OW25933   0.924   2.925  12.803 -0.8750 -0.1525  0.5072
 4766SOL    HW125934   0.864   2.918  12.729 -0.6466 -1.3123  0.4417
 4766SOL    HW225935   0.991   2.976  12.758 -0.8022 -1.9401 -1.3943
 4767SOL     OW25936   2.091   3.833   5.024  0.0546 -0.0918 -0.1861
 4767SOL    HW125937   2.082   3.765   5.091 -1.3205  2.0229  1.8231
 4767SOL    HW225938   2.131   3.907   5.071  0.2932  1.0767 -2.2257
 4768SOL     OW25939   3.152   2.310   4.110  0.2596  0.7519  0.0657
 4768SOL    HW125940   3.104   2.232   4.136 -1.1445  1.3777 -0.6762
 4768SOL    HW225941   3.077   2.369   4.098 -0.3557  0.4639  2.5105
 4769SOL     OW25942   1.640   1.076   4.478  0.1198 -0.6567 -0.0806
 4769SOL    HW125943   1.577   1.025   4.427  0.7515  1.5507 -3.0686
 4769SOL    HW225944   1.720   1.077   4.425 -0.6876  1.8850 -1.2373
 4770SOL     OW25945   4.383   1.129  13.946 -0.5035  0.1770 -0.2475
 4770SOL    HW125946   4.327   1.151  13.871 -0.5129  0.9351 -0.0157
 4770SOL    HW225947   4.379   1.216  13.985  1.9061  0.5948 -0.8890
 4771SOL     OW25948   0.448   1.914  12.286  0.2576 -0.0150  0.4515
 4771SOL    HW125949   0.370   1.915  12.230 -0.4042  0.5577  1.3828
 4771SOL    HW225950   0.487   1.829  12.264 -0.1211 -0.0327 -0.1582
 4772SOL     OW25951   4.079   1.374   2.444  0.0238 -0.3411 -0.0149
 4772SOL    HW125952   4.148   1.434   2.416 -1.5461  0.7077 -1.6128
 4772SOL    HW225953   4.075   1.373   2.540 -0.5109  2.6769 -0.0096
 4773SOL     OW25954   3.821   4.541   7.078  1.1535  0.2670  0.1134
 4773SOL    HW125955   3.891   4.547   7.014  0.7488 -0.7542 -0.4216
 4773SOL    HW225956   3.755   4.595   7.034  1.0973 -0.7688 -1.0564
 4774SOL     OW25957   4.555   2.429   4.863 -0.0682 -0.2840  0.6902
 4774SOL    HW125958   4.466   2.421   4.828 -0.2795  0.7045  1.0026
 4774SOL    HW225959   4.599   2.452   4.782 -0.9308 -0.2425  0.2280
 4775SOL     OW25960   2.073   3.793  16.026  0.0729  0.5716 -0.1354
 4775SOL    HW125961   2.089   3.754  15.940  1.2192  0.0137  0.3412
 4775SOL    HW225962   2.067   3.883  15.994  0.6325  0.4612 -0.5334
 4776SOL     OW25963   0.892   3.225   7.961  0.5038 -0.0011  0.3416
 4776SOL    HW125964   0.980   3.255   7.983 -0.1438  1.8221  0.4509
 4776SOL    HW225965   0.872   3.290   7.894  0.9238  0.4483  0.6534
 4777SOL     OW25966   4.390   0.534  17.087  0.2509  0.2060 -0.6721
 4777SOL    HW125967   4.413   0.624  17.110  0.5762 -0.2427  0.7519
 4777SOL    HW225968   4.413   0.476  17.160 -0.9150  1.2067  0.4801
 4778SOL     OW25969   4.590   1.244   6.096 -0.2445  0.5326  0.8302
 4778SOL    HW125970   4.602   1.339   6.096  1.5137  0.3038  1.3962
 4778SOL    HW225971   4.669   1.208   6.136  0.7298  2.3844  0.6069
 4779SOL     OW25972   1.008   2.800   2.453 -0.4754  0.3787  0.2944
 4779SOL    HW125973   1.069   2.776   2.523 -1.2360  1.8486  1.4321
 4779SOL    HW225974   1.040   2.730   2.395 -1.3452  0.6690 -0.5329
 4780SOL     OW25975   1.147   4.020   6.187 -0.0727 -0.0683 -0.4275
 4780SOL    HW125976   1.171   4.015   6.094  2.9566  1.2873  0.2801
 4780SOL    HW225977   1.103   3.938   6.209  0.2822 -0.3007 -0.5859
 4781SOL     OW25978   0.636   3.477   8.353  0.0507  0.2298  0.4073
 4781SOL    HW125979   0.588   3.394   8.348  0.9073 -0.2407  0.1024
 4781SOL    HW225980   0.716   3.461   8.402  1.4293  0.0063 -1.8937
 4782SOL     OW25981   3.527   2.528  14.000  0.0692 -0.0729 -0.5316
 4782SOL    HW125982   3.435   2.543  14.021  1.0078  2.9455  1.4050
 4782SOL    HW225983   3.539   2.618  13.969 -0.1514 -0.1263 -0.7726
 4783SOL     OW25984   0.250   3.828   5.440  0.1994 -0.0957  0.7186
 4783SOL    HW125985   0.235   3.740   5.405 -0.0977 -0.5489  1.9905
 4783SOL    HW225986   0.266   3.817   5.534  3.5908  1.0415  0.2697
 4784SOL     OW25987   0.359   3.421   4.365 -0.3651  0.0073  0.8293
 4784SOL    HW125988   0.399   3.505   4.344 -0.2311 -0.2780 -0.0518
 4784SOL    HW225989   0.387   3.361   4.296 -0.8037 -0.9972  1.5140
 4785SOL     OW25990   0.807   3.010   2.011 -0.1648  0.0068  0.0027
 4785SOL    HW125991   0.794   3.055   2.095 -1.6640 -1.1110  0.3677
 4785SOL    HW225992   0.813   2.917   2.030 -0.2566 -0.3457 -1.7447
 4786SOL     OW25993   3.246   3.577  16.794  0.3801  0.0391 -0.6571
 4786SOL    HW125994   3.157   3.557  16.822 -0.1838  1.2940 -1.5292
 4786SOL    HW225995   3.270   3.508  16.731 -0.5259 -0.1954 -0.7436
 4787SOL     OW25996   1.040   1.112   7.585 -0.2354 -0.1486  0.0349
 4787SOL    HW125997   1.133   1.095   7.577 -0.2521 -0.3161  0.1940
 4787SOL    HW225998   1.020   1.081   7.674  2.6966  1.4702  1.2369
 4788SOL     OW25999   1.641   0.883   5.295  0.6789  0.8797  0.2425
 4788SOL    HW126000   1.566   0.907   5.349  0.6779 -2.1018  1.5784
 4788SOL    HW226001   1.604   0.803   5.256 -0.7343  1.1150  1.1108
 4789SOL     OW26002   1.668   3.367   4.886  0.1987  0.1389 -0.5911
 4789SOL    HW126003   1.654   3.321   4.969  0.7352  0.7320 -0.1688
 4789SOL    HW226004   1.701   3.302   4.825 -0.8464  0.3185 -1.3398
 4790SOL     OW26005   1.724   0.073   3.278  0.1690  0.3162  0.1023
 4790SOL    HW126006   1.787   0.000   3.283 -0.6665 -0.4473 -0.5134
 4790SOL    HW226007   1.698   0.080   3.370  0.6607 -2.2641  0.4599
 4791SOL     OW26008   4.146   1.801   5.927  0.5108  0.1311  0.3819
 4791SOL    HW126009   4.052   1.794   5.945  0.7548 -0.6243  1.3639
 4791SOL    HW226010   4.178   1.841   6.007  0.1504  2.2503 -0.5338
 4792SOL     OW26011   1.119   2.461  15.228 -0.5343  0.5418  0.2637
 4792SOL    HW126012   1.085   2.532  15.283 -0.7710 -0.6677  1.6869
 4792SOL    HW226013   1.170   2.409  15.290  2.1775  2.2581 -0.5306
 4793SOL     OW26014   4.017   4.576  15.052  0.2670 -0.1474  0.7326
 4793SOL    HW126015   4.062   4.660  15.043 -0.5923  0.1421 -0.8084
 4793SOL    HW226016   3.929   4.601  15.024  1.2897  0.9416 -1.5371
 4794SOL     OW26017   0.296   3.659   6.444 -0.5808 -0.2258 -0.2569
 4794SOL    HW126018   0.216   3.694   6.483 -0.6457 -1.2302  0.5089
 4794SOL    HW226019   0.270   3.571   6.418 -0.6746 -0.2809  0.0252
 4795SOL     OW26020   3.213   1.791  15.237 -0.7725  0.3665  0.1104
 4795SOL    HW126021   3.168   1.847  15.173 -0.2228 -0.9075 -1.3834
 4795SOL    HW226022   3.176   1.836  15.313 -1.1350  0.7464 -0.2897
 4796SOL     OW26023   0.496   3.656   4.222 -0.1442 -0.0628  0.1014
 4796SOL    HW126024   0.421   3.606   4.189 -0.1702  0.6074 -0.8651
 4796SOL    HW226025   0.448   3.738   4.234  0.0839  0.0458  0.2522
 4797SOL     OW26026   2.423   4.708   8.776 -0.9560 -0.4831 -0.6022
 4797SOL    HW126027   2.410   4.728   8.683  0.9960  3.1763 -0.1119
 4797SOL    HW226028   2.482   0.047   8.791  0.0209 -1.2970 -0.4450
 4798SOL     OW26029   1.653   3.490   2.357 -0.1189 -0.2525  0.2139
 4798SOL    HW126030   1.559   3.496   2.373  0.0376 -2.6535  2.0889
 4798SOL    HW226031   1.680   3.436   2.432 -2.3727  0.8448  1.8141
 4799SOL     OW26032   3.543   2.275  13.883 -0.5624 -0.0593  0.2770
 4799SOL    HW126033   3.582   2.225  13.955 -2.0434 -1.6584 -0.0373
 4799SOL    HW226034   3.552   2.360  13.926  1.3120 -0.3433  0.4576
 4800SOL     OW26035   0.126   1.904   7.766 -0.5089 -0.5311 -0.0605
 4800SOL    HW126036   0.097   1.980   7.715 -3.1855 -1.1470  0.5281
 4800SOL    HW226037   0.195   1.934   7.825 -0.3433 -0.4689 -0.2862
 4801SOL     OW26038   3.999   2.610   4.010  0.4659 -0.1895  0.0749
 4801SOL    HW126039   3.950   2.692   4.009 -0.8261 -0.9559  0.5391
 4801SOL    HW226040   4.084   2.630   4.047 -0.1091  0.1845  1.1832
 4802SOL     OW26041   0.869   4.417   9.966 -0.0176  0.0708  0.2104
 4802SOL    HW126042   0.936   4.388  10.029  0.9989  1.0374 -0.4293
 4802SOL    HW226043   0.842   4.494  10.015 -2.5303 -0.1179 -0.8898
 4803SOL     OW26044   0.731   3.735   2.600 -0.4272 -0.6592  0.2146
 4803SOL    HW126045   0.818   3.753   2.565  0.3860 -2.6370  1.2472
 4803SOL    HW226046   0.728   3.780   2.685 -1.0348 -0.3517  0.0307
 4804SOL     OW26047   1.462   1.160   2.558  0.0172 -0.5235 -0.4557
 4804SOL    HW126048   1.514   1.210   2.496  1.0008  0.8542  1.4728
 4804SOL    HW226049   1.533   1.127   2.612 -2.0206 -1.2192  1.8221
 4805SOL     OW26050   3.194   2.632   6.532 -0.1497 -0.1008  0.2139
 4805SOL    HW126051   3.152   2.584   6.460  1.7413  0.5041 -1.3059
 4805SOL    HW226052   3.143   2.606   6.608  1.7806  1.9406  2.1843
 4806SOL     OW26053   1.636   3.881   3.306  0.2911  0.1215 -0.2875
 4806SOL    HW126054   1.556   3.917   3.345 -0.7264 -2.1090 -0.3600
 4806SOL    HW226055   1.643   3.788   3.329  0.4232  0.3107  0.4569
 4807SOL     OW26056   4.045   2.951   6.397  0.0787  0.1504 -0.2217
 4807SOL    HW126057   4.098   2.873   6.414 -1.7823 -0.6508  1.9217
 4807SOL    HW226058   4.118   3.011   6.389 -0.2058  0.4882 -0.2714
 4808SOL     OW26059   4.483   3.171   8.606 -0.5497 -0.2929 -0.1664
 4808SOL    HW126060   4.577   3.186   8.598 -0.9107  1.1271 -1.7409
 4808SOL    HW226061   4.477   3.148   8.699  0.0091  2.7339  0.6231
 4809SOL     OW26062   4.102   2.535  15.968  0.4302  0.3385 -0.0781
 4809SOL    HW126063   4.027   2.515  15.912 -0.0276  2.0234 -0.0515
 4809SOL    HW226064   4.066   2.562  16.053 -0.7362  1.3135 -0.8921
 4810SOL     OW26065   2.803   2.388  14.107  0.2741 -0.1407 -0.0620
 4810SOL    HW126066   2.740   2.394  14.035 -0.2959 -0.2820  0.4279
 4810SOL    HW226067   2.892   2.404  14.076 -0.2578  0.5232 -1.2628
 4811SOL     OW26068   2.577   1.563   3.443 -0.3124  0.1758  0.2914
 4811SOL    HW126069   2.495   1.514   3.447  1.0135 -2.1374 -0.9863
 4811SOL    HW226070   2.556   1.644   3.490 -3.4278 -0.9109  0.7097
 4812SOL     OW26071   4.381   0.793  16.232  0.4355 -0.1515 -0.0081
 4812SOL    HW126072   4.396   0.699  16.224 -0.0016 -0.4507  2.9564
 4812SOL    HW226073   4.471   0.825  16.233  0.9774 -1.6512 -1.9220
 4813SOL     OW26074   1.763   2.802  12.446 -0.4717  0.3705 -0.5182
 4813SOL    HW126075   1.748   2.894  12.425 -0.7412  1.0315  2.5108
 4813SOL    HW226076   1.859   2.805  12.447 -0.3957 -2.3731  0.7990
 4814SOL     OW26077   3.010   1.682   4.059 -0.1782 -0.2476 -0.2981
 4814SOL    HW126078   3.067   1.723   3.994  0.7721 -2.9162 -1.1250
 4814SOL    HW226079   3.014   1.589   4.036  2.2879  0.0357 -0.9365
 4815SOL     OW26080   0.410   2.571   4.135 -0.0555  0.5693 -0.4060
 4815SOL    HW126081   0.353   2.625   4.190  0.6187  1.7893 -0.9269
 4815SOL    HW226082   0.383   2.597   4.047 -0.8274  2.1851  0.3109
 4816SOL     OW26083   2.263   0.745   0.981  0.2804  0.0335 -0.5092
 4816SOL    HW126084   2.324   0.725   1.052  1.6754  1.6219 -1.2743
 4816SOL    HW226085   2.277   0.839   0.969 -1.4340  0.3667  0.1416
 4817SOL     OW26086   3.931   4.212   8.406 -0.4671  0.1129  0.3712
 4817SOL    HW126087   3.936   4.178   8.316  0.9695  0.0127  0.4767
 4817SOL    HW226088   3.984   4.141   8.443  1.2929 -0.1438 -2.6139
 4818SOL     OW26089   2.303   1.392  10.606 -0.4120  0.2174  0.4215
 4818SOL    HW126090   2.324   1.336  10.531 -1.6702 -0.8771  0.8897
 4818SOL    HW226091   2.209   1.407  10.594 -0.4800  0.3922  1.1686
 4819SOL     OW26092   4.361   0.210   3.540 -0.1008  0.1274  0.1043
 4819SOL    HW126093   4.328   0.274   3.603 -1.6337  0.6790 -1.2661
 4819SOL    HW226094   4.321   0.237   3.457  0.1767 -0.3959 -0.1958
 4820SOL     OW26095   0.663   3.412   5.736 -0.2969 -0.3304  0.2860
 4820SOL    HW126096   0.722   3.487   5.737 -0.9174  0.1342  1.5177
 4820SOL    HW226097   0.685   3.376   5.822  3.9975  0.9015 -0.2997
 4821SOL     OW26098   3.293   3.680   8.396  0.5885 -0.2700  0.0478
 4821SOL    HW126099   3.199   3.662   8.397  0.1378  2.1842  0.4139
 4821SOL    HW226100   3.301   3.729   8.477 -0.8058 -1.9512  1.2246
 4822SOL     OW26101   4.331   0.509   8.421 -0.3754  0.4781 -0.1261
 4822SOL    HW126102   4.368   0.573   8.481 -1.4670  0.9703  0.0119
 4822SOL    HW226103   4.414   0.466   8.399 -0.9164 -0.1004 -1.0669
 4823SOL     OW26104   1.849   4.481   9.560 -0.2548 -0.2956  0.1290
 4823SOL    HW126105   1.775   4.420   9.558 -1.0065  0.5991  0.6596
 4823SOL    HW226106   1.873   4.482   9.468 -0.4861 -0.6312  0.0631
 4824SOL     OW26107   4.536   1.035   8.294 -0.2214  0.0737 -0.2118
 4824SOL    HW126108   4.627   1.010   8.275  0.1424  0.7566  0.6414
 4824SOL    HW226109   4.490   0.954   8.273  0.8475  0.3711 -3.7328
 4825SOL     OW26110   3.596   0.383  12.190  0.1210  0.2972 -0.2718
 4825SOL    HW126111   3.508   0.408  12.217  1.0876  3.2956  0.1545
 4825SOL    HW226112   3.649   0.417  12.263  2.4179 -2.0020 -0.8589
 4826SOL     OW26113   2.282   1.425   7.691  0.2846 -0.1878  0.2173
 4826SOL    HW126114   2.364   1.473   7.683 -0.1063  0.2813 -0.9921
 4826SOL    HW226115   2.269   1.383   7.606  0.7439  3.8245 -1.8394
 4827SOL     OW26116   3.551   0.894   4.819  0.1654 -0.5825 -0.1570
 4827SOL    HW126117   3.507   0.828   4.765  1.4413 -0.4586 -1.3460
 4827SOL    HW226118   3.536   0.872   4.910  2.5120  2.4810  0.9590
 4828SOL     OW26119   4.513   4.014  17.289 -0.2949 -0.0668 -0.0710
 4828SOL    HW126120   4.595   4.053  17.258  0.0731 -0.1394  0.8006
 4828SOL    HW226121   4.455   4.048  17.221 -0.2800  0.3754  0.1311
 4829SOL     OW26122   4.699   4.673   5.745  0.0526 -0.2146 -0.3620
 4829SOL    HW126123   0.014   4.717   5.677  2.2805 -2.1652  0.0134
 4829SOL    HW226124   4.671   0.014   5.796 -0.5162 -0.8582  0.2886
 4830SOL     OW26125   4.654   0.473   4.792 -0.1827  0.3027 -0.5194
 4830SOL    HW126126   4.638   0.565   4.770  0.1118  0.5381  0.2741
 4830SOL    HW226127   4.730   0.464   4.849  0.5607 -0.8086 -1.6815
 4831SOL     OW26128   0.616   1.985  12.843 -0.4049 -0.3993 -0.0867
 4831SOL    HW126129   0.606   1.894  12.814 -2.9580 -0.2755  0.3644
 4831SOL    HW226130   0.704   1.988  12.879  0.2418 -1.4544 -1.5797
 4832SOL     OW26131   0.307   0.454  14.635 -0.1367 -0.4184 -0.1171
 4832SOL    HW126132   0.235   0.510  14.664  1.2026  1.8051 -1.0573
 4832SOL    HW226133   0.263   0.401  14.569 -0.0877  1.3381 -1.5697
 4833SOL     OW26134   2.414   4.491  16.258 -0.1386 -0.5805 -0.0034
 4833SOL    HW126135   2.439   4.454  16.343  0.0977 -0.5880 -0.0757
 4833SOL    HW226136   2.504   4.495  16.225 -0.6518 -2.0547 -1.5427
 4834SOL     OW26137   0.727   0.449   8.651  0.2290 -0.1353 -0.3805
 4834SOL    HW126138   0.806   0.398   8.634  1.0878  0.5682  1.4887
 4834SOL    HW226139   0.705   0.477   8.562 -1.3366  0.0491  0.0567
 4835SOL     OW26140   1.569   3.642  15.478  0.1481  0.4489  0.4185
 4835SOL    HW126141   1.545   3.585  15.404  0.7506 -0.5216  0.9666
 4835SOL    HW226142   1.656   3.669  15.450  0.6786 -1.3585  0.3222
 4836SOL     OW26143   3.022   4.582   5.920  0.0606 -0.6386  0.0841
 4836SOL    HW126144   3.009   4.651   5.985  1.3414 -0.9282  0.6559
 4836SOL    HW226145   3.077   4.621   5.852 -0.0675 -0.6806 -0.0439
 4837SOL     OW26146   0.588   1.095   4.832 -0.1135 -0.5303 -0.0882
 4837SOL    HW126147   0.504   1.123   4.796 -0.4407  1.2225  2.0644
 4837SOL    HW226148   0.620   1.020   4.781  0.9079 -0.1978  0.0628
 4838SOL     OW26149   1.298   4.184   2.648 -0.4761 -0.4879 -0.1512
 4838SOL    HW126150   1.370   4.176   2.710  0.2730 -1.0436 -1.0943
 4838SOL    HW226151   1.229   4.124   2.678 -1.0270  0.8661  1.2678
 4839SOL     OW26152   1.708   3.127   8.624 -0.2289  0.0351 -0.2366
 4839SOL    HW126153   1.624   3.160   8.591 -0.5938 -0.0787  0.5833
 4839SOL    HW226154   1.696   3.046   8.576 -1.2156 -0.2643  0.5131
 4840SOL     OW26155   2.105   0.435   9.082 -0.0751 -0.2284  0.4934
 4840SOL    HW126156   2.185   0.394   9.050 -0.1022 -0.9062  1.2765
 4840SOL    HW226157   2.060   0.471   9.006  0.1346 -0.2131  0.3795
 4841SOL     OW26158   1.603   1.108   4.764  0.7127 -0.1949  0.1529
 4841SOL    HW126159   1.615   1.113   4.669 -0.8431  2.5707  0.0927
 4841SOL    HW226160   1.521   1.156   4.771 -1.4493 -3.6162 -1.7608
 4842SOL     OW26161   1.106   3.327   5.455 -0.7760  0.3995 -0.3710
 4842SOL    HW126162   1.012   3.314   5.466 -1.2106  2.7254 -1.3410
 4842SOL    HW226163   1.110   3.406   5.402  2.5920 -0.2782 -1.1359
 4843SOL     OW26164   2.926   2.948   9.181  0.1084  0.1993 -0.2729
 4843SOL    HW126165   2.944   2.860   9.148 -2.6756 -1.8871  3.8776
 4843SOL    HW226166   2.985   2.960   9.256  0.0907 -0.8315 -0.0850
 4844SOL     OW26167   0.750   1.395   3.890 -0.6761  0.4418  0.5422
 4844SOL    HW126168   0.840   1.367   3.870 -0.1499  1.3522  1.6680
 4844SOL    HW226169   0.759   1.427   3.980  0.2061 -0.6152  0.8336
 4845SOL     OW26170   3.632   4.676  16.232  0.4019  0.0142  0.3170
 4845SOL    HW126171   3.644   4.733  16.157 -1.9515 -1.0774 -0.9007
 4845SOL    HW226172   3.548   4.636  16.208 -0.1007  0.5059  1.2356
 4846SOL     OW26173   3.625   2.427  14.257  0.2221  0.2060 -0.6464
 4846SOL    HW126174   3.584   2.487  14.320  1.1420 -1.0473  1.1488
 4846SOL    HW226175   3.598   2.462  14.172  2.3856  1.7024 -0.6973
 4847SOL     OW26176   4.104   0.699   1.838 -0.2982  0.1458  0.4782
 4847SOL    HW126177   4.066   0.613   1.855 -0.6143  0.4486  1.2878
 4847SOL    HW226178   4.145   0.708   1.924 -3.4678  0.5532  1.9400
 4848SOL     OW26179   1.267   0.243   1.686 -0.5858 -0.1869 -0.1687
 4848SOL    HW126180   1.228   0.213   1.768  3.2264  0.3372  1.8360
 4848SOL    HW226181   1.309   0.321   1.722  0.9370 -1.0652 -0.0806
 4849SOL     OW26182   0.886   1.959  14.611 -0.4822 -0.2798  0.3339
 4849SOL    HW126183   0.860   1.912  14.690  1.1905  0.1035  1.1116
 4849SOL    HW226184   0.801   1.969  14.568  1.6627  0.9087 -3.6512
 4850SOL     OW26185   3.644   2.665   4.919 -0.2720 -0.2253 -0.0640
 4850SOL    HW126186   3.651   2.571   4.900  0.6325 -0.0041 -0.8135
 4850SOL    HW226187   3.709   2.669   4.988 -0.2585  3.4857 -0.3007
 4851SOL     OW26188   1.131   2.872   4.493  0.1170 -0.1039  0.2774
 4851SOL    HW126189   1.178   2.953   4.478  0.4379  0.0046  1.8535
 4851SOL    HW226190   1.184   2.800   4.458  0.7144  0.3858  0.1755
 4852SOL     OW26191   2.960   4.163   9.017 -0.1849 -0.1882  0.9290
 4852SOL    HW126192   2.971   4.118   8.934 -0.8317  0.8796  0.2685
 4852SOL    HW226193   2.885   4.116   9.054 -0.6199  0.9663  1.5136
 4853SOL     OW26194   4.466   0.349  10.000 -0.6273 -0.4596  0.5938
 4853SOL    HW126195   4.392   0.296   9.970 -0.1752 -1.0561  0.5252
 4853SOL    HW226196   4.488   0.398   9.921 -2.5787 -0.4674  0.0466
 4854SOL     OW26197   1.664   1.834   3.342  0.1725 -0.6602 -0.2658
 4854SOL    HW126198   1.661   1.795   3.255  1.2715 -1.1812 -0.0689
 4854SOL    HW226199   1.744   1.794   3.378  0.9663  2.3173  1.3443
 4855SOL     OW26200   4.488   2.412   2.654 -0.2109 -0.2922  0.6244
 4855SOL    HW126201   4.563   2.462   2.687  2.0631 -2.4983 -1.3057
 4855SOL    HW226202   4.507   2.419   2.561  0.7842  1.8260  0.9918
 4856SOL     OW26203   2.850   0.474   5.268  0.3879 -0.2500  0.0070
 4856SOL    HW126204   2.934   0.459   5.225 -0.3190 -1.4325 -0.9680
 4856SOL    HW226205   2.812   0.517   5.191 -0.2107  0.6303  0.7892
 4857SOL     OW26206   1.692   1.190   8.952 -0.0092  0.1368  0.5373
 4857SOL    HW126207   1.602   1.204   8.983  0.6150  0.8761  2.0005
 4857SOL    HW226208   1.696   1.203   8.857 -0.7250  2.5661  0.8277
 4858SOL     OW26209   1.355   0.988   3.985  0.0628 -0.0464  0.6394
 4858SOL    HW126210   1.374   0.973   3.892  0.8664  1.8650  0.4871
 4858SOL    HW226211   1.337   0.902   4.022 -1.0118 -0.7546 -1.5186
 4859SOL     OW26212   2.769   2.219  13.716 -0.3376 -0.6240  0.0213
 4859SOL    HW126213   2.678   2.205  13.691 -0.1048 -0.8625 -0.6940
 4859SOL    HW226214   2.816   2.158  13.659  2.5095  1.0205  0.5773
 4860SOL     OW26215   4.428   3.725   9.180  0.0714 -0.0828  0.8336
 4860SOL    HW126216   4.523   3.726   9.188  0.2123 -1.6038 -0.8129
 4860SOL    HW226217   4.409   3.798   9.121 -1.1551  0.8812  2.4017
 4861SOL     OW26218   0.461   0.658   2.341 -0.3395 -0.3446 -0.1544
 4861SOL    HW126219   0.481   0.631   2.431  0.7965  1.4735  0.1243
 4861SOL    HW226220   0.494   0.748   2.335  1.1464 -0.7731  1.5839
 4862SOL     OW26221   0.105   3.097  15.260 -0.2116  0.0526  0.4544
 4862SOL    HW126222   0.016   3.072  15.283 -0.6061  2.0303  1.0963
 4862SOL    HW226223   0.155   3.047  15.324 -0.9776  0.0039  1.0120
 4863SOL     OW26224   3.181   3.386   8.484 -0.4509  0.1140  0.1863
 4863SOL    HW126225   3.234   3.364   8.408  1.3066 -1.4814  1.8661
 4863SOL    HW226226   3.097   3.342   8.468  0.1290 -0.9133 -0.0329
 4864SOL     OW26227   3.317   2.471   8.128 -0.1311  0.3848  0.3474
 4864SOL    HW126228   3.376   2.456   8.054  0.7142 -1.8382  1.4841
 4864SOL    HW226229   3.356   2.407   8.187 -0.7271  0.0006  0.3300
 4865SOL     OW26230   3.250   3.518   5.346  0.2499 -0.4633 -0.0905
 4865SOL    HW126231   3.298   3.600   5.335 -1.5344  0.6328  0.1949
 4865SOL    HW226232   3.294   3.461   5.283 -1.9558  0.9399 -2.9123
 4866SOL     OW26233   4.210   1.180   2.115  0.2041  0.5706 -0.0723
 4866SOL    HW126234   4.265   1.115   2.071 -1.9900 -0.3995 -1.3696
 4866SOL    HW226235   4.190   1.142   2.201 -0.7948 -0.7187 -0.8694
 4867SOL     OW26236   2.330   0.647   0.116  0.0134  0.1081 -0.2492
 4867SOL    HW126237   2.253   0.631   0.062  0.7795  1.0268 -1.6044
 4867SOL    HW226238   2.343   0.558   0.148 -1.0860  0.2971  0.7050
 4868SOL     OW26239   2.519   1.637   7.425  0.1863 -0.1357  0.4481
 4868SOL    HW126240   2.595   1.667   7.473  2.5194 -0.1546 -3.2489
 4868SOL    HW226241   2.464   1.668   7.497 -0.3762  1.8833 -0.8636
 4869SOL     OW26242   0.471   2.595   9.409  0.5924  0.2248  0.8816
 4869SOL    HW126243   0.441   2.565   9.323  2.5502  1.0094 -0.0819
 4869SOL    HW226244   0.501   2.512   9.446  0.0647 -0.3978 -0.0709
 4870SOL     OW26245   0.811   0.430   9.000 -0.3503 -0.1216 -0.9095
 4870SOL    HW126246   0.841   0.507   8.951  2.3823 -1.9054 -2.0072
 4870SOL    HW226247   0.878   0.432   9.068 -0.9556 -0.9377 -0.2899
 4871SOL     OW26248   3.224   0.099   3.104  0.1753 -0.2007  0.6884
 4871SOL    HW126249   3.305   0.068   3.144  0.8743 -0.7136 -1.1714
 4871SOL    HW226250   3.246   0.187   3.075  1.1319  0.5810  3.7435
 4872SOL     OW26251   0.396   0.849  10.216 -0.4589  0.1510  0.2107
 4872SOL    HW126252   0.456   0.913  10.179  0.4733  0.0364  1.5454
 4872SOL    HW226253   0.316   0.901  10.226 -0.6249  0.1743 -1.2023
 4873SOL     OW26254   0.759   4.485   8.816 -0.4832  0.1088  0.1491
 4873SOL    HW126255   0.685   4.523   8.864  0.2363  1.7882 -0.0533
 4873SOL    HW226256   0.835   4.527   8.856  0.5085 -2.0908  0.5802
 4874SOL     OW26257   4.272   1.653   4.507 -0.0642 -0.3228  0.3437
 4874SOL    HW126258   4.317   1.702   4.438 -1.7603  1.7350  0.6876
 4874SOL    HW226259   4.219   1.584   4.466 -0.2604  0.4396 -0.6900
 4875SOL     OW26260   2.546   1.281   5.715 -0.2750  0.3718 -0.3757
 4875SOL    HW126261   2.457   1.289   5.752  0.1515 -0.2359  0.7695
 4875SOL    HW226262   2.529   1.286   5.621  3.6287  0.2840 -1.0682
 4876SOL     OW26263   0.858   4.365   3.780 -0.0266  0.4611  0.6848
 4876SOL    HW126264   0.879   4.455   3.804  0.0545 -0.3241  3.5757
 4876SOL    HW226265   0.915   4.318   3.841  1.9468  3.1524  0.8908
 4877SOL     OW26266   0.871   1.076   3.589 -0.3395  0.2078 -0.2267
 4877SOL    HW126267   0.956   1.071   3.633  0.2389 -0.0989 -1.3816
 4877SOL    HW226268   0.821   1.051   3.667 -0.6334 -0.6647 -0.6958
 4878SOL     OW26269   0.254   4.699   8.890 -0.4889  0.6317 -0.3692
 4878SOL    HW126270   0.213   0.002   8.812  3.5249  0.9318 -2.3266
 4878SOL    HW226271   0.278   0.043   8.938 -0.5661 -0.1264  0.8890
 4879SOL     OW26272   3.906   2.591   4.463  0.1594  0.4134 -0.3876
 4879SOL    HW126273   3.893   2.539   4.384  0.6117 -0.7965  0.3474
 4879SOL    HW226274   3.828   2.570   4.514  1.0607 -0.7872  0.4826
 4880SOL     OW26275   2.936   2.178  11.119  0.5212 -0.3843 -0.2294
 4880SOL    HW126276   3.012   2.190  11.063  0.1751  2.4970 -0.1007
 4880SOL    HW226277   2.974   2.187  11.207 -1.2312 -2.4593  0.7221
 4881SOL     OW26278   4.466   0.148   3.847  0.2681  0.3935  0.7452
 4881SOL    HW126279   4.372   0.157   3.859  0.3770  0.0692  1.8233
 4881SOL    HW226280   4.480   0.054   3.860  0.0520  0.2737  0.1381
 4882SOL     OW26281   1.640   1.731   2.139 -0.0640  0.1504  0.2429
 4882SOL    HW126282   1.551   1.765   2.133  0.4059  1.3315 -0.0003
 4882SOL    HW226283   1.640   1.713   2.233 -0.9839 -0.5101  0.1096
 4883SOL     OW26284   4.275   0.756   4.034 -0.1458 -0.6540  0.0732
 4883SOL    HW126285   4.227   0.749   4.117 -1.9213  2.7695 -0.6665
 4883SOL    HW226286   4.236   0.836   3.998  2.0785  0.3164 -0.1743
 4884SOL     OW26287   4.439   3.118   9.695 -0.0168 -0.6511  0.1005
 4884SOL    HW126288   4.513   3.179   9.698 -2.0422  1.6743  2.1895
 4884SOL    HW226289   4.367   3.151   9.748 -0.0664  2.2898 -1.8197
 4885SOL     OW26290   2.425   3.394   6.511 -0.3889 -0.6989  1.0739
 4885SOL    HW126291   2.431   3.465   6.447 -0.1756 -2.0518 -0.4178
 4885SOL    HW226292   2.350   3.426   6.561 -1.0937 -0.0770 -0.3831
 4886SOL     OW26293   4.389   1.455   9.187  0.4288 -0.2995  0.7601
 4886SOL    HW126294   4.370   1.455   9.281  1.4562 -0.4495  0.9638
 4886SOL    HW226295   4.368   1.542   9.155  1.7028 -0.3934 -0.3180
 4887SOL     OW26296   0.280   0.978  17.397  0.7116 -0.0940 -0.3418
 4887SOL    HW126297   0.340   0.957  17.326  0.9028 -2.2941  0.4560
 4887SOL    HW226298   0.328   0.949  17.474 -0.6179 -0.7913  0.2389
 4888SOL     OW26299   3.926   4.522   6.419 -0.0924 -0.3163 -0.2713
 4888SOL    HW126300   3.860   4.586   6.448 -0.1914  0.8047 -3.0008
 4888SOL    HW226301   3.956   4.487   6.503 -0.8560  1.0463  0.5803
 4889SOL     OW26302   1.678   3.739   9.731 -0.4508 -0.0022  0.6565
 4889SOL    HW126303   1.676   3.646   9.751 -0.9160 -0.2206 -0.4231
 4889SOL    HW226304   1.651   3.758   9.820 -1.2234  1.3606  0.1454
 4890SOL     OW26305   4.010   0.170   5.841  0.0104  0.2536  0.4867
 4890SOL    HW126306   4.046   0.160   5.929 -1.8584 -2.4974  0.9361
 4890SOL    HW226307   3.916   0.169   5.859 -0.1767  1.6727 -0.3865
 4891SOL     OW26308   4.437   0.473  17.667  0.6929  0.0341  0.5211
 4891SOL    HW126309   4.464   0.490  17.577 -0.2072  2.0904  0.6486
 4891SOL    HW226310   4.436   0.377  17.668 -1.9627  0.0701  1.8541
 4892SOL     OW26311   2.318   2.827   1.865  0.2164 -0.2294 -0.2020
 4892SOL    HW126312   2.339   2.911   1.907  1.3072  0.0880 -1.3839
 4892SOL    HW226313   2.321   2.761   1.934  2.6094 -1.2099 -1.2403
 4893SOL     OW26314   1.552   3.442   1.696 -0.5898  1.2409 -0.1465
 4893SOL    HW126315   1.637   3.461   1.736 -0.4182 -0.6250  0.3799
 4893SOL    HW226316   1.488   3.483   1.755 -0.5470  0.3596  0.5056
 4894SOL     OW26317   2.339   2.220   6.189  0.6148 -0.4085 -0.5280
 4894SOL    HW126318   2.348   2.136   6.144  1.0552 -2.4102  3.3390
 4894SOL    HW226319   2.244   2.222   6.200  0.6054 -0.6063 -0.5784
 4895SOL     OW26320   4.402   3.407  11.878 -0.0408 -0.1402  0.5229
 4895SOL    HW126321   4.356   3.326  11.854 -1.0809  0.4574  0.5051
 4895SOL    HW226322   4.488   3.368  11.895  0.8602  0.6654 -2.0614
 4896SOL     OW26323   4.050   1.245   5.703  0.0489 -0.3816 -0.2580
 4896SOL    HW126324   4.128   1.272   5.654  0.7763  0.6995  1.4927
 4896SOL    HW226325   4.005   1.324   5.733  2.8799  1.7917 -1.6549
 4897SOL     OW26326   0.415   2.002   5.998  0.0530 -0.2168  0.0965
 4897SOL    HW126327   0.350   2.043   6.055  0.7105  1.5982 -0.4787
 4897SOL    HW226328   0.369   1.997   5.914  0.0218  1.4535  0.0171
 4898SOL     OW26329   2.477   3.491  16.595  0.2523  0.0246 -0.0337
 4898SOL    HW126330   2.469   3.571  16.544 -1.7692 -0.9153 -1.1866
 4898SOL    HW226331   2.386   3.465  16.580 -0.3116  1.7824  0.3793
 4899SOL     OW26332   4.709   3.798  10.529  0.2910  0.4837  0.2610
 4899SOL    HW126333   4.660   3.879  10.545 -0.7968 -0.3136  0.9287
 4899SOL    HW226334   4.641   3.732  10.518 -0.7823  1.5804  0.2619
 4900SOL     OW26335   2.780   1.757   4.568 -0.2596 -1.2302  0.3858
 4900SOL    HW126336   2.858   1.725   4.614  0.7043 -1.4777 -1.4517
 4900SOL    HW226337   2.785   1.719   4.480  0.2472  0.0626 -0.1359
 4901SOL     OW26338   3.893   1.912  12.265  0.0274 -0.0125 -0.1482
 4901SOL    HW126339   3.839   1.857  12.321  1.0418 -2.6289 -1.7357
 4901SOL    HW226340   3.853   1.904  12.178  1.4762 -2.0883 -0.6209
 4902SOL     OW26341   3.893   1.845   0.838 -0.3340 -0.0798 -0.8816
 4902SOL    HW126342   3.927   1.933   0.855  0.6600 -0.3641 -1.3790
 4902SOL    HW226343   3.827   1.850   0.906  0.5813  2.6422 -0.1728
 4903SOL     OW26344   0.876   3.051  11.782  0.1593 -0.0869 -0.0653
 4903SOL    HW126345   0.809   3.025  11.846 -0.6140  3.2012  0.4965
 4903SOL    HW226346   0.917   2.967  11.765  0.5529  0.0515  0.1947
 4904SOL     OW26347   3.347   1.135   1.141 -0.6354 -0.2752 -0.3597
 4904SOL    HW126348   3.315   1.046   1.128 -1.8489  0.0906  0.1456
 4904SOL    HW226349   3.427   1.117   1.190 -0.8230 -0.7467 -0.2257
 4905SOL     OW26350   0.296   2.064   2.748  0.0938 -0.0248 -0.0761
 4905SOL    HW126351   0.220   2.089   2.696  0.3454  0.7012 -0.0868
 4905SOL    HW226352   0.371   2.100   2.701 -1.5626 -1.2326 -3.6588
 4906SOL     OW26353   0.490   4.326   8.709 -0.1372  0.7114 -0.2814
 4906SOL    HW126354   0.414   4.300   8.656 -0.0479  0.4636 -0.2843
 4906SOL    HW226355   0.530   4.251   8.751 -2.3644  1.1877  2.7829
 4907SOL     OW26356   1.586   3.193   7.119 -0.3544 -0.4501 -0.0171
 4907SOL    HW126357   1.635   3.245   7.183  0.3765 -0.1756 -0.7925
 4907SOL    HW226358   1.509   3.247   7.101  0.6086  0.4008 -1.5667
 4908SOL     OW26359   0.631   2.026  14.496 -0.0769  0.2032 -0.0088
 4908SOL    HW126360   0.651   1.992  14.408  1.4997 -0.3119  0.5680
 4908SOL    HW226361   0.564   2.094  14.485 -0.5723 -0.1866  0.6213
 4909SOL     OW26362   2.108   4.239  15.195 -0.1465 -0.1759 -0.5957
 4909SOL    HW126363   2.111   4.276  15.283 -1.2361 -0.3585 -0.4817
 4909SOL    HW226364   2.036   4.297  15.171 -0.1515  0.3238  0.6642
 4910SOL     OW26365   1.301   3.266   3.024  0.1051  1.0158  0.2406
 4910SOL    HW126366   1.332   3.336   2.966  0.1840  1.4063  0.7516
 4910SOL    HW226367   1.226   3.233   2.974  1.9778  1.1123 -2.6754
 4911SOL     OW26368   2.648   0.320  16.381 -0.3580 -0.3658  0.2189
 4911SOL    HW126369   2.721   0.258  16.386  0.3968  0.6963  2.3871
 4911SOL    HW226370   2.607   0.288  16.462  1.3097 -0.6382  0.9492
 4912SOL     OW26371   1.645   1.108   6.654  0.0613  0.3416 -0.1397
 4912SOL    HW126372   1.697   1.149   6.722  2.0457 -1.1234 -0.7680
 4912SOL    HW226373   1.574   1.172   6.653  0.5559  0.8777 -1.6917
 4913SOL     OW26374   2.347   2.088   9.219 -0.3772  0.1915  0.4645
 4913SOL    HW126375   2.434   2.047   9.222 -1.0777 -1.2580  1.0207
 4913SOL    HW226376   2.307   2.044   9.295 -1.1330 -1.7806 -1.0598
 4914SOL     OW26377   2.087   3.400   4.353 -0.4366  0.1637 -0.3476
 4914SOL    HW126378   2.031   3.454   4.408 -0.1571 -1.0671  1.1526
 4914SOL    HW226379   2.173   3.403   4.395 -0.7524 -1.6752  0.4033
 4915SOL     OW26380   1.988   2.759   9.869  0.2335 -0.6067 -0.5854
 4915SOL    HW126381   2.074   2.738   9.904 -0.2112  0.4135  1.1631
 4915SOL    HW226382   1.958   2.671   9.849  1.4676 -0.7553 -1.7310
 4916SOL     OW26383   1.062   3.847   7.364 -0.4864 -0.2267 -0.0836
 4916SOL    HW126384   1.074   3.941   7.379 -1.4231 -0.4741  2.1436
 4916SOL    HW226385   1.150   3.825   7.333 -1.1461 -1.4426 -1.1058
 4917SOL     OW26386   1.697   1.906   8.573  0.0221 -0.1015 -0.2161
 4917SOL    HW126387   1.740   1.940   8.494  0.4958 -0.5990 -0.1734
 4917SOL    HW226388   1.736   1.819   8.583 -0.9886 -0.7536 -1.8724
 4918SOL     OW26389   2.214   1.078  12.076  0.3309  0.9670 -0.0747
 4918SOL    HW126390   2.220   1.017  12.149 -2.0559 -1.0657 -1.5434
 4918SOL    HW226391   2.288   1.054  12.020  1.4831 -0.5844  2.1332
 4919SOL     OW26392   1.135   1.740  15.720 -0.2924 -0.5599 -0.2794
 4919SOL    HW126393   1.155   1.700  15.805 -3.8955 -0.3699  0.6411
 4919SOL    HW226394   1.041   1.755  15.729 -0.6680 -1.6707 -2.3501
 4920SOL     OW26395   4.153   1.647   6.644  0.2758 -0.1076  0.8253
 4920SOL    HW126396   4.100   1.642   6.724  0.4721 -1.2129  0.8967
 4920SOL    HW226397   4.206   1.723   6.666 -0.5583  0.3469  1.2500
 4921SOL     OW26398   0.826   3.280  14.638 -0.1214  0.0777 -0.2325
 4921SOL    HW126399   0.765   3.337  14.684 -0.9663 -1.7668  0.9492
 4921SOL    HW226400   0.779   3.261  14.557 -2.5412 -0.6733  1.3596
 4922SOL     OW26401   3.359   0.016   9.727  0.6240 -0.0169  0.6689
 4922SOL    HW126402   3.432   0.017   9.665  2.6473 -0.2929  3.0724
 4922SOL    HW226403   3.373   4.670   9.775 -0.4732 -0.4718  0.2133
 4923SOL     OW26404   0.547   0.005   4.127 -0.4325 -0.3468  0.0614
 4923SOL    HW126405   0.509   4.675   4.187 -1.8428  0.0612 -0.4017
 4923SOL    HW226406   0.511   4.701   4.048 -0.7291  1.5311 -0.7090
 4924SOL     OW26407   3.190   0.630  16.090  0.6348 -0.2626  0.3767
 4924SOL    HW126408   3.182   0.554  16.147  1.4533 -0.3878  0.3184
 4924SOL    HW226409   3.203   0.691  16.163 -0.9114  0.9917 -0.3886
 4925SOL     OW26410   2.797   0.695   0.064 -0.5462  0.1033  0.6095
 4925SOL    HW126411   2.765   0.673   0.152 -0.9918  2.0340  0.9130
 4925SOL    HW226412   2.716   0.691   0.014  0.2675  0.2893 -0.7147
 4926SOL     OW26413   4.364   1.731  17.151  0.3799 -0.4396 -0.1988
 4926SOL    HW126414   4.343   1.638  17.152 -1.0493 -0.0978  1.6374
 4926SOL    HW226415   4.449   1.731  17.195  0.9575  0.4925 -1.3060
 4927SOL     OW26416   1.550   0.638  12.090 -0.2174 -0.1732  0.6365
 4927SOL    HW126417   1.587   0.716  12.133 -0.1867  0.2931 -0.2427
 4927SOL    HW226418   1.621   0.580  12.116 -0.6726 -1.3627 -0.8117
 4928SOL     OW26419   0.687   2.257  11.782 -0.5380 -0.2472 -0.5233
 4928SOL    HW126420   0.673   2.352  11.779 -0.5319 -0.2525 -0.7264
 4928SOL    HW226421   0.673   2.230  11.873 -0.1454  0.1277 -0.3504
 4929SOL     OW26422   0.873   3.988  15.259  0.1240 -0.0678 -0.6512
 4929SOL    HW126423   0.799   3.983  15.198 -0.5459  2.7414 -0.0570
 4929SOL    HW226424   0.917   4.067  15.226  1.3445  0.0950  1.4286
 4930SOL     OW26425   3.571   2.587  11.932 -0.0644 -0.5915 -0.3702
 4930SOL    HW126426   3.479   2.564  11.940  0.1902 -0.9628  1.4052
 4930SOL    HW226427   3.611   2.523  11.991  1.4946  1.7963  1.1691
 4931SOL     OW26428   2.830   2.894   4.226 -0.1512  0.5192  0.0797
 4931SOL    HW126429   2.913   2.867   4.266 -0.0185  0.9881  0.1332
 4931SOL    HW226430   2.853   2.894   4.133  0.6352  1.8676  0.2601
 4932SOL     OW26431   0.499   2.518  10.385 -0.0852  0.4297  0.2375
 4932SOL    HW126432   0.412   2.558  10.396  0.3343  0.6883  2.7802
 4932SOL    HW226433   0.502   2.483  10.296 -1.1175  0.4559  0.1904
 4933SOL     OW26434   4.661   3.306   9.528 -0.4239 -0.0695  0.0957
 4933SOL    HW126435   4.661   3.211   9.538 -1.5942 -0.5153 -4.0283
 4933SOL    HW226436   4.691   3.338   9.613 -1.0239 -0.1491  0.3388
 4934SOL     OW26437   0.451   2.650   6.891 -0.5951 -0.6573  0.0040
 4934SOL    HW126438   0.481   2.739   6.907 -1.9644 -0.1973  0.0588
 4934SOL    HW226439   0.419   2.667   6.803 -1.9987 -1.1686  0.4081
 4935SOL     OW26440   2.122   1.835   4.021 -0.4518  0.1455 -0.3465
 4935SOL    HW126441   2.197   1.777   4.033 -0.6987  0.1179  1.0500
 4935SOL    HW226442   2.160   1.922   4.034  0.0825 -0.0579 -0.5203
 4936SOL     OW26443   0.799   3.964   3.042 -0.7326 -0.1041 -0.1408
 4936SOL    HW126444   0.838   4.049   3.058 -0.6201 -0.2257  0.2343
 4936SOL    HW226445   0.822   3.920   3.124  0.0142 -0.8225 -0.7461
 4937SOL     OW26446   3.305   0.012   6.639  0.4160  0.3579  0.2257
 4937SOL    HW126447   3.364   0.051   6.703 -2.5028 -0.3292  3.3237
 4937SOL    HW226448   3.218   0.003   6.677  0.4526 -4.0311 -0.7545
 4938SOL     OW26449   2.996   0.341   0.296  0.0648  0.4485 -0.1737
 4938SOL    HW126450   2.932   0.314   0.229 -0.4635  1.6348 -0.1545
 4938SOL    HW226451   3.048   0.403   0.244 -0.8954  1.9558  0.6663
 4939SOL     OW26452   2.419   1.663   2.283  0.3821  0.2324  0.4324
 4939SOL    HW126453   2.375   1.708   2.355  0.0621 -0.6380  0.7809
 4939SOL    HW226454   2.458   1.593   2.336  0.3908 -0.3342 -0.3196
 4940SOL     OW26455   3.760   0.372   9.066 -0.3499  0.0598 -0.4291
 4940SOL    HW126456   3.844   0.396   9.026  0.2319 -0.3649  0.5721
 4940SOL    HW226457   3.754   0.424   9.146  0.3585 -2.3391  1.1461
 4941SOL     OW26458   2.868   1.944   4.393 -0.6811 -0.5794 -0.0019
 4941SOL    HW126459   2.906   1.997   4.463  0.0161 -0.6431 -0.3311
 4941SOL    HW226460   2.820   1.874   4.437  1.7033 -1.6985  0.7795
 4942SOL     OW26461   0.313   3.132   2.401  0.1436 -0.0904  0.4667
 4942SOL    HW126462   0.269   3.170   2.325  0.1507 -0.5780  0.2183
 4942SOL    HW226463   0.389   3.096   2.354 -0.8571 -1.5144 -0.0591
 4943SOL     OW26464   0.473   2.040  12.509 -0.0415 -0.0080 -0.6035
 4943SOL    HW126465   0.511   1.977  12.570  0.7568 -0.7330 -1.8483
 4943SOL    HW226466   0.479   1.991  12.427 -0.8443  1.3677 -1.4879
 4944SOL     OW26467   1.316   4.293  15.398  0.2993  0.0088  0.0996
 4944SOL    HW126468   1.275   4.367  15.354 -1.2931 -1.9028 -1.6589
 4944SOL    HW226469   1.244   4.234  15.422 -1.3244  1.0663 -2.2304
 4945SOL     OW26470   3.564   1.569   2.874 -0.2306 -0.2537  0.1834
 4945SOL    HW126471   3.551   1.559   2.968  1.0146 -0.5994  0.3207
 4945SOL    HW226472   3.523   1.653   2.852 -0.7698 -0.4630  0.3989
 4946SOL     OW26473   2.034   3.587   5.140  0.6990  0.1279 -0.1458
 4946SOL    HW126474   2.053   3.533   5.063 -0.2967 -0.9537  0.3715
 4946SOL    HW226475   1.948   3.551   5.163  1.3911 -2.0678 -1.0225
 4947SOL     OW26476   0.711   1.803   2.238  0.4844  0.1354  0.2483
 4947SOL    HW126477   0.702   1.708   2.242  0.1294  0.1907  0.7845
 4947SOL    HW226478   0.670   1.834   2.157  0.7923 -0.4167 -0.1202
 4948SOL     OW26479   4.646   2.296   6.898  0.1522 -0.3208 -0.0924
 4948SOL    HW126480   4.613   2.213   6.932 -0.2100  0.7466  2.1263
 4948SOL    HW226481   4.635   2.277   6.804  0.9999 -0.3534 -0.1849
 4949SOL     OW26482   1.648   3.947   7.443  0.9465 -0.8175 -0.1462
 4949SOL    HW126483   1.701   3.940   7.523  0.3522  0.0047  0.3240
 4949SOL    HW226484   1.621   4.039   7.450  0.5966 -1.1667  3.0562
 4950SOL     OW26485   0.303   0.571  13.714  0.5782  0.1696  0.0903
 4950SOL    HW126486   0.217   0.609  13.730  1.0849  1.0993  0.6118
 4950SOL    HW226487   0.347   0.604  13.792 -0.9902  0.7837  0.7085
 4951SOL     OW26488   4.310   3.886   8.520 -0.1554 -0.3291  0.2425
 4951SOL    HW126489   4.397   3.863   8.489  0.6565  2.7140  0.3021
 4951SOL    HW226490   4.299   3.866   8.613  0.0330 -0.8377  0.1599
 4952SOL     OW26491   1.961   2.985   2.433 -0.2297 -0.3264  0.4700
 4952SOL    HW126492   1.888   3.025   2.386  0.4166 -0.1953 -0.4235
 4952SOL    HW226493   1.993   2.944   2.353  2.9550  0.6283  1.2837
 4953SOL     OW26494   0.445   0.206   4.742  0.2787  0.2479 -0.1127
 4953SOL    HW126495   0.351   0.223   4.728  0.1988  0.1363  0.3028
 4953SOL    HW226496   0.443   0.117   4.709 -1.8613  0.5658 -0.8882
 4954SOL     OW26497   0.787   3.759   7.882 -0.3840  0.3160  0.4195
 4954SOL    HW126498   0.764   3.715   7.964 -1.2257  1.9112  1.0359
 4954SOL    HW226499   0.874   3.782   7.916  0.6736 -3.8117  0.4706
 4955SOL     OW26500   1.570   2.343  14.910  0.0586  0.7040 -0.2517
 4955SOL    HW126501   1.535   2.277  14.851 -3.6719 -1.1317  4.0313
 4955SOL    HW226502   1.494   2.399  14.924 -0.4863  0.2292 -1.3186
 4956SOL     OW26503   0.591   4.361   8.269  0.6272  0.0367  0.6034
 4956SOL    HW126504   0.546   4.277   8.253  0.4202  0.8159 -2.8729
 4956SOL    HW226505   0.676   4.320   8.250 -0.2270 -1.3512 -0.2375
 4957SOL     OW26506   2.305   0.400   3.851 -0.0591 -0.0270  0.0963
 4957SOL    HW126507   2.253   0.370   3.926  0.5401 -0.7360  0.2270
 4957SOL    HW226508   2.230   0.419   3.794  0.2946 -0.7105 -0.5808
 4958SOL     OW26509   1.030   1.521   7.589 -0.4598  0.4880 -0.2767
 4958SOL    HW126510   0.984   1.601   7.564  1.8550  1.3581 -1.8273
 4958SOL    HW226511   1.101   1.512   7.525 -2.2219 -0.5210 -2.0724
 4959SOL     OW26512   3.954   3.541   2.662 -0.4459  0.3877  0.2612
 4959SOL    HW126513   4.019   3.589   2.712  1.6462 -0.9576 -1.1914
 4959SOL    HW226514   3.975   3.552   2.569 -1.6942 -1.9583 -0.3104
 4960SOL     OW26515   4.130   1.255   0.692  0.0286  0.8390  0.0422
 4960SOL    HW126516   4.154   1.228   0.603 -2.7046  0.1327 -0.4527
 4960SOL    HW226517   4.170   1.342   0.690  0.2684  0.7200 -0.7082
 4961SOL     OW26518   3.510   0.453   7.352 -0.4208 -0.1651 -0.7014
 4961SOL    HW126519   3.479   0.379   7.404 -0.3370 -1.7316 -2.8980
 4961SOL    HW226520   3.592   0.416   7.319 -1.3672 -0.9895 -2.1143
 4962SOL     OW26521   1.060   1.268  13.557  0.2882  0.6751 -0.3669
 4962SOL    HW126522   1.119   1.216  13.612 -1.0030  1.1798  1.4782
 4962SOL    HW226523   1.058   1.213  13.479  3.8601 -1.2480  0.8912
 4963SOL     OW26524   0.256   2.234  14.228  0.2771 -0.2985 -0.2609
 4963SOL    HW126525   0.185   2.248  14.164 -0.6628 -1.7146  0.4550
 4963SOL    HW226526   0.337   2.232  14.178  0.8933 -0.3207  0.7561
 4964SOL     OW26527   0.120   1.003   4.934 -0.4796 -1.1744  0.4061
 4964SOL    HW126528   0.144   0.986   4.843  2.1399  0.9040  0.7188
 4964SOL    HW226529   0.028   0.974   4.939 -1.1798  0.7524 -1.8078
 4965SOL     OW26530   1.804   3.378  15.462  0.0367  0.0187  0.5437
 4965SOL    HW126531   1.792   3.332  15.379 -1.8597  1.4998 -0.0184
 4965SOL    HW226532   1.898   3.381  15.481  0.0495  1.2928  0.3140
 4966SOL     OW26533   4.350   3.171  11.753 -0.4193  0.3067 -0.1060
 4966SOL    HW126534   4.304   3.134  11.828 -0.2949 -0.7689 -0.5599
 4966SOL    HW226535   4.389   3.092  11.716 -1.3778  0.6026 -1.7517
 4967SOL     OW26536   0.032   1.308   2.367 -0.0765  0.0317  0.1257
 4967SOL    HW126537   0.045   1.401   2.345  1.3012 -0.1827  0.0561
 4967SOL    HW226538   4.672   1.295   2.362  0.0261 -0.2221 -1.1008
 4968SOL     OW26539   1.309   4.118   6.374  0.2392  0.0707  0.0866
 4968SOL    HW126540   1.231   4.095   6.324  0.7926  0.8453 -1.1363
 4968SOL    HW226541   1.268   4.139   6.458  0.0303 -1.7159  0.4130
 4969SOL     OW26542   0.214   2.794   8.827 -0.4742  0.0254 -0.3517
 4969SOL    HW126543   0.214   2.886   8.801 -0.0748  0.0732 -0.1931
 4969SOL    HW226544   0.306   2.798   8.852 -0.5499 -0.6118  0.0240
 4970SOL     OW26545   4.439   4.520   2.722  0.0634  0.0657  0.0102
 4970SOL    HW126546   4.399   4.499   2.637 -1.5315 -0.9442  1.0217
 4970SOL    HW226547   4.532   4.521   2.699  0.5964  1.3446  2.2539
 4971SOL     OW26548   0.427   2.780   8.461  0.2513 -0.0848  0.1420
 4971SOL    HW126549   0.359   2.788   8.394  1.0031 -0.4431 -0.6562
 4971SOL    HW226550   0.480   2.858   8.443 -0.3742  0.1413 -0.7287
 4972SOL     OW26551   1.397   3.063  15.233  0.2731  0.6990  0.1860
 4972SOL    HW126552   1.457   3.059  15.308 -0.6865  2.4076  1.0373
 4972SOL    HW226553   1.426   3.133  15.175  0.6608  1.5849  1.4376
 4973SOL     OW26554   1.683   0.626   9.792 -0.1018 -0.2794 -0.3230
 4973SOL    HW126555   1.775   0.623   9.819 -0.1898  0.6955  0.1096
 4973SOL    HW226556   1.651   0.701   9.843  3.0641 -0.9890  2.6907
 4974SOL     OW26557   3.412   3.612   4.143  0.1581  0.5009 -0.4303
 4974SOL    HW126558   3.484   3.676   4.140  1.3797 -0.9044 -1.4295
 4974SOL    HW226559   3.366   3.640   4.222  2.5910  0.0875  1.1546
 4975SOL     OW26560   0.032   2.390   7.963 -0.8352  0.5512 -0.0491
 4975SOL    HW126561   0.004   2.302   7.988 -0.7093  0.2117 -1.1112
 4975SOL    HW226562   0.127   2.377   7.956 -0.7926  0.3563  0.9551
 4976SOL     OW26563   1.744   4.527  11.582  0.4572  0.4018  0.8884
 4976SOL    HW126564   1.712   4.447  11.625  0.0267  0.2591  0.3103
 4976SOL    HW226565   1.673   4.583  11.613  0.4126  0.3957  0.8001
 4977SOL     OW26566   0.429   4.408   1.788  0.0197 -0.3680 -0.2266
 4977SOL    HW126567   0.458   4.438   1.874  0.4746  0.2627 -0.5989
 4977SOL    HW226568   0.424   4.313   1.796 -0.2024 -0.4292 -1.1127
 4978SOL     OW26569   2.223   4.476   7.740  0.3702 -0.7314  0.0841
 4978SOL    HW126570   2.292   4.493   7.804 -2.0438  1.2668  2.1686
 4978SOL    HW226571   2.282   4.431   7.680 -1.2047 -1.1569 -1.1362
 4979SOL     OW26572   3.054   1.497  13.030 -0.0554  0.6726 -0.2932
 4979SOL    HW126573   2.973   1.546  13.041 -0.2492 -0.0686  1.5638
 4979SOL    HW226574   3.049   1.423  13.091  0.0575  1.1263  0.2654
 4980SOL     OW26575   1.499   2.304  15.908  0.3288  0.0356 -0.2498
 4980SOL    HW126576   1.543   2.299  15.823  1.7274 -1.8936  0.6151
 4980SOL    HW226577   1.411   2.320  15.872  0.2406  1.0989  0.4409
 4981SOL     OW26578   3.163   1.135   3.039  0.1384 -0.0818  0.6652
 4981SOL    HW126579   3.142   1.148   2.947 -0.9838 -1.7644  0.7109
 4981SOL    HW226580   3.252   1.172   3.034 -0.5458  1.5624  0.5098
 4982SOL     OW26581   0.363   1.652   3.906 -0.4010  0.3424 -0.3205
 4982SOL    HW126582   0.406   1.643   3.821 -0.9196 -1.0207 -0.4245
 4982SOL    HW226583   0.282   1.603   3.891  1.1829 -1.6199 -2.4325
 4983SOL     OW26584   3.082   4.266   7.477  0.1467 -0.4849 -0.4102
 4983SOL    HW126585   3.158   4.254   7.534  1.3230 -0.3824 -1.9521
 4983SOL    HW226586   3.092   4.185   7.427  3.0373 -1.3419  1.5744
 4984SOL     OW26587   4.374   1.474   8.791  0.0415 -0.2987 -0.2181
 4984SOL    HW126588   4.283   1.504   8.794  0.4334  0.8615  0.1102
 4984SOL    HW226589   4.402   1.517   8.710 -3.7252 -0.3241 -1.5270
 4985SOL     OW26590   2.467   3.793   6.987  0.3993 -0.1114  0.4625
 4985SOL    HW126591   2.499   3.706   6.964  1.0736  0.4198 -0.5985
 4985SOL    HW226592   2.374   3.776   6.976  0.5426 -1.0592  0.7734
 4986SOL     OW26593   0.303   3.400  16.724 -0.2756 -0.7160 -0.6726
 4986SOL    HW126594   0.257   3.465  16.671 -0.3070 -0.2021 -0.0126
 4986SOL    HW226595   0.264   3.325  16.680 -0.9914 -1.7556  1.7584
 4987SOL     OW26596   0.159   2.733  16.468 -0.0384  0.0120 -0.3682
 4987SOL    HW126597   0.128   2.660  16.414 -0.6991 -1.8074  2.4635
 4987SOL    HW226598   0.114   2.715  16.551 -0.6222 -1.2182 -0.9599
 4988SOL     OW26599   0.655   2.435  14.305 -0.7799  0.6300  0.0377
 4988SOL    HW126600   0.735   2.386  14.288  0.1559  2.0064  0.5040
 4988SOL    HW226601   0.672   2.520  14.265  1.2284  0.8817  1.4261
 4989SOL     OW26602   2.331   3.931  12.555 -0.5172 -0.1405  0.4219
 4989SOL    HW126603   2.287   3.976  12.627 -1.5981 -1.0126  0.2972
 4989SOL    HW226604   2.420   3.965  12.565  0.5949 -2.7306 -0.7280
 4990SOL     OW26605   1.807   2.132  11.372  0.6545 -0.4898  0.4695
 4990SOL    HW126606   1.762   2.211  11.402 -0.0316 -0.4465 -0.6443
 4990SOL    HW226607   1.896   2.151  11.402 -0.5022  0.6026  3.1551
 4991SOL     OW26608   2.114   2.524   5.975 -0.2249  0.1840  0.5618
 4991SOL    HW126609   2.104   2.482   5.890  0.4328 -0.4582  0.8038
 4991SOL    HW226610   2.056   2.600   5.966  0.5071  0.6880  0.1284
 4992SOL     OW26611   4.127   0.466   2.523 -0.0936 -0.0193  0.4599
 4992SOL    HW126612   4.212   0.439   2.557  0.8668  1.8112 -0.5366
 4992SOL    HW226613   4.088   0.378   2.519 -0.4935  0.1560  0.5329
 4993SOL     OW26614   3.964   0.307   8.581  0.1260 -0.4503  0.3893
 4993SOL    HW126615   3.928   0.272   8.500 -3.3422  0.6613  1.4371
 4993SOL    HW226616   4.050   0.267   8.590  0.9532  1.0566 -0.9181
 4994SOL     OW26617   4.038   0.053  10.376 -0.5504  0.4831 -0.2841
 4994SOL    HW126618   4.090   0.132  10.362  2.7121 -1.3202  1.6193
 4994SOL    HW226619   3.993   0.086  10.454 -1.7285 -0.2263 -0.6637
 4995SOL     OW26620   2.060   2.229  16.861  0.4775 -0.2047 -0.2595
 4995SOL    HW126621   2.092   2.228  16.771  1.4039 -0.4091  0.0799
 4995SOL    HW226622   2.138   2.268  16.901 -0.0743 -0.0214  0.6534
 4996SOL     OW26623   0.863   1.552   3.615  0.1532 -0.4236 -0.2314
 4996SOL    HW126624   0.895   1.498   3.687  1.3559  2.4905  1.3739
 4996SOL    HW226625   0.940   1.595   3.578 -0.2339  0.4679  0.0119
 4997SOL     OW26626   1.260   2.290   6.884 -0.1901 -0.3322  0.0775
 4997SOL    HW126627   1.240   2.376   6.848  1.7233 -0.3824 -1.0837
 4997SOL    HW226628   1.225   2.287   6.973  2.2174  1.2047  1.0654
 4998SOL     OW26629   4.274   3.435  11.379 -0.1473  0.0488 -0.1797
 4998SOL    HW126630   4.338   3.420  11.448 -1.1241  1.7674  1.1228
 4998SOL    HW226631   4.228   3.514  11.409  0.2690  0.4621 -0.6419
 4999SOL     OW26632   3.589   2.527   3.336 -0.6030  0.1858  0.0228
 4999SOL    HW126633   3.629   2.562   3.256  2.6321 -0.6448  1.2726
 4999SOL    HW226634   3.498   2.546   3.315 -0.8046 -1.0939 -0.2607
 5000SOL     OW26635   1.464   3.694   2.713 -0.0528 -0.3391 -0.0252
 5000SOL    HW126636   1.558   3.678   2.720  0.3683  1.8459 -0.6343
 5000SOL    HW226637   1.449   3.771   2.767 -2.7278  0.5209 -2.0031
 5001SOL     OW26638   3.423   2.931  10.388  0.3815  0.9195  0.2285
 5001SOL    HW126639   3.329   2.939  10.377  0.4803  1.5146 -0.1894
 5001SOL    HW226640   3.430   2.841  10.421  2.0624  0.3818 -1.5602
 5002SOL     OW26641   3.740   4.688   8.809 -0.1177  0.3708  0.7331
 5002SOL    HW126642   3.827   4.658   8.783 -0.3366 -0.0024  0.4446
 5002SOL    HW226643   3.713   0.020   8.747 -0.4499 -2.1554 -1.8262
 5003SOL     OW26644   0.108   1.484   7.155 -0.1040 -0.1134  0.1281
 5003SOL    HW126645   0.103   1.444   7.242  1.5161 -0.8618 -0.1206
 5003SOL    HW226646   0.183   1.436   7.120  0.9001  0.5033  1.4253
 5004SOL     OW26647   2.746   2.201  12.241 -0.4561 -0.0300 -0.2620
 5004SOL    HW126648   2.808   2.226  12.172 -0.0100 -1.8677 -0.5296
 5004SOL    HW226649   2.801   2.194  12.319  0.1269  0.0767 -0.6622
 5005SOL     OW26650   4.207   2.514  14.263 -0.3409 -0.2069 -0.2992
 5005SOL    HW126651   4.233   2.435  14.217  0.5852  0.6093 -1.1740
 5005SOL    HW226652   4.113   2.496  14.273 -0.8543  2.1065 -0.9851
 5006SOL     OW26653   2.007   3.582   1.706  0.4964  0.3360  0.0072
 5006SOL    HW126654   2.080   3.519   1.706  0.6825  0.5452 -2.0129
 5006SOL    HW226655   2.051   3.667   1.701  0.1687  0.4641 -0.7683
 5007SOL     OW26656   1.335   2.447   3.609  0.4247 -0.1784  0.3826
 5007SOL    HW126657   1.394   2.378   3.579  0.4937 -0.4192  1.0919
 5007SOL    HW226658   1.398   2.514   3.634  1.5927 -2.7250  4.2694
 5008SOL     OW26659   0.171   4.250  11.696 -0.3999  0.0438  0.3656
 5008SOL    HW126660   0.242   4.305  11.662 -0.2609  0.3752  1.1795
 5008SOL    HW226661   0.173   4.170  11.644 -0.4364  1.0682 -1.2060
 5009SOL     OW26662   3.279   0.096  14.794 -0.1587  0.6431  0.4194
 5009SOL    HW126663   3.198   0.140  14.821 -0.4844 -0.1725  0.7479
 5009SOL    HW226664   3.245   0.015  14.756  0.7387 -0.0315  1.0695
 5010SOL     OW26665   0.582   3.541   4.637 -0.0286  0.2525  0.3767
 5010SOL    HW126666   0.660   3.563   4.587 -1.3013 -0.8568 -2.0942
 5010SOL    HW226667   0.539   3.626   4.649 -1.0453 -0.0716 -0.8910
 5011SOL     OW26668   1.083   3.606   3.197  0.4832  0.0427 -0.1393
 5011SOL    HW126669   1.165   3.650   3.176  0.5293 -0.8681 -1.9122
 5011SOL    HW226670   1.038   3.597   3.112 -0.6503 -0.1057  0.4736
 5012SOL     OW26671   1.907   2.638  12.133  0.1029  0.5761  0.1737
 5012SOL    HW126672   1.853   2.570  12.172 -1.1190  1.6911  0.4193
 5012SOL    HW226673   1.971   2.665  12.198 -0.4363  1.1787  0.4551
 5013SOL     OW26674   0.487   1.207   3.929 -0.4926 -0.3492 -0.3648
 5013SOL    HW126675   0.549   1.270   3.894  0.6637 -1.8261 -0.9817
 5013SOL    HW226676   0.446   1.265   3.994 -1.5024 -2.0263  0.5048
 5014SOL     OW26677   1.477   2.100   7.182 -0.0596  0.2700  0.2614
 5014SOL    HW126678   1.402   2.103   7.123 -0.0107  5.8041  0.4460
 5014SOL    HW226679   1.490   2.005   7.183 -1.1260  0.1213  0.4219
 5015SOL     OW26680   0.388   0.808   6.015  0.2620  0.3493  0.5375
 5015SOL    HW126681   0.322   0.749   6.052 -0.9317 -0.1714 -2.3839
 5015SOL    HW226682   0.335   0.886   5.997  0.7755  0.4809 -0.4242
 5016SOL     OW26683   2.716   0.199   8.391 -0.4357  0.1111 -0.1754
 5016SOL    HW126684   2.660   0.140   8.341  0.5222 -0.4732 -0.5470
 5016SOL    HW226685   2.653   0.269   8.412 -0.9300  0.2953 -2.2186
 5017SOL     OW26686   1.002   1.702  14.994 -0.1176  0.6003  0.1374
 5017SOL    HW126687   1.061   1.629  15.014 -0.3307  0.5521  0.5790
 5017SOL    HW226688   1.070   1.767  15.013 -0.0618 -0.0913  2.2534
 5018SOL     OW26689   4.349   4.092   6.378 -0.5120 -0.7853  0.7846
 5018SOL    HW126690   4.331   4.004   6.411  1.8265 -1.9467 -1.0184
 5018SOL    HW226691   4.395   4.077   6.296  0.0836 -0.9444  1.1504
 5019SOL     OW26692   2.415   4.277   5.621 -0.0914  0.1803 -0.0890
 5019SOL    HW126693   2.500   4.278   5.577  0.3735  0.8189  0.8200
 5019SOL    HW226694   2.374   4.309   5.541  0.6592 -1.8294 -1.2786
 5020SOL     OW26695   0.733   2.379   4.908  0.3683  0.2888 -0.5000
 5020SOL    HW126696   0.638   2.372   4.898  0.5814 -3.7507  0.3491
 5020SOL    HW226697   0.759   2.295   4.870  0.7539 -0.0938  0.6170
 5021SOL     OW26698   3.900   4.114   1.837 -0.3352 -0.5032  0.1340
 5021SOL    HW126699   3.806   4.103   1.829 -0.2432 -1.7962  0.7860
 5021SOL    HW226700   3.903   4.164   1.919 -1.9968 -0.0149 -0.1018
 5022SOL     OW26701   1.380   4.409  14.957  0.7934 -0.3876 -0.2595
 5022SOL    HW126702   1.454   4.357  14.923 -0.4549 -1.0715 -1.9331
 5022SOL    HW226703   1.309   4.390  14.896 -4.0275  3.2159  4.2466
 5023SOL     OW26704   1.378   1.771   2.120  0.7248  0.2169 -0.4672
 5023SOL    HW126705   1.335   1.855   2.139  1.3707  1.0034 -2.4932
 5023SOL    HW226706   1.361   1.772   2.026  0.2905 -2.9359 -0.4096
 5024SOL     OW26707   4.467   3.008   3.083  0.1502 -0.2235  0.2578
 5024SOL    HW126708   4.402   3.017   3.013  0.4238 -0.2844 -0.0061
 5024SOL    HW226709   4.414   2.948   3.135 -2.0865  1.3771 -0.1825
 5025SOL     OW26710   0.613   4.476   4.910 -0.1043 -0.1561 -0.0226
 5025SOL    HW126711   0.529   4.520   4.895 -0.4037 -0.5178  0.5946
 5025SOL    HW226712   0.667   4.552   4.933  0.8897 -1.1348  0.9235
 5026SOL     OW26713   2.956   2.837   8.620  0.0232 -0.2175 -0.2966
 5026SOL    HW126714   3.025   2.904   8.622  0.6388 -0.8946  1.0202
 5026SOL    HW226715   2.925   2.857   8.531  1.1239  2.0243 -0.1879
 5027SOL     OW26716   4.423   3.974  11.106 -0.2381 -1.0829  0.0809
 5027SOL    HW126717   4.481   4.043  11.075  1.3672 -2.2727  0.4505
 5027SOL    HW226718   4.458   3.975  11.195  5.0833  1.7814 -2.0042
 5028SOL     OW26719   0.360   4.607   4.346  0.0739 -0.2212  0.6330
 5028SOL    HW126720   0.281   4.640   4.302  1.1673 -1.2150 -2.0691
 5028SOL    HW226721   0.377   4.689   4.392 -4.1907  1.0201  0.0601
 5029SOL     OW26722   2.111   4.519   5.140  0.2098 -0.1538  0.0135
 5029SOL    HW126723   2.159   4.565   5.209 -1.1096  0.2852  0.6272
 5029SOL    HW226724   2.109   4.583   5.068  0.9665  0.6719  0.7283
 5030SOL     OW26725   3.255   4.438   6.966  0.1881  0.0893 -0.0798
 5030SOL    HW126726   3.190   4.443   6.896  1.4391 -1.5222 -1.3539
 5030SOL    HW226727   3.341   4.424   6.927  0.1782 -0.8454  0.2260
 5031SOL     OW26728   4.240   3.531  10.600 -0.3829  0.2769  0.6851
 5031SOL    HW126729   4.156   3.550  10.559 -1.6210  0.4101  3.2863
 5031SOL    HW226730   4.199   3.466  10.656  0.0983  1.3447  2.2707
 5032SOL     OW26731   0.887   2.008   2.597  0.7148  0.0730 -0.0996
 5032SOL    HW126732   0.800   2.024   2.561  0.4170  0.4131  0.7503
 5032SOL    HW226733   0.888   1.914   2.584  0.2286  0.1569 -0.7404
 5033SOL     OW26734   0.811   2.017   8.145 -0.0890  0.3137  0.7068
 5033SOL    HW126735   0.720   2.014   8.175  0.5190 -2.2672  2.2694
 5033SOL    HW226736   0.826   2.110   8.129  0.1729 -0.0051 -0.8784
 5034SOL     OW26737   4.334   0.316   6.012  0.0767  0.4395  0.6066
 5034SOL    HW126738   4.332   0.411   6.014 -0.2681  0.4861 -2.2031
 5034SOL    HW226739   4.413   0.288   5.966  0.6565 -0.1328  1.9416
 5035SOL     OW26740   3.588   4.342   1.837  0.5173  0.1937  0.1027
 5035SOL    HW126741   3.546   4.347   1.923 -2.9319 -0.5067 -1.5590
 5035SOL    HW226742   3.643   4.264   1.845 -0.9363 -0.7599  0.8338
 5036SOL     OW26743   0.434   2.200   1.529  0.0260  0.1295 -0.8862
 5036SOL    HW126744   0.343   2.203   1.558  0.5134  1.0737  0.5790
 5036SOL    HW226745   0.437   2.125   1.470 -2.7030 -2.2402  2.0297
 5037SOL     OW26746   0.445   0.998   8.786  0.1850  0.0866  0.8464
 5037SOL    HW126747   0.442   1.075   8.730  1.0042 -1.4322 -1.3156
 5037SOL    HW226748   0.355   0.990   8.818 -0.5510  0.3808 -1.1191
 5038SOL     OW26749   2.618   3.694   3.237 -0.3483  0.4130 -0.3478
 5038SOL    HW126750   2.692   3.685   3.177 -0.1096  1.2644 -0.1942
 5038SOL    HW226751   2.647   3.664   3.323  1.8557  0.2144 -1.1746
 5039SOL     OW26752   2.827   1.021   3.659  0.0621 -0.0531 -0.2082
 5039SOL    HW126753   2.738   1.052   3.647  0.7969  1.3647 -2.0211
 5039SOL    HW226754   2.877   1.095   3.694  2.8333 -1.2282 -1.6489
 5040SOL     OW26755   3.863   1.371   4.057 -0.0781 -0.2484 -0.6998
 5040SOL    HW126756   3.895   1.411   3.976  1.5657 -0.4248 -0.1390
 5040SOL    HW226757   3.813   1.448   4.085 -0.6518 -0.5442 -0.9218
 5041SOL     OW26758   0.501   0.340   2.277 -0.1389 -0.5625  0.0517
 5041SOL    HW126759   0.429   0.401   2.290  0.0748 -0.0574 -1.1235
 5041SOL    HW226760   0.446   0.263   2.279  1.3015 -1.5493  2.4745
 5042SOL     OW26761   3.550   3.094   7.714 -0.0444  0.7855  0.6984
 5042SOL    HW126762   3.625   3.046   7.750  1.6804  2.4154 -0.6745
 5042SOL    HW226763   3.553   3.167   7.776  2.1006  1.6668 -0.4480
 5043SOL     OW26764   3.555   1.690   6.413 -0.3385  0.0404  0.2227
 5043SOL    HW126765   3.640   1.647   6.415 -0.8712 -0.9492  1.9501
 5043SOL    HW226766   3.488   1.627   6.387 -1.9090  0.9103  2.0911
 5044SOL     OW26767   1.508   0.361   4.859  0.2537  0.3668  0.1836
 5044SOL    HW126768   1.438   0.305   4.825 -0.3154 -0.9448  3.5063
 5044SOL    HW226769   1.499   0.443   4.810 -0.5111 -0.2864 -0.7645
 5045SOL     OW26770   1.700   2.083  12.795 -0.2175  0.3161 -0.0267
 5045SOL    HW126771   1.633   2.141  12.758  0.9987  1.2775 -0.7238
 5045SOL    HW226772   1.718   2.130  12.877  1.1644  0.5929 -0.4890
 5046SOL     OW26773   1.380   2.678   8.730  0.4059  0.2470 -0.0328
 5046SOL    HW126774   1.417   2.707   8.813 -1.9448 -0.2378  1.1946
 5046SOL    HW226775   1.356   2.589   8.755 -1.8195  0.6900 -0.5668
 5047SOL     OW26776   3.617   4.532   4.233  0.4245  0.0490 -0.2134
 5047SOL    HW126777   3.575   4.585   4.301  1.3446 -0.4312  0.7074
 5047SOL    HW226778   3.710   4.553   4.235  0.5828 -0.8807  1.5717
 5048SOL     OW26779   1.476   3.869   1.503 -0.2533  0.0543  0.3203
 5048SOL    HW126780   1.394   3.832   1.538  0.0142  0.7565  1.7044
 5048SOL    HW226781   1.505   3.796   1.449  4.3658  1.2178  1.2222
 5049SOL     OW26782   1.852   0.152   3.871 -0.2625  0.0985 -0.4431
 5049SOL    HW126783   1.907   0.220   3.831  0.0929  0.3599  0.5032
 5049SOL    HW226784   1.776   0.151   3.812  0.2085  3.7268 -1.1070
 5050SOL     OW26785   0.889   2.202   7.592 -0.3504  0.0437 -0.0983
 5050SOL    HW126786   0.939   2.120   7.595 -1.5820 -0.7142  0.0367
 5050SOL    HW226787   0.934   2.252   7.660  4.1898 -1.9671 -1.5959
 5051SOL     OW26788   2.800   4.268   8.512 -1.2744 -0.5199  0.7045
 5051SOL    HW126789   2.884   4.225   8.496 -0.0936  1.9580  0.2995
 5051SOL    HW226790   2.747   4.204   8.463 -1.3064  0.3344 -0.3839
 5052SOL     OW26791   0.146   3.418   8.414 -0.1891 -0.1016  0.1270
 5052SOL    HW126792   0.085   3.397   8.343 -1.3971  0.8585  0.8756
 5052SOL    HW226793   0.214   3.471   8.373  1.4890 -3.4343 -1.3676
 5053SOL     OW26794   4.154   3.356  10.800 -0.4435  0.2162 -0.2796
 5053SOL    HW126795   4.075   3.303  10.816 -0.8584  1.1854  0.9558
 5053SOL    HW226796   4.146   3.423  10.868  0.9277 -0.3953  0.4702
 5054SOL     OW26797   4.188   1.689   9.743  0.0881  0.1748 -0.2956
 5054SOL    HW126798   4.262   1.722   9.692  0.4133  1.4699  1.0207
 5054SOL    HW226799   4.209   1.717   9.832  1.7509 -0.8603 -0.3785
 5055SOL     OW26800   2.722   1.649   3.217  0.1965 -0.0136 -0.4115
 5055SOL    HW126801   2.655   1.708   3.183  1.6334  1.3037 -0.9650
 5055SOL    HW226802   2.680   1.606   3.291 -1.9446 -0.3625 -1.8408
 5056SOL     OW26803   1.818   3.485  16.372  0.1263 -0.4451  0.0318
 5056SOL    HW126804   1.781   3.571  16.358 -0.0184 -0.4944  0.1139
 5056SOL    HW226805   1.902   3.487  16.325  0.8201 -0.9563  1.2330
 5057SOL     OW26806   1.537   0.826  12.434  0.2008  0.0520  0.0563
 5057SOL    HW126807   1.573   0.906  12.471  1.4648 -0.5689  0.1491
 5057SOL    HW226808   1.596   0.809  12.360  0.3041 -0.8253  0.3500
 5058SOL     OW26809   0.554   1.987   6.910 -0.0768  0.5863  0.7062
 5058SOL    HW126810   0.555   1.900   6.951 -1.3146  0.4978  0.5558
 5058SOL    HW226811   0.632   2.028   6.946  1.5586 -2.2374  0.4258
 5059SOL     OW26812   2.208   3.095   1.985  0.3564  0.5036 -0.2525
 5059SOL    HW126813   2.279   3.147   1.946  0.2093 -0.3513 -1.6660
 5059SOL    HW226814   2.133   3.112   1.929  0.5028  1.4265 -0.1570
 5060SOL     OW26815   3.105   0.192   9.022  0.5106  0.4331 -0.3006
 5060SOL    HW126816   3.043   0.263   9.006 -1.1377 -0.1640  3.3515
 5060SOL    HW226817   3.187   0.234   9.045 -0.2055  1.8729 -0.3855
 5061SOL     OW26818   0.405   3.810  12.867 -0.4792 -0.6433  0.0837
 5061SOL    HW126819   0.493   3.845  12.857 -1.2430  1.9936  2.2962
 5061SOL    HW226820   0.426   3.740  12.929 -0.3580 -1.0354 -0.4073
 5062SOL     OW26821   4.599   0.768   0.014 -0.1969 -0.1734 -0.4176
 5062SOL    HW126822   4.691   0.772   0.039  0.1767 -0.8522 -1.6632
 5062SOL    HW226823   4.602   0.765  17.657  1.9828  3.6375 -0.4621
 5063SOL     OW26824   1.232   3.107   4.399 -0.5362  0.2231 -0.0374
 5063SOL    HW126825   1.322   3.120   4.369 -1.3337 -0.3481 -2.6680
 5063SOL    HW226826   1.202   3.196   4.416  0.0122  0.5865 -0.9782
 5064SOL     OW26827   3.586   0.020  10.295  0.1707 -0.5577  0.0437
 5064SOL    HW126828   3.620   0.011  10.384 -2.2274 -1.4355  0.8536
 5064SOL    HW226829   3.507   0.067  10.320  0.6654 -1.1524  2.7654
 5065SOL     OW26830   3.279   4.277   8.539  0.3349 -0.0992 -0.2091
 5065SOL    HW126831   3.367   4.281   8.500  0.4965  1.2688  0.2851
 5065SOL    HW226832   3.283   4.283   8.634 -2.5742  1.1120 -0.1797
 5066SOL     OW26833   1.323   4.604   5.530 -0.1743  1.1718 -0.3096
 5066SOL    HW126834   1.278   4.524   5.556  0.0052  1.9471  2.3877
 5066SOL    HW226835   1.251   4.657   5.496 -1.3193  0.0812  0.3979
 5067SOL     OW26836   3.456   0.848   2.124 -0.3138  1.1818 -0.1690
 5067SOL    HW126837   3.448   0.798   2.042  1.5308 -0.6485  0.7558
 5067SOL    HW226838   3.533   0.899   2.097  0.9400 -0.0936  1.0313
 5068SOL     OW26839   0.013   0.877   7.720 -0.2210 -0.3796  0.1083
 5068SOL    HW126840   0.040   0.859   7.810 -1.7033 -0.6577  0.5043
 5068SOL    HW226841   4.728   0.787   7.692  0.8638 -0.0390 -1.7895
 5069SOL     OW26842   4.639   4.594   8.099  0.6222  0.0387  0.1331
 5069SOL    HW126843   4.634   4.559   8.188  0.9428 -1.3276 -0.3891
 5069SOL    HW226844   4.564   4.654   8.096  0.1676 -0.6631 -2.3139
 5070SOL     OW26845   1.041   3.688  11.797  0.1534 -0.0373  0.1409
 5070SOL    HW126846   0.958   3.688  11.844 -0.1588  1.5402 -0.4199
 5070SOL    HW226847   1.064   3.597  11.815  1.4714  0.6524  1.9289
 5071SOL     OW26848   3.542   0.781   8.305 -0.1904  0.5853 -1.0855
 5071SOL    HW126849   3.613   0.793   8.241 -0.2512  1.4171 -0.9950
 5071SOL    HW226850   3.473   0.748   8.248  1.0024 -2.5794 -0.6847
 5072SOL     OW26851   4.234   3.363   8.829  0.3216 -0.2145 -0.4433
 5072SOL    HW126852   4.204   3.292   8.773 -1.4536  0.1147  0.0858
 5072SOL    HW226853   4.153   3.399   8.864  0.4438 -0.1572 -0.2190
 5073SOL     OW26854   3.042   0.049   6.764  0.3530 -0.7776  0.1784
 5073SOL    HW126855   3.020   4.735   6.684  0.8585 -0.2147 -0.3091
 5073SOL    HW226856   2.960   0.022   6.805 -0.6097  3.6467  1.1224
 5074SOL     OW26857   3.620   4.520  15.146 -0.2481 -0.0449  0.2043
 5074SOL    HW126858   3.683   4.551  15.212 -1.0671  1.5477  0.2312
 5074SOL    HW226859   3.685   4.502  15.078 -0.8976  0.3129 -0.4997
 5075SOL     OW26860   3.743   0.183  11.217 -0.5795  0.0576  0.0894
 5075SOL    HW126861   3.713   0.154  11.303  1.3251  0.0724  0.7680
 5075SOL    HW226862   3.805   0.251  11.243  0.4067 -0.6713 -0.3126
 5076SOL     OW26863   2.983   2.202   6.786 -0.9833  0.4540 -0.1164
 5076SOL    HW126864   2.962   2.252   6.708  0.3083 -0.1470 -0.8546
 5076SOL    HW226865   3.078   2.216   6.793 -0.6369 -1.5043 -0.9813
 5077SOL     OW26866   1.635   3.720  13.643 -0.1598 -0.2234  0.5002
 5077SOL    HW126867   1.663   3.652  13.581 -1.4123 -0.1701 -0.1199
 5077SOL    HW226868   1.717   3.736  13.689 -0.2341 -0.9233  0.8845
 5078SOL     OW26869   1.540   3.645   9.960  0.0395  0.3140 -0.2752
 5078SOL    HW126870   1.575   3.580  10.021  0.9533  1.0288 -0.0243
 5078SOL    HW226871   1.458   3.676   9.998  0.4976  0.0281  0.9558
 5079SOL     OW26872   0.560   4.537  14.998  0.6200 -0.4897  0.2273
 5079SOL    HW126873   0.654   4.534  14.981  0.2045  0.0887 -2.2011
 5079SOL    HW226874   0.563   4.618  15.049  2.3783 -0.6281  0.3460
 5080SOL     OW26875   3.881   3.893   8.866 -0.2474  0.3352  1.0500
 5080SOL    HW126876   3.837   3.810   8.847  1.8465  0.0089 -2.2237
 5080SOL    HW226877   3.969   3.858   8.878  0.9244  3.0219  0.2551
 5081SOL     OW26878   2.452   4.609   7.191 -0.2004 -0.2837  0.2051
 5081SOL    HW126879   2.436   4.556   7.113  0.4877  3.3436 -2.3868
 5081SOL    HW226880   2.484   4.548   7.257 -0.2144 -1.5243 -0.9422
 5082SOL     OW26881   1.636   0.322   2.987  0.2142  0.2907 -0.4205
 5082SOL    HW126882   1.609   0.334   3.078  1.4746  1.7348 -0.2368
 5082SOL    HW226883   1.633   0.227   2.973 -0.4761  0.0326  1.5111
 5083SOL     OW26884   1.847   4.480   7.412 -0.1419  0.1044 -0.3093
 5083SOL    HW126885   1.874   4.547   7.475 -0.2419 -0.1090 -0.0375
 5083SOL    HW226886   1.900   4.500   7.335 -1.6160 -0.1055 -1.3754
 5084SOL     OW26887   0.748   2.751   2.767  0.2188  0.2302  0.4360
 5084SOL    HW126888   0.750   2.775   2.674 -2.4329 -0.4887  0.2099
 5084SOL    HW226889   0.678   2.800   2.811  0.0918 -0.2412  0.7575
 5085SOL     OW26890   1.251   2.582   2.260  0.0278 -0.5692  0.0054
 5085SOL    HW126891   1.265   2.521   2.188 -2.5253  0.8361 -1.6630
 5085SOL    HW226892   1.161   2.614   2.254  0.5094  0.7981  0.0639
 5086SOL     OW26893   3.924   4.502   5.876  0.2187 -0.1922 -0.6620
 5086SOL    HW126894   3.981   4.435   5.838  1.4272 -0.8294  2.2307
 5086SOL    HW226895   3.857   4.520   5.810 -1.0256 -0.8784  0.4080
 5087SOL     OW26896   1.222   2.468   3.960  0.5181  0.1992 -0.2758
 5087SOL    HW126897   1.269   2.534   3.908 -2.5064  0.2742 -2.9553
 5087SOL    HW226898   1.239   2.497   4.049 -1.9691 -0.3461  0.3712
 5088SOL     OW26899   1.778   2.355   5.165  0.0710  0.1456  0.2436
 5088SOL    HW126900   1.750   2.284   5.107 -0.1242  1.1648 -0.9157
 5088SOL    HW226901   1.712   2.422   5.148 -1.1220 -0.8123  1.1399
 5089SOL     OW26902   0.434   1.418   5.650  0.4763  0.4008  0.2973
 5089SOL    HW126903   0.418   1.486   5.585 -2.8822 -0.0446  0.6980
 5089SOL    HW226904   0.364   1.425   5.714 -0.4172 -1.9428 -0.4208
 5090SOL     OW26905   3.547   1.210  17.353 -0.1710 -0.3262 -0.7706
 5090SOL    HW126906   3.473   1.268  17.335 -0.4620 -1.1199 -2.1535
 5090SOL    HW226907   3.519   1.178  17.439  0.6977  0.5756 -0.1425
 5091SOL     OW26908   4.639   1.969   3.181  0.2319  0.2652 -0.5409
 5091SOL    HW126909   4.710   2.032   3.197 -0.9874  1.9800 -1.9672
 5091SOL    HW226910   4.640   1.958   3.086 -2.0017  1.0066 -0.6308
 5092SOL     OW26911   3.092   4.278  12.789  0.1490 -0.0899 -0.1833
 5092SOL    HW126912   3.116   4.371  12.783  2.5511 -0.5861  1.6722
 5092SOL    HW226913   3.142   4.259  12.869 -2.2709 -0.2194  1.3216
 5093SOL     OW26914   3.380   4.532   6.474  0.3284 -0.0652  0.2232
 5093SOL    HW126915   3.435   4.569   6.405 -2.4071 -0.8887 -2.3817
 5093SOL    HW226916   3.358   4.608   6.528 -2.7011 -0.8899  0.1438
 5094SOL     OW26917   1.265   1.584   4.392  0.4901 -0.2402  0.0762
 5094SOL    HW126918   1.240   1.550   4.478  0.1079  2.1707  0.9264
 5094SOL    HW226919   1.357   1.558   4.386  0.7646  0.3014  2.0103
 5095SOL     OW26920   0.223   1.267   4.976  0.6664  0.1782  0.0161
 5095SOL    HW126921   0.160   1.324   4.932  0.6782 -0.4537 -0.8148
 5095SOL    HW226922   0.188   1.178   4.963  1.6343 -0.0625 -0.9515
 5096SOL     OW26923   3.199   3.487   8.098  0.0856 -0.3997  0.3338
 5096SOL    HW126924   3.123   3.465   8.152 -0.1499 -2.2235 -0.7235
 5096SOL    HW226925   3.264   3.483   8.167 -0.7435  1.7124  1.2377
 5097SOL     OW26926   2.322   1.164   4.298 -0.7601 -0.0174 -0.1614
 5097SOL    HW126927   2.316   1.202   4.386  1.1886  0.2103 -0.1256
 5097SOL    HW226928   2.380   1.089   4.315  0.2621  0.2266 -2.6022
 5098SOL     OW26929   3.623   0.517   7.705  0.0120  0.2072 -0.1936
 5098SOL    HW126930   3.684   0.444   7.695 -1.7508 -0.9908 -2.0480
 5098SOL    HW226931   3.538   0.473   7.708  0.3560 -0.5295 -1.4343
 5099SOL     OW26932   4.628   2.014  14.880 -0.1997  0.0816 -0.5588
 5099SOL    HW126933   4.603   2.028  14.971 -2.5563  1.3267 -1.3842
 5099SOL    HW226934   4.655   1.922  14.884 -0.9338 -0.0805  0.5189
 5100SOL     OW26935   0.734   3.599   8.106 -0.2316  0.8106 -0.3175
 5100SOL    HW126936   0.682   3.547   8.045 -1.1733  0.0369  1.1382
 5100SOL    HW226937   0.683   3.596   8.187  0.2057 -0.0149 -0.0722
 5101SOL     OW26938   0.136   3.064   6.440  0.3542  0.8365 -0.2246
 5101SOL    HW126939   0.225   3.084   6.410  1.1335  2.6381  3.2083
 5101SOL    HW226940   0.152   3.002   6.510  0.0923 -0.4180 -1.2870
 5102SOL     OW26941   2.809   4.529   3.062 -0.1762  0.2695  0.1128
 5102SOL    HW126942   2.802   4.450   3.115  1.3739  0.6183  0.8326
 5102SOL    HW226943   2.902   4.553   3.062  0.3988 -2.0089  3.9624
 5103SOL     OW26944   2.631   2.275   0.168  0.2479 -0.3857  0.1777
 5103SOL    HW126945   2.599   2.347   0.114 -0.7243 -0.7736  0.2312
 5103SOL    HW226946   2.604   2.313   0.251  0.8491  0.9259 -0.2360
 5104SOL     OW26947   0.870   1.897  12.964  0.3028  0.2312 -0.0141
 5104SOL    HW126948   0.913   1.972  13.006 -1.0214  1.3405 -0.6102
 5104SOL    HW226949   0.911   1.823  13.009 -0.6199 -0.6371 -0.6011
 5105SOL     OW26950   4.067   3.216   5.019  0.5343  0.0841  0.0269
 5105SOL    HW126951   4.072   3.194   5.112 -2.5879 -1.9894 -0.2971
 5105SOL    HW226952   4.049   3.131   4.979 -3.2385  0.7849  0.1869
 5106SOL     OW26953   1.448   3.649   8.384 -0.6480 -0.0505 -0.4996
 5106SOL    HW126954   1.516   3.678   8.445 -0.7906 -1.9034  0.5582
 5106SOL    HW226955   1.402   3.585   8.439  2.9896  0.6270  3.2947
 5107SOL     OW26956   4.295   2.446   3.576 -0.6855  0.0633  0.2264
 5107SOL    HW126957   4.275   2.459   3.483 -1.5300  2.6938  0.7894
 5107SOL    HW226958   4.383   2.412   3.556 -1.8827 -0.9284 -3.2784
 5108SOL     OW26959   4.497   0.480   8.889  0.2536 -0.5305 -0.4908
 5108SOL    HW126960   4.505   0.476   8.793 -0.7688  1.8585 -0.6871
 5108SOL    HW226961   4.421   0.536   8.907 -0.2275 -1.1879 -0.4678
 5109SOL     OW26962   3.117   1.575   5.301 -0.6461  0.1903  0.4827
 5109SOL    HW126963   3.055   1.635   5.342  0.2772  1.3549  0.1760
 5109SOL    HW226964   3.168   1.566   5.382 -0.5965 -0.0261  0.4293
 5110SOL     OW26965   2.001   2.801   5.761 -0.1740 -0.4742  0.3076
 5110SOL    HW126966   1.937   2.796   5.833  0.2941 -1.2697  0.6711
 5110SOL    HW226967   2.025   2.709   5.751  0.2353 -0.1900 -1.2531
 5111SOL     OW26968   0.691   1.404   2.864 -0.1932  0.1252 -0.1264
 5111SOL    HW126969   0.730   1.416   2.950  0.2477 -0.0369 -0.3059
 5111SOL    HW226970   0.730   1.474   2.811  0.7546  0.8475  1.5551
 5112SOL     OW26971   2.574   2.578  14.075  0.4446 -0.1483 -0.4939
 5112SOL    HW126972   2.631   2.540  14.008  1.7303  3.1469 -1.2403
 5112SOL    HW226973   2.492   2.530  14.061 -0.9495  2.4816 -1.3444
 5113SOL     OW26974   0.854   0.628   3.163 -0.5478 -0.4276 -0.3353
 5113SOL    HW126975   0.865   0.720   3.187 -0.5866 -0.8977  1.5356
 5113SOL    HW226976   0.938   0.598   3.197  0.4034  1.8246 -0.7403
 5114SOL     OW26977   0.084   4.090   7.882  0.2220  0.0487 -0.8190
 5114SOL    HW126978   0.155   4.028   7.865  0.8154  0.6742 -0.6162
 5114SOL    HW226979   0.005   4.036   7.889 -0.3567  0.8776 -1.0475
 5115SOL     OW26980   0.394   1.813   3.589 -0.2465 -0.3679 -0.7290
 5115SOL    HW126981   0.310   1.853   3.608 -0.6134 -1.6188  0.2913
 5115SOL    HW226982   0.370   1.722   3.572  2.0634 -1.4410  1.8000
 5116SOL     OW26983   0.341   4.118   5.523 -0.3262 -0.4724  0.4024
 5116SOL    HW126984   0.278   4.061   5.479 -2.1497  0.5457  1.7019
 5116SOL    HW226985   0.317   4.119   5.616  3.6664 -3.4612  1.4426
 5117SOL     OW26986   2.162   1.124  13.556 -0.1076 -0.3038  0.0156
 5117SOL    HW126987   2.249   1.085  13.549  0.0298 -0.2492  1.4241
 5117SOL    HW226988   2.174   1.175  13.636 -0.6956  0.0578 -0.1209
 5118SOL     OW26989   2.062   4.503   5.826 -0.0383  0.3821  0.1429
 5118SOL    HW126990   2.098   4.545   5.904 -0.7724  0.2011  0.5791
 5118SOL    HW226991   1.975   4.481   5.860  0.6796  0.2038  1.8847
 5119SOL     OW26992   2.689   3.934  16.512 -0.1242 -0.2296 -0.1691
 5119SOL    HW126993   2.677   3.964  16.602  2.3917 -1.3348  0.5417
 5119SOL    HW226994   2.601   3.911  16.484 -0.1990 -0.0925 -0.0422
 5120SOL     OW26995   2.795   1.764   7.511  0.0775  0.4709  0.0228
 5120SOL    HW126996   2.737   1.826   7.556 -0.6832 -1.1429  1.2419
 5120SOL    HW226997   2.867   1.822   7.485  0.5074  0.0758  0.3419
 5121SOL     OW26998   0.172   4.346  14.178  0.5170  0.2061  0.2904
 5121SOL    HW126999   0.243   4.283  14.161 -0.1997  0.3970 -3.3426
 5121SOL    HW227000   0.154   4.328  14.271  0.2581  2.1072  0.5955
 5122SOL     OW27001   1.834   4.429   4.695  0.3991 -0.4854  0.4162
 5122SOL    HW127002   1.889   4.357   4.666 -0.6834 -1.2222  0.1909
 5122SOL    HW227003   1.837   4.414   4.789 -1.2107 -0.8933  0.4043
 5123SOL     OW27004   0.478   0.946   6.326 -0.6503  0.0977  0.3449
 5123SOL    HW127005   0.501   0.853   6.317 -1.3603  0.1098 -1.5566
 5123SOL    HW227006   0.383   0.947   6.333 -0.5416 -1.9218  2.1466
 5124SOL     OW27007   4.313   1.374   7.572  0.0168 -0.7681 -0.2185
 5124SOL    HW127008   4.264   1.292   7.561 -1.7323  0.0082  1.9511
 5124SOL    HW227009   4.297   1.407   7.660 -0.4619  0.1538 -0.6539
 5125SOL     OW27010   1.626   2.938   8.437  0.4914  0.7596  0.1567
 5125SOL    HW127011   1.556   2.878   8.466  1.0623 -0.3730 -0.8142
 5125SOL    HW227012   1.595   2.951   8.348 -0.6500 -0.5427  0.3582
 5126SOL     OW27013   2.834   2.705   3.450 -0.3940  0.4649  0.0248
 5126SOL    HW127014   2.883   2.783   3.480  0.3521 -0.0723  0.2098
 5126SOL    HW227015   2.754   2.724   3.499  0.6171  0.3332  1.7520
 5127SOL     OW27016   0.069   2.792   3.357  0.1667  0.0755  0.2536
 5127SOL    HW127017   0.073   2.853   3.284 -0.7759  1.3770  1.3080
 5127SOL    HW227018   0.133   2.726   3.329  0.4780  0.4300  0.1367
 5128SOL     OW27019   4.260   3.822   6.175 -0.3316  0.0416  0.2271
 5128SOL    HW127020   4.226   3.777   6.253 -2.7846 -0.9084 -1.4125
 5128SOL    HW227021   4.194   3.820   6.107 -0.8081 -2.5693  0.7645
 5129SOL     OW27022   1.377   1.831  10.465  0.0296 -0.3741 -0.0701
 5129SOL    HW127023   1.404   1.870  10.382  0.9499 -0.6155  0.1175
 5129SOL    HW227024   1.411   1.895  10.528  2.2096 -0.4237 -1.2124
 5130SOL     OW27025   4.490   2.786   4.461 -0.1653 -0.3096 -0.2390
 5130SOL    HW127026   4.539   2.852   4.412 -0.0230 -1.3909 -1.5374
 5130SOL    HW227027   4.405   2.826   4.479  0.6048  0.9000  0.6921
 5131SOL     OW27028   1.077   3.146  14.634  0.1175 -0.0330 -0.0672
 5131SOL    HW127029   1.074   3.110  14.723  1.4676  1.4559  0.5816
 5131SOL    HW227030   0.983   3.163  14.629  0.5874  1.9601 -1.9473
 5132SOL     OW27031   3.327   0.886   3.879 -0.1941 -0.1925 -0.4469
 5132SOL    HW127032   3.419   0.860   3.872 -0.0100  1.0483 -2.4553
 5132SOL    HW227033   3.292   0.798   3.866  2.2479 -0.8170 -2.8637
 5133SOL     OW27034   2.523   2.809   5.903  0.4786 -0.2515 -0.8531
 5133SOL    HW127035   2.514   2.738   5.839 -1.2599  1.3303 -2.3577
 5133SOL    HW227036   2.522   2.747   5.976 -0.3482  0.1838 -0.4937
 5134SOL     OW27037   2.064   1.619   5.225 -0.3691  0.2674  0.3639
 5134SOL    HW127038   2.005   1.543   5.217  1.3515 -0.8909 -1.0353
 5134SOL    HW227039   2.122   1.606   5.151  0.6566  0.7465  1.0858
 5135SOL     OW27040   4.101   0.552  11.641 -0.3745 -0.6460  0.0615
 5135SOL    HW127041   4.175   0.496  11.619  1.0075  0.4300  1.9653
 5135SOL    HW227042   4.141   0.616  11.700 -1.7114  0.2826 -0.0324
 5136SOL     OW27043   0.325   0.193   0.767 -0.5218 -0.3096  0.8076
 5136SOL    HW127044   0.236   0.159   0.763 -0.2619 -0.7189 -1.0677
 5136SOL    HW227045   0.313   0.248   0.845  0.2184  0.9724  0.0334
 5137SOL     OW27046   0.761   3.162   2.235 -0.8224 -0.0879 -0.0540
 5137SOL    HW127047   0.734   3.252   2.215 -0.7633  0.1360  0.8653
 5137SOL    HW227048   0.833   3.184   2.295 -0.9773 -1.9283  0.7993
 5138SOL     OW27049   1.505   3.120   6.126  0.3310 -0.1345 -0.0858
 5138SOL    HW127050   1.475   3.069   6.202 -1.1070  1.6303  0.5335
 5138SOL    HW227051   1.585   3.162   6.157  0.4767 -0.4371 -0.0529
 5139SOL     OW27052   1.701   1.141  10.309 -0.4629  0.0950 -0.3828
 5139SOL    HW127053   1.625   1.105  10.263 -0.1929 -0.1666 -0.6285
 5139SOL    HW227054   1.753   1.060  10.319 -0.1033  0.3559 -0.1360
 5140SOL     OW27055   2.454   1.995   0.551  0.6313  0.1987  0.4682
 5140SOL    HW127056   2.401   1.998   0.471  0.1567  0.7395  0.7995
 5140SOL    HW227057   2.482   1.904   0.540 -1.0946 -0.1142 -1.3730
 5141SOL     OW27058   0.478   1.263   3.640 -0.1952  0.5403 -0.0523
 5141SOL    HW127059   0.566   1.229   3.654 -1.1286 -0.9195  2.1279
 5141SOL    HW227060   0.430   1.226   3.714  1.9006 -0.9231  0.5763
 5142SOL     OW27061   4.420   1.434   4.936  0.0530 -0.4441  0.0237
 5142SOL    HW127062   4.487   1.366   4.930  0.0869 -0.3806 -0.3022
 5142SOL    HW227063   4.418   1.452   4.842  1.5513  3.4030  0.7432
 5143SOL     OW27064   3.881   2.648  14.031 -0.1260 -0.4018  0.1942
 5143SOL    HW127065   3.831   2.702  14.092  1.5040  1.6524 -0.2647
 5143SOL    HW227066   3.884   2.568  14.084  0.8515 -1.1072 -0.9136
 5144SOL     OW27067   3.197   0.980   2.078 -0.6435 -0.3923 -0.5107
 5144SOL    HW127068   3.126   0.916   2.083 -1.0805 -0.0772 -2.7413
 5144SOL    HW227069   3.256   0.944   2.144  0.6429  0.7032 -1.0611
 5145SOL     OW27070   4.011   1.743  16.568 -0.0081 -0.7065  0.0926
 5145SOL    HW127071   4.044   1.667  16.520  0.9583 -0.5015  0.4321
 5145SOL    HW227072   3.967   1.708  16.645  0.3796 -1.3772  0.0102
 5146SOL     OW27073   3.599   2.144  14.568  0.1779 -0.0948  1.0040
 5146SOL    HW127074   3.521   2.166  14.517  0.8536 -0.5732 -0.2290
 5146SOL    HW227075   3.651   2.102  14.499  2.4767 -0.4581  2.9488
 5147SOL     OW27076   3.822   3.500   9.172 -0.1895 -0.0772 -0.0099
 5147SOL    HW127077   3.739   3.526   9.132  0.5030  0.7823 -0.9159
 5147SOL    HW227078   3.787   3.456   9.249  0.4224 -1.4254 -0.5061
 5148SOL     OW27079   1.173   3.420  15.210 -0.2447  0.5587  0.3411
 5148SOL    HW127080   1.117   3.357  15.255  2.4886 -0.4733  2.2749
 5148SOL    HW227081   1.179   3.375  15.125  0.4936  1.2804  0.0103
 5149SOL     OW27082   0.756   1.915  10.610 -0.6542  0.2787 -0.5793
 5149SOL    HW127083   0.840   1.888  10.647 -0.8753  0.4954  0.0845
 5149SOL    HW227084   0.738   1.998  10.655  0.3672  0.0272  0.2956
 5150SOL     OW27085   4.315   1.584   0.020  0.9404  0.2803  0.1939
 5150SOL    HW127086   4.304   1.489   0.023  1.1476  0.2500  0.0150
 5150SOL    HW227087   4.408   1.596  17.738  0.6507 -0.3462 -1.4164
 5151SOL     OW27088   2.745   2.169   8.301 -0.2125  0.0717 -0.1179
 5151SOL    HW127089   2.676   2.119   8.257  0.2551 -1.8244  1.3258
 5151SOL    HW227090   2.689   2.173   8.379 -1.0167 -0.5144 -0.6673
 5152SOL     OW27091   4.508   4.649  15.804 -1.2224 -0.2825 -0.3735
 5152SOL    HW127092   4.580   4.673  15.861 -1.0665  0.5621 -0.9181
 5152SOL    HW227093   4.530   4.687  15.719 -2.5991 -0.0749 -0.6513
 5153SOL     OW27094   1.577   2.456  14.350  0.3857 -0.0668 -0.0851
 5153SOL    HW127095   1.507   2.474  14.288  0.1302 -1.5210 -0.2361
 5153SOL    HW227096   1.595   2.367  14.318 -1.4477 -0.3127 -0.4298
 5154SOL     OW27097   0.593   4.259   2.018  0.0708  0.2784  0.4459
 5154SOL    HW127098   0.663   4.238   2.079  0.9620  1.2011 -0.2661
 5154SOL    HW227099   0.595   4.182   1.962 -1.7960  0.1932  0.4773
 5155SOL     OW27100   3.286   1.450   3.671 -0.4119  0.2442  0.1171
 5155SOL    HW127101   3.346   1.482   3.603 -0.1813 -1.3195 -0.4113
 5155SOL    HW227102   3.339   1.388   3.721  0.6838  2.6440  1.9789
 5156SOL     OW27103   1.360   3.717  14.619  0.3976 -0.7026 -0.5439
 5156SOL    HW127104   1.341   3.675  14.535  0.2903 -1.2527 -0.2512
 5156SOL    HW227105   1.412   3.796  14.605 -0.0930  0.0870  2.0076
 5157SOL     OW27106   3.192   1.164   4.720 -0.7428 -0.3379  0.9220
 5157SOL    HW127107   3.287   1.165   4.733 -0.7797 -0.0261  1.1686
 5157SOL    HW227108   3.193   1.197   4.630 -1.1526  0.5868  1.2504
 5158SOL     OW27109   1.558   0.417   7.996 -0.1809  0.4647 -0.0226
 5158SOL    HW127110   1.529   0.340   7.947  0.5865  1.3718 -1.8990
 5158SOL    HW227111   1.520   0.393   8.081  1.2344  1.0264  0.7750
 5159SOL     OW27112   1.853   1.196   6.171  0.7209 -0.3488 -0.5523
 5159SOL    HW127113   1.876   1.277   6.126  2.2305  0.1203  1.0620
 5159SOL    HW227114   1.859   1.130   6.102 -1.1062 -0.7687 -0.3236
 5160SOL     OW27115   1.620   1.211   9.509  0.3332 -0.1400  0.0772
 5160SOL    HW127116   1.696   1.182   9.459  0.5006  0.4164  0.0022
 5160SOL    HW227117   1.656   1.298   9.525  3.9089 -1.6956  0.3001
 5161SOL     OW27118   3.319   1.559   4.264  0.4038 -0.4212  0.3203
 5161SOL    HW127119   3.255   1.488   4.269 -0.1549  0.0343 -0.5430
 5161SOL    HW227120   3.290   1.619   4.333 -0.3519 -1.5480  0.9953
 5162SOL     OW27121   3.139   4.719   3.480 -0.8900  0.1255  0.1254
 5162SOL    HW127122   3.232   0.004   3.488 -0.4583 -1.6432 -0.3980
 5162SOL    HW227123   3.102   0.069   3.501 -0.2948  0.6083 -0.8078
 5163SOL     OW27124   2.280   3.961   7.652 -0.2554 -0.6293  0.2297
 5163SOL    HW127125   2.274   3.964   7.747  1.4649 -1.8024  0.3875
 5163SOL    HW227126   2.365   3.917   7.649  0.3566  0.6531 -1.1276
 5164SOL     OW27127   1.621   4.297   3.680 -0.0080  0.0466  0.1928
 5164SOL    HW127128   1.556   4.236   3.715 -0.6044  0.9311  0.6122
 5164SOL    HW227129   1.663   4.325   3.761  2.3112  0.1194 -1.0145
 5165SOL     OW27130   4.263   3.641   2.535  0.3756 -0.1491  0.4435
 5165SOL    HW127131   4.244   3.548   2.546  0.3609 -0.3342 -1.0903
 5165SOL    HW227132   4.356   3.646   2.557 -0.1675  0.1123  2.6021
 5166SOL     OW27133   3.574   2.266   3.942 -0.2965 -0.5798 -0.5455
 5166SOL    HW127134   3.597   2.240   3.852  3.6587  0.2390  0.2041
 5166SOL    HW227135   3.484   2.234   3.943  0.2982 -2.2349  0.0495
 5167SOL     OW27136   0.191   1.228   5.537  0.6187  0.1103  0.2622
 5167SOL    HW127137   0.184   1.302   5.598 -0.6437  1.7312 -1.8428
 5167SOL    HW227138   0.198   1.271   5.452 -2.0300 -0.8814 -0.4753
 5168SOL     OW27139   1.994   2.464   3.996  0.2885 -0.2832 -0.5578
 5168SOL    HW127140   2.032   2.476   3.909  0.5542  1.4187 -0.2180
 5168SOL    HW227141   2.020   2.550   4.031 -1.5920  0.8375 -1.8690
 5169SOL     OW27142   1.462   2.168  15.147 -0.0775  0.3677 -0.0300
 5169SOL    HW127143   1.482   2.082  15.111 -0.0022  0.2157  0.3732
 5169SOL    HW227144   1.429   2.207  15.066 -1.1239 -2.1890 -0.8110
 5170SOL     OW27145   0.373   3.423   8.895  0.2453  0.2311  0.0310
 5170SOL    HW127146   0.283   3.393   8.912  0.3869  0.2584  0.7954
 5170SOL    HW227147   0.389   3.439   8.988 -1.0836 -0.4308  0.3878
 5171SOL     OW27148   1.052   4.650   5.781 -0.0691 -0.0872 -0.0394
 5171SOL    HW127149   1.004   4.728   5.756  0.1182 -1.0443 -3.3418
 5171SOL    HW227150   1.139   4.686   5.799  0.1695 -1.2825  1.2161
 5172SOL     OW27151   0.860   0.355  12.940 -0.0718  0.0563  0.5542
 5172SOL    HW127152   0.901   0.309  13.013 -1.3930 -1.4744  0.3401
 5172SOL    HW227153   0.928   0.420  12.922 -1.9341  1.6336 -0.8047
 5173SOL     OW27154   2.203   0.196   8.832  0.1327 -0.7998  0.0718
 5173SOL    HW127155   2.255   0.193   8.912 -0.0224  0.1893  0.2020
 5173SOL    HW227156   2.130   0.137   8.853 -2.1745  1.1282 -2.4466
 5174SOL     OW27157   0.906   1.440   5.549  0.2367 -0.0270 -0.3870
 5174SOL    HW127158   0.906   1.508   5.617  1.1543 -0.7103  0.3065
 5174SOL    HW227159   0.829   1.388   5.570  1.0877 -1.0397  0.2062
 5175SOL     OW27160   4.541   3.624   6.375  0.2673 -0.0506  0.0886
 5175SOL    HW127161   4.446   3.637   6.376  0.0699 -1.6206  1.7579
 5175SOL    HW227162   4.551   3.539   6.331  1.7133  0.5325 -0.7145
 5176SOL     OW27163   2.978   2.170  15.022  0.4058  0.0950 -0.7082
 5176SOL    HW127164   2.933   2.099  15.067  1.3145  0.0997  0.2111
 5176SOL    HW227165   2.913   2.186  14.953 -1.3596 -0.5885  0.8075
 5177SOL     OW27166   0.206   4.000  11.203  0.1412 -0.0519 -0.1150
 5177SOL    HW127167   0.117   4.036  11.199  0.1385 -0.1643 -1.0402
 5177SOL    HW227168   0.216   3.959  11.117 -3.6411  0.6295 -0.8790
 5178SOL     OW27169   1.160   0.747   2.968 -0.2432 -0.1740  0.0063
 5178SOL    HW127170   1.072   0.770   2.937  0.0977 -0.6882 -1.3678
 5178SOL    HW227171   1.163   0.652   2.961  2.5757 -0.2642  2.8134
 5179SOL     OW27172   4.347   0.266  12.009  0.5147  0.8215  0.5655
 5179SOL    HW127173   4.423   0.259  11.950  0.5459 -2.1942  0.9297
 5179SOL    HW227174   4.382   0.217  12.083 -0.7178  0.0703  0.6435
 5180SOL     OW27175   0.386   2.062   7.126 -0.6699 -0.5905  0.4457
 5180SOL    HW127176   0.431   2.031   7.048  2.6823  4.3882  0.3824
 5180SOL    HW227177   0.321   1.997   7.154 -0.8993 -1.1833 -1.5166
 5181SOL     OW27178   4.267   2.266   2.032 -0.4791  0.0875  0.0300
 5181SOL    HW127179   4.359   2.248   2.051 -1.0884 -1.0469  1.9604
 5181SOL    HW227180   4.226   2.192   2.078 -0.5389 -0.6534 -1.2083
 5182SOL     OW27181   2.179   2.900   5.565  0.5850  0.5865  0.4308
 5182SOL    HW127182   2.094   2.942   5.548 -0.4069 -0.7015  2.2109
 5182SOL    HW227183   2.163   2.831   5.629  0.5361  0.5703  0.4013
 5183SOL     OW27184   4.380   3.553   3.960  0.2003 -0.1553  0.1868
 5183SOL    HW127185   4.317   3.586   3.896  1.4095  1.0816 -0.3723
 5183SOL    HW227186   4.430   3.493   3.904  0.7374  0.3167  0.1648
 5184SOL     OW27187   0.398   4.227   6.325  0.2315 -0.1607  0.0907
 5184SOL    HW127188   0.399   4.131   6.322 -0.2995 -0.1802  0.7781
 5184SOL    HW227189   0.313   4.244   6.284  0.0687 -0.2479  0.3926
 5185SOL     OW27190   0.258   0.601   2.768 -0.1412  0.2681  0.6160
 5185SOL    HW127191   0.258   0.597   2.863 -2.2563  0.1591  0.5948
 5185SOL    HW227192   0.203   0.527   2.743  2.0767 -1.4355  0.7715
 5186SOL     OW27193   0.665   4.293   6.287  0.4535 -0.0120  0.1435
 5186SOL    HW127194   0.572   4.272   6.288  0.6782 -1.0598 -0.5609
 5186SOL    HW227195   0.699   4.205   6.271  0.3941 -0.0245  0.0851
 5187SOL     OW27196   4.639   0.198   3.566 -0.0977  0.4639 -0.3153
 5187SOL    HW127197   4.545   0.215   3.565 -0.5317 -1.5938  2.3544
 5187SOL    HW227198   4.672   0.224   3.481  0.8437  0.3142 -0.0020
 5188SOL     OW27199   4.664   2.723   3.926 -0.5289 -0.1526 -0.2103
 5188SOL    HW127200   4.682   2.633   3.951 -1.6877 -0.0695  0.9072
 5188SOL    HW227201   4.622   2.726   3.840 -0.7270  0.2515 -0.1019
 5189SOL     OW27202   0.919   1.718  16.438  0.1010  0.1923 -0.0561
 5189SOL    HW127203   0.922   1.756  16.526 -0.2104 -0.2240  0.1317
 5189SOL    HW227204   0.889   1.631  16.464  1.0561 -0.0867  0.1177
 5190SOL     OW27205   2.894   2.239  11.998 -0.6795  0.1976  0.6264
 5190SOL    HW127206   2.949   2.317  11.986 -0.0558 -0.4975 -1.0787
 5190SOL    HW227207   2.874   2.205  11.910 -0.6979  0.0477  0.6899
 5191SOL     OW27208   0.577   1.693  12.194 -0.6156  0.1350  0.2023
 5191SOL    HW127209   0.563   1.640  12.273  0.2820 -0.4145 -0.0067
 5191SOL    HW227210   0.665   1.731  12.197 -0.9287  1.1292 -3.7787
 5192SOL     OW27211   4.533   4.161   8.998 -0.3649  0.0652  0.0737
 5192SOL    HW127212   4.536   4.241   8.944  1.0627  0.3286  0.5488
 5192SOL    HW227213   4.459   4.182   9.055 -0.4163 -0.4518  0.1938
 5193SOL     OW27214   4.094   4.678   7.662 -0.0164 -0.1316 -0.5448
 5193SOL    HW127215   4.114   4.686   7.569 -2.9430  2.2372 -0.9555
 5193SOL    HW227216   4.000   4.667   7.672 -0.2309  2.3543  0.1833
 5194SOL     OW27217   0.293   2.709  13.463  0.1946  0.3566 -0.2954
 5194SOL    HW127218   0.200   2.687  13.459 -0.2212  2.3906 -2.0129
 5194SOL    HW227219   0.335   2.638  13.414 -0.3073 -0.1568  0.0244
 5195SOL     OW27220   4.697   1.871   5.494  0.0690 -0.0548  0.1115
 5195SOL    HW127221   4.670   1.894   5.405 -0.2586 -2.6543 -0.4426
 5195SOL    HW227222   4.629   1.923   5.537 -0.0782  1.9389 -2.4742
 5196SOL     OW27223   2.248   1.841  17.714 -0.1375 -0.0417 -0.6095
 5196SOL    HW127224   2.237   1.749  17.737  0.4899  0.3792  1.4374
 5196SOL    HW227225   2.258   1.838  17.619  1.2062 -0.1203 -0.4656
 5197SOL     OW27226   2.323   2.135  17.729 -0.5081 -1.1944 -0.0081
 5197SOL    HW127227   2.320   2.043   0.016 -0.8346 -0.8960  1.0124
 5197SOL    HW227228   2.374   2.114  17.651  0.6706  3.4582 -0.4969
 5198SOL     OW27229   2.277   1.273   1.772 -0.0750 -0.1199 -0.2526
 5198SOL    HW127230   2.256   1.328   1.697 -0.9776 -0.6106 -0.3568
 5198SOL    HW227231   2.371   1.293   1.778  0.0625 -0.7129 -0.3948
 5199SOL     OW27232   4.424   2.908   5.864  0.4975  0.0104 -0.7394
 5199SOL    HW127233   4.358   2.972   5.835  0.2845 -0.2759 -0.8865
 5199SOL    HW227234   4.405   2.826   5.818  1.6076 -1.0068  0.5975
 5200SOL     OW27235   0.367   0.419   6.248 -0.1429  0.4979 -0.4597
 5200SOL    HW127236   0.427   0.344   6.248  0.1392  0.7374  1.2120
 5200SOL    HW227237   0.288   0.379   6.284  2.5666 -2.2944  2.3492
 5201SOL     OW27238   0.171   3.838   4.976  0.0914  0.0880 -0.4552
 5201SOL    HW127239   0.182   3.920   4.927 -0.1084  0.7285  0.5691
 5201SOL    HW227240   0.244   3.847   5.038 -1.4946 -0.0941  1.4544
 5202SOL     OW27241   2.849   2.027   5.467 -0.0280  0.4548 -0.4669
 5202SOL    HW127242   2.782   2.088   5.437 -0.7147 -0.8741 -1.5786
 5202SOL    HW227243   2.868   2.075   5.548  0.1548 -1.8005  0.8276
 5203SOL     OW27244   0.557   4.464   4.229 -1.0451 -0.0492 -0.1335
 5203SOL    HW127245   0.500   4.403   4.181 -1.1058 -1.2921  1.5190
 5203SOL    HW227246   0.490   4.514   4.275 -2.9824 -1.8574 -0.9847
 5204SOL     OW27247   3.184   0.282   6.879  0.3369 -0.1974  0.4252
 5204SOL    HW127248   3.166   0.216   6.946 -0.3310 -1.8992 -1.4006
 5204SOL    HW227249   3.141   0.231   6.810  1.8408 -0.3609 -0.3910
 5205SOL     OW27250   1.351   4.693   7.348  0.3274  0.4821  0.1340
 5205SOL    HW127251   1.354   0.030   7.412 -1.6468  2.4884 -2.0182
 5205SOL    HW227252   1.345   0.002   7.263 -2.4345 -0.4931 -0.1568
 5206SOL     OW27253   1.397   4.675  13.310 -0.0122 -0.4440 -0.2613
 5206SOL    HW127254   1.488   4.705  13.309 -0.6030  1.2793 -1.7728
 5206SOL    HW227255   1.420   4.584  13.330 -1.3256 -0.5770  0.6495
 5207SOL     OW27256   2.103   3.450   2.744 -0.2283 -0.0141  0.2862
 5207SOL    HW127257   2.062   3.434   2.829 -0.1249 -2.0447 -0.0253
 5207SOL    HW227258   2.034   3.421   2.683  0.1503  1.5359 -0.8778
 5208SOL     OW27259   3.874   0.171  10.563 -0.9381  0.3137  0.7576
 5208SOL    HW127260   3.796   0.211  10.601 -2.6842 -4.0300  1.6814
 5208SOL    HW227261   3.934   0.213  10.625 -1.8880  0.3905  1.6192
 5209SOL     OW27262   0.009   2.974   1.478 -0.2955 -0.2978  0.2670
 5209SOL    HW127263   0.104   2.974   1.491 -0.2261  0.0771 -0.2532
 5209SOL    HW227264   0.003   2.975   1.382 -2.0040  0.3309  0.3794
 5210SOL     OW27265   3.380   2.290   9.067  0.4571  0.3884 -0.0221
 5210SOL    HW127266   3.340   2.366   9.025 -2.3836 -1.7171 -1.1722
 5210SOL    HW227267   3.470   2.320   9.075 -0.0446  1.8241  0.2611
 5211SOL     OW27268   3.840   0.265   4.608 -0.5689 -0.5724  0.3948
 5211SOL    HW127269   3.887   0.334   4.560  1.7762 -2.0706  0.5494
 5211SOL    HW227270   3.857   0.188   4.554  0.6183  0.6739 -1.0128
 5212SOL     OW27271   1.591   0.901   3.182  0.3809 -0.0325 -0.0241
 5212SOL    HW127272   1.567   0.819   3.140 -0.9340  0.3351  0.0066
 5212SOL    HW227273   1.549   0.977   3.142 -1.0900 -1.5611 -1.3746
 5213SOL     OW27274   3.479   3.145   9.483  0.1014  0.2614  0.5097
 5213SOL    HW127275   3.513   3.133   9.571 -2.2480  3.5238  1.8490
 5213SOL    HW227276   3.410   3.078   9.478  1.3485 -1.1609  2.5977
 5214SOL     OW27277   3.468   0.999   3.203 -0.1263 -0.2692 -0.0661
 5214SOL    HW127278   3.389   1.026   3.249  1.8068  1.1542  2.4123
 5214SOL    HW227279   3.469   1.071   3.140  0.8412 -1.4455 -1.4084
 5215SOL     OW27280   2.691   0.084   2.352  0.1713  0.6252  0.0551
 5215SOL    HW127281   2.686   0.046   2.440  2.0522  1.7018  0.6239
 5215SOL    HW227282   2.674   0.000   2.310 -2.0621  1.2949 -0.3646
 5216SOL     OW27283   2.114   3.261  17.131 -0.1232 -0.1972  0.2031
 5216SOL    HW127284   2.079   3.343  17.096  1.6621  0.2349 -0.5536
 5216SOL    HW227285   2.075   3.264  17.219 -0.5313 -1.1043  0.0557
 5217SOL     OW27286   1.120   0.543   1.868  0.0731  0.0507 -0.2146
 5217SOL    HW127287   1.096   0.633   1.890  2.2009  0.8050 -1.0337
 5217SOL    HW227288   1.091   0.505   1.951  0.3273  3.5472  1.4970
 5218SOL     OW27289   0.034   0.396   8.938  0.3486 -0.3118  0.1581
 5218SOL    HW127290   0.048   0.433   9.025  2.0099  0.6122 -0.5011
 5218SOL    HW227291   4.676   0.418   8.933  0.7121  1.0717 -0.5660
 5219SOL     OW27292   0.300   2.346   0.179 -0.1432  0.0851  0.0065
 5219SOL    HW127293   0.220   2.293   0.180 -1.1268  1.5868  1.2481
 5219SOL    HW227294   0.306   2.354   0.274  3.8219  0.2472 -0.2582
 5220SOL     OW27295   4.528   3.495   2.262  0.2886 -0.1038 -0.6819
 5220SOL    HW127296   4.550   3.406   2.288 -0.2281  0.1233  0.5620
 5220SOL    HW227297   4.606   3.542   2.291  0.0697  0.4399 -0.9785
 5221SOL     OW27298   2.170   2.978  15.196  0.2445 -0.8778  0.1166
 5221SOL    HW127299   2.221   3.053  15.166 -0.5593 -1.0096 -1.6098
 5221SOL    HW227300   2.242   2.917  15.213  0.4179 -0.0411  2.4039
 5222SOL     OW27301   0.673   4.675   1.811  0.4032  0.3722  0.2304
 5222SOL    HW127302   0.657   4.672   1.905  0.8804 -2.9049  0.2161
 5222SOL    HW227303   0.606   4.733   1.774 -0.1504 -0.9695 -0.8731
 5223SOL     OW27304   2.555   3.716   8.476 -0.3230 -0.0711 -0.2981
 5223SOL    HW127305   2.473   3.675   8.505 -1.3892  1.7900 -0.6989
 5223SOL    HW227306   2.612   3.734   8.551 -1.5047 -2.3513  1.1370
 5224SOL     OW27307   2.700   2.602   8.035  0.5777 -0.2624  0.3519
 5224SOL    HW127308   2.690   2.695   8.057 -1.0554 -0.2704 -0.3313
 5224SOL    HW227309   2.766   2.585   8.102  1.7850 -0.5361 -0.8975
 5225SOL     OW27310   4.181   1.777   7.235 -1.0401  0.2528  0.3707
 5225SOL    HW127311   4.248   1.745   7.175 -2.2299 -1.1736 -0.2000
 5225SOL    HW227312   4.172   1.707   7.299 -0.0903  0.3500  0.6137
 5226SOL     OW27313   0.816   2.377   8.700  0.4810  0.0524 -0.3831
 5226SOL    HW127314   0.849   2.433   8.629 -0.1233  1.0576  0.1269
 5226SOL    HW227315   0.751   2.320   8.658  0.4346 -0.0863 -0.1188
 5227SOL     OW27316   3.604   0.373   6.671 -0.0513  0.1904  0.1409
 5227SOL    HW127317   3.670   0.431   6.632  0.9741 -1.4447 -0.5952
 5227SOL    HW227318   3.609   0.303   6.605  0.2451 -1.5965  2.0527
 5228SOL     OW27319   3.749   3.243   6.767  0.1648  0.4516 -0.4914
 5228SOL    HW127320   3.748   3.168   6.826 -0.0882 -0.3313 -1.4889
 5228SOL    HW227321   3.699   3.307   6.819 -0.5879 -0.0205 -0.6353
 5229SOL     OW27322   2.006   0.000   8.926  0.2572  0.3734  0.9544
 5229SOL    HW127323   2.016   4.688   9.008  2.9214  1.5989  1.3154
 5229SOL    HW227324   1.944   4.679   8.880 -0.1947  0.0225  1.9992
 5230SOL     OW27325   1.634   0.968   7.044 -0.3259  0.2207  0.7816
 5230SOL    HW127326   1.717   0.935   7.078 -0.9569 -1.6428  0.4987
 5230SOL    HW227327   1.646   0.942   6.953  1.5109  1.7494  0.5990
 5231SOL     OW27328   0.871   4.295   2.014  0.7039 -0.0943 -0.5170
 5231SOL    HW127329   0.783   4.314   1.981  0.1446 -0.8693  0.5032
 5231SOL    HW227330   0.922   4.318   1.936  1.7506  2.8038  1.0376
 5232SOL     OW27331   1.917   0.823   5.939 -0.2006 -0.4644 -0.5783
 5232SOL    HW127332   1.842   0.822   5.998 -0.8592  0.7282 -1.3999
 5232SOL    HW227333   1.902   0.905   5.893  2.3263  1.0767  1.3751
 5233SOL     OW27334   4.419   2.680   7.905  0.6472  0.0647 -0.2966
 5233SOL    HW127335   4.388   2.713   7.989  3.2653 -0.0410  0.7174
 5233SOL    HW227336   4.511   2.663   7.923  0.8739  1.9120  0.2222
 5234SOL     OW27337   2.844   1.344  11.003 -0.7468 -0.0728 -0.3885
 5234SOL    HW127338   2.932   1.357  10.967  0.1759 -1.0578  1.4938
 5234SOL    HW227339   2.796   1.423  10.982 -2.1512 -1.3877 -2.1108
 5235SOL     OW27340   1.592   0.280  16.067  0.3971 -0.4269  0.9582
 5235SOL    HW127341   1.653   0.354  16.068 -0.6419  0.4478 -0.2760
 5235SOL    HW227342   1.513   0.313  16.023  1.0957  1.4929  1.1291
 5236SOL     OW27343   0.110   1.984   7.360 -0.2445 -0.4939 -0.1300
 5236SOL    HW127344   0.030   1.936   7.379 -0.6127  0.1752  0.0282
 5236SOL    HW227345   0.179   1.925   7.390 -0.9402 -1.3501 -0.2167
 5237SOL     OW27346   2.800   4.327   6.926  0.2889  0.1955 -0.5498
 5237SOL    HW127347   2.751   4.336   7.008 -1.0614 -0.3797 -1.2880
 5237SOL    HW227348   2.780   4.234   6.914  0.3391  0.4872 -2.9389
 5238SOL     OW27349   2.261   0.993   2.610  0.2031 -0.1454 -1.1150
 5238SOL    HW127350   2.307   0.912   2.585 -0.6971 -1.3970  1.3403
 5238SOL    HW227351   2.293   1.046   2.536  0.4845  0.9400 -0.2112
 5239SOL     OW27352   0.584   2.359   6.926 -0.3755 -0.2222  0.1192
 5239SOL    HW127353   0.661   2.372   6.870  0.3432  2.8669  1.8420
 5239SOL    HW227354   0.536   2.438   6.902 -0.7827  0.6301  3.7282
 5240SOL     OW27355   4.350   4.452   8.055 -0.5816  0.2255  0.1571
 5240SOL    HW127356   4.356   4.357   8.052  0.5294  0.2276  2.3598
 5240SOL    HW227357   4.365   4.477   8.146 -0.3266 -0.9067  0.4251
 5241SOL     OW27358   1.017   1.218   3.382  0.2590  0.3965 -0.1758
 5241SOL    HW127359   0.966   1.296   3.360 -0.2950 -0.1293 -0.7531
 5241SOL    HW227360   0.967   1.188   3.458  0.2276  0.9918  0.0350
 5242SOL     OW27361   0.923   0.685   3.991 -0.0055  0.3338  0.0070
 5242SOL    HW127362   0.909   0.610   4.049  0.2413  0.3529  0.0904
 5242SOL    HW227363   0.832   0.687   3.961 -0.1100 -0.5476  0.2504
 5243SOL     OW27364   0.993   2.799   2.876 -0.0668 -0.5995  0.1247
 5243SOL    HW127365   0.964   2.804   2.967 -0.8021 -2.1261 -0.0254
 5243SOL    HW227366   0.911   2.779   2.832 -0.8763 -0.5007  1.5921
 5244SOL     OW27367   0.806   3.486   8.774 -0.3311  0.1428  0.1700
 5244SOL    HW127368   0.735   3.545   8.748  0.9611  0.9887 -1.3786
 5244SOL    HW227369   0.763   3.442   8.847 -0.7630 -1.3931 -1.0233
 5245SOL     OW27370   2.328   3.355   5.716  0.2918  0.4011  0.1803
 5245SOL    HW127371   2.312   3.264   5.740 -0.9882  0.0057 -2.1994
 5245SOL    HW227372   2.339   3.351   5.621 -0.8093 -0.3113  0.0821
 5246SOL     OW27373   0.753   2.764   2.089  0.1219 -0.7061 -0.4545
 5246SOL    HW127374   0.696   2.688   2.081  0.9997 -1.0994 -2.8131
 5246SOL    HW227375   0.825   2.733   2.145  3.0316  0.1117 -3.7558
 5247SOL     OW27376   0.910   0.363   3.477 -0.2367 -0.0625 -0.0235
 5247SOL    HW127377   0.899   0.293   3.542 -1.7008  1.0090  0.8889
 5247SOL    HW227378   1.005   0.360   3.473 -0.1348  1.5396  0.9855
 5248SOL     OW27379   2.525   2.898  16.456  1.1758  0.0145 -0.2932
 5248SOL    HW127380   2.592   2.957  16.490 -0.1082  1.2907  0.0256
 5248SOL    HW227381   2.576   2.833  16.407  0.5260  0.8545 -2.1095
 5249SOL     OW27382   3.995   2.043   2.615 -0.3417 -0.1795  0.5664
 5249SOL    HW127383   3.928   2.004   2.672  1.5112  0.4190  3.1495
 5249SOL    HW227384   4.066   2.048   2.679  0.7439 -0.8465 -0.5943
 5250SOL     OW27385   0.582   2.133   2.371 -0.0023 -0.4318 -0.0434
 5250SOL    HW127386   0.641   2.060   2.393 -0.2575  0.0900  2.3962
 5250SOL    HW227387   0.566   2.117   2.278  1.3592 -0.4087 -0.2872
 5251SOL     OW27388   2.387   1.663  15.809 -0.0008 -0.3923 -0.7645
 5251SOL    HW127389   2.381   1.571  15.780 -1.1726  0.3856 -3.0296
 5251SOL    HW227390   2.340   1.709  15.739 -1.2473 -0.5650 -0.0515
 5252SOL     OW27391   4.056   2.434   6.632 -0.5400 -0.3208  0.9731
 5252SOL    HW127392   4.067   2.480   6.715 -0.5378  2.2349 -0.4549
 5252SOL    HW227393   4.143   2.394   6.623 -1.3848 -1.9761  0.0349
 5253SOL     OW27394   3.528   1.107   5.232 -0.2561  0.3485  0.4340
 5253SOL    HW127395   3.610   1.129   5.276 -0.6385  1.3510  0.6283
 5253SOL    HW227396   3.538   1.167   5.158 -2.1401 -2.9650 -2.5684
 5254SOL     OW27397   1.833   1.347   7.033 -0.9389 -0.1717  0.2523
 5254SOL    HW127398   1.823   1.293   6.955 -0.3734  0.9438 -0.5837
 5254SOL    HW227399   1.874   1.425   6.996 -0.3756 -0.8338 -0.5154
 5255SOL     OW27400   1.713   3.966   1.626 -0.5900  0.0703  0.7103
 5255SOL    HW127401   1.729   3.907   1.699  1.0887 -2.1567 -1.4376
 5255SOL    HW227402   1.637   3.922   1.586 -0.8907 -0.1267  1.5070
 5256SOL     OW27403   2.483   4.256  12.461  0.0788  0.0809 -0.6084
 5256SOL    HW127404   2.455   4.291  12.545  0.6421  0.4087 -0.5552
 5256SOL    HW227405   2.467   4.336  12.411 -0.2225 -0.0693 -0.7579
 5257SOL     OW27406   0.380   4.254  14.886  0.2261 -0.2110  0.5455
 5257SOL    HW127407   0.354   4.345  14.873 -1.5657 -0.8640 -0.4030
 5257SOL    HW227408   0.474   4.275  14.885  0.8477 -3.0058  0.9720
 5258SOL     OW27409   3.585   3.299   5.618  0.9738  0.1287 -0.2806
 5258SOL    HW127410   3.584   3.339   5.531  4.2194  0.7162 -0.0254
 5258SOL    HW227411   3.652   3.357   5.653  0.6353  0.3038  0.0821
 5259SOL     OW27412   3.916   4.071  12.599 -0.0553 -0.2014 -0.2420
 5259SOL    HW127413   3.899   4.126  12.676  1.8274 -1.2306  0.9218
 5259SOL    HW227414   3.938   3.992  12.648 -0.0716 -2.0369 -3.2062
 5260SOL     OW27415   3.110   4.372   9.691 -0.1179 -0.0185 -0.1236
 5260SOL    HW127416   3.179   4.342   9.632  0.9178  1.3601  0.4057
 5260SOL    HW227417   3.151   4.344   9.773  1.0472  1.8379 -0.0783
 5261SOL     OW27418   2.245   2.077   5.277  0.2591  0.2204  0.0195
 5261SOL    HW127419   2.202   2.162   5.287 -2.1061 -0.8189 -1.1642
 5261SOL    HW227420   2.327   2.094   5.231 -0.2720  2.5439 -0.1109
 5262SOL     OW27421   0.426   1.307   6.325 -0.0466  0.5419  0.0934
 5262SOL    HW127422   0.344   1.265   6.300 -0.7945  2.1623 -0.1885
 5262SOL    HW227423   0.476   1.313   6.244  1.3871  2.1672  1.0806
 5263SOL     OW27424   2.423   2.744  10.710 -0.1365  0.2527  0.1145
 5263SOL    HW127425   2.486   2.811  10.738 -1.0793  1.2191 -0.0857
 5263SOL    HW227426   2.344   2.791  10.734  1.2977  1.6127  2.1585
 5264SOL     OW27427   3.842   2.455   7.936  0.0348 -0.6006 -0.1986
 5264SOL    HW127428   3.788   2.506   7.996 -0.1131 -0.6360 -0.2992
 5264SOL    HW227429   3.787   2.377   7.931  1.1750 -1.3925 -0.3426
 5265SOL     OW27430   3.530   4.508   8.892  0.0993 -0.0253 -0.6276
 5265SOL    HW127431   3.451   4.547   8.853  0.7441  1.9240 -0.0138
 5265SOL    HW227432   3.598   4.574   8.877 -2.6114  3.1233  1.0316
 5266SOL     OW27433   4.083   4.091   2.773  0.1736  0.0352  0.0755
 5266SOL    HW127434   4.025   4.093   2.697  0.4341 -0.1582 -0.1259
 5266SOL    HW227435   4.112   4.182   2.765  0.5332 -0.1434 -0.6582
 5267SOL     OW27436   0.930   3.569   4.017  0.0632  0.1074  0.1983
 5267SOL    HW127437   0.889   3.652   3.994 -0.0511 -0.0561 -0.1896
 5267SOL    HW227438   1.012   3.563   3.969  0.9669 -1.0196  1.8512
 5268SOL     OW27439   3.743   1.207   4.384  0.0469 -0.3965 -0.4128
 5268SOL    HW127440   3.694   1.280   4.347 -0.9319 -1.1745 -0.6543
 5268SOL    HW227441   3.714   1.134   4.330  0.1064  0.2330 -1.2878
 5269SOL     OW27442   2.692   0.921   6.935 -0.0990 -0.0366 -0.5111
 5269SOL    HW127443   2.664   0.847   6.989  1.4669 -0.7541 -0.6886
 5269SOL    HW227444   2.675   0.886   6.848 -1.1258  2.2744 -1.2466
 5270SOL     OW27445   1.128   3.258  16.261 -0.5345 -0.0380  0.1311
 5270SOL    HW127446   1.134   3.351  16.238  3.5281 -0.0932  1.0927
 5270SOL    HW227447   1.042   3.237  16.225 -1.0962 -1.5522  2.3156
 5271SOL     OW27448   2.957   4.227   5.669 -0.3091  0.9933  0.4523
 5271SOL    HW127449   2.884   4.208   5.611 -0.4162 -2.1558  1.5750
 5271SOL    HW227450   2.959   4.140   5.709  0.4265  0.3234 -1.0622
 5272SOL     OW27451   3.997   2.299  10.813  0.5620 -0.0990 -0.3710
 5272SOL    HW127452   3.992   2.225  10.753 -1.7563  0.8966 -1.4094
 5272SOL    HW227453   4.084   2.334  10.797  1.1722 -0.1045  2.8501
 5273SOL     OW27454   4.449   2.336   0.573  0.2194  0.2203 -0.3915
 5273SOL    HW127455   4.428   2.282   0.497  2.0289 -1.5557  0.3660
 5273SOL    HW227456   4.463   2.414   0.520 -0.6667  1.0107  0.5292
 5274SOL     OW27457   0.871   4.178  10.368 -0.0577  0.0707  0.0458
 5274SOL    HW127458   0.831   4.131  10.295 -0.0155  1.4018 -0.8369
 5274SOL    HW227459   0.943   4.222  10.324 -1.9993  0.0372 -3.1891
 5275SOL     OW27460   2.413   3.055   6.002 -0.2658 -0.0722 -0.2942
 5275SOL    HW127461   2.425   3.063   6.096  1.9303  0.8591 -0.6530
 5275SOL    HW227462   2.435   2.965   5.977 -0.1301 -0.5688  1.6047
 5276SOL     OW27463   2.410   0.033   4.037 -0.0763  0.1103 -0.9241
 5276SOL    HW127464   2.429   0.084   3.958  0.4225  1.1536 -0.1374
 5276SOL    HW227465   2.315   0.023   4.041  0.0429 -0.3003  0.7242
 5277SOL     OW27466   3.607   2.260   3.048  0.0289  0.4361  0.6651
 5277SOL    HW127467   3.518   2.291   3.032  0.1332 -0.2220 -1.1923
 5277SOL    HW227468   3.660   2.336   3.021 -0.5026  0.0475 -1.4162
 5278SOL     OW27469   3.054   3.455  11.913 -0.3353 -0.3845  0.0763
 5278SOL    HW127470   2.973   3.407  11.892  0.3212 -1.5604  0.2301
 5278SOL    HW227471   3.088   3.487  11.830  0.8592 -1.0463  0.3215
 5279SOL     OW27472   0.202   0.940   3.093  0.1387  0.4686  0.2922
 5279SOL    HW127473   0.276   0.948   3.032 -1.5859  0.7582 -1.7947
 5279SOL    HW227474   0.248   0.913   3.172 -1.0416  0.2801  0.9087
 5280SOL     OW27475   0.462   2.911   6.913 -0.3322 -0.1684 -0.3361
 5280SOL    HW127476   0.416   2.956   6.984  1.8768 -0.3208  1.1936
 5280SOL    HW227477   0.544   2.888   6.956 -0.2404 -0.5729 -0.7290
 5281SOL     OW27478   4.685   3.228   2.250 -0.0623  0.1872  0.0184
 5281SOL    HW127479   4.658   3.141   2.217  4.6349 -1.5819  0.8951
 5281SOL    HW227480   0.042   3.237   2.226  0.3933 -1.3578  1.1476
 5282SOL     OW27481   0.438   1.245   5.914 -0.6023  0.3257  0.2001
 5282SOL    HW127482   0.507   1.262   5.977  0.0684  2.8737 -1.2030
 5282SOL    HW227483   0.395   1.331   5.917 -1.0149  0.0917  1.0197
 5283SOL     OW27484   3.951   1.848   3.177  0.2149  0.1364  0.0485
 5283SOL    HW127485   3.924   1.778   3.118 -0.2199  1.4369 -1.3104
 5283SOL    HW227486   4.043   1.822   3.182 -0.2563 -1.0790  2.1346
 5284SOL     OW27487   4.176   2.391  11.064 -0.1514 -0.8160 -0.0137
 5284SOL    HW127488   4.088   2.361  11.086 -0.3374  1.0651  1.8310
 5284SOL    HW227489   4.180   2.407  10.970 -0.7604 -0.6657 -0.0151
 5285SOL     OW27490   1.693   3.420   5.675 -0.4749  0.0998  0.2348
 5285SOL    HW127491   1.697   3.453   5.586  0.1090  0.5874  0.4421
 5285SOL    HW227492   1.715   3.329   5.656 -0.5309  0.0973  0.1824
 5286SOL     OW27493   2.795   3.963  17.382  0.0627 -0.6001  0.0964
 5286SOL    HW127494   2.864   3.949  17.446  0.3989 -0.7737 -0.3079
 5286SOL    HW227495   2.717   3.964  17.438 -0.1879 -1.0754 -0.2452
 5287SOL     OW27496   0.926   1.015   6.262  0.4643  0.1584 -0.2180
 5287SOL    HW127497   0.918   0.921   6.273  0.1808  0.1648 -0.3382
 5287SOL    HW227498   0.967   1.021   6.176 -3.5108 -2.5089 -2.3248
 5288SOL     OW27499   3.238   1.575   7.168  0.0612 -0.2280  0.5989
 5288SOL    HW127500   3.188   1.619   7.100  0.6201  0.1527  0.4366
 5288SOL    HW227501   3.272   1.511   7.106  0.5231 -0.1393  0.7577
 5289SOL     OW27502   0.174   2.986  13.978  0.6448  0.5000 -0.0940
 5289SOL    HW127503   0.263   3.011  14.004  0.8098  0.7425 -0.8869
 5289SOL    HW227504   0.135   3.072  13.995  0.9725  0.6425 -0.0735
 5290SOL     OW27505   4.564   4.103   8.194 -0.7140 -0.1347 -0.7511
 5290SOL    HW127506   4.483   4.138   8.158  0.5078  0.6565 -2.7244
 5290SOL    HW227507   4.567   4.029   8.133 -3.2281 -1.6237  0.9149
 5291SOL     OW27508   3.244   1.524  14.906 -0.5799 -0.4507  0.3290
 5291SOL    HW127509   3.254   1.617  14.889 -1.3861 -0.6679 -1.3008
 5291SOL    HW227510   3.329   1.494  14.872 -0.4484 -0.2401  0.4715
 5292SOL     OW27511   0.257   2.756   9.507 -0.2378 -0.3713  0.6343
 5292SOL    HW127512   0.345   2.725   9.487 -0.0078 -0.0972  1.2638
 5292SOL    HW227513   0.266   2.842   9.547 -3.4590 -0.3213  1.2614
 5293SOL     OW27514   3.719   2.352   4.864 -0.5139  0.1054  0.0593
 5293SOL    HW127515   3.748   2.300   4.940  0.1638  0.5585  0.1093
 5293SOL    HW227516   3.773   2.330   4.789  0.6267 -2.1994  1.5350
 5294SOL     OW27517   3.604   4.105   4.212 -0.2611  0.4849 -0.1361
 5294SOL    HW127518   3.631   4.109   4.304  1.1762  1.1426 -0.5914
 5294SOL    HW227519   3.545   4.030   4.201  0.9069 -0.3436 -0.7634
 5295SOL     OW27520   3.687   2.935   3.788 -0.2501  0.6283 -0.2025
 5295SOL    HW127521   3.679   2.868   3.721 -2.8491  1.5597 -0.8331
 5295SOL    HW227522   3.597   2.968   3.791 -0.4527 -0.0289  0.9457
 5296SOL     OW27523   4.563   0.182   5.896  0.4093 -0.0081 -0.3277
 5296SOL    HW127524   4.616   0.260   5.913  1.4548 -0.8142  0.0991
 5296SOL    HW227525   4.589   0.119   5.964  1.2089  0.4511 -0.2037
 5297SOL     OW27526   0.054   1.042   1.736  0.1403 -0.0877 -1.1303
 5297SOL    HW127527   4.727   1.022   1.806 -2.4214 -1.1720 -3.6893
 5297SOL    HW227528   0.013   0.996   1.662 -0.2746  0.1287 -1.0341
 5298SOL     OW27529   2.412   4.524  16.741  0.1362 -0.3037  0.0427
 5298SOL    HW127530   2.467   4.467  16.795  0.1527 -0.7294 -0.4154
 5298SOL    HW227531   2.337   4.531  16.799  1.1880  1.0805  1.2253
 5299SOL     OW27532   1.649   3.906  10.708  0.6924  0.3492  0.4617
 5299SOL    HW127533   1.721   3.870  10.760  0.2147  0.1821  1.0029
 5299SOL    HW227534   1.684   3.913  10.619 -1.3927  2.2178 -0.1988
 5300SOL     OW27535   3.238   2.681  14.615  0.1545  0.2331  0.1266
 5300SOL    HW127536   3.194   2.756  14.574 -0.8825 -0.9768 -0.9534
 5300SOL    HW227537   3.201   2.612  14.560  2.8342 -1.0672 -0.0510
 5301SOL     OW27538   1.796   2.174   4.636  0.3069 -0.1210  0.2089
 5301SOL    HW127539   1.738   2.212   4.702 -0.0293 -0.5985  0.1864
 5301SOL    HW227540   1.763   2.213   4.555  1.7249 -0.1408 -0.3848
 5302SOL     OW27541   2.946   1.009   2.843  0.8269  0.8164 -0.1658
 5302SOL    HW127542   2.963   0.921   2.877  0.8748 -0.1409 -2.7285
 5302SOL    HW227543   2.871   1.053   2.882  2.8480  3.7002  0.5246
 5303SOL     OW27544   0.910   0.710   6.654 -0.2285  0.3346 -0.3693
 5303SOL    HW127545   0.819   0.684   6.645 -0.4825  1.9272 -2.3584
 5303SOL    HW227546   0.913   0.768   6.578  0.0602  0.8933  0.0719
 5304SOL     OW27547   0.100   3.166   7.573  0.3365  0.2053  0.3691
 5304SOL    HW127548   0.048   3.094   7.611  2.7201 -0.5120  2.3090
 5304SOL    HW227549   0.024   3.217   7.545 -1.8588 -2.1288  2.0189
 5305SOL     OW27550   1.110   3.084   9.308 -0.7509  0.1213  0.6375
 5305SOL    HW127551   1.139   3.022   9.241  0.9025  2.5155 -0.8735
 5305SOL    HW227552   1.015   3.079   9.308 -0.8196  1.6139  1.4632
 5306SOL     OW27553   0.060   3.168  13.311  0.3758 -0.0399  0.1841
 5306SOL    HW127554   0.129   3.196  13.371 -0.4768 -0.7797  1.5216
 5306SOL    HW227555   4.712   3.205  13.343  0.4581 -0.8504  1.2996
 5307SOL     OW27556   3.635   1.001   4.247  0.2004 -0.1371 -0.0099
 5307SOL    HW127557   3.641   0.907   4.232  0.1605  0.2490 -2.3861
 5307SOL    HW227558   3.623   1.042   4.162  1.1740  1.9633  0.8422
 5308SOL     OW27559   0.972   4.603  12.525  0.4900  0.1337  0.6426
 5308SOL    HW127560   0.878   4.584  12.522  0.7684 -1.3341  1.3699
 5308SOL    HW227561   0.983   4.602  12.430 -1.7439  2.2324  0.3593
 5309SOL     OW27562   2.920   0.015   3.956 -0.3751  0.0059  0.4179
 5309SOL    HW127563   2.940   0.072   3.881 -4.1562  0.4139 -0.3001
 5309SOL    HW227564   2.871   0.067   4.019 -0.4616  1.1918 -0.6127
 5310SOL     OW27565   2.392   2.390  13.442 -0.1769  0.1781 -0.6435
 5310SOL    HW127566   2.381   2.486  13.441  1.8168  0.4372  2.4326
 5310SOL    HW227567   2.390   2.380  13.347 -1.2576 -1.6329 -0.4294
 5311SOL     OW27568   2.665   2.853  11.567 -0.1148  0.2442  0.5010
 5311SOL    HW127569   2.640   2.781  11.509 -0.4920  0.2449  0.6653
 5311SOL    HW227570   2.656   2.812  11.653 -2.1018 -0.9867 -0.2997
 5312SOL     OW27571   1.483   2.856   4.273  0.0919 -0.1185  0.2485
 5312SOL    HW127572   1.467   2.949   4.293 -1.4682 -0.2593 -0.3071
 5312SOL    HW227573   1.560   2.830   4.323  0.7207 -0.8005 -1.0681
 5313SOL     OW27574   0.955   2.823   5.883 -0.2365 -0.1612 -0.0317
 5313SOL    HW127575   0.999   2.860   5.806  1.6658  0.3311  1.2888
 5313SOL    HW227576   0.862   2.814   5.859 -0.5160 -1.5129  1.5792
 5314SOL     OW27577   2.778   3.526   8.513 -0.5425 -0.0638  0.2481
 5314SOL    HW127578   2.696   3.537   8.465 -0.7750  0.4024  0.7532
 5314SOL    HW227579   2.742   3.543   8.599 -2.2341 -0.5730 -0.3549
 5315SOL     OW27580   4.188   1.500   7.342 -0.2118 -0.2400  0.3854
 5315SOL    HW127581   4.235   1.480   7.423 -1.6594 -3.5778  0.4466
 5315SOL    HW227582   4.246   1.461   7.278 -2.0304 -0.6315 -1.0287
 5316SOL     OW27583   3.688   2.222   7.841 -0.6107 -0.0443 -0.5760
 5316SOL    HW127584   3.755   2.155   7.851 -0.0394  0.8435  1.4747
 5316SOL    HW227585   3.660   2.208   7.750 -0.2291 -0.4145 -0.6373
 5317SOL     OW27586   4.296   3.434   9.269 -0.0153  0.4211  0.2470
 5317SOL    HW127587   4.305   3.515   9.218  0.2290  1.2627  1.6183
 5317SOL    HW227588   4.381   3.391   9.266 -1.7257 -2.8130 -1.7473
 5318SOL     OW27589   4.036   0.186  16.173  0.3136 -0.4191  0.0268
 5318SOL    HW127590   3.960   0.219  16.220  0.4537  0.6806 -0.5235
 5318SOL    HW227591   4.014   0.202  16.081  3.0108 -0.8205 -0.7003
 5319SOL     OW27592   0.209   3.486   1.087 -0.3017  0.2654 -0.2027
 5319SOL    HW127593   0.117   3.481   1.112 -0.2113 -0.5610 -0.0148
 5319SOL    HW227594   0.232   3.545   1.159  1.0427  1.9070 -1.9884
 5320SOL     OW27595   0.403   2.960   4.217  0.0988 -0.0866  0.3583
 5320SOL    HW127596   0.488   2.916   4.217  0.8498  1.3288 -1.3612
 5320SOL    HW227597   0.378   2.952   4.125 -0.8566  1.2211  0.4942
 5321SOL     OW27598   2.213   4.078  16.047 -0.1944  0.0068  0.5924
 5321SOL    HW127599   2.237   4.169  16.066 -1.0339  0.3933 -0.2423
 5321SOL    HW227600   2.123   4.085  16.079  0.1061 -0.0549  1.4768
 5322SOL     OW27601   1.522   3.263   4.077 -0.5980  0.0143 -0.3013
 5322SOL    HW127602   1.592   3.244   4.015 -2.2462 -3.1234 -1.1825
 5322SOL    HW227603   1.539   3.354   4.103 -1.0875  0.4028 -1.3676
 5323SOL     OW27604   2.977   1.095   0.869 -0.2909 -0.5530  0.2569
 5323SOL    HW127605   3.020   1.011   0.853  0.2258 -0.3043  0.3471
 5323SOL    HW227606   2.919   1.085   0.944  0.5334 -0.6161  0.8876
 5324SOL     OW27607   2.154   1.830   1.184 -0.2335  0.0243  0.1753
 5324SOL    HW127608   2.189   1.908   1.140 -0.7947  0.0515 -0.2241
 5324SOL    HW227609   2.216   1.820   1.256  0.8374  0.4767 -0.6844
 5325SOL     OW27610   1.512   3.410   5.160 -0.0822  0.0299  0.0869
 5325SOL    HW127611   1.429   3.456   5.147 -0.0922 -0.2160 -0.7300
 5325SOL    HW227612   1.487   3.355   5.234 -2.5437  0.9623 -0.0393
 5326SOL     OW27613   4.114   0.254  11.058 -0.3187  0.0774 -0.5629
 5326SOL    HW127614   4.176   0.309  11.106  0.5003 -1.5122  0.1995
 5326SOL    HW227615   4.030   0.299  11.064  0.2231  1.0265 -0.1015
 5327SOL     OW27616   1.288   3.359   1.854 -0.0073  0.3928  0.5459
 5327SOL    HW127617   1.228   3.425   1.819 -1.5928 -1.6287 -0.5321
 5327SOL    HW227618   1.317   3.401   1.936 -1.0096 -0.8799  1.5527
 5328SOL     OW27619   0.179   2.054   5.356  0.2496  0.3702 -0.5571
 5328SOL    HW127620   0.200   2.133   5.407 -0.0484  0.3016 -0.3325
 5328SOL    HW227621   0.087   2.072   5.338  0.6058 -1.3515 -4.1139
 5329SOL     OW27622   4.682   1.405   5.501  0.0176  0.3015 -0.6201
 5329SOL    HW127623   4.662   1.404   5.594 -0.9994  0.6674 -0.8362
 5329SOL    HW227624   4.613   1.351   5.460  0.6746 -1.6297  0.8422
 5330SOL     OW27625   2.428   2.700  13.071  0.1367 -0.4627  0.1340
 5330SOL    HW127626   2.466   2.716  13.157 -0.4161  0.7425  0.1468
 5330SOL    HW227627   2.510   2.679  13.027  0.3096 -0.9112  0.6627
 5331SOL     OW27628   3.262   2.075   7.450 -0.7019  0.3331  0.3594
 5331SOL    HW127629   3.295   2.164   7.441 -3.3177  1.2198 -0.4112
 5331SOL    HW227630   3.338   2.031   7.411 -0.2090  1.7349 -0.2668
 5332SOL     OW27631   4.674   0.599   9.409  0.0093  0.0757 -0.0298
 5332SOL    HW127632   4.673   0.667   9.342 -0.5619  1.6521  1.5588
 5332SOL    HW227633   4.735   0.638   9.472  1.6732  0.7223 -2.0466
 5333SOL     OW27634   3.500   4.366  12.472 -1.1417  0.0630 -0.0787
 5333SOL    HW127635   3.537   4.349  12.559  1.0627  0.9204 -0.8327
 5333SOL    HW227636   3.468   4.280  12.447  0.3727  0.5916 -3.7779
 5334SOL     OW27637   0.790   4.478  15.733 -0.5759  0.2008  0.2977
 5334SOL    HW127638   0.764   4.388  15.711  1.7931 -0.3846 -0.1293
 5334SOL    HW227639   0.753   4.497  15.819 -0.7513 -1.7899  0.6819
 5335SOL     OW27640   2.978   2.783   7.821  0.0420 -0.1807  0.0525
 5335SOL    HW127641   2.924   2.742   7.754  0.1840 -2.8167  1.5511
 5335SOL    HW227642   3.028   2.712   7.861  0.9760  0.7960  0.6350
 5336SOL     OW27643   1.676   2.239  17.298  0.5118  0.6514  0.6010
 5336SOL    HW127644   1.656   2.287  17.378  0.0381  2.6724 -0.7469
 5336SOL    HW227645   1.771   2.249  17.302  0.6880 -0.4473 -0.8116
 5337SOL     OW27646   2.904   0.392   8.974  0.7991  0.7040 -0.5910
 5337SOL    HW127647   2.861   0.361   9.054  2.0213  1.7832  0.4918
 5337SOL    HW227648   2.834   0.429   8.921 -0.6748 -0.4798  0.5544
 5338SOL     OW27649   1.723   1.734  10.420 -0.6157 -0.1951 -0.1681
 5338SOL    HW127650   1.787   1.798  10.451  2.1969 -2.7013 -0.8139
 5338SOL    HW227651   1.786   1.676  10.377  1.1878  1.9130 -0.4230
 5339SOL     OW27652   3.595   0.146  11.726  0.4802 -0.1743  0.3367
 5339SOL    HW127653   3.664   0.108  11.781 -0.0711 -1.1487  0.3549
 5339SOL    HW227654   3.558   0.214  11.782  0.0277 -0.0883 -0.0701
 5340SOL     OW27655   2.438   0.564   6.040 -0.5152 -0.4531  0.0023
 5340SOL    HW127656   2.488   0.642   6.019 -0.0173 -0.4684  1.1021
 5340SOL    HW227657   2.503   0.524   6.098 -0.3676  0.4770  0.4805
 5341SOL     OW27658   4.069   4.017   4.681  0.1912 -0.0954 -0.2008
 5341SOL    HW127659   4.086   4.089   4.741  1.9811 -0.8463  0.1652
 5341SOL    HW227660   4.137   3.954   4.702  1.5395  1.6935  0.8101
 5342SOL     OW27661   3.847   2.979   8.588 -0.3808  0.7449 -0.1640
 5342SOL    HW127662   3.790   2.911   8.625 -1.6388  2.9275  1.9467
 5342SOL    HW227663   3.819   3.062   8.627 -0.4716 -0.0697  1.5157
 5343SOL     OW27664   2.126   3.306   6.942  0.4274  0.1258  0.4891
 5343SOL    HW127665   2.175   3.320   7.022  0.2189  0.7453  0.5145
 5343SOL    HW227666   2.058   3.245   6.969 -0.2523  0.6983  0.0787
 5344SOL     OW27667   1.464   1.007   8.068 -0.1007 -0.3701 -0.5431
 5344SOL    HW127668   1.439   0.928   8.115  2.8573 -1.0599 -0.1052
 5344SOL    HW227669   1.508   1.057   8.137 -0.6499 -2.3528  1.2439
 5345SOL     OW27670   1.002   3.638   7.595  0.2563 -0.2106  0.5228
 5345SOL    HW127671   1.008   3.709   7.531 -1.3142  0.0041  0.6188
 5345SOL    HW227672   1.069   3.664   7.658  1.0574  0.6338 -0.6609
 5346SOL     OW27673   2.849   4.183   7.702  0.1974 -0.2840 -0.0725
 5346SOL    HW127674   2.802   4.263   7.678  2.3349  1.2655  0.8844
 5346SOL    HW227675   2.934   4.199   7.662  0.4377 -0.0751  0.5272
 5347SOL     OW27676   0.225   2.328   8.629  0.5508  0.5791  0.3227
 5347SOL    HW127677   0.243   2.349   8.721 -0.0527 -1.4654  0.9235
 5347SOL    HW227678   0.129   2.323   8.630  0.5166  1.4061  1.2586
 5348SOL     OW27679   3.534   1.980   4.622  0.5117  0.4466 -0.0290
 5348SOL    HW127680   3.536   2.026   4.706  0.1191  2.2224 -0.9832
 5348SOL    HW227681   3.440   1.985   4.610  0.3627  1.2324  1.4382
 5349SOL     OW27682   0.421   2.386  17.680  0.5914 -0.2226  0.2579
 5349SOL    HW127683   0.409   2.292  17.671  1.1002 -0.0595 -2.1905
 5349SOL    HW227684   0.407   2.393   0.035  0.6847  2.3474  0.0758
 5350SOL     OW27685   0.389   1.547   8.602 -0.1941  0.0412  0.1573
 5350SOL    HW127686   0.366   1.587   8.686  0.6486  1.0957 -0.1145
 5350SOL    HW227687   0.303   1.524   8.566 -0.0060 -0.0500 -0.2329
 5351SOL     OW27688   0.163   1.806  12.629  0.0568 -0.3236  0.2591
 5351SOL    HW127689   0.182   1.894  12.659 -0.0909 -0.4953  0.8695
 5351SOL    HW227690   0.250   1.774  12.607 -0.5792 -1.7084 -0.2933
 5352SOL     OW27691   1.355   1.771  17.458  0.0312  0.4554 -0.2881
 5352SOL    HW127692   1.337   1.750  17.367 -0.3931 -0.4351 -0.0013
 5352SOL    HW227693   1.417   1.843  17.451  3.4310 -2.1420  3.0382
 5353SOL     OW27694   0.577   3.069  16.221 -0.0079 -0.0333  0.3822
 5353SOL    HW127695   0.552   3.067  16.313  0.4294 -0.5557  0.4910
 5353SOL    HW227696   0.633   3.146  16.218  1.2291 -0.9274  0.3480
 5354SOL     OW27697   2.100   0.310   6.647 -0.0312 -0.4842 -0.1164
 5354SOL    HW127698   2.045   0.270   6.715  0.9485  1.0793  1.5953
 5354SOL    HW227699   2.029   0.352   6.598 -0.2372  0.4792  0.9937
 5355SOL     OW27700   3.934   2.730   9.038  0.5022 -0.3001  0.1586
 5355SOL    HW127701   3.982   2.744   9.119  1.2551 -2.1885  0.0412
 5355SOL    HW227702   3.914   2.637   9.038 -0.5103 -0.0856  0.5255
 5356SOL     OW27703   3.810   3.113  14.922  0.2405  0.3817 -0.1833
 5356SOL    HW127704   3.868   3.151  14.855  0.5601  0.0697 -0.0826
 5356SOL    HW227705   3.792   3.025  14.889 -0.6038  1.4458 -2.5778
 5357SOL     OW27706   0.722   1.544   6.411  0.0372  0.2255  0.4464
 5357SOL    HW127707   0.804   1.536   6.459  0.2014 -1.8181 -0.1914
 5357SOL    HW227708   0.736   1.467   6.357  0.2145  0.6046 -0.0435
 5358SOL     OW27709   4.539   2.298   3.481 -0.1013 -0.7706  0.5493
 5358SOL    HW127710   4.485   2.275   3.406 -1.7000  1.9039  0.8783
 5358SOL    HW227711   4.598   2.366   3.447 -2.0680  1.8143  2.2846
 5359SOL     OW27712   3.570   2.604   2.346  0.5213  0.5245  0.2234
 5359SOL    HW127713   3.484   2.643   2.357 -0.9668 -2.8979  1.0008
 5359SOL    HW227714   3.596   2.612   2.254  0.5539 -1.6039  0.0304
 5360SOL     OW27715   4.311   4.655   7.009 -0.0401  0.4273  0.0608
 5360SOL    HW127716   4.363   4.671   7.087 -0.0978 -2.4273  0.6826
 5360SOL    HW227717   4.232   4.694   7.046 -1.3207 -0.6942 -1.4790
 5361SOL     OW27718   3.096   3.050   3.754 -0.1133 -0.0165 -0.3438
 5361SOL    HW127719   3.131   3.116   3.695  1.6410 -0.5987  0.0377
 5361SOL    HW227720   3.126   3.095   3.833 -1.2477 -1.2268  0.7749
 5362SOL     OW27721   1.659   4.658   4.723 -0.4870  0.1679 -0.6117
 5362SOL    HW127722   1.732   4.597   4.718 -0.8654 -0.5682  2.4315
 5362SOL    HW227723   1.597   4.596   4.762  0.8308  0.7621  2.4012
 5363SOL     OW27724   2.455   2.572  14.299  0.1209  0.1763 -0.0729
 5363SOL    HW127725   2.501   2.604  14.221 -1.0276  2.2479  0.0964
 5363SOL    HW227726   2.407   2.496  14.266  1.3482  0.4605 -2.5596
 5364SOL     OW27727   0.054   1.225  16.874 -0.1115  0.0501 -0.5885
 5364SOL    HW127728   0.119   1.267  16.818  2.7355  0.5504  3.0608
 5364SOL    HW227729   4.718   1.200  16.815 -0.1104 -0.6174 -0.3107
 5365SOL     OW27730   0.378   2.275   5.032 -0.2234 -0.1644 -0.4091
 5365SOL    HW127731   0.391   2.327   4.953  1.4016 -0.4958 -0.3744
 5365SOL    HW227732   0.457   2.221   5.022  0.1819  0.4695 -0.6506
 5366SOL     OW27733   3.808   1.114   8.054 -0.2136 -0.2757 -0.2552
 5366SOL    HW127734   3.833   1.143   8.142  0.2583  0.8640 -0.7669
 5366SOL    HW227735   3.856   1.031   8.050  0.1515 -0.0394 -0.7438
 5367SOL     OW27736   1.041   4.661   7.307 -0.0245 -0.3058 -0.3946
 5367SOL    HW127737   1.012   4.645   7.397  1.7972 -3.5014 -0.3500
 5367SOL    HW227738   1.118   4.604   7.312  1.3451  1.7196  1.6133
 5368SOL     OW27739   2.295   3.320  11.686  0.5931  0.0672 -0.1604
 5368SOL    HW127740   2.336   3.315  11.773  1.3838 -2.3216 -0.6610
 5368SOL    HW227741   2.288   3.227  11.665 -0.9753  0.4183 -1.1782
 5369SOL     OW27742   4.321   0.062   5.636  0.2232 -0.5366 -0.2252
 5369SOL    HW127743   4.403   0.111   5.642 -0.7568  0.6467  3.1551
 5369SOL    HW227744   4.329   0.008   5.715 -0.7483 -1.7256 -0.9338
 5370SOL     OW27745   3.040   0.477  15.125  0.6320 -0.1475  0.1787
 5370SOL    HW127746   3.085   0.516  15.199  1.7463 -1.8521  0.3907
 5370SOL    HW227747   3.024   0.387  15.151  0.1555 -0.7041 -2.0129
 5371SOL     OW27748   3.335   2.036   1.922  0.1539  0.1005  0.3480
 5371SOL    HW127749   3.380   1.972   1.977 -0.3599 -1.7042 -1.2968
 5371SOL    HW227750   3.277   2.060   1.995 -2.6117  0.4717 -1.9525
 5372SOL     OW27751   0.207   0.427   7.595 -0.1883  0.0548 -0.2088
 5372SOL    HW127752   0.286   0.374   7.582  0.4518  0.8380  0.4670
 5372SOL    HW227753   0.160   0.400   7.517 -2.0713 -0.3278  1.0463
 5373SOL     OW27754   3.447   4.417   2.076 -0.1499  0.0167 -0.0616
 5373SOL    HW127755   3.367   4.363   2.076 -1.4192  1.8653  0.8896
 5373SOL    HW227756   3.407   4.504   2.070 -0.2264 -0.1739 -2.0632
 5374SOL     OW27757   0.571   4.398  12.997 -0.0142  0.0543  0.2737
 5374SOL    HW127758   0.495   4.340  12.997  0.2543 -0.3005 -0.9841
 5374SOL    HW227759   0.547   4.462  13.063  4.1929  1.8153  0.1210
 5375SOL     OW27760   1.510   4.173   2.822  0.5245 -0.7437 -0.0040
 5375SOL    HW127761   1.602   4.156   2.803  0.9480 -1.1073  2.3419
 5375SOL    HW227762   1.506   4.154   2.916  1.9364 -0.8825  0.0239
 5376SOL     OW27763   3.789   1.171   1.769 -0.0130 -0.4311  0.5281
 5376SOL    HW127764   3.714   1.133   1.723 -0.5341  2.0400 -0.6984
 5376SOL    HW227765   3.841   1.091   1.763  3.2001  1.5925  1.2673
 5377SOL     OW27766   3.463   3.353   3.145 -0.2361 -0.7886 -0.3966
 5377SOL    HW127767   3.433   3.262   3.141 -0.9762 -0.4815 -2.1664
 5377SOL    HW227768   3.434   3.390   3.229 -0.4469  0.7172 -1.1243
 5378SOL     OW27769   2.060   2.569   7.221  0.3147  0.3173  0.0164
 5378SOL    HW127770   1.984   2.552   7.165 -1.0677 -1.6042  2.4607
 5378SOL    HW227771   2.110   2.493   7.189 -0.0841 -0.7863  2.0236
 5379SOL     OW27772   2.340   4.011   9.513  0.4953  0.0760 -0.4202
 5379SOL    HW127773   2.435   4.014   9.503  0.3172  1.1948 -1.8476
 5379SOL    HW227774   2.310   4.014   9.422  1.4956 -0.7143 -0.7724
 5380SOL     OW27775   4.574   3.917   4.751  0.2108 -0.4545  0.3247
 5380SOL    HW127776   4.500   3.965   4.712  0.4869 -1.7510 -1.7848
 5380SOL    HW227777   4.558   3.829   4.717  1.1758 -0.6063  0.2683
 5381SOL     OW27778   1.464   4.077   3.062 -0.1052 -0.0376 -0.1180
 5381SOL    HW127779   1.372   4.103   3.073 -0.1145  0.3065 -1.0249
 5381SOL    HW227780   1.503   4.118   3.139  1.0770  0.3296 -0.9237
 5382SOL     OW27781   3.881   2.023   2.149 -0.0391 -0.0986 -0.0827
 5382SOL    HW127782   3.914   1.977   2.226  1.6590 -0.3137 -0.9314
 5382SOL    HW227783   3.938   1.996   2.077 -0.3156  0.3624 -0.4836
 5383SOL     OW27784   0.884   1.574   3.295  0.4513  0.4860  0.3625
 5383SOL    HW127785   0.956   1.594   3.354  1.1039 -0.8402  0.0070
 5383SOL    HW227786   0.807   1.621   3.328 -1.8309 -2.4504 -0.7211
 5384SOL     OW27787   2.368   3.834   3.285 -0.0736 -0.3990  0.3774
 5384SOL    HW127788   2.338   3.891   3.213  1.4640 -0.3143 -0.1907
 5384SOL    HW227789   2.423   3.776   3.232 -0.1594 -0.9483  0.8877
 5385SOL     OW27790   2.085   4.522  13.941  0.0060 -0.7051 -0.1989
 5385SOL    HW127791   2.100   4.430  13.921  1.2387  0.0767 -2.8218
 5385SOL    HW227792   2.142   4.539  14.016  0.4143 -0.3886 -0.5821
 5386SOL     OW27793   3.680   2.114  13.690 -0.6107  0.2245  0.4379
 5386SOL    HW127794   3.621   2.155  13.753 -0.1968  3.8604 -1.5136
 5386SOL    HW227795   3.630   2.037  13.662 -0.4995  1.1400 -2.2425
 5387SOL     OW27796   3.716   3.403  12.754 -0.4306 -0.0976 -0.0346
 5387SOL    HW127797   3.746   3.387  12.665 -0.1462  1.3906 -0.2110
 5387SOL    HW227798   3.623   3.383  12.750 -0.4346 -0.3233  1.1738
 5388SOL     OW27799   2.221   1.517   2.867  0.2754 -0.1890  0.0536
 5388SOL    HW127800   2.265   1.482   2.790  2.5286 -0.5068  1.4767
 5388SOL    HW227801   2.278   1.483   2.936 -2.7907 -1.4071  1.9703
 5389SOL     OW27802   0.159   0.156   5.871  0.4882  0.3416  0.4675
 5389SOL    HW127803   0.143   0.250   5.874  3.3995  0.8017  1.6142
 5389SOL    HW227804   0.183   0.133   5.960 -0.3442 -1.5812  0.1982
 5390SOL     OW27805   4.417   2.573   9.036 -0.7681 -0.4699 -0.9183
 5390SOL    HW127806   4.511   2.572   9.055 -0.9831 -0.5900  0.0926
 5390SOL    HW227807   4.382   2.657   9.066  0.7962 -0.2911  0.4387
 5391SOL     OW27808   3.824   0.128   8.414  0.0085 -0.1301 -0.1622
 5391SOL    HW127809   3.746   0.131   8.468  0.9112 -0.9060  1.1750
 5391SOL    HW227810   3.809   0.043   8.371 -0.5150  0.2601 -0.7451
 5392SOL     OW27811   1.944   0.195   8.520 -0.1405 -0.2203  0.2484
 5392SOL    HW127812   2.007   0.127   8.544 -1.3003 -1.8056 -1.1848
 5392SOL    HW227813   1.978   0.207   8.432  1.9092  1.2161  1.2211
 5393SOL     OW27814   3.745   1.966   3.541 -0.7812  0.6036  0.1520
 5393SOL    HW127815   3.795   1.900   3.589  1.4925  2.4877  0.3254
 5393SOL    HW227816   3.811   1.987   3.475 -0.1085  1.6316  1.1584
 5394SOL     OW27817   1.087   1.623   8.296  0.3829  0.2917  0.0085
 5394SOL    HW127818   1.114   1.543   8.342  3.3250  2.1627  1.5338
 5394SOL    HW227819   1.027   1.591   8.229  1.0555  0.9695 -0.9190
 5395SOL     OW27820   3.193   3.872   6.215  0.2767 -0.1210  0.5540
 5395SOL    HW127821   3.178   3.782   6.242  1.0248  0.2292  2.1384
 5395SOL    HW227822   3.270   3.859   6.160 -0.7499  0.4352 -1.0288
 5396SOL     OW27823   2.938   2.793   6.998  0.2079 -1.1409  0.1876
 5396SOL    HW127824   2.979   2.793   7.084  0.7903 -1.3804 -0.0870
 5396SOL    HW227825   2.861   2.841   7.026  0.0088 -2.1571  1.3800
 5397SOL     OW27826   4.671   0.803   6.492 -0.3245  0.6310 -0.5107
 5397SOL    HW127827   4.608   0.736   6.520  0.6567  0.0530  0.3414
 5397SOL    HW227828   4.678   0.855   6.572 -0.7221  1.1673 -0.8203
 5398SOL     OW27829   2.480   4.283  16.434 -0.0022  0.1146  0.2170
 5398SOL    HW127830   2.519   4.258  16.518 -1.7633 -0.1495  0.9550
 5398SOL    HW227831   2.559   4.312  16.387 -0.3146 -1.0509 -1.0175
 5399SOL     OW27832   0.425   4.312   5.080 -0.0738 -0.1353  0.4487
 5399SOL    HW127833   0.473   4.358   5.011  0.4151 -0.4125  0.6065
 5399SOL    HW227834   0.492   4.260   5.125  0.6302  0.4889  0.1336
 5400SOL     OW27835   0.102   2.355   4.665 -0.7021 -0.0701  0.2686
 5400SOL    HW127836   0.142   2.441   4.677 -1.4954  0.1837  1.0833
 5400SOL    HW227837   0.167   2.302   4.711 -1.1642  2.0641  3.3417
 5401SOL     OW27838   0.960   3.380  10.054  0.1942  0.0042 -0.1119
 5401SOL    HW127839   0.940   3.464  10.012  1.9036 -1.3672 -3.6228
 5401SOL    HW227840   1.045   3.393  10.094 -0.4668  0.9536  0.9843
 5402SOL     OW27841   2.682   1.531   5.788  0.1913 -0.6531  1.1190
 5402SOL    HW127842   2.624   1.458   5.766 -0.9190  0.4085  0.4871
 5402SOL    HW227843   2.684   1.523   5.883 -0.8069  0.0886  1.2067
 5403SOL     OW27844   3.412   0.770  10.898  0.0112  0.7366  0.1483
 5403SOL    HW127845   3.432   0.764  10.992  1.3600 -1.5894 -0.2928
 5403SOL    HW227846   3.484   0.814  10.854  1.1195 -1.2585 -0.0233
 5404SOL     OW27847   0.614   2.229   5.276 -0.0129  0.1741  0.2283
 5404SOL    HW127848   0.643   2.200   5.189  1.4554  0.8393  0.4988
 5404SOL    HW227849   0.589   2.320   5.258 -0.4783  0.0468  0.2302
 5405SOL     OW27850   3.247   2.791  11.973 -0.6941 -0.0837  0.2631
 5405SOL    HW127851   3.295   2.809  12.054  0.6069  2.0233 -0.9883
 5405SOL    HW227852   3.266   2.699  11.954  0.1767 -0.0300  0.8714
 5406SOL     OW27853   0.782   1.860   3.549 -0.0746  0.4730 -0.2410
 5406SOL    HW127854   0.771   1.812   3.632 -0.3875  1.6677  0.4085
 5406SOL    HW227855   0.712   1.825   3.494  0.4910 -0.4110 -0.4033
 5407SOL     OW27856   4.375   3.417   3.465  0.1385  0.0406  0.2317
 5407SOL    HW127857   4.338   3.335   3.432 -0.6349  0.7546 -0.6738
 5407SOL    HW227858   4.298   3.470   3.482  0.5616  0.2524  1.4942
 5408SOL     OW27859   4.287   0.336  10.696 -0.1758 -0.2428 -0.0704
 5408SOL    HW127860   4.315   0.251  10.729 -0.9077 -0.2415  0.5717
 5408SOL    HW227861   4.371   0.379  10.679  0.1694 -0.7999  0.2325
 5409SOL     OW27862   1.034   2.357   5.943  1.0253  0.2978  0.3838
 5409SOL    HW127863   1.008   2.313   6.023 -1.2112 -1.2529 -1.2073
 5409SOL    HW227864   1.077   2.295   5.884  0.9700  2.0151 -1.4796
 5410SOL     OW27865   0.287   0.974  14.238 -0.7732 -0.7995  0.0758
 5410SOL    HW127866   0.193   0.979  14.253 -0.6929 -0.2194  0.3916
 5410SOL    HW227867   0.318   0.991  14.327  0.2159  0.5831 -0.5285
 5411SOL     OW27868   2.451   2.130  12.768  0.1553 -0.4625 -0.1548
 5411SOL    HW127869   2.445   2.054  12.825 -2.3230 -0.4788 -0.4528
 5411SOL    HW227870   2.542   2.122  12.740  0.3348 -3.4107  1.3597
 5412SOL     OW27871   4.615   4.397  17.219  0.1817  0.0565 -0.5764
 5412SOL    HW127872   4.621   4.302  17.209 -0.5615 -0.0266 -0.2056
 5412SOL    HW227873   4.529   4.406  17.178 -1.2881 -1.6188  2.1995
 5413SOL     OW27874   0.301   3.304   5.771  0.4615 -0.0489 -0.3866
 5413SOL    HW127875   0.232   3.271   5.714  0.8643 -0.8811 -0.3865
 5413SOL    HW227876   0.277   3.259   5.852  2.5500  2.4602  1.6309
 5414SOL     OW27877   3.172   2.271   7.095 -0.2883  0.1511 -0.1124
 5414SOL    HW127878   3.111   2.263   7.169  0.5548 -1.2455  0.4315
 5414SOL    HW227879   3.219   2.350   7.123 -0.7966  0.1287  0.8087
 5415SOL     OW27880   0.511   1.761  17.394  0.3993 -0.2044 -0.1704
 5415SOL    HW127881   0.467   1.844  17.414  0.1934 -0.1258 -0.9707
 5415SOL    HW227882   0.582   1.768  17.458  0.2403 -1.9624  0.2169
 5416SOL     OW27883   0.111   3.875  11.516  0.1049 -0.3530  0.6756
 5416SOL    HW127884   0.187   3.926  11.544  0.0270 -0.1620  0.5350
 5416SOL    HW227885   0.113   3.887  11.421 -0.6183  0.1826  0.7274
 5417SOL     OW27886   3.584   2.523   9.091  0.1700 -0.5129  0.1150
 5417SOL    HW127887   3.574   2.587   9.021  0.1073  1.9633  2.3919
 5417SOL    HW227888   3.675   2.507   9.067  0.2598  2.2487 -1.3824
 5418SOL     OW27889   4.218   2.925   5.045  0.3595 -0.3328 -0.0943
 5418SOL    HW127890   4.150   2.959   5.103 -1.7116 -0.0145 -2.6951
 5418SOL    HW227891   4.173   2.859   4.992 -1.5456  0.7610  0.1479
 5419SOL     OW27892   1.360   4.402   9.843 -0.2056 -0.3217  0.0238
 5419SOL    HW127893   1.325   4.313   9.852 -2.8052  0.6269 -0.5105
 5419SOL    HW227894   1.406   4.387   9.761 -1.5029  0.3662 -0.8347
 5420SOL     OW27895   3.158   0.195   4.161 -0.4794  0.0659 -0.3785
 5420SOL    HW127896   3.099   0.184   4.235  1.9514  2.8730  1.9660
 5420SOL    HW227897   3.160   0.101   4.146  0.1554  0.6906 -4.3241
 5421SOL     OW27898   1.840   1.339   1.960 -1.0653 -0.2944  0.5438
 5421SOL    HW127899   1.919   1.338   1.905 -0.7354 -0.3874  1.0221
 5421SOL    HW227900   1.856   1.417   2.014 -1.5014 -0.3150  0.7030
 5422SOL     OW27901   4.615   3.054   4.807  0.4903  0.0498 -0.1369
 5422SOL    HW127902   4.667   3.123   4.848  1.3404 -0.3960 -0.4607
 5422SOL    HW227903   4.685   2.993   4.783  1.4831  0.8053  0.8212
 5423SOL     OW27904   1.259   0.561   4.226 -0.1959  0.4425  0.0027
 5423SOL    HW127905   1.332   0.554   4.288  0.1636  0.0205 -0.4696
 5423SOL    HW227906   1.261   0.470   4.198  2.5985  0.3298  0.5817
 5424SOL     OW27907   3.605   3.857   1.683 -0.2322  0.4221  0.2131
 5424SOL    HW127908   3.554   3.776   1.674 -0.5634  0.6561 -0.0404
 5424SOL    HW227909   3.636   3.879   1.595 -0.5469  0.5889  0.1428
 5425SOL     OW27910   0.234   4.567   5.254 -0.1462  0.3991  0.0329
 5425SOL    HW127911   0.212   4.508   5.182 -0.7034  0.1779  0.3856
 5425SOL    HW227912   0.272   4.504   5.315  0.0250 -1.1788 -1.6911
 5426SOL     OW27913   3.783   4.298  15.025  0.8122 -0.0944  0.6316
 5426SOL    HW127914   3.700   4.252  15.013  1.3271 -2.2460  5.2543
 5426SOL    HW227915   3.821   4.275  14.941  2.1769 -1.2671  1.5602
 5427SOL     OW27916   1.806   2.518   9.950 -0.1838  0.0123 -0.3491
 5427SOL    HW127917   1.862   2.442   9.966 -0.2629  0.3905  1.7880
 5427SOL    HW227918   1.729   2.491   9.901  0.9695 -0.7601 -1.7124
 5428SOL     OW27919   1.314   4.574   2.938  0.4094  0.4312  0.1946
 5428SOL    HW127920   1.299   4.521   3.016 -2.6984  0.5262 -0.3430
 5428SOL    HW227921   1.408   4.589   2.941  0.5577 -0.5305  0.1427
 5429SOL     OW27922   0.606   0.836   1.231  0.6266  0.6554 -0.2437
 5429SOL    HW127923   0.685   0.783   1.231 -0.5634 -1.1011  0.8917
 5429SOL    HW227924   0.618   0.864   1.321  1.0573 -0.6674  0.1095
 5430SOL     OW27925   2.795   0.860   4.324  0.1863 -0.0593 -0.5937
 5430SOL    HW127926   2.848   0.855   4.244  1.5374  1.3735  0.2365
 5430SOL    HW227927   2.860   0.892   4.385  0.5447 -0.8173 -0.5763
 5431SOL     OW27928   0.972   4.190   4.922 -0.9137  0.0053  0.1259
 5431SOL    HW127929   0.979   4.097   4.901 -1.4313  0.0609 -0.2788
 5431SOL    HW227930   0.901   4.217   4.864  0.8263  1.0042 -1.5242
 5432SOL     OW27931   1.356   2.656   6.108  0.1027  0.2981 -0.0883
 5432SOL    HW127932   1.294   2.728   6.097  0.4521  0.6081 -0.0433
 5432SOL    HW227933   1.443   2.695   6.116  1.0914 -1.5669 -1.7863
 5433SOL     OW27934   1.003   2.521  15.798  0.4994  0.6784  0.0409
 5433SOL    HW127935   0.948   2.553  15.726 -0.0089 -0.9860 -0.3102
 5433SOL    HW227936   0.948   2.498  15.872  0.9743  0.0810  0.2077
 5434SOL     OW27937   4.157   4.618   2.221  0.2029 -0.1465  0.2591
 5434SOL    HW127938   4.208   4.571   2.156 -0.7207 -0.1383 -0.4685
 5434SOL    HW227939   4.113   4.682   2.165 -0.5486  0.9124  2.0418
 5435SOL     OW27940   0.759   4.129  12.972  0.2624 -0.3534  0.1639
 5435SOL    HW127941   0.724   4.201  12.918 -0.1886  0.5142  1.6335
 5435SOL    HW227942   0.715   4.145  13.055 -2.1546  0.9672 -1.3771
 5436SOL     OW27943   3.333   2.073   9.253  0.3280 -0.1221 -0.1613
 5436SOL    HW127944   3.380   2.129   9.191 -0.4695  1.2387  0.4521
 5436SOL    HW227945   3.400   2.029   9.305 -1.8886 -2.1341  0.9593
 5437SOL     OW27946   2.834   2.707   7.587 -0.0076  0.0189 -0.3796
 5437SOL    HW127947   2.830   2.669   7.499  0.0198 -2.0201  0.5086
 5437SOL    HW227948   2.768   2.651   7.628 -0.5291  2.5860  2.2958
 5438SOL     OW27949   0.247   1.870   8.833 -0.1979 -0.4708 -0.4332
 5438SOL    HW127950   0.188   1.908   8.769 -0.7311  0.2362  0.4910
 5438SOL    HW227951   0.253   1.943   8.894 -1.5700  1.2079 -2.3219
 5439SOL     OW27952   0.120   1.461   0.681 -0.6445 -0.2277 -0.0603
 5439SOL    HW127953   0.105   1.538   0.626 -0.3712 -2.1206 -2.7274
 5439SOL    HW227954   0.031   1.425   0.680  0.4875 -3.0295  0.8882
 5440SOL     OW27955   4.007   4.443   4.753 -0.0484 -0.2957  0.2641
 5440SOL    HW127956   4.007   4.415   4.845  0.3140 -0.6795  0.1423
 5440SOL    HW227957   3.917   4.477   4.757  0.3360  0.4526  2.8962
 5441SOL     OW27958   3.527   3.410   4.778 -0.6288 -0.1432 -0.2416
 5441SOL    HW127959   3.604   3.424   4.833  0.3179  1.0698 -1.8871
 5441SOL    HW227960   3.448   3.408   4.833  0.5267  0.5620  1.4574
 5442SOL     OW27961   2.772   1.178   4.430  0.0221 -0.2942  0.0368
 5442SOL    HW127962   2.852   1.126   4.419  0.4728  0.5841 -0.7386
 5442SOL    HW227963   2.707   1.120   4.471  1.6618 -1.0780  1.5261
 5443SOL     OW27964   0.089   4.508   4.321 -0.3618  0.4349  0.1041
 5443SOL    HW127965   0.061   4.419   4.342  2.7778 -1.0604 -2.0408
 5443SOL    HW227966   0.094   4.549   4.407  0.0189 -0.7263  0.6242
 5444SOL     OW27967   2.216   2.741  10.004 -0.2793  0.5137 -0.2883
 5444SOL    HW127968   2.287   2.680  10.024  0.5969  0.6362 -2.9941
 5444SOL    HW227969   2.193   2.771  10.092 -0.0603 -0.5279  0.1125
 5445SOL     OW27970   4.247   3.444   6.570 -0.4113 -0.5217  0.2172
 5445SOL    HW127971   4.181   3.443   6.640  0.8267 -0.5049  1.3875
 5445SOL    HW227972   4.327   3.428   6.621  0.3248  0.8133 -0.5125
 5446SOL     OW27973   3.911   1.545  11.530  0.1199 -0.0690  0.1708
 5446SOL    HW127974   3.983   1.560  11.470  1.5776  0.0696  1.9771
 5446SOL    HW227975   3.924   1.459  11.572 -0.0512 -0.1404  0.0813
 5447SOL     OW27976   3.193   2.971   7.844  0.1995 -0.1011  0.1123
 5447SOL    HW127977   3.117   2.916   7.831  0.6024 -0.6567  0.1037
 5447SOL    HW227978   3.264   2.915   7.876  0.9733 -0.2684 -1.9055
 5448SOL     OW27979   3.645   0.238   3.376 -0.1784  0.5030  0.2580
 5448SOL    HW127980   3.611   0.311   3.324  0.9330  0.2229 -0.8421
 5448SOL    HW227981   3.691   0.188   3.309 -1.5803  0.4783 -0.6865
 5449SOL     OW27982   2.489   1.803   5.918 -0.0637  0.4555  0.3804
 5449SOL    HW127983   2.494   1.819   5.824  1.2224 -0.8109  0.2373
 5449SOL    HW227984   2.441   1.720   5.924  2.2433 -0.8613  0.6490
 5450SOL     OW27985   3.196   1.272   6.260 -0.0401  0.0849  0.1214
 5450SOL    HW127986   3.130   1.290   6.327 -1.1096 -1.4328 -0.5297
 5450SOL    HW227987   3.141   1.246   6.186 -0.0733  0.0673  0.1522
 5451SOL     OW27988   1.186   4.002   0.013 -0.4979 -0.1236  0.3672
 5451SOL    HW127989   1.226   4.069   0.068  1.1957  0.6401 -1.8087
 5451SOL    HW227990   1.101   4.012   0.056 -0.7070 -0.4639  0.0358
 5452SOL     OW27991   3.136   4.557  12.842  0.4066  0.3425 -0.2838
 5452SOL    HW127992   3.162   4.522  12.928  2.8143  2.2176 -0.2553
 5452SOL    HW227993   3.186   4.638  12.848  0.8829 -0.1352  2.4450
 5453SOL     OW27994   2.971   0.393   2.063 -0.4441 -0.6271 -0.1817
 5453SOL    HW127995   2.899   0.442   2.023  0.3866  0.1430 -0.7359
 5453SOL    HW227996   2.940   0.303   2.059  0.7904 -1.2044  3.0577
 5454SOL     OW27997   3.851   2.544   3.714  0.0987  0.2674  0.1545
 5454SOL    HW127998   3.885   2.540   3.804  0.5540  1.5406  0.0532
 5454SOL    HW227999   3.911   2.481   3.675 -0.7833 -0.3594 -0.1685
 5455SOL     OW28000   0.744   0.251   7.302 -0.3726 -0.1690 -0.0602
 5455SOL    HW128001   0.761   0.311   7.374 -0.4811  0.2956 -0.4281
 5455SOL    HW228002   0.835   0.236   7.274 -0.5754  0.0127 -0.7967
 5456SOL     OW28003   4.148   0.326   3.717 -0.0464  0.2637 -0.3350
 5456SOL    HW128004   4.101   0.254   3.761  0.0339 -2.2668 -4.3514
 5456SOL    HW228005   4.108   0.325   3.630 -2.2159 -0.2769  0.6564
 5457SOL     OW28006   3.486   2.895  13.721 -0.1456  0.2634  0.1489
 5457SOL    HW128007   3.544   2.828  13.759 -1.1809 -1.2380 -0.9386
 5457SOL    HW228008   3.401   2.884  13.763 -0.0156  0.1769  0.3942
 5458SOL     OW28009   4.109   3.468   5.764 -0.3853 -0.4831 -0.4827
 5458SOL    HW128010   4.113   3.554   5.806 -0.0259 -1.1754  0.8953
 5458SOL    HW228011   4.151   3.415   5.832  0.6444  1.4155  0.3515
 5459SOL     OW28012   2.488   4.148  11.799 -0.5153 -0.7457 -0.0923
 5459SOL    HW128013   2.500   4.165  11.705  2.1252 -1.1463  0.1873
 5459SOL    HW228014   2.564   4.093  11.816 -0.3944 -0.0184  1.7616
 5460SOL     OW28015   2.558   2.286   8.957  0.6068 -0.5249  0.3520
 5460SOL    HW128016   2.587   2.299   8.867 -1.8814  1.5765 -0.1572
 5460SOL    HW228017   2.539   2.192   8.957 -1.0194 -0.1940 -0.2679
 5461SOL     OW28018   0.419   1.947   6.334 -0.1813  0.0100 -0.0327
 5461SOL    HW128019   0.402   1.874   6.274 -0.2869 -0.0277  0.0421
 5461SOL    HW228020   0.453   1.906   6.414  0.1942 -0.2372 -0.3142
 5462SOL     OW28021   2.698   4.157   3.558  0.8158  0.1710 -0.4364
 5462SOL    HW128022   2.780   4.205   3.552  1.3920 -0.5863  1.5037
 5462SOL    HW228023   2.712   4.084   3.499 -0.5926 -1.9334  1.8319
 5463SOL     OW28024   3.465   2.013   6.069 -0.4255 -0.0336 -1.1429
 5463SOL    HW128025   3.471   1.957   6.147  0.0103  0.9491 -0.4739
 5463SOL    HW228026   3.416   2.086   6.107  0.7791  0.1042  0.1668
 5464SOL     OW28027   1.267   4.722  14.580 -0.1065  0.4631 -0.1177
 5464SOL    HW128028   1.331   4.701  14.648 -0.3449  1.5677  0.4368
 5464SOL    HW228029   1.308   0.060  14.534 -1.2885  0.8412 -0.5683
 5465SOL     OW28030   2.330   0.869  17.564  0.2197 -0.2855  0.0865
 5465SOL    HW128031   2.258   0.887  17.625 -1.3177  0.8959 -2.0591
 5465SOL    HW228032   2.285   0.827  17.491  2.4328  1.7416 -2.4588
 5466SOL     OW28033   0.539   2.258  14.109 -0.7435  0.3892  0.5056
 5466SOL    HW128034   0.577   2.184  14.157 -0.5889 -0.8335 -1.5353
 5466SOL    HW228035   0.602   2.321  14.145  1.1711 -0.5404 -1.2396
 5467SOL     OW28036   2.289   2.539  10.326  0.0057 -0.1653 -0.3620
 5467SOL    HW128037   2.324   2.520  10.239  0.9122  3.2924 -0.7641
 5467SOL    HW228038   2.345   2.478  10.374  1.4185  0.8047 -0.7705
 5468SOL     OW28039   4.661   1.216  11.044  0.0888  0.2710 -0.4120
 5468SOL    HW128040   4.730   1.264  10.999 -1.0279  1.5064 -0.8110
 5468SOL    HW228041   4.711   1.143  11.081 -0.5736 -1.3954 -2.8326
 5469SOL     OW28042   2.522   1.784  12.358 -0.1310  0.0985  0.5326
 5469SOL    HW128043   2.614   1.760  12.368 -0.5485 -1.6420  0.2340
 5469SOL    HW228044   2.487   1.701  12.324 -2.9713  1.2013  0.7477
 5470SOL     OW28045   4.565   1.369  13.844  0.1224 -0.0313  0.1045
 5470SOL    HW128046   4.642   1.394  13.793  1.6153  1.5741  3.1704
 5470SOL    HW228047   4.518   1.298  13.800 -3.4258  1.6732  1.1159
 5471SOL     OW28048   4.704   2.284  11.586 -0.0804  0.5943 -0.0189
 5471SOL    HW128049   0.041   2.298  11.647 -0.6958 -0.6142  0.9845
 5471SOL    HW228050   0.007   2.233  11.515  0.1473 -1.8715  1.8992
 5472SOL     OW28051   1.750   2.205   1.009 -0.0575  0.0316 -0.4245
 5472SOL    HW128052   1.828   2.157   0.985 -0.2218 -1.6248  2.4094
 5472SOL    HW228053   1.684   2.136   1.007 -2.0121  1.8758 -0.7384
 5473SOL     OW28054   0.553   4.116  13.167  0.3783  0.3192 -0.0093
 5473SOL    HW128055   0.471   4.070  13.149 -1.0870  2.2354  1.7997
 5473SOL    HW228056   0.567   4.098  13.260 -0.9600 -3.2749 -0.4784
 5474SOL     OW28057   2.230   1.566   5.421 -0.8401  0.4743 -0.7636
 5474SOL    HW128058   2.189   1.489   5.462  0.9845  0.2219  0.6007
 5474SOL    HW228059   2.174   1.592   5.348  1.0197  1.1666 -1.9299
 5475SOL     OW28060   2.712   2.540   3.959 -0.7283  0.3881  0.6734
 5475SOL    HW128061   2.642   2.570   4.017 -0.6463  1.3185  0.3024
 5475SOL    HW228062   2.651   2.496   3.899  1.5335 -0.0704 -1.2874
 5476SOL     OW28063   3.965   0.479   7.739 -0.1102  0.5993 -0.0242
 5476SOL    HW128064   3.899   0.420   7.703  0.5572  0.2325 -0.6378
 5476SOL    HW228065   3.927   0.492   7.826 -1.7601  2.7897 -1.0701
 5477SOL     OW28066   2.119   4.380   0.479  0.5319  0.2652 -0.1719
 5477SOL    HW128067   2.156   4.467   0.462  0.5822  0.1576 -0.6119
 5477SOL    HW228068   2.050   4.401   0.542  0.6714 -1.8423  0.6589
 5478SOL     OW28069   4.672   3.354   9.803  0.0943 -0.3577  0.5141
 5478SOL    HW128070   4.666   3.290   9.873 -2.8245  0.7019  1.2636
 5478SOL    HW228071   4.585   3.393   9.790  0.6565  1.3058  1.7943
 5479SOL     OW28072   0.844   1.735  15.786 -0.2331 -0.2260 -0.8200
 5479SOL    HW128073   0.841   1.768  15.696  1.8927 -0.8498 -1.1236
 5479SOL    HW228074   0.758   1.753  15.824  0.6241  2.1460 -0.0237
 5480SOL     OW28075   3.934   1.752   4.337 -0.5183 -0.0018 -0.3366
 5480SOL    HW128076   3.849   1.737   4.294 -0.6736  1.9661 -0.6911
 5480SOL    HW228077   3.938   1.845   4.356  1.0551 -0.2232  0.4214
 5481SOL     OW28078   0.286   1.319   1.338 -0.4684 -0.2796  0.6619
 5481SOL    HW128079   0.374   1.282   1.323  0.5844  2.7457 -0.5438
 5481SOL    HW228080   0.294   1.414   1.345 -1.6714 -0.1045 -0.4680
 5482SOL     OW28081   3.407   2.443   2.988  0.7110  0.1283  0.2126
 5482SOL    HW128082   3.335   2.415   2.932  0.2700  0.5019  0.5995
 5482SOL    HW228083   3.372   2.494   3.060 -0.0178 -1.0352  0.6669
 5483SOL     OW28084   4.139   1.101  14.087  0.3452 -0.0692  0.1537
 5483SOL    HW128085   4.228   1.126  14.061  0.1813  0.4714  0.1153
 5483SOL    HW228086   4.144   1.130  14.178 -1.6007 -2.0039  0.8366
 5484SOL     OW28087   1.835   3.822   6.240  0.1274 -0.2735  0.0234
 5484SOL    HW128088   1.868   3.808   6.329 -2.4928  0.2682  1.0819
 5484SOL    HW228089   1.910   3.790   6.190 -0.7450  0.7898 -1.9271
 5485SOL     OW28090   3.005   3.543   4.173 -0.0704  0.1652 -0.1557
 5485SOL    HW128091   2.997   3.560   4.267  1.5363  1.9662 -0.3511
 5485SOL    HW228092   3.025   3.631   4.141 -1.8147  0.5411 -0.2444
 5486SOL     OW28093   1.131   1.926   0.766 -0.0898  0.2297  0.0401
 5486SOL    HW128094   1.076   1.890   0.836 -0.4480 -0.7478 -0.7389
 5486SOL    HW228095   1.165   1.999   0.817  0.3078  1.5563 -2.1521
 5487SOL     OW28096   1.016   3.839   2.232 -0.2013  0.1057 -0.0826
 5487SOL    HW128097   1.032   3.890   2.312  1.1689  1.1201 -0.9925
 5487SOL    HW228098   1.092   3.781   2.235 -0.2577  0.0056 -0.5975
 5488SOL     OW28099   1.281   3.020  15.509 -0.2819  0.4246  0.0104
 5488SOL    HW128100   1.209   2.958  15.513 -2.3062  2.7900 -0.1390
 5488SOL    HW228101   1.321   3.006  15.423 -2.1276  1.8604 -1.0722
 5489SOL     OW28102   2.147   1.700  10.500 -0.5989  0.4649 -0.1394
 5489SOL    HW128103   2.084   1.771  10.504  0.6654  1.6120 -0.4566
 5489SOL    HW228104   2.093   1.621  10.501  1.0496 -0.6570  0.8199
 5490SOL     OW28105   4.676   3.927   9.041  0.1804  0.3587  0.4650
 5490SOL    HW128106   4.597   3.907   8.991  0.2870  2.0568 -0.3466
 5490SOL    HW228107   4.660   4.020   9.053 -1.1150 -0.0929  2.2944
 5491SOL     OW28108   2.455   0.610   6.475 -0.1713 -0.0515 -0.3402
 5491SOL    HW128109   2.421   0.523   6.496 -0.7857 -0.0286 -1.2274
 5491SOL    HW228110   2.546   0.584   6.471 -0.2602 -0.4388  0.2301
 5492SOL     OW28111   0.073   4.204   4.451 -0.0515  0.0457  0.0012
 5492SOL    HW128112   0.156   4.224   4.495  0.3457 -0.8715 -0.3309
 5492SOL    HW228113   0.016   4.189   4.526 -1.5779  0.9965 -0.9805
 5493SOL     OW28114   3.162   0.438  15.809 -0.1214 -0.1594  0.1443
 5493SOL    HW128115   3.089   0.479  15.857  1.0445 -0.2824  2.0383
 5493SOL    HW228116   3.208   0.404  15.885  1.3051  1.3116 -0.0740
 5494SOL     OW28117   1.840   4.261   5.967 -0.4159 -0.3382 -0.1671
 5494SOL    HW128118   1.798   4.206   6.033  0.3208  2.1498  2.3546
 5494SOL    HW228119   1.782   4.337   5.971 -1.0266 -0.8130 -0.0139
 5495SOL     OW28120   0.991   0.900  16.090  0.4077  0.5986  0.1451
 5495SOL    HW128121   0.995   0.847  16.011  1.2882  0.6514  0.1612
 5495SOL    HW228122   1.012   0.987  16.055 -0.2778  0.4652 -0.5838
 5496SOL     OW28123   1.451   3.427   3.821  0.0777 -0.2618 -0.2864
 5496SOL    HW128124   1.544   3.410   3.839 -0.6254 -0.5350  3.0777
 5496SOL    HW228125   1.452   3.407   3.728  0.9808 -2.4685  0.1866
 5497SOL     OW28126   1.376   3.642   9.592  0.3698  0.6417 -0.0674
 5497SOL    HW128127   1.440   3.584   9.633  1.2863  0.6470 -1.5143
 5497SOL    HW228128   1.432   3.718   9.580  1.8954 -0.1468  2.0543
 5498SOL     OW28129   0.237   1.149   4.379  0.0605 -0.8842 -0.1618
 5498SOL    HW128130   0.184   1.171   4.456  1.8477  0.7376  0.6015
 5498SOL    HW228131   0.269   1.232   4.344 -2.9093  0.3387 -0.0532
 5499SOL     OW28132   2.939   0.109   0.450  0.3734  0.0279  0.0469
 5499SOL    HW128133   2.976   0.056   0.379  1.3385 -1.8619  1.9804
 5499SOL    HW228134   2.950   0.195   0.408  1.0589  0.3473  0.8859
 5500SOL     OW28135   0.581   3.366  10.827  0.4364  0.3133 -0.1536
 5500SOL    HW128136   0.570   3.339  10.918  0.4579 -1.3215 -0.6362
 5500SOL    HW228137   0.656   3.310  10.809 -0.1043 -0.6142  0.5025
 5501SOL     OW28138   4.355   3.239   0.915 -0.1438  0.4208  0.2316
 5501SOL    HW128139   4.338   3.237   0.821 -0.3832  0.5540  0.2734
 5501SOL    HW228140   4.435   3.290   0.918  0.3359 -0.2611 -1.4197
 5502SOL     OW28141   3.335   4.009   6.991  0.0733 -0.4123  0.0301
 5502SOL    HW128142   3.419   3.985   7.031 -0.9103 -2.3749  0.9326
 5502SOL    HW228143   3.323   4.094   7.034 -0.9949  0.1219 -1.3238
 5503SOL     OW28144   0.899   1.859   7.041 -0.2969  0.3373  0.4141
 5503SOL    HW128145   0.982   1.856   6.993 -1.2122  0.5003 -1.1686
 5503SOL    HW228146   0.839   1.826   6.974 -1.0721 -1.6063  2.0624
 5504SOL     OW28147   3.754   3.220  17.297  0.3773 -0.3429  0.3164
 5504SOL    HW128148   3.787   3.264  17.375 -2.7836  1.0490  0.8441
 5504SOL    HW228149   3.712   3.146  17.341  0.2683 -0.0934  0.6298
 5505SOL     OW28150   4.685   2.777   2.654  0.1709  0.1771  0.2528
 5505SOL    HW128151   4.654   2.864   2.679  0.3188 -0.0571  1.2931
 5505SOL    HW228152   4.649   2.723   2.724  1.3784 -1.5616 -0.4816
 5506SOL     OW28153   4.251   3.795   7.965  0.5244  0.1430  0.2618
 5506SOL    HW128154   4.198   3.873   7.981  0.0281 -0.3996  1.2462
 5506SOL    HW228155   4.275   3.791   8.057 -2.3165  0.7442  1.0232
 5507SOL     OW28156   3.280   0.768   1.788 -0.3759 -0.8378  0.1356
 5507SOL    HW128157   3.345   0.724   1.842 -1.2354  0.0472  1.8829
 5507SOL    HW228158   3.262   0.711   1.713  2.4154 -1.2843 -0.1779
 5508SOL     OW28159   3.140   0.632   3.867  0.3169  0.0644  0.2564
 5508SOL    HW128160   3.140   0.595   3.779 -0.2411  0.9385 -0.1070
 5508SOL    HW228161   3.116   0.551   3.913  0.8581  0.3029  0.9570
 5509SOL     OW28162   1.377   3.732  16.103  0.1369 -0.0316 -0.1532
 5509SOL    HW128163   1.424   3.648  16.099 -0.3783 -0.3817  1.2228
 5509SOL    HW228164   1.443   3.780  16.153  3.2247 -1.3861 -2.9136
 5510SOL     OW28165   4.575   3.514   7.881  0.0745  0.2112  0.1628
 5510SOL    HW128166   4.624   3.452   7.935 -1.9118 -2.3624 -0.9791
 5510SOL    HW228167   4.556   3.460   7.805 -0.8865  1.1675 -0.2768
 5511SOL     OW28168   2.839   1.299   2.988 -0.4446 -0.0687  0.0865
 5511SOL    HW128169   2.867   1.346   2.910  1.0456 -2.2424 -0.7191
 5511SOL    HW228170   2.862   1.355   3.062 -0.1471 -1.2271  0.8709
 5512SOL     OW28171   2.362   3.706   3.866 -0.4411 -0.2001 -0.4508
 5512SOL    HW128172   2.354   3.738   3.776 -1.2328  0.6751 -0.0610
 5512SOL    HW228173   2.283   3.653   3.869 -0.3541 -0.2421  0.7626
 5513SOL     OW28174   2.850   3.783   2.101 -0.2402  0.7548  0.2433
 5513SOL    HW128175   2.789   3.803   2.030 -2.9871  0.0422  2.4231
 5513SOL    HW228176   2.836   3.860   2.157  0.1915 -0.4504  2.0078
 5514SOL     OW28177   1.652   0.829   4.717  0.2379 -0.7836  0.1313
 5514SOL    HW128178   1.724   0.789   4.766  0.6970  0.3547  0.3886
 5514SOL    HW228179   1.639   0.908   4.769  0.4990 -0.6268 -0.0450
 5515SOL     OW28180   3.607   4.158  11.422 -0.6546 -0.0794 -0.1652
 5515SOL    HW128181   3.686   4.212  11.420 -1.0502  0.4921 -0.5435
 5515SOL    HW228182   3.614   4.134  11.514  0.5204 -0.5087 -0.3722
 5516SOL     OW28183   1.148   3.547   5.288 -0.8107 -0.1503  0.3414
 5516SOL    HW128184   1.070   3.581   5.331 -2.3827 -3.2563 -0.0687
 5516SOL    HW228185   1.101   3.506   5.215 -0.3889  0.3490 -0.2114
 5517SOL     OW28186   3.597   4.436   7.925 -0.2537  0.5011  0.0240
 5517SOL    HW128187   3.508   4.418   7.896  0.2286 -0.8611 -0.6328
 5517SOL    HW228188   3.592   4.428   8.020  4.7825 -0.4641  0.2205
 5518SOL     OW28189   3.271   2.728   5.492 -0.4325 -0.2998  0.4653
 5518SOL    HW128190   3.251   2.819   5.470  0.1571 -0.7288 -1.9091
 5518SOL    HW228191   3.342   2.701   5.433  0.2645  0.5902  0.9134
 5519SOL     OW28192   2.946   4.270   3.561  0.4425 -0.0261  0.2691
 5519SOL    HW128193   3.031   4.238   3.529 -0.8684 -2.0851 -1.1254
 5519SOL    HW228194   2.959   4.356   3.602  0.5490 -0.0075  0.1979
 5520SOL     OW28195   0.651   3.945  16.103  0.0139  0.3196  0.2214
 5520SOL    HW128196   0.642   3.922  16.195  0.6911  1.3270  0.5339
 5520SOL    HW228197   0.722   4.009  16.105 -1.8722  2.3871  0.1179
 5521SOL     OW28198   4.704   2.773   2.379  0.0648  0.1901 -0.1934
 5521SOL    HW128199   0.061   2.764   2.355  0.0177 -0.8723  0.0603
 5521SOL    HW228200   4.701   2.783   2.474  0.8013 -0.9611 -0.0515
 5522SOL     OW28201   4.572   0.229   6.819  0.1556 -0.3283  0.5506
 5522SOL    HW128202   4.648   0.274   6.783 -0.1804  0.8490  1.3058
 5522SOL    HW228203   4.521   0.304   6.850 -0.9306 -0.5421 -0.7261
 5523SOL     OW28204   3.840   3.673   3.368  0.6696  0.0404  0.2931
 5523SOL    HW128205   3.821   3.753   3.318  1.0682  0.1710  0.3521
 5523SOL    HW228206   3.843   3.608   3.299  1.4252  0.1587  0.2127
 5524SOL     OW28207   1.851   0.039   7.485 -0.0980 -0.4922  0.4052
 5524SOL    HW128208   1.932   0.001   7.520  1.7499  1.6705 -1.5123
 5524SOL    HW228209   1.786   4.729   7.538 -2.9236  3.0514 -0.0872
 5525SOL     OW28210   1.697   4.442   1.513  0.1475 -0.2950  0.3433
 5525SOL    HW128211   1.630   4.375   1.499  0.1914 -0.4023  0.6428
 5525SOL    HW228212   1.729   4.415   1.599 -0.4631 -0.3386  0.5598
 5526SOL     OW28213   1.644   2.422  12.103  0.2406  0.4984 -0.2781
 5526SOL    HW128214   1.672   2.444  12.192 -0.8103  0.7005  0.0067
 5526SOL    HW228215   1.718   2.368  12.077 -0.0055 -0.4513  1.0051
 5527SOL     OW28216   1.514   0.295   9.285 -0.0428 -0.6038  0.1598
 5527SOL    HW128217   1.484   0.263   9.370  1.2118 -1.3691  0.3248
 5527SOL    HW228218   1.607   0.269   9.284 -0.0585 -0.6409 -0.2127
 5528SOL     OW28219   3.311   2.686   5.133 -0.6481  0.5490 -0.6199
 5528SOL    HW128220   3.236   2.696   5.075 -1.9438  1.5078  1.2461
 5528SOL    HW228221   3.363   2.753   5.088 -0.6260  0.9406 -0.0153
 5529SOL     OW28222   1.777   3.768  15.363 -0.1257 -0.1628 -0.2712
 5529SOL    HW128223   1.788   3.708  15.289  0.9210  0.8808 -0.9712
 5529SOL    HW228224   1.737   3.843  15.320  0.7845  0.6180  0.2343
 5530SOL     OW28225   3.779   4.078   4.857 -0.5522  0.2473 -0.2862
 5530SOL    HW128226   3.734   4.135   4.795  1.2730  2.8241  0.7671
 5530SOL    HW228227   3.864   4.121   4.858 -1.5846  2.2854 -0.3204
 5531SOL     OW28228   0.191   3.460   0.428  0.6119  0.0869 -0.0455
 5531SOL    HW128229   0.206   3.505   0.345  0.0178  1.9069  0.8388
 5531SOL    HW228230   0.278   3.457   0.469  0.2993 -0.3704  0.5867
 5532SOL     OW28231   1.113   3.508   8.735 -0.2603 -0.5056  0.1542
 5532SOL    HW128232   1.022   3.497   8.763 -1.0598  2.1343 -1.3791
 5532SOL    HW228233   1.160   3.478   8.813 -1.9998  0.3321  1.5487
 5533SOL     OW28234   1.533   2.306   6.915  0.3098 -0.4684  0.1782
 5533SOL    HW128235   1.439   2.297   6.896  0.6254 -1.4547 -0.9508
 5533SOL    HW228236   1.548   2.396   6.943  1.1975 -1.1649  1.9215
 5534SOL     OW28237   0.131   0.248   7.363 -0.1991 -0.5406  0.0773
 5534SOL    HW128238   0.045   0.281   7.389 -0.1632  0.2028 -0.7437
 5534SOL    HW228239   0.114   0.155   7.373  0.3268 -0.4778  1.5777
 5535SOL     OW28240   3.893   0.895  10.573 -0.2540  0.3095 -0.6367
 5535SOL    HW128241   3.838   0.877  10.649  2.4916 -1.7295  0.8169
 5535SOL    HW228242   3.915   0.805  10.550 -1.7187 -0.1020 -0.4197
 5536SOL     OW28243   4.474   0.374   4.346  0.4776 -0.3221  0.3494
 5536SOL    HW128244   4.551   0.409   4.300 -1.0035  1.2565 -0.9012
 5536SOL    HW228245   4.408   0.384   4.278  0.3653 -1.2507  0.3226
 5537SOL     OW28246   1.023   1.767   3.852  0.0161  0.2763  0.5018
 5537SOL    HW128247   1.083   1.812   3.793 -0.1887 -1.8791 -1.3623
 5537SOL    HW228248   1.081   1.699   3.889  1.2560  0.4947 -1.0393
 5538SOL     OW28249   0.420   3.035   7.967  0.0964  0.0746  0.1157
 5538SOL    HW128250   0.467   3.000   7.892 -1.2369  0.4068 -0.8792
 5538SOL    HW228251   0.332   3.006   7.942  0.9957 -2.0373 -0.5762
 5539SOL     OW28252   3.938   0.467   3.961 -1.0033  0.3080 -0.3959
 5539SOL    HW128253   3.971   0.391   3.912 -0.1540 -0.2884  1.1101
 5539SOL    HW228254   3.959   0.434   4.049  1.7033 -1.2580 -1.6250
 5540SOL     OW28255   3.026   2.138   6.028  0.4511  0.6567 -0.7159
 5540SOL    HW128256   3.043   2.231   6.043 -1.6936  0.7798  0.8589
 5540SOL    HW228257   3.019   2.105   6.117  0.9584 -1.7648 -1.5421
 5541SOL     OW28258   4.247   3.096   2.956 -0.0662  0.5523 -0.4062
 5541SOL    HW128259   4.218   3.188   2.956  3.0977  1.5514 -0.8024
 5541SOL    HW228260   4.162   3.054   2.943 -0.1287  0.2797  0.8515
 5542SOL     OW28261   4.513   2.313   3.967 -0.1373  0.1310  0.0664
 5542SOL    HW128262   4.574   2.363   4.021  0.6560  0.1180 -0.8301
 5542SOL    HW228263   4.560   2.230   3.964  0.5638  0.5007  0.6855
 5543SOL     OW28264   1.141   4.388   5.528 -0.0206  0.0883 -0.0257
 5543SOL    HW128265   1.047   4.372   5.519  0.1654 -0.9071 -0.2377
 5543SOL    HW228266   1.169   4.346   5.447 -0.3398  0.2177 -0.2015
 5544SOL     OW28267   2.176   1.215   7.480 -0.1013 -0.2633 -0.2976
 5544SOL    HW128268   2.153   1.276   7.410  0.1025  0.1849  0.0240
 5544SOL    HW228269   2.238   1.153   7.440 -2.5204 -2.2002 -1.0789
 5545SOL     OW28270   0.696   2.551   4.196 -0.3987  0.3211 -0.4502
 5545SOL    HW128271   0.608   2.547   4.156 -0.7725  2.0578  0.2205
 5545SOL    HW228272   0.745   2.487   4.144 -0.5105  0.9729 -1.3590
 5546SOL     OW28273   4.572   0.257  12.830  0.7597  0.1949  0.2945
 5546SOL    HW128274   4.567   0.268  12.925 -1.4297  3.1784 -0.1783
 5546SOL    HW228275   4.626   0.336  12.816  0.4454  0.6656  1.7528
 5547SOL     OW28276   4.449   3.733   7.803  0.3723  0.4570 -0.1384
 5547SOL    HW128277   4.377   3.748   7.864  0.2361 -0.0548 -0.1655
 5547SOL    HW228278   4.484   3.647   7.828 -2.1602 -0.2509  0.9431
 5548SOL     OW28279   2.801   0.063   8.042 -0.0333  0.7477 -0.1671
 5548SOL    HW128280   2.858   0.099   8.111  0.3291 -0.0668 -0.0462
 5548SOL    HW228281   2.723   0.118   8.052  0.6701  1.7847 -0.2959
 5549SOL     OW28282   4.070   4.578   9.674 -0.0919  0.7842  0.0321
 5549SOL    HW128283   4.077   4.489   9.638 -0.4467  1.4108 -1.5889
 5549SOL    HW228284   4.155   4.614   9.650 -0.7937  1.5705 -1.2947
 5550SOL     OW28285   3.628   4.498   5.380 -0.4320  0.6986 -0.0546
 5550SOL    HW128286   3.690   4.549   5.433  1.3749  0.0077 -1.4967
 5550SOL    HW228287   3.585   4.452   5.451  1.5445  0.8470  1.2250
 5551SOL     OW28288   1.422   1.547   5.607  0.5210 -0.3688  0.7986
 5551SOL    HW128289   1.464   1.464   5.629  0.6334 -0.1790  1.3055
 5551SOL    HW228290   1.345   1.520   5.557  1.7711 -1.7937 -0.3493
 5552SOL     OW28291   0.508   0.925  16.493  0.3489 -0.3238 -0.2752
 5552SOL    HW128292   0.452   0.992  16.454  0.5580  0.0771  0.1205
 5552SOL    HW228293   0.500   0.858  16.425 -2.7304  1.2729 -1.4985
 5553SOL     OW28294   1.526   4.150  16.404 -0.6367 -0.0544  0.0096
 5553SOL    HW128295   1.437   4.144  16.441 -0.4339 -1.6948  0.2307
 5553SOL    HW228296   1.576   4.200  16.469 -0.1610  0.1774 -0.5374
 5554SOL     OW28297   2.567   2.617   4.571 -0.1217  0.1933  0.1706
 5554SOL    HW128298   2.493   2.561   4.591 -0.4784  0.7834  0.5224
 5554SOL    HW228299   2.605   2.645   4.654  0.9242 -0.6245 -0.0295
 5555SOL     OW28300   0.507   3.347   7.719  0.3525  0.4269 -0.4283
 5555SOL    HW128301   0.488   3.267   7.670 -1.0706  0.8187 -0.5091
 5555SOL    HW228302   0.553   3.399   7.653  1.8854  1.3105  1.3445
 5556SOL     OW28303   0.269   1.302  11.625  0.1929 -0.4092 -0.3480
 5556SOL    HW128304   0.292   1.307  11.532  0.3357  0.8830 -0.2435
 5556SOL    HW228305   0.193   1.359  11.619 -0.6955 -1.4442  1.1441
 5557SOL     OW28306   4.600   0.157   6.443  1.6023  0.1735 -0.3018
 5557SOL    HW128307   4.644   0.198   6.518  0.9035 -1.0188  0.7628
 5557SOL    HW228308   4.618   0.064   6.460  1.4166 -0.5177 -3.9054
 5558SOL     OW28309   3.583   1.920   2.529 -0.5309 -0.2585  0.1574
 5558SOL    HW128310   3.650   1.988   2.519 -1.0451 -0.0217 -1.5834
 5558SOL    HW228311   3.518   1.962   2.586  0.7585  2.5685 -0.4436
 5559SOL     OW28312   0.415   1.447   4.926  0.0843 -0.0763 -0.5187
 5559SOL    HW128313   0.356   1.375   4.947  0.5514 -0.0408  0.9110
 5559SOL    HW228314   0.364   1.481   4.853  0.2761 -0.3178 -0.7650
 5560SOL     OW28315   2.121   3.213   3.815 -0.0704  0.1517 -0.4982
 5560SOL    HW128316   2.026   3.221   3.810 -0.1247  0.8051  1.5017
 5560SOL    HW228317   2.139   3.247   3.903  1.5150 -1.3292 -0.2516
 5561SOL     OW28318   3.759   2.789   5.677 -0.0842  0.1139  0.4496
 5561SOL    HW128319   3.809   2.826   5.605 -0.7299  0.2892  0.0897
 5561SOL    HW228320   3.820   2.720   5.703  0.9611 -0.0617 -2.4886
 5562SOL     OW28321   1.491   4.662   8.868  0.2402 -1.0298  0.3230
 5562SOL    HW128322   1.411   4.627   8.907  0.0260 -2.5473 -1.4705
 5562SOL    HW228323   1.534   4.583   8.836 -0.9976 -0.6929 -2.1506
 5563SOL     OW28324   3.985   1.400  16.243 -0.2646 -0.5690 -0.9397
 5563SOL    HW128325   4.043   1.375  16.171  2.8528 -1.6773  1.9461
 5563SOL    HW228326   3.935   1.474  16.208  2.0602  1.7878  0.8088
 5564SOL     OW28327   0.972   2.051   3.460  0.0428  0.4955  0.0271
 5564SOL    HW128328   0.911   1.994   3.506  0.3522 -1.1815 -1.6245
 5564SOL    HW228329   0.919   2.069   3.383  2.0744  1.8881 -1.0439
 5565SOL     OW28330   0.548   2.745   7.244  0.5339  0.2372 -0.2700
 5565SOL    HW128331   0.576   2.654   7.252 -1.1380 -0.3793 -1.3551
 5565SOL    HW228332   0.537   2.763   7.337 -0.2341  1.1813 -0.5420
 5566SOL     OW28333   0.738   2.103   1.318  0.8123 -0.1642 -0.0971
 5566SOL    HW128334   0.732   2.166   1.390 -1.1757  0.8647 -1.1930
 5566SOL    HW228335   0.796   2.145   1.255  1.4440  1.0556  1.2938
 5567SOL     OW28336   2.697   4.528   5.601 -0.1160  0.1006  0.5834
 5567SOL    HW128337   2.661   4.595   5.659  1.3769  2.3764 -1.0885
 5567SOL    HW228338   2.776   4.573   5.571  0.3746 -1.8498 -1.1020
 5568SOL     OW28339   4.321   0.408   4.128  1.0646 -0.2902  0.1647
 5568SOL    HW128340   4.345   0.460   4.051  3.3947 -0.5260  0.7433
 5568SOL    HW228341   4.262   0.468   4.174 -0.0375 -1.9700  0.9417
 5569SOL     OW28342   0.084   2.591   1.312  0.2441 -0.3284  0.0906
 5569SOL    HW128343   0.062   2.674   1.354  1.3262  0.7910 -1.5802
 5569SOL    HW228344   0.037   2.607   1.230  2.4288 -1.1033 -1.3109
 5570SOL     OW28345   1.277   4.081   9.364  0.4324 -0.5221  0.0646
 5570SOL    HW128346   1.342   4.034   9.417  0.7590 -0.1328  0.0074
 5570SOL    HW228347   1.212   4.084   9.434  0.4424 -1.0846  0.1024
 5571SOL     OW28348   0.365   4.113   1.843 -0.2243  0.2374 -0.0412
 5571SOL    HW128349   0.347   4.099   1.937  0.0696 -0.6106 -0.1122
 5571SOL    HW228350   0.311   4.050   1.795 -0.3202 -0.8808  1.5367
 5572SOL     OW28351   1.274   3.379   6.752 -0.1376 -0.2357  0.6697
 5572SOL    HW128352   1.250   3.361   6.661 -0.2834  1.6327  0.3424
 5572SOL    HW228353   1.360   3.336   6.744  0.5725  1.3096  0.1027
 5573SOL     OW28354   4.088   0.981   1.045  0.1569 -0.3080 -0.3984
 5573SOL    HW128355   4.100   1.013   0.956 -1.6160 -1.2486 -0.9857
 5573SOL    HW228356   4.179   0.962   1.068 -0.2587 -2.0505 -0.1704
 5574SOL     OW28357   2.986   0.981   9.611 -0.5008  0.3678 -0.2012
 5574SOL    HW128358   3.019   0.891   9.610  1.2883  1.0081  1.1207
 5574SOL    HW228359   2.954   0.987   9.701 -1.6773  0.9802 -0.6663
 5575SOL     OW28360   1.413   4.486   9.195 -0.2523  0.2652 -0.3319
 5575SOL    HW128361   1.454   4.555   9.248  1.0295 -0.0768 -0.9075
 5575SOL    HW228362   1.380   4.538   9.122 -0.6153  0.0266 -0.3397
 5576SOL     OW28363   2.042   2.107   4.700  1.0109  0.1893 -0.1279
 5576SOL    HW128364   1.952   2.137   4.704  0.5129 -1.8100  3.6123
 5576SOL    HW228365   2.044   2.074   4.790 -0.4249 -0.4387 -0.3289
 5577SOL     OW28366   1.447   4.680   2.530  0.0237  0.6159  0.3269
 5577SOL    HW128367   1.439   0.035   2.497  1.2110  1.0875  1.3479
 5577SOL    HW228368   1.374   4.636   2.486  0.8297  0.0134 -0.4078
 5578SOL     OW28369   1.597   2.754   2.139 -0.1280 -0.3547 -0.0362
 5578SOL    HW128370   1.570   2.728   2.051 -2.3738 -1.6720  1.0549
 5578SOL    HW228371   1.677   2.703   2.153  1.1886  1.6611 -0.1574
 5579SOL     OW28372   0.943   2.139   4.268 -0.0984  0.1804  0.1902
 5579SOL    HW128373   1.027   2.127   4.224  0.1287  0.7066  0.4718
 5579SOL    HW228374   0.947   2.233   4.285  0.0572  0.0158  1.0706
 5580SOL     OW28375   0.784   4.676   4.687 -0.5965  0.1105 -0.0635
 5580SOL    HW128376   0.844   4.668   4.761 -0.1631 -0.0146 -0.4242
 5580SOL    HW228377   0.803   4.595   4.639  1.5472 -1.4542  3.4475
 5581SOL     OW28378   2.736   4.445   7.631  0.2081  0.0393 -0.2900
 5581SOL    HW128379   2.666   4.503   7.599  1.3199  1.8946  0.6052
 5581SOL    HW228380   2.736   4.485   7.718 -0.1104 -0.5435 -0.0280
 5582SOL     OW28381   3.858   0.628   4.311 -0.9220 -0.5863  0.9475
 5582SOL    HW128382   3.797   0.657   4.244  2.8183 -0.8983 -2.6041
 5582SOL    HW228383   3.800   0.629   4.387 -0.7490  0.1703  1.0675
 5583SOL     OW28384   0.800   4.692   4.978 -0.1893 -0.6458 -0.8663
 5583SOL    HW128385   0.789   0.045   5.014  0.4060 -1.6273  1.7082
 5583SOL    HW228386   0.857   4.640   5.034  0.0370  1.2749  0.7031
 5584SOL     OW28387   0.131   3.715  13.310  0.2547 -0.2475 -0.0518
 5584SOL    HW128388   0.046   3.719  13.267  0.4041 -1.5916 -0.4680
 5584SOL    HW228389   0.169   3.635  13.273 -1.0161 -0.1745 -1.4860
 5585SOL     OW28390   2.084   0.975   9.091  0.6884  0.2196 -0.0873
 5585SOL    HW128391   2.133   0.898   9.062 -1.0034 -0.0956 -2.1134
 5585SOL    HW228392   1.993   0.951   9.070  0.8001 -0.6557  0.4166
 5586SOL     OW28393   3.299   3.061   7.200 -0.5722  0.5363 -0.0276
 5586SOL    HW128394   3.237   3.124   7.237  0.6919  0.1727  2.7157
 5586SOL    HW228395   3.334   3.025   7.281 -0.2565 -0.3008 -0.5322
 5587SOL     OW28396   2.985   2.895   5.146 -0.2396 -0.3527 -0.5070
 5587SOL    HW128397   3.072   2.876   5.111 -0.2263 -1.6491  0.2123
 5587SOL    HW228398   2.930   2.868   5.072 -0.5327  0.5589 -0.6177
 5588SOL     OW28399   1.079   0.986   9.027 -0.7731 -0.1637 -0.4163
 5588SOL    HW128400   1.090   1.018   9.116 -1.6719  0.0598 -0.3857
 5588SOL    HW228401   0.999   0.934   9.030  0.5497 -2.3335 -2.5546
 5589SOL     OW28402   4.496   0.723   4.880 -0.3224 -0.3891  0.0365
 5589SOL    HW128403   4.514   0.765   4.796 -1.4807 -1.7442 -0.8976
 5589SOL    HW228404   4.400   0.726   4.887 -0.0442 -1.8614  4.1799
 5590SOL     OW28405   1.112   0.024   9.490  0.2894  0.6982 -0.0170
 5590SOL    HW128406   1.157   0.014   9.574 -1.3158 -0.9410  0.6310
 5590SOL    HW228407   1.182   0.038   9.426  2.1484 -0.4504  1.7539
 5591SOL     OW28408   3.841   0.404   7.957 -0.4773  0.2978 -0.1743
 5591SOL    HW128409   3.781   0.429   8.027  0.4618 -1.2192  1.1777
 5591SOL    HW228410   3.814   0.314   7.940  1.0144 -0.4769  1.5756
 5592SOL     OW28411   1.497   2.823   3.573  0.0662 -0.1511 -0.3058
 5592SOL    HW128412   1.592   2.828   3.568  0.0177  1.2561  0.1285
 5592SOL    HW228413   1.492   2.745   3.628  0.8370  0.5112  0.7131
 5593SOL     OW28414   2.628   4.251   7.133 -0.4519  0.6776  0.4555
 5593SOL    HW128415   2.566   4.180   7.121  0.6582  0.1685 -2.3405
 5593SOL    HW228416   2.586   4.303   7.202 -0.9666  1.1701 -0.2222
 5594SOL     OW28417   0.297   0.174   0.454 -0.0628 -0.3178  0.3301
 5594SOL    HW128418   0.259   0.262   0.453 -0.1066 -0.3181  1.9155
 5594SOL    HW228419   0.349   0.183   0.534  1.7117  1.3195 -1.0020
 5595SOL     OW28420   1.235   4.276   3.468  0.0221 -0.1486  0.4883
 5595SOL    HW128421   1.269   4.347   3.522  0.7055  0.0171 -0.1632
 5595SOL    HW228422   1.186   4.224   3.532 -0.0332  0.3638  0.8642
 5596SOL     OW28423   1.032   3.729   9.112 -0.1468  0.4594 -0.4957
 5596SOL    HW128424   1.004   3.743   9.022  0.6145 -0.9552 -0.9568
 5596SOL    HW228425   1.032   3.822   9.136  1.2998  0.3073  0.1126
 5597SOL     OW28426   0.938   1.210   4.956  0.1265 -0.3527 -0.1715
 5597SOL    HW128427   0.847   1.238   4.951 -0.3653 -1.7635  0.9558
 5597SOL    HW228428   0.944   1.150   4.881 -2.3528 -3.9041  2.5023
 5598SOL     OW28429   3.210   2.425   5.502  0.3040 -0.1540 -0.3399
 5598SOL    HW128430   3.254   2.507   5.480  2.1179 -0.7982  0.9549
 5598SOL    HW228431   3.228   2.373   5.423  0.3433 -1.9303  0.8312
 5599SOL     OW28432   0.871   1.002   4.715 -0.1747 -0.1219 -0.1220
 5599SOL    HW128433   0.935   0.969   4.651  0.3139 -1.2200  0.9467
 5599SOL    HW228434   0.802   1.037   4.659 -0.9682  0.0574  0.9853
 5600SOL     OW28435   1.194   3.577   4.298  1.0570  0.1414 -0.1300
 5600SOL    HW128436   1.136   3.608   4.367  1.8519 -0.1756  0.6764
 5600SOL    HW228437   1.241   3.654   4.268  1.3554 -1.4673 -3.8881
 5601SOL     OW28438   3.034   2.567   1.255  0.2165  0.0144  0.0012
 5601SOL    HW128439   2.944   2.535   1.244 -0.7656  1.9325  2.5135
 5601SOL    HW228440   3.042   2.636   1.190  0.6844  1.0669  1.1819
 5602SOL     OW28441   1.551   3.361   7.812  0.1878  0.1348 -0.2198
 5602SOL    HW128442   1.478   3.423   7.821 -0.7084 -0.7875 -1.2497
 5602SOL    HW228443   1.539   3.294   7.879 -0.9430 -0.7544 -1.3037
 5603SOL     OW28444   1.910   4.609   2.748 -0.1205 -0.2143  0.0993
 5603SOL    HW128445   1.821   4.597   2.714  1.1753 -0.2744 -3.3520
 5603SOL    HW228446   1.961   4.545   2.697  0.7020 -1.6933  2.7656
 5604SOL     OW28447   4.390   0.076  11.230 -0.7384  0.0169  0.0717
 5604SOL    HW128448   4.353   0.048  11.314  1.3886 -0.0571  0.9722
 5604SOL    HW228449   4.438   0.001  11.196 -1.5713 -0.7177  0.4982
 5605SOL     OW28450   0.063   4.107   2.456 -0.0193  0.2243 -0.1884
 5605SOL    HW128451   4.727   4.094   2.518  2.0987  0.9818  2.3883
 5605SOL    HW228452   0.016   4.107   2.373  2.1072 -3.6946 -1.4032
 5606SOL     OW28453   2.243   1.269   1.353 -0.3507  0.2300 -0.0437
 5606SOL    HW128454   2.275   1.352   1.320  0.4910  0.3663  1.1006
 5606SOL    HW228455   2.279   1.281   1.441  0.8118  1.2598 -0.6620
 5607SOL     OW28456   4.270   2.023   6.099  0.3279 -0.3787 -0.2511
 5607SOL    HW128457   4.203   2.084   6.069  0.5766 -0.0886 -0.2197
 5607SOL    HW228458   4.335   2.040   6.031  1.8004  0.5939  1.4017
 5608SOL     OW28459   1.853   0.333   7.092 -0.1153  0.0530  0.3077
 5608SOL    HW128460   1.784   0.399   7.102  1.4063  1.8479 -1.0862
 5608SOL    HW228461   1.875   0.296   7.177  0.7671  0.0754  0.0929
 5609SOL     OW28462   3.049   4.728   0.239 -0.0774  0.3418  0.2354
 5609SOL    HW128463   2.991   4.700   0.168  0.1463  0.6952 -0.0884
 5609SOL    HW228464   3.127   4.689   0.202 -1.1425 -1.7025  0.1611
 5610SOL     OW28465   0.778   0.981   2.672  0.0239  0.1784  0.4806
 5610SOL    HW128466   0.808   0.956   2.584 -2.1032  0.4186 -0.3051
 5610SOL    HW228467   0.692   0.941   2.682 -1.0794  2.7146  0.9513
 5611SOL     OW28468   4.140   2.532   5.186  0.1399  0.0663 -0.5294
 5611SOL    HW128469   4.089   2.584   5.248  0.1618  1.1229 -1.4151
 5611SOL    HW228470   4.082   2.533   5.110 -1.1793 -1.4360  0.4276
 5612SOL     OW28471   3.122   3.352   6.461 -0.6980  0.2182  0.0737
 5612SOL    HW128472   3.114   3.267   6.503  0.7435  0.4554  0.8338
 5612SOL    HW228473   3.042   3.352   6.408  0.2274  1.7338 -1.3223
 5613SOL     OW28474   0.896   0.366   7.509 -0.3372 -0.4846 -0.5443
 5613SOL    HW128475   0.911   0.450   7.465 -0.2543 -0.4989 -0.5423
 5613SOL    HW228476   0.985   0.334   7.498 -0.7592 -1.9960  0.4182
 5614SOL     OW28477   1.250   0.225   2.239  0.3292 -0.1695 -0.3024
 5614SOL    HW128478   1.323   0.209   2.299  1.3923 -0.4737 -1.6601
 5614SOL    HW228479   1.215   0.300   2.287 -0.8024 -0.5468 -0.5460
 5615SOL     OW28480   3.703   4.696   0.658  0.1414  0.2924 -0.2193
 5615SOL    HW128481   3.623   4.648   0.638  0.5217 -0.0067 -1.0547
 5615SOL    HW228482   3.760   4.686   0.581  0.4360 -0.4687  0.0952
 5616SOL     OW28483   0.036   3.066   5.075 -0.7231  0.0074  0.0004
 5616SOL    HW128484   4.684   3.027   5.080 -0.4268 -0.7021 -0.4187
 5616SOL    HW228485   0.033   3.127   5.149 -3.1044  0.9223 -0.8296
 5617SOL     OW28486   2.038   2.989   4.567 -0.3117  0.3370 -0.3388
 5617SOL    HW128487   2.027   3.084   4.559 -1.1044  0.2923  0.2233
 5617SOL    HW228488   1.983   2.962   4.493  0.0170 -0.3423 -0.3281
 5618SOL     OW28489   1.335   2.447  10.937 -0.1502 -0.3384 -0.4304
 5618SOL    HW128490   1.336   2.541  10.916  1.0617  0.4039  2.9790
 5618SOL    HW228491   1.427   2.432  10.955  0.0468 -0.1494 -1.2493
 5619SOL     OW28492   1.722   2.825   9.859  0.0565 -0.6544  0.0375
 5619SOL    HW128493   1.690   2.755   9.803 -1.2255 -0.0966  0.0897
 5619SOL    HW228494   1.817   2.810   9.853  0.5958  3.5364 -2.0314
 5620SOL     OW28495   2.751   2.232   5.157  0.3785  0.0512 -0.4234
 5620SOL    HW128496   2.772   2.282   5.078 -1.0447 -1.5689 -1.8227
 5620SOL    HW228497   2.769   2.140   5.134 -0.1787 -0.6993  2.1706
 5621SOL     OW28498   4.294   3.929   2.788 -0.9187  1.0081  0.1213
 5621SOL    HW128499   4.215   3.979   2.769  0.2030  1.8460 -2.4018
 5621SOL    HW228500   4.286   3.958   2.879  0.1582  0.0895  0.5167
 5622SOL     OW28501   2.544   1.633   4.642 -0.1075  0.1164  0.5660
 5622SOL    HW128502   2.607   1.695   4.605 -0.3200  0.6713  1.1342
 5622SOL    HW228503   2.496   1.602   4.565 -1.1927 -0.9739  1.6855
 5623SOL     OW28504   2.039   3.621   6.935 -0.1100  0.5388  0.6642
 5623SOL    HW128505   2.044   3.613   7.031  0.6621 -0.0543  0.5820
 5623SOL    HW228506   2.057   3.532   6.906 -1.3136  0.4777  0.1494
 5624SOL     OW28507   4.453   3.387  11.583  0.3799 -0.5396  0.6626
 5624SOL    HW128508   4.476   3.419  11.670 -2.3638 -1.1979  1.6428
 5624SOL    HW228509   4.396   3.312  11.605  1.3009 -1.6138 -0.5985
 5625SOL     OW28510   1.434   3.293  15.089 -0.2712  0.3742  0.0820
 5625SOL    HW128511   1.353   3.300  15.037 -2.1605 -1.0409  2.8600
 5625SOL    HW228512   1.502   3.274  15.024 -0.0165 -1.6515  0.9624
 5626SOL     OW28513   2.163   3.025   3.443 -0.3198 -0.4170 -0.2693
 5626SOL    HW128514   2.101   2.994   3.509  0.2861 -0.9182  0.0636
 5626SOL    HW228515   2.128   3.114   3.432 -0.3346 -0.4033 -0.1037
 5627SOL     OW28516   3.254   0.211   6.431 -0.0143 -0.6111  0.0244
 5627SOL    HW128517   3.297   0.137   6.473 -0.6222 -1.5797 -1.0710
 5627SOL    HW228518   3.262   0.282   6.494 -0.3947 -0.6857  0.1524
 5628SOL     OW28519   2.323   0.583   5.519  0.2345 -0.3245  0.5903
 5628SOL    HW128520   2.412   0.546   5.522  0.2014 -0.5220 -0.8328
 5628SOL    HW228521   2.306   0.582   5.425 -0.3723 -3.3996  0.7268
 5629SOL     OW28522   4.304   3.233   7.234  0.6010 -0.0839 -0.4422
 5629SOL    HW128523   4.295   3.151   7.188 -0.9936  1.5177 -2.9670
 5629SOL    HW228524   4.216   3.266   7.217  0.7849  0.4175 -0.4349
 5630SOL     OW28525   2.380   1.736   4.824  0.5682 -0.0896  0.1398
 5630SOL    HW128526   2.340   1.803   4.768 -0.0737  0.2029  0.9618
 5630SOL    HW228527   2.441   1.700   4.759  1.1225  0.1011  0.5560
 5631SOL     OW28528   3.340   0.413  14.500  0.1199 -0.1061  0.1995
 5631SOL    HW128529   3.261   0.426  14.552 -0.6982 -0.7024 -0.8993
 5631SOL    HW228530   3.311   0.438  14.413  1.8165  0.0404 -0.3236
 5632SOL     OW28531   3.884   3.166   5.659  0.3808 -0.5494 -0.3947
 5632SOL    HW128532   3.848   3.131   5.740 -1.7865 -0.9605 -1.5450
 5632SOL    HW228533   3.854   3.257   5.653 -0.3619 -0.7858 -0.2835
 5633SOL     OW28534   2.627   1.735  15.305  0.0511 -0.3078 -0.2205
 5633SOL    HW128535   2.576   1.726  15.386  0.0483 -0.4043 -0.2333
 5633SOL    HW228536   2.565   1.784  15.250 -0.4036  0.1722  0.7223
 5634SOL     OW28537   2.940   4.427   7.254 -0.0062 -0.0371 -0.8486
 5634SOL    HW128538   2.991   4.394   7.328 -3.0726  2.6981  2.4602
 5634SOL    HW228539   2.971   4.515   7.234  0.1775 -0.5533 -2.8486
 5635SOL     OW28540   2.555   0.309  17.290  0.0275  0.5602  0.1701
 5635SOL    HW128541   2.555   0.217  17.263  0.4777 -0.2923  2.9961
 5635SOL    HW228542   2.616   0.351  17.229 -0.0986  1.6576  0.8002
 5636SOL     OW28543   4.552   1.820   7.440 -0.9132 -0.0893  0.1711
 5636SOL    HW128544   4.565   1.881   7.513  1.8010  1.0016 -1.2053
 5636SOL    HW228545   4.629   1.762   7.446  1.0516  2.0945 -3.9181
 5637SOL     OW28546   1.664   2.315   3.383  1.0286 -0.5121  0.4026
 5637SOL    HW128547   1.638   2.299   3.473  0.6435  0.5093  0.4717
 5637SOL    HW228548   1.728   2.383   3.402  0.1959  0.1861  0.6831
 5638SOL     OW28549   1.747   2.136  17.599 -0.6177 -0.4574  0.3395
 5638SOL    HW128550   1.792   2.214  17.566  1.2030 -2.4806 -1.8875
 5638SOL    HW228551   1.822   2.080  17.620 -0.7887 -0.8690 -0.1875
 5639SOL     OW28552   2.114   2.508  13.360 -0.1615  1.0127 -0.2217
 5639SOL    HW128553   2.031   2.546  13.388 -1.8525 -1.2008 -2.2545
 5639SOL    HW228554   2.086   2.477  13.274  2.2902  1.0627 -1.0258
 5640SOL     OW28555   1.767   3.557   7.154  0.0759 -0.5333  0.0370
 5640SOL    HW128556   1.771   3.481   7.097  2.2028 -1.4037  1.3846
 5640SOL    HW228557   1.799   3.518   7.235  0.4372  2.2668  1.2414
 5641SOL     OW28558   2.102   4.303  14.672  0.0207  0.5252  0.1384
 5641SOL    HW128559   2.154   4.318  14.593 -1.0549  1.5349 -0.3816
 5641SOL    HW228560   2.178   4.329  14.724  0.7657 -0.2894 -0.5323
 5642SOL     OW28561   1.507   3.523  16.402 -0.4944  0.5034  0.4326
 5642SOL    HW128562   1.435   3.550  16.458 -0.3646  0.0759  0.8068
 5642SOL    HW228563   1.581   3.539  16.461 -0.7150 -2.5509  1.5259
 5643SOL     OW28564   1.336   4.193  12.969 -0.2734  0.7242  0.6869
 5643SOL    HW128565   1.338   4.118  12.910  0.1882  0.4860  0.9991
 5643SOL    HW228566   1.242   4.206  12.981 -0.0692  1.5532  1.4187
 5644SOL     OW28567   3.011   0.967  17.406 -0.1294  0.4663  0.6446
 5644SOL    HW128568   2.952   0.923  17.346 -0.8326 -0.5641  2.0769
 5644SOL    HW228569   2.991   0.937  17.495 -0.3737  0.9197  0.7397
 5645SOL     OW28570   2.865   3.755   6.377 -0.1253  0.1455 -0.2094
 5645SOL    HW128571   2.926   3.736   6.448 -1.3691  0.1593  0.8788
 5645SOL    HW228572   2.790   3.768   6.435 -0.9035  0.3599 -1.2646
 5646SOL     OW28573   4.174   3.414   4.889 -0.1110 -0.4552 -0.4736
 5646SOL    HW128574   4.146   3.344   4.948  1.4130 -0.8006 -0.1726
 5646SOL    HW228575   4.176   3.485   4.954 -0.7991 -1.3055  0.4836
 5647SOL     OW28576   4.285   0.016  10.165 -0.0405  0.1263  0.3531
 5647SOL    HW128577   4.254   4.677  10.216  0.3751 -0.1663  0.1749
 5647SOL    HW228578   4.332   4.707  10.094 -2.2980 -1.3156 -0.2280
 5648SOL     OW28579   1.516   2.915   5.043  0.3048  0.0828 -0.5416
 5648SOL    HW128580   1.428   2.883   5.025  1.4752 -3.8496  0.4941
 5648SOL    HW228581   1.563   2.857   4.983  1.4354  0.7027 -0.2666
 5649SOL     OW28582   4.636   1.282  14.094  0.3574  0.6318 -0.0262
 5649SOL    HW128583   4.611   1.369  14.123  0.6353  1.1321 -1.3246
 5649SOL    HW228584   4.633   1.308  14.002 -2.1335 -0.2550 -0.2057
 5650SOL     OW28585   3.133   3.353   5.563  0.5393  0.0237 -0.4151
 5650SOL    HW128586   3.174   3.360   5.477 -0.8341 -0.8491 -1.1287
 5650SOL    HW228587   3.201   3.310   5.615 -0.8451 -0.4243  1.0244
 5651SOL     OW28588   4.635   0.843   6.751 -0.2984 -0.0909 -0.2759
 5651SOL    HW128589   4.703   0.836   6.819 -1.0892  0.1020  0.5411
 5651SOL    HW228590   4.593   0.924   6.782 -1.3329 -0.4793 -0.6900
 5652SOL     OW28591   2.460   1.273  11.383 -0.3565 -0.2933  0.1796
 5652SOL    HW128592   2.457   1.311  11.295  0.1446 -1.0361 -0.1581
 5652SOL    HW228593   2.552   1.247  11.381 -0.4311 -0.2629 -3.3209
 5653SOL     OW28594   1.098   0.506  11.900  0.3650 -0.4210  0.0078
 5653SOL    HW128595   1.053   0.557  11.834  0.1531 -1.4746 -0.6691
 5653SOL    HW228596   1.187   0.541  11.893  0.6093 -0.9915  0.1688
 5654SOL     OW28597   3.079   4.022   1.996 -0.3073  0.1075  0.2793
 5654SOL    HW128598   3.010   4.010   1.930 -0.1391 -1.0015  0.3189
 5654SOL    HW228599   3.059   3.953   2.058  1.1811 -0.3080  0.3109
 5655SOL     OW28600   0.379   2.282   4.105  0.7218  0.4351 -0.0459
 5655SOL    HW128601   0.366   2.356   4.164  0.4085 -0.7378  1.3449
 5655SOL    HW228602   0.456   2.250   4.151  1.5154  0.9135 -1.0317
 5656SOL     OW28603   3.536   0.236   9.911 -0.5022 -0.2768 -0.4523
 5656SOL    HW128604   3.554   0.321   9.873 -0.0780  0.5056  1.5147
 5656SOL    HW228605   3.484   0.200   9.839 -0.0955  2.4430 -2.0902
 5657SOL     OW28606   0.559   2.473  13.471 -0.4582 -0.6920 -0.0707
 5657SOL    HW128607   0.491   2.508  13.413  0.4508 -0.4748 -1.0226
 5657SOL    HW228608   0.622   2.451  13.402 -1.0462 -0.4524 -0.6817
 5658SOL     OW28609   0.642   3.010   8.107  0.1461  0.4603  0.2023
 5658SOL    HW128610   0.686   2.935   8.067  1.5226  1.5755 -0.3651
 5658SOL    HW228611   0.566   3.014   8.049 -1.0620  1.5228  1.8724
 5659SOL     OW28612   3.803   0.258   6.912 -0.1501  0.5314 -0.2743
 5659SOL    HW128613   3.797   0.304   6.996  2.1107  0.1002  0.1327
 5659SOL    HW228614   3.866   0.307   6.859  0.8109  2.9628  3.1667
 5660SOL     OW28615   1.751   4.132  15.515  0.2341  0.2808  0.7391
 5660SOL    HW128616   1.707   4.124  15.430  1.0633 -1.9498  0.5153
 5660SOL    HW228617   1.788   4.220  15.512  1.0490 -0.0868 -0.0927
 5661SOL     OW28618   3.771   4.098  10.888  0.3598 -0.8499  0.2112
 5661SOL    HW128619   3.749   4.103  10.981  1.1646  0.7932  0.3009
 5661SOL    HW228620   3.695   4.047  10.859  0.4245 -0.9984  0.3036
 5662SOL     OW28621   4.446   3.850   3.710 -0.4854  0.2655  0.2250
 5662SOL    HW128622   4.432   3.882   3.621 -0.8991 -0.5174  0.0100
 5662SOL    HW228623   4.489   3.767   3.691  0.6575  1.6524 -3.1662
 5663SOL     OW28624   2.295   1.250   3.136 -0.7458  0.6820  0.3533
 5663SOL    HW128625   2.205   1.217   3.141 -0.4354 -0.5562 -2.1340
 5663SOL    HW228626   2.344   1.183   3.183 -0.8003  0.6222  0.3253
 5664SOL     OW28627   3.512   1.827   3.715  1.1269  0.2050 -0.4042
 5664SOL    HW128628   3.571   1.831   3.640  0.5829  0.4480 -0.8202
 5664SOL    HW228629   3.440   1.778   3.673  1.3489  1.3344 -2.0956
 5665SOL     OW28630   2.291   3.962   5.479 -0.0371  0.0792  0.1419
 5665SOL    HW128631   2.311   3.933   5.568 -0.2924 -1.6280 -0.3714
 5665SOL    HW228632   2.380   3.968   5.444  0.9170  2.9907  3.0824
 5666SOL     OW28633   0.150   1.485   3.824 -0.4680  0.3873  0.1751
 5666SOL    HW128634   0.167   1.399   3.787  1.0985  0.6147  0.3631
 5666SOL    HW228635   0.061   1.499   3.791 -0.4462 -0.0580 -0.0650
 5667SOL     OW28636   1.810   2.085  12.538 -0.2134  0.0022 -0.2917
 5667SOL    HW128637   1.723   2.124  12.539 -0.7273 -1.1221 -2.4356
 5667SOL    HW228638   1.808   2.057  12.629 -2.1481  0.1150 -0.3035
 5668SOL     OW28639   2.806   3.504   7.473 -0.0555  0.2941 -0.1527
 5668SOL    HW128640   2.886   3.466   7.438  1.1008  2.9468 -0.3674
 5668SOL    HW228641   2.759   3.424   7.498  0.1233 -0.0450 -0.9016
 5669SOL     OW28642   2.085   0.912  17.654  0.4568 -0.2476 -0.4611
 5669SOL    HW128643   2.030   0.988  17.635 -0.9900 -1.1016  0.3202
 5669SOL    HW228644   2.073   0.893   0.008 -1.1846 -0.1605 -0.6533
 5670SOL     OW28645   3.722   0.571  12.362 -0.2068 -0.1678 -0.2086
 5670SOL    HW128646   3.671   0.652  12.354  1.2099  0.4715 -2.6590
 5670SOL    HW228647   3.793   0.596  12.421  0.1426  0.7665 -1.0283
 5671SOL     OW28648   3.503   0.423   3.218 -0.0731  0.7364 -0.1259
 5671SOL    HW128649   3.550   0.493   3.173  1.5627  0.7883  1.6559
 5671SOL    HW228650   3.433   0.412   3.154  1.3348 -0.9470 -1.3724
 5672SOL     OW28651   0.723   4.168   4.193  0.2877 -0.5319  0.0989
 5672SOL    HW128652   0.642   4.193   4.239 -0.1674 -1.3456 -0.2698
 5672SOL    HW228653   0.691   4.120   4.117  2.2277 -0.2170 -0.9085
 5673SOL     OW28654   3.745   1.268  15.918 -0.1426 -0.9158  0.4676
 5673SOL    HW128655   3.798   1.192  15.891 -1.1374 -1.3131 -0.3300
 5673SOL    HW228656   3.665   1.263  15.867 -0.9181 -1.4122  1.7345
 5674SOL     OW28657   2.380   0.650  12.688  0.2080 -0.0253  0.6193
 5674SOL    HW128658   2.463   0.663  12.734 -0.4415 -2.5456  2.5121
 5674SOL    HW228659   2.385   0.590  12.614 -3.6673  0.1907  0.1719
 5675SOL     OW28660   3.462   3.539   8.233 -0.2389  0.1579  0.1004
 5675SOL    HW128661   3.529   3.608   8.242 -1.2584  1.3520 -1.5815
 5675SOL    HW228662   3.389   3.590   8.266 -1.2705 -1.5506  0.4490
 5676SOL     OW28663   3.600   3.912   9.463 -0.1487  0.4002 -0.0552
 5676SOL    HW128664   3.589   3.993   9.413  0.2286 -0.0237 -0.8123
 5676SOL    HW228665   3.648   3.954   9.535 -0.8364 -1.0813  1.2794
 5677SOL     OW28666   4.161   4.246  10.342  0.5959 -0.3069  0.3126
 5677SOL    HW128667   4.125   4.335  10.343  0.1867 -0.4897  1.0752
 5677SOL    HW228668   4.246   4.268  10.303  1.7888 -0.0877  3.0751
 5678SOL     OW28669   3.870   1.437   1.067  0.1555  0.3106 -0.3193
 5678SOL    HW128670   3.786   1.392   1.074 -0.1756  0.3533 -4.0375
 5678SOL    HW228671   3.929   1.364   1.047  1.3741  1.4635 -0.9291
 5679SOL     OW28672   0.735   4.504   6.968  0.0151  0.2727  0.9085
 5679SOL    HW128673   0.814   4.503   6.914 -1.1849  2.4113 -0.8565
 5679SOL    HW228674   0.756   4.570   7.034 -1.3689  2.3289 -0.7182
 5680SOL     OW28675   0.009   0.080   7.615 -0.2183 -0.5734  0.8162
 5680SOL    HW128676   4.682   0.112   7.681 -0.2426 -1.0698  1.0384
 5680SOL    HW228677   4.683   0.050   7.548 -2.6082 -1.5219  3.3834
 5681SOL     OW28678   0.635   0.860   1.480  0.5272  0.1931 -0.0637
 5681SOL    HW128679   0.576   0.809   1.535  1.7011 -0.4348  0.6058
 5681SOL    HW228680   0.691   0.894   1.549  1.1726  2.5265 -1.7238
 5682SOL     OW28681   1.563   3.261   1.058  0.0425  0.2842 -0.0137
 5682SOL    HW128682   1.503   3.213   1.116 -1.1922  2.6288  0.6580
 5682SOL    HW228683   1.525   3.349   1.060 -0.3433  0.0758  1.9879
 5683SOL     OW28684   0.990   1.123   8.592 -0.0084 -0.0895  0.2255
 5683SOL    HW128685   1.010   1.050   8.533 -0.5740 -0.5943  0.6523
 5683SOL    HW228686   0.894   1.124   8.584  0.1035  0.2280 -1.0696
 5684SOL     OW28687   3.758   4.390   4.485 -0.2336 -0.4110  0.0540
 5684SOL    HW128688   3.837   4.410   4.436 -0.5138 -0.9922 -0.6311
 5684SOL    HW228689   3.712   4.473   4.502  0.1813 -0.0220 -0.7463
 5685SOL     OW28690   0.836   3.587  15.652  0.3774  0.5694  0.2419
 5685SOL    HW128691   0.852   3.509  15.600 -0.7260  0.3187  0.2861
 5685SOL    HW228692   0.807   3.543  15.732  0.7591 -2.3158 -1.2367
 5686SOL     OW28693   2.725   0.397   3.139  0.6221 -0.0350  0.5801
 5686SOL    HW128694   2.708   0.311   3.099 -1.3330  0.6380 -0.0033
 5686SOL    HW228695   2.795   0.428   3.081 -2.3446  2.3218 -1.7207
 5687SOL     OW28696   2.487   1.738   3.635  0.2151 -0.3528 -0.5768
 5687SOL    HW128697   2.423   1.681   3.678 -0.4924  0.7537 -0.1608
 5687SOL    HW228698   2.567   1.712   3.682 -0.8602 -0.7416  1.0141
 5688SOL     OW28699   4.092   2.384  16.210  0.2676 -0.6063  0.4977
 5688SOL    HW128700   4.148   2.427  16.274  0.4143  1.5794 -1.0998
 5688SOL    HW228701   4.155   2.389  16.138  0.1320 -1.7755  0.3061
 5689SOL     OW28702   3.789   3.037   3.361  0.4343  0.0719 -0.0826
 5689SOL    HW128703   3.725   3.042   3.290  0.8299  0.8475 -0.3877
 5689SOL    HW228704   3.867   3.054   3.308  0.0335  0.0246 -0.6894
 5690SOL     OW28705   2.662   1.742   5.339  0.1318 -0.0396  0.3703
 5690SOL    HW128706   2.617   1.657   5.341  1.6690 -0.8694 -0.3969
 5690SOL    HW228707   2.743   1.721   5.385 -0.1713 -0.9224  0.5138
 5691SOL     OW28708   3.453   3.584   0.231  0.0882  0.1313 -0.3079
 5691SOL    HW128709   3.469   3.489   0.227 -0.1717  0.0293  1.1202
 5691SOL    HW228710   3.502   3.621   0.158 -0.6539 -0.3594 -1.0497
 5692SOL     OW28711   0.617   3.192  13.629 -0.4445 -0.1207  0.6024
 5692SOL    HW128712   0.602   3.170  13.537  0.3652  2.0562 -0.0578
 5692SOL    HW228713   0.645   3.108  13.664  1.4136  0.4741  0.5312
 5693SOL     OW28714   3.646   0.184   5.356  0.1502 -0.1323  0.3740
 5693SOL    HW128715   3.674   0.138   5.277  1.2331  2.7054 -0.9172
 5693SOL    HW228716   3.712   0.167   5.423  1.5620  0.3631 -0.8775
 5694SOL     OW28717   2.856   0.505   9.988  0.8573 -0.2772  0.4023
 5694SOL    HW128718   2.761   0.507   9.983  0.8826 -2.2501 -0.6703
 5694SOL    HW228719   2.866   0.467   9.901  1.9772  0.8874  0.0116
 5695SOL     OW28720   1.342   1.029  16.000  0.4126  0.1240  0.4446
 5695SOL    HW128721   1.288   1.070  16.067 -0.7872  0.6758 -0.8770
 5695SOL    HW228722   1.344   1.086  15.924  0.5065  0.4379  0.6784
 5696SOL     OW28723   3.018   0.723   9.930 -0.1829 -0.3518  0.0053
 5696SOL    HW128724   2.965   0.800   9.913 -1.5036 -0.8720  1.7433
 5696SOL    HW228725   2.957   0.660   9.969  0.9732  0.0005  2.3734
 5697SOL     OW28726   4.197   1.344  15.155 -0.3116 -0.8697 -0.3700
 5697SOL    HW128727   4.271   1.369  15.100  2.3355 -2.3520  2.4927
 5697SOL    HW228728   4.138   1.418  15.138  1.9709  1.4259  1.6911
 5698SOL     OW28729   3.048   4.142   8.440  0.7686 -0.0179  0.2198
 5698SOL    HW128730   3.134   4.183   8.456  1.0216  0.3381 -2.0480
 5698SOL    HW228731   3.073   4.078   8.374  0.7863 -0.9293  1.1171
 5699SOL     OW28732   4.206   3.353   9.524  0.7586  0.1728  0.0880
 5699SOL    HW128733   4.249   3.269   9.508  1.0475  0.2853  0.2739
 5699SOL    HW228734   4.233   3.407   9.450 -1.2774 -0.9237 -1.4471
 5700SOL     OW28735   3.594   3.093   2.874 -0.2522 -0.5358  0.1377
 5700SOL    HW128736   3.655   3.037   2.825  0.1560 -0.5618  0.6750
 5700SOL    HW228737   3.600   3.176   2.827 -0.3439 -1.6179 -1.7714
 5701SOL     OW28738   0.305   4.076   9.074  0.1686 -0.3504 -0.4891
 5701SOL    HW128739   0.311   4.157   9.124  2.3338  0.2126 -1.6640
 5701SOL    HW228740   0.280   4.016   9.145  1.2699 -0.5131 -0.2338
 5702SOL     OW28741   2.738   2.248   3.392 -0.0087  0.5787  0.7809
 5702SOL    HW128742   2.723   2.323   3.449 -1.4453  0.6423  0.3309
 5702SOL    HW228743   2.832   2.258   3.375  0.4406 -0.7485  2.4790
 5703SOL     OW28744   2.389   0.622  17.395  0.3941 -0.1943  0.5434
 5703SOL    HW128745   2.323   0.662  17.339  0.7673  0.1327  0.3447
 5703SOL    HW228746   2.469   0.637  17.346  1.1677 -1.3000  1.4637
 5704SOL     OW28747   4.169   0.421   9.735  0.1171  0.0414  0.9541
 5704SOL    HW128748   4.183   0.344   9.790 -0.3250  1.2669  2.7817
 5704SOL    HW228749   4.076   0.442   9.738  0.3719  1.4569 -1.1771
 5705SOL     OW28750   4.544   3.125   7.837 -0.1237 -0.4185 -0.8713
 5705SOL    HW128751   4.590   3.086   7.762 -0.7882 -1.2555 -0.8430
 5705SOL    HW228752   4.572   3.070   7.910 -0.1816  1.3650  0.4883
 5706SOL     OW28753   4.427   0.424   6.955  0.2178 -0.3530 -0.0597
 5706SOL    HW128754   4.373   0.494   6.918 -0.3737 -1.1801 -0.7558
 5706SOL    HW228755   4.372   0.362   7.003  0.1069  0.9311  1.4482
 5707SOL     OW28756   4.323   2.995   6.825 -0.0404 -0.2904  0.2112
 5707SOL    HW128757   4.379   3.063   6.865 -1.0129  0.0273  1.0275
 5707SOL    HW228758   4.263   3.044   6.769  0.2917 -2.4405 -2.0231
 5708SOL     OW28759   0.960   1.122   6.606  0.3325  0.4015 -0.1697
 5708SOL    HW128760   1.009   1.155   6.530  0.2590  0.3743 -0.2277
 5708SOL    HW228761   0.992   1.167   6.685  1.4007 -0.6193 -0.0203
 5709SOL     OW28762   1.341   1.022   2.360  0.0879  0.0413 -0.3354
 5709SOL    HW128763   1.347   1.071   2.442 -0.5061 -1.9969  0.9409
 5709SOL    HW228764   1.343   0.932   2.393 -1.3238  0.2773  0.4032
 5710SOL     OW28765   0.426   0.043   6.033  0.0206 -0.7471  0.2444
 5710SOL    HW128766   0.341   0.039   6.078 -0.1131  0.5862  0.1073
 5710SOL    HW228767   0.441   4.684   6.023  2.6615 -0.1718 -1.1052
 5711SOL     OW28768   2.130   1.847   5.421 -0.3829  0.1406 -0.0347
 5711SOL    HW128769   2.175   1.912   5.368 -0.6462  0.9235  0.6970
 5711SOL    HW228770   2.143   1.762   5.380  1.0478  0.0828  0.5649
 5712SOL     OW28771   2.731   0.921   0.696 -0.1035  0.2749 -0.3495
 5712SOL    HW128772   2.717   0.867   0.774  1.2792  2.4044  1.3827
 5712SOL    HW228773   2.699   0.863   0.628  0.9520 -0.1040 -0.5262
 5713SOL     OW28774   3.941   2.336   3.434 -0.0700 -0.0832 -0.2079
 5713SOL    HW128775   3.872   2.275   3.409 -0.3499 -0.3839  1.3030
 5713SOL    HW228776   3.977   2.303   3.517 -0.5236  0.9893  0.4265
 5714SOL     OW28777   0.702   0.492   9.409 -0.1615 -0.4837  0.3428
 5714SOL    HW128778   0.632   0.546   9.373  0.1726 -0.2691  0.0188
 5714SOL    HW228779   0.779   0.534   9.371  0.1799 -2.1826 -0.8384
 5715SOL     OW28780   0.816   0.237  10.083 -0.0561 -0.3578  0.5850
 5715SOL    HW128781   0.884   0.287  10.129  1.6622 -0.8852 -1.3779
 5715SOL    HW228782   0.744   0.299  10.092 -0.3281 -0.3385 -1.6570
 5716SOL     OW28783   0.468   3.740   9.505  0.5606  0.2239 -0.3248
 5716SOL    HW128784   0.548   3.792   9.501 -0.1604  1.4247  1.1417
 5716SOL    HW228785   0.400   3.804   9.525  2.1856  1.9995 -0.4534
 5717SOL     OW28786   0.809   2.533   1.043  0.2097 -0.0961 -0.8315
 5717SOL    HW128787   0.827   2.602   0.979  0.0385  0.4522 -0.2839
 5717SOL    HW228788   0.730   2.559   1.090  0.5166 -0.9867  0.2036
 5718SOL     OW28789   0.331   1.923   7.961 -0.8862 -0.5196 -0.2127
 5718SOL    HW128790   0.337   2.003   8.013 -3.0734 -0.4146 -0.1399
 5718SOL    HW228791   0.258   1.888   8.013  1.7101 -2.9219  1.8405
 5719SOL     OW28792   2.413   3.158   3.391  0.7639 -0.0218 -0.3704
 5719SOL    HW128793   2.451   3.104   3.460 -0.2221  1.9891  1.7292
 5719SOL    HW228794   2.323   3.129   3.405 -0.1230  0.9829 -4.0256
 5720SOL     OW28795   3.510   3.752  16.811 -0.7094 -0.0223 -0.7596
 5720SOL    HW128796   3.467   3.832  16.842 -0.0648  0.5794 -1.4265
 5720SOL    HW228797   3.465   3.747  16.727  0.1941 -0.3020 -1.2271
 5721SOL     OW28798   3.475   1.758  13.466 -0.2144 -0.0310  0.2585
 5721SOL    HW128799   3.440   1.792  13.548  1.0811  0.1302  0.7389
 5721SOL    HW228800   3.509   1.842  13.436 -0.4255 -0.8017 -2.1501
 5722SOL     OW28801   4.261   1.262   2.882 -0.4596  0.4396  0.1706
 5722SOL    HW128802   4.300   1.336   2.927  2.6965 -0.3782 -1.1736
 5722SOL    HW228803   4.345   1.220   2.859 -0.5531  0.1578  0.3550
 5723SOL     OW28804   3.866   3.625  17.455 -0.0318  0.0678  0.3520
 5723SOL    HW128805   3.815   3.640  17.375  1.4706  0.5817 -0.5151
 5723SOL    HW228806   3.955   3.638  17.423  0.0497 -0.2884  0.4358
 5724SOL     OW28807   3.477   0.167   5.644  0.3831  0.1520  0.4510
 5724SOL    HW128808   3.425   0.204   5.573  0.5767 -0.4630 -0.0160
 5724SOL    HW228809   3.440   0.227   5.708 -0.4860 -1.2184  1.2266
 5725SOL     OW28810   0.619   3.513   6.584 -0.1889  0.4614  0.3707
 5725SOL    HW128811   0.534   3.518   6.628 -0.8099 -0.6965 -0.6979
 5725SOL    HW228812   0.671   3.450   6.634 -0.8047  0.2719  0.7738
 5726SOL     OW28813   4.626   3.775  16.279  0.6196  0.2842  0.6839
 5726SOL    HW128814   4.589   3.731  16.202  1.1064  2.6997 -0.9497
 5726SOL    HW228815   4.552   3.817  16.323  2.4246  0.8928  3.1094
 5727SOL     OW28816   2.973   1.291   3.243 -0.2477 -0.0062 -0.2426
 5727SOL    HW128817   3.035   1.269   3.174 -0.2101  0.7809 -0.4652
 5727SOL    HW228818   2.949   1.205   3.277 -1.7791  1.3473  2.0429
 5728SOL     OW28819   4.539   3.420   8.953  0.4919  0.0349 -0.0782
 5728SOL    HW128820   4.567   3.412   9.045  1.3127 -0.1257 -0.3356
 5728SOL    HW228821   4.490   3.341   8.935  0.2510  0.5662 -1.6876
 5729SOL     OW28822   3.254   4.571   8.796 -0.4629  0.3692  0.5254
 5729SOL    HW128823   3.198   4.590   8.871  0.5741  2.3389  0.7869
 5729SOL    HW228824   3.307   4.649   8.784  1.8359 -1.2902 -0.1659
 5730SOL     OW28825   3.795   4.601  13.562 -0.4082 -0.0207 -0.0470
 5730SOL    HW128826   3.875   4.613  13.614 -0.9650  1.2930  0.4933
 5730SOL    HW228827   3.793   4.505  13.552  0.9170  0.0566 -0.9649
 5731SOL     OW28828   2.134   3.507  13.005  0.0492  0.1392 -0.2948
 5731SOL    HW128829   2.225   3.515  13.034  0.2671 -2.5482 -0.1858
 5731SOL    HW228830   2.137   3.471  12.916 -1.0930  0.0246 -0.2820
 5732SOL     OW28831   3.909   3.782  11.936 -0.2311 -0.0167  0.8045
 5732SOL    HW128832   3.900   3.875  11.955  1.3215  0.4822 -0.9151
 5732SOL    HW228833   3.971   3.751  12.002  0.4980  1.0974  0.6426
 5733SOL     OW28834   0.250   2.232   7.468  0.1070  0.0283 -0.0227
 5733SOL    HW128835   0.256   2.324   7.445  0.4614  0.0662  0.2322
 5733SOL    HW228836   0.182   2.198   7.408  0.3765 -1.3509  0.4506
 5734SOL     OW28837   2.799   2.788   2.125  0.2226  0.3710  0.2437
 5734SOL    HW128838   2.889   2.766   2.100 -0.1549 -2.5260  1.5347
 5734SOL    HW228839   2.783   2.863   2.067 -0.0373 -0.7130 -1.0770
 5735SOL     OW28840   4.328   3.815   5.644 -0.7006  0.1866  0.3072
 5735SOL    HW128841   4.391   3.747   5.667 -1.5762 -0.5202  0.6107
 5735SOL    HW228842   4.299   3.788   5.557  1.2257 -0.4310 -0.1576
 5736SOL     OW28843   1.173   2.931   9.092  0.1505 -0.1355  0.2499
 5736SOL    HW128844   1.166   2.836   9.078 -1.3980 -0.3715  2.6662
 5736SOL    HW228845   1.265   2.937   9.119  0.3081  0.0262 -0.3153
 5737SOL     OW28846   2.201   4.628   7.346 -0.2357 -1.2276  0.3304
 5737SOL    HW128847   2.282   4.622   7.295 -0.6892  0.5180 -0.5896
 5737SOL    HW228848   2.137   4.610   7.277  0.8621  0.6513 -1.2217
 5738SOL     OW28849   0.058   3.547   7.365 -0.0219 -0.2558 -0.4713
 5738SOL    HW128850   0.133   3.553   7.305  1.3915  0.2272  1.3617
 5738SOL    HW228851   0.088   3.606   7.434  0.9148 -0.6833 -0.5071
 5739SOL     OW28852   3.398   1.302   8.753 -0.5891  0.0942  0.0321
 5739SOL    HW128853   3.419   1.291   8.661 -0.5298  0.6457 -0.0239
 5739SOL    HW228854   3.325   1.365   8.756 -0.8188 -0.1969  0.6581
 5740SOL     OW28855   0.371   1.285  11.872  0.2776  0.6793  0.2349
 5740SOL    HW128856   0.345   1.305  11.782  1.0932 -0.5932 -0.2804
 5740SOL    HW228857   0.463   1.313  11.875  0.4439  0.3315 -1.8007
 5741SOL     OW28858   4.007   1.299   5.024 -0.3869 -0.4278 -0.4748
 5741SOL    HW128859   4.073   1.261   5.082 -2.8782 -0.4648  2.3587
 5741SOL    HW228860   4.038   1.273   4.938  0.4304 -2.4796  0.4494
 5742SOL     OW28861   1.271   4.413   8.489  0.7533  0.1968 -0.2484
 5742SOL    HW128862   1.217   4.368   8.424 -0.4344  1.1939  0.0325
 5742SOL    HW228863   1.267   4.500   8.449  0.1120  0.7744  1.0656
 5743SOL     OW28864   2.840   1.354   4.662 -0.0980 -0.8403  0.5127
 5743SOL    HW128865   2.826   1.306   4.581  1.7121 -2.5231  1.1868
 5743SOL    HW228866   2.756   1.346   4.708  0.1764 -0.0188  1.1592
 5744SOL     OW28867   3.091   1.895   9.180  0.3729  0.3330  0.4900
 5744SOL    HW128868   3.105   1.843   9.101  1.8135  0.0277  0.9444
 5744SOL    HW228869   3.158   1.963   9.166  1.8087 -1.1603  0.1302
 5745SOL     OW28870   3.596   2.302   4.232  0.3987  0.4041  0.4441
 5745SOL    HW128871   3.551   2.297   4.148  2.4792 -1.8641 -0.5202
 5745SOL    HW228872   3.567   2.222   4.277  2.0388 -0.3517  0.1492
 5746SOL     OW28873   3.749   4.034   9.084  0.0634  0.4867 -0.3162
 5746SOL    HW128874   3.811   3.989   9.141  0.1850  0.3023 -0.5962
 5746SOL    HW228875   3.753   3.990   8.999 -0.3485 -1.5113  0.6966
 5747SOL     OW28876   2.928   1.269  10.177  0.1595 -0.7919  0.1485
 5747SOL    HW128877   2.894   1.180  10.188  0.6189 -0.8530  1.0682
 5747SOL    HW228878   3.023   1.258  10.181  0.0583 -1.6440  0.2614
 5748SOL     OW28879   2.875   2.533   6.136 -0.4768 -0.4645 -0.2821
 5748SOL    HW128880   2.911   2.600   6.077  1.0903  0.0942  1.3294
 5748SOL    HW228881   2.898   2.456   6.083 -2.2736 -2.3033  1.6105
 5749SOL     OW28882   1.038   4.319   1.262  0.6867 -0.2167  0.0659
 5749SOL    HW128883   1.070   4.371   1.188 -0.0887  1.3517  0.8341
 5749SOL    HW228884   1.118   4.289   1.306  1.6879 -0.2863 -1.7995
 5750SOL     OW28885   0.755   3.661   5.111 -0.5350 -0.1161  0.2788
 5750SOL    HW128886   0.683   3.634   5.054 -0.1733  0.0146 -0.2444
 5750SOL    HW228887   0.782   3.582   5.157  0.5431 -0.0878 -0.2901
 5751SOL     OW28888   1.035   4.286  10.161  0.1350  0.1973 -0.4085
 5751SOL    HW128889   1.040   4.211  10.101 -0.2725  1.0284 -1.4739
 5751SOL    HW228890   1.124   4.320  10.159 -0.0232  0.7264  1.5765
 5752SOL     OW28891   3.678   0.654  14.464 -0.1592  0.1016  0.1163
 5752SOL    HW128892   3.636   0.666  14.379 -0.9550  0.9761  0.6310
 5752SOL    HW228893   3.617   0.688  14.529  1.3948  0.5188  1.3487
 5753SOL     OW28894   4.592   2.042   2.350  0.0330  0.0158  0.0644
 5753SOL    HW128895   4.584   2.126   2.395  2.2100 -0.4005  1.2133
 5753SOL    HW228896   4.687   2.045   2.342  0.1076 -0.9072  0.6523
 5754SOL     OW28897   1.607   3.777  14.972 -0.1155  0.3984  0.2307
 5754SOL    HW128898   1.659   3.698  14.955 -1.1897 -0.1476 -0.4836
 5754SOL    HW228899   1.641   3.805  15.057  1.2256 -0.2529 -0.0876
 5755SOL     OW28900   1.686   0.413   2.429 -0.3622  0.3567  0.3154
 5755SOL    HW128901   1.725   0.455   2.353  2.5868 -0.4322  1.4021
 5755SOL    HW228902   1.679   0.483   2.494  0.4946  2.5174 -1.9261
 5756SOL     OW28903   0.412   2.583  11.551  0.3338 -0.0414  0.2464
 5756SOL    HW128904   0.361   2.531  11.490 -0.4802  1.1678 -0.1072
 5756SOL    HW228905   0.489   2.593  11.495  0.4382 -1.5752  0.1271
 5757SOL     OW28906   4.603   0.320  16.309  0.6064 -0.0420  0.6805
 5757SOL    HW128907   4.690   0.361  16.311  1.6768 -2.3542  2.5525
 5757SOL    HW228908   4.545   0.388  16.276 -1.2382 -0.8424  2.2288
 5758SOL     OW28909   3.791   4.241   2.339 -0.0098  0.7363  0.0364
 5758SOL    HW128910   3.845   4.207   2.268 -0.7547 -1.0183  0.3023
 5758SOL    HW228911   3.831   4.327   2.355  0.7598  0.5521 -0.9101
 5759SOL     OW28912   3.954   0.373   0.697  0.5419 -0.2978  0.3324
 5759SOL    HW128913   3.892   0.316   0.651  0.3967  0.3666 -0.2950
 5759SOL    HW228914   3.890   0.418   0.753 -1.8026 -1.3629 -1.4900
 5760SOL     OW28915   0.263   2.352   4.362 -0.1580 -0.7375  0.0501
 5760SOL    HW128916   0.186   2.334   4.417 -0.7131  0.2595 -0.4061
 5760SOL    HW228917   0.277   2.443   4.387 -1.1265 -0.5273 -0.1661
 5761SOL     OW28918   1.691   1.948   6.681 -0.3759  0.1933 -0.8925
 5761SOL    HW128919   1.733   2.034   6.683  0.4869 -0.2850  1.2722
 5761SOL    HW228920   1.664   1.939   6.772 -1.3221  1.2949 -1.0650
 5762SOL     OW28921   3.348   0.579  17.487 -0.3282 -0.0191 -0.2402
 5762SOL    HW128922   3.305   0.642  17.545 -1.6746 -1.0614 -0.1212
 5762SOL    HW228923   3.373   0.505  17.541  1.2998 -0.2501 -1.3164
 5763SOL     OW28924   1.961   4.004  15.859  0.3158  0.1831  0.0858
 5763SOL    HW128925   1.897   4.068  15.890 -0.3541  0.6387 -2.2372
 5763SOL    HW228926   1.915   3.968  15.784  0.0004 -0.1213  0.4300
 5764SOL     OW28927   0.559   3.807   9.942  0.2909  0.7042 -0.2271
 5764SOL    HW128928   0.472   3.768   9.951  1.3607 -1.5511  0.4392
 5764SOL    HW228929   0.538   3.899   9.927  1.0140  0.7552 -0.9481
 5765SOL     OW28930   0.013   0.334   6.640 -0.0961  0.2516  0.7771
 5765SOL    HW128931   0.035   0.417   6.598 -0.1876  0.1227  0.4742
 5765SOL    HW228932   0.096   0.323   6.687  2.6870  1.2283 -3.9163
 5766SOL     OW28933   3.930   4.169   8.125  0.2274  0.5922  0.1443
 5766SOL    HW128934   3.991   4.231   8.087  1.7008 -0.0176  1.4897
 5766SOL    HW228935   3.898   4.126   8.046 -0.1529 -0.1890  0.7186
 5767SOL     OW28936   2.662   2.649   5.737 -0.2614 -0.1858  0.2015
 5767SOL    HW128937   2.606   2.572   5.731 -0.4395 -0.0748  0.4220
 5767SOL    HW228938   2.706   2.645   5.822 -0.6939 -1.2291  0.3802
 5768SOL     OW28939   2.247   3.952   7.909  0.4877 -0.1143 -0.3673
 5768SOL    HW128940   2.169   3.953   7.965 -0.8837  0.4421 -2.2570
 5768SOL    HW228941   2.296   4.017   7.957  1.0542  0.1961 -1.3623
 5769SOL     OW28942   1.126   0.604   3.292 -0.0325 -0.1062  0.3549
 5769SOL    HW128943   1.112   0.514   3.322 -0.1827 -0.4397 -0.7131
 5769SOL    HW228944   1.220   0.621   3.282 -0.1301  0.3962  0.2788
 5770SOL     OW28945   1.509   0.945   2.005  0.3608  0.2610 -0.5347
 5770SOL    HW128946   1.563   0.885   1.953 -0.7912 -1.1553 -0.1155
 5770SOL    HW228947   1.421   0.930   1.971 -0.4066 -0.2468  1.6132
 5771SOL     OW28948   1.755   4.058   6.131  0.6384  0.4806  0.3283
 5771SOL    HW128949   1.674   4.084   6.176  0.3065 -1.1506  0.6804
 5771SOL    HW228950   1.766   3.976   6.181  1.0338 -0.0967 -0.7107
 5772SOL     OW28951   1.284   3.782   3.159  0.2116 -0.3687 -0.5575
 5772SOL    HW128952   1.244   3.825   3.235 -0.0634 -1.1558 -0.2505
 5772SOL    HW228953   1.279   3.851   3.094  1.4485  2.0385  1.9072
 5773SOL     OW28954   2.160   1.069   8.480 -0.0028 -0.0106  0.1890
 5773SOL    HW128955   2.229   1.134   8.465  0.4607 -0.3857  0.7282
 5773SOL    HW228956   2.177   1.036   8.568 -0.9084 -3.0045 -0.7735
 5774SOL     OW28957   0.986   0.226   4.612 -0.3689  0.0313  0.1665
 5774SOL    HW128958   0.909   0.256   4.659 -2.1917 -0.8162 -2.2353
 5774SOL    HW228959   0.978   0.134   4.637  0.9721  0.4499  2.0885
 5775SOL     OW28960   3.353   1.087  15.204 -0.2734 -0.1879 -0.3624
 5775SOL    HW128961   3.366   1.166  15.151 -1.3989  0.2953  0.0952
 5775SOL    HW228962   3.292   1.040  15.147 -0.2994 -0.3042 -0.2398
 5776SOL     OW28963   4.201   0.151   4.950  0.1033 -0.2623 -0.2991
 5776SOL    HW128964   4.272   0.108   4.997 -1.0332 -0.3362  1.3663
 5776SOL    HW228965   4.238   0.239   4.948 -0.9667  0.1393 -2.3797
 5777SOL     OW28966   1.389   0.180  14.407  0.8116  0.6202  0.5463
 5777SOL    HW128967   1.463   0.177  14.346 -0.7635  0.2350 -1.3016
 5777SOL    HW228968   1.369   0.273  14.394  0.3253  0.5520  0.8394
 5778SOL     OW28969   2.824   1.039  10.263  0.3695 -0.3043 -0.2922
 5778SOL    HW128970   2.878   0.974  10.219  0.2054 -0.3388 -0.4423
 5778SOL    HW228971   2.760   0.977  10.298  0.6839  0.0413  0.9157
 5779SOL     OW28972   0.104   0.796   4.402 -0.4981  0.2966  0.3627
 5779SOL    HW128973   0.121   0.702   4.400 -1.0909  0.2035 -0.5303
 5779SOL    HW228974   0.189   0.838   4.416  0.0216 -0.8083  0.5656
 5780SOL     OW28975   0.559   4.374   7.907  0.0341  0.2301 -0.0532
 5780SOL    HW128976   0.479   4.426   7.905 -1.1710 -1.7392 -2.0763
 5780SOL    HW228977   0.524   4.285   7.902 -0.3627  0.3706  0.2275
 5781SOL     OW28978   4.225   2.836   7.810  0.1386  0.6497 -0.1461
 5781SOL    HW128979   4.189   2.883   7.885  0.7670 -0.0520  0.6024
 5781SOL    HW228980   4.289   2.780   7.854  0.9048  2.0894  0.5787
 5782SOL     OW28981   0.970   4.533   6.825  0.0583 -0.2266 -0.4604
 5782SOL    HW128982   1.044   4.497   6.776  0.7080  1.0682 -0.4346
 5782SOL    HW228983   0.936   4.596   6.762 -0.8611  0.1848  0.4462
 5783SOL     OW28984   1.475   3.761   3.851  0.1090 -0.1709 -0.7944
 5783SOL    HW128985   1.469   3.670   3.880 -0.0392  0.4978  1.2590
 5783SOL    HW228986   1.565   3.777   3.876 -0.0767 -1.0206  0.3626
 5784SOL     OW28987   1.214   0.897   7.874  0.7939 -0.3124  0.4106
 5784SOL    HW128988   1.218   0.913   7.968 -3.4011  1.0415  0.3514
 5784SOL    HW228989   1.244   0.806   7.878 -1.9898 -1.2182  0.3277
 5785SOL     OW28990   4.181   1.228   8.850  0.2453  0.6676  0.0561
 5785SOL    HW128991   4.086   1.229   8.860  0.2691 -0.4108  0.4531
 5785SOL    HW228992   4.186   1.300   8.787 -1.0931  1.5440  0.9498
 5786SOL     OW28993   3.301   2.883   0.145  0.1246 -0.4809  0.2156
 5786SOL    HW128994   3.279   2.858   0.235  0.9474 -1.0798  0.2528
 5786SOL    HW228995   3.318   2.802   0.096  0.2380 -2.5663  3.7068
 5787SOL     OW28996   4.379   1.480   9.466 -0.2093  0.2491 -0.7478
 5787SOL    HW128997   4.462   1.483   9.515 -0.6361  0.1007 -0.0119
 5787SOL    HW228998   4.320   1.454   9.537  0.6515  0.4046  0.0253
 5788SOL     OW28999   2.065   4.665   9.185 -0.3814  0.3739  0.1157
 5788SOL    HW129000   2.053   0.024   9.196  0.1716  0.3732  0.7510
 5788SOL    HW229001   1.976   4.635   9.200  0.5093 -2.5749 -0.3556
 5789SOL     OW29002   1.024   1.444   2.492  0.7742 -0.5417  0.1969
 5789SOL    HW129003   1.036   1.539   2.498  0.0448 -0.2966 -1.9143
 5789SOL    HW229004   1.096   1.412   2.437 -0.2548  3.4608 -3.4538
 5790SOL     OW29005   3.872   1.801   8.809  0.1473  0.4997  0.1528
 5790SOL    HW129006   3.780   1.827   8.805 -0.2364 -1.2469 -2.1471
 5790SOL    HW229007   3.923   1.864   8.758 -0.9212  0.8482 -0.4880
 5791SOL     OW29008   4.503   1.284   8.364 -0.1253 -0.2547  0.0147
 5791SOL    HW129009   4.408   1.288   8.363 -0.1218 -0.2666 -0.9039
 5791SOL    HW229010   4.513   1.191   8.343 -3.5634 -0.5263 -0.3461
 5792SOL     OW29011   4.548   0.238   4.724  0.1583  0.1331  0.1227
 5792SOL    HW129012   4.581   0.322   4.755 -2.7869  0.7602  1.4772
 5792SOL    HW229013   4.493   0.267   4.651  1.2118  1.7973 -0.0203
 5793SOL     OW29014   4.427   0.221   8.921  0.7610  0.1648 -0.1756
 5793SOL    HW129015   4.460   0.308   8.947 -2.6221  1.0214  1.2770
 5793SOL    HW229016   4.496   0.163   8.953 -0.2734 -0.0586  1.6271
 5794SOL     OW29017   1.526   0.434   5.509 -0.1845 -0.5362 -0.6695
 5794SOL    HW129018   1.442   0.399   5.536  0.2576 -1.1723 -0.1279
 5794SOL    HW229019   1.530   0.501   5.577  3.8904 -1.2408 -0.2155
 5795SOL     OW29020   4.694   4.131   8.658 -0.1133 -0.3753 -0.0537
 5795SOL    HW129021   0.033   4.149   8.716 -0.3231  1.3433 -0.3037
 5795SOL    HW229022   4.685   4.039   8.681  0.2095 -0.0611  1.3621
 5796SOL     OW29023   3.557   3.494   6.623  0.1125 -0.3908  0.6657
 5796SOL    HW129024   3.492   3.513   6.556 -0.6106  1.3657  1.8683
 5796SOL    HW229025   3.526   3.539   6.702 -0.0136  0.2544  0.2508
 5797SOL     OW29026   3.816   1.486   5.052 -0.6094 -0.1614 -0.6962
 5797SOL    HW129027   3.888   1.428   5.025 -1.3501 -1.8045  0.8749
 5797SOL    HW229028   3.823   1.552   4.983 -2.9949  0.7133 -0.0704
 5798SOL     OW29029   2.881   0.958   7.192 -0.0593 -0.3228  0.1815
 5798SOL    HW129030   2.959   1.013   7.198 -0.0726 -0.2393 -0.3798
 5798SOL    HW229031   2.913   0.869   7.176 -1.2863 -1.0874  1.9982
 5799SOL     OW29032   0.883   0.397   4.382 -0.5787  0.5471  0.6455
 5799SOL    HW129033   0.875   0.358   4.469 -2.8132  2.2515  1.2043
 5799SOL    HW229034   0.892   0.488   4.410 -0.0664  0.8297 -0.4468
 5800SOL     OW29035   1.999   0.845   9.569 -0.3206 -0.2326 -0.2071
 5800SOL    HW129036   2.057   0.784   9.522  0.6185  1.6960 -1.5723
 5800SOL    HW229037   1.914   0.810   9.544 -0.4493  0.9771 -1.4619
 5801SOL     OW29038   1.730   2.987  12.233 -0.7039  0.4101  0.1279
 5801SOL    HW129039   1.709   2.903  12.193 -1.1542 -0.0349  1.3196
 5801SOL    HW229040   1.694   3.051  12.171 -2.1500  1.0561  1.6291
 5802SOL     OW29041   0.582   3.640   2.382 -0.5083 -0.2490  0.1642
 5802SOL    HW129042   0.597   3.717   2.326  0.5456  0.6034  1.6222
 5802SOL    HW229043   0.602   3.673   2.470 -0.6261  4.1522 -1.4233
 5803SOL     OW29044   4.625   2.999  15.544  0.7003 -0.3795 -0.3371
 5803SOL    HW129045   4.535   3.030  15.560  1.3390  2.1089 -1.5926
 5803SOL    HW229046   4.607   2.956  15.461  4.2417  0.3586 -1.4845
 5804SOL     OW29047   3.407   1.821   8.012  0.0433  0.1468  0.3255
 5804SOL    HW129048   3.317   1.852   8.021  0.3509  0.7602  1.3183
 5804SOL    HW229049   3.461   1.899   8.017  0.2345  0.0091  0.4191
 5805SOL     OW29050   1.761   2.777   3.972 -1.0991 -0.6064  0.4855
 5805SOL    HW129051   1.739   2.685   3.987 -1.1901 -0.5079  0.9336
 5805SOL    HW229052   1.673   2.813   3.983 -0.5610 -0.6620  4.8299
 5806SOL     OW29053   2.182   4.024  13.689  0.1706 -0.0420  0.2427
 5806SOL    HW129054   2.175   4.120  13.690  1.4591  0.0894 -2.9301
 5806SOL    HW229055   2.193   3.996  13.598  2.9584 -0.0583  0.5876
 5807SOL     OW29056   4.010   3.817   2.947  0.2113  0.1785  0.3041
 5807SOL    HW129057   4.011   3.893   2.889 -1.1420  1.8085  2.4185
 5807SOL    HW229058   3.929   3.815   2.997  1.0121 -0.2516  1.5834
 5808SOL     OW29059   3.585   0.899   0.826 -0.9450  0.8145  0.5527
 5808SOL    HW129060   3.495   0.864   0.823 -0.1762 -0.8024 -3.2470
 5808SOL    HW229061   3.604   0.883   0.734 -1.2954 -0.1903  0.6526
 5809SOL     OW29062   3.797   4.258   6.682 -0.1477 -0.5047  0.3841
 5809SOL    HW129063   3.791   4.251   6.778 -0.7847 -0.3111  0.3550
 5809SOL    HW229064   3.715   4.304   6.665  0.9411  1.7333  1.1380
 5810SOL     OW29065   1.712   2.022  11.150  0.4532 -0.4403  0.2245
 5810SOL    HW129066   1.757   2.049  11.229  1.7682 -0.9859 -0.3357
 5810SOL    HW229067   1.782   1.998  11.089 -1.7524 -2.8973 -1.3515
 5811SOL     OW29068   4.186   2.914  12.394  0.0979  0.0978  0.2336
 5811SOL    HW129069   4.184   2.825  12.359 -1.6707  0.5504 -0.8045
 5811SOL    HW229070   4.177   2.902  12.488 -0.9741 -0.6922  0.0368
 5812SOL     OW29071   4.179   0.472  13.843  1.3712 -0.1317  0.1859
 5812SOL    HW129072   4.262   0.498  13.882  0.6755  3.2102 -0.5126
 5812SOL    HW229073   4.117   0.532  13.886 -0.2417 -2.7338  1.4832
 5813SOL     OW29074   4.205   1.226   3.848 -0.7181  0.1163 -0.1377
 5813SOL    HW129075   4.113   1.210   3.867 -1.0277  1.4451 -0.5211
 5813SOL    HW229076   4.215   1.149   3.792 -2.1021 -0.4721  0.4315
 5814SOL     OW29077   2.020   3.798   5.651  0.0010 -0.3860  0.2954
 5814SOL    HW129078   1.964   3.839   5.718  1.1524 -0.0862  1.0735
 5814SOL    HW229079   2.055   3.715   5.683 -1.0278 -0.5240  1.0746
 5815SOL     OW29080   0.753   2.047   6.006 -0.3832 -0.2216 -0.8129
 5815SOL    HW129081   0.842   2.078   6.026 -1.3502  1.7105  0.4421
 5815SOL    HW229082   0.705   2.124   5.974 -3.2156 -2.1488 -1.1689
 5816SOL     OW29083   2.514   3.651   5.638  0.4464  0.5564  0.4935
 5816SOL    HW129084   2.471   3.571   5.609  0.6430 -0.7068  3.7734
 5816SOL    HW229085   2.497   3.653   5.732  0.1434 -0.4905  0.4579
 5817SOL     OW29086   1.857   0.849   3.416 -0.0728 -0.2740 -0.2034
 5817SOL    HW129087   1.777   0.812   3.455 -0.6563  0.6774 -0.5068
 5817SOL    HW229088   1.861   0.934   3.460  0.7295 -0.2436 -0.3456
 5818SOL     OW29089   0.935   2.783   3.160  0.6228  0.3626  0.0612
 5818SOL    HW129090   0.917   2.697   3.199  1.2378 -0.3201 -1.1766
 5818SOL    HW229091   0.966   2.834   3.235 -0.0271  0.6127  0.1647
 5819SOL     OW29092   2.716   4.426   0.269  0.6680 -0.1492 -0.0021
 5819SOL    HW129093   2.743   4.478   0.193  0.5608  1.7098  1.2102
 5819SOL    HW229094   2.798   4.408   0.315  1.3304  0.8925 -0.7806
 5820SOL     OW29095   4.163   2.654   3.726  0.1227 -0.3672  0.1865
 5820SOL    HW129096   4.189   2.583   3.667  1.7770 -0.8510  1.4749
 5820SOL    HW229097   4.180   2.624   3.815 -2.2476 -0.0494  0.7523
 5821SOL     OW29098   1.421   3.755   7.658  0.0895  1.3428 -0.1766
 5821SOL    HW129099   1.473   3.719   7.585  0.3704 -0.6331  0.9976
 5821SOL    HW229100   1.444   3.697   7.730  0.5042 -2.2668 -3.1885
 5822SOL     OW29101   1.601   2.554   3.082 -0.3298 -0.2610  0.3056
 5822SOL    HW129102   1.623   2.556   2.989  0.0817  1.6926  0.4391
 5822SOL    HW229103   1.562   2.641   3.085 -1.1531 -0.7080  2.5187
 5823SOL     OW29104   4.289   2.785  12.015 -0.5885 -0.5531 -0.6105
 5823SOL    HW129105   4.302   2.721  12.085 -0.1071 -1.6042 -1.6641
 5823SOL    HW229106   4.375   2.802  11.977  1.0860 -1.9253  2.5605
 5824SOL     OW29107   2.843   1.478  17.250 -0.2831 -0.4291 -0.6548
 5824SOL    HW129108   2.792   1.487  17.330 -3.0036  1.7179 -2.6519
 5824SOL    HW229109   2.817   1.553  17.196 -0.7280 -0.9234 -1.1285
 5825SOL     OW29110   1.352   0.539   5.297  0.4885 -0.3100 -0.2190
 5825SOL    HW129111   1.429   0.547   5.354  0.9403  0.4496 -0.9398
 5825SOL    HW229112   1.288   0.526   5.368 -1.0778  2.4149 -1.1523
 5826SOL     OW29113   1.152   3.970   1.146  0.1351  0.0547 -0.0370
 5826SOL    HW129114   1.203   3.890   1.160 -1.0235 -0.5679  0.5496
 5826SOL    HW229115   1.214   4.028   1.190 -0.9695 -0.5553  2.2780
 5827SOL     OW29116   2.555   4.299   3.205 -0.0369 -0.0804  0.4038
 5827SOL    HW129117   2.575   4.206   3.211  0.6779 -0.0187 -1.1322
 5827SOL    HW229118   2.524   4.309   3.115  1.7648 -0.0790 -0.2232
 5828SOL     OW29119   4.233   1.063   3.265  0.4787 -0.0818 -0.5593
 5828SOL    HW129120   4.262   1.019   3.185  1.2314  1.2604 -1.0300
 5828SOL    HW229121   4.164   1.121   3.233 -0.7511 -1.3567 -0.2217
 5829SOL     OW29122   4.485   3.836  13.307 -0.2902  0.0091 -0.0556
 5829SOL    HW129123   4.553   3.846  13.373 -0.5102 -1.3633  0.3714
 5829SOL    HW229124   4.408   3.805  13.354  0.4697 -0.4464  0.8816
 5830SOL     OW29125   1.163   3.471  16.099 -0.1009 -0.4551 -0.2557
 5830SOL    HW129126   1.152   3.507  16.011 -1.3968  0.4257  0.2742
 5830SOL    HW229127   1.252   3.434  16.098  0.6566  1.3588  0.1377
 5831SOL     OW29128   0.604   3.645  12.659  0.2874  0.0668  0.6895
 5831SOL    HW129129   0.550   3.722  12.680  0.6594  0.1411  1.3720
 5831SOL    HW229130   0.691   3.684  12.657 -0.1684  1.0250 -1.5043
 5832SOL     OW29131   1.396   2.274   4.483  0.2916 -0.3651 -0.1490
 5832SOL    HW129132   1.380   2.216   4.558 -2.0677  2.8528  1.8108
 5832SOL    HW229133   1.369   2.358   4.518 -1.9841 -0.7415 -1.0477
 5833SOL     OW29134   2.618   0.013  15.977 -0.0913 -0.8194 -0.2724
 5833SOL    HW129135   2.630   4.653  15.976 -1.0329 -0.9527  1.4148
 5833SOL    HW229136   2.553   0.028  16.045  0.1293  2.4810 -0.8128
 5834SOL     OW29137   1.823   3.522   2.112 -0.0510 -0.0939 -0.2416
 5834SOL    HW129138   1.750   3.535   2.171  0.1354  0.9184 -0.2409
 5834SOL    HW229139   1.897   3.506   2.171  0.9067  2.4877 -0.7683
 5835SOL     OW29140   1.300   0.109   9.341 -0.0482 -0.4021  0.1317
 5835SOL    HW129141   1.255   0.081   9.261 -3.0383 -1.7739  2.3344
 5835SOL    HW229142   1.357   0.175   9.301 -0.9876 -0.2818 -1.0156
 5836SOL     OW29143   2.081   1.328   5.520 -0.3634 -0.2969 -0.2157
 5836SOL    HW129144   1.999   1.376   5.538  1.4295  3.4803 -2.1326
 5836SOL    HW229145   2.048   1.239   5.509 -0.5628 -0.0816 -1.2927
 5837SOL     OW29146   3.368   3.407   3.391  0.7610  0.0667  0.1162
 5837SOL    HW129147   3.334   3.491   3.421 -0.4475 -0.1215 -0.6910
 5837SOL    HW229148   3.331   3.350   3.458 -3.1685  0.0777 -2.0202
 5838SOL     OW29149   0.121   4.439   8.674 -0.3204  0.0810 -0.2901
 5838SOL    HW129150   0.122   4.507   8.741 -1.8616 -1.8589  1.7083
 5838SOL    HW229151   0.044   4.469   8.626  0.3147  1.6294 -0.3319
 5839SOL     OW29152   1.155   1.054   6.115 -0.3110  0.2815 -0.0601
 5839SOL    HW129153   1.174   1.068   6.023  1.6239  0.5683  0.3935
 5839SOL    HW229154   1.132   1.143   6.142 -1.1224 -0.1651  0.7410
 5840SOL     OW29155   1.890   4.235   2.091  0.4087  0.7500  0.2441
 5840SOL    HW129156   1.902   4.152   2.137 -3.7432  0.2213  0.3753
 5840SOL    HW229157   1.929   4.216   2.005 -2.3338 -2.2590 -0.3275
 5841SOL     OW29158   1.333   0.001   5.881  0.3268 -0.4255  0.3362
 5841SOL    HW129159   1.386   4.662   5.850 -1.2251 -0.7705 -1.4987
 5841SOL    HW229160   1.398   0.071   5.874  2.3323 -2.5471 -2.8439
 5842SOL     OW29161   3.957   4.368  16.219 -0.3403  0.2018  0.2141
 5842SOL    HW129162   3.972   4.461  16.239  2.4910  0.0338 -1.1963
 5842SOL    HW229163   4.044   4.330  16.222 -0.6208 -0.2653  2.6863
 5843SOL     OW29164   1.545   4.195   3.303 -0.3917  0.7716 -0.2410
 5843SOL    HW129165   1.500   4.279   3.292  0.3063  1.1902  0.1156
 5843SOL    HW229166   1.629   4.232   3.331 -0.0052 -0.3496  0.1026
 5844SOL     OW29167   1.688   0.884   3.939 -0.2885 -0.1262 -0.7077
 5844SOL    HW129168   1.732   0.804   3.967  0.3294  0.7680  0.8299
 5844SOL    HW229169   1.596   0.858   3.942 -0.7294  1.2991 -1.8241
 5845SOL     OW29170   0.323   1.046  14.497 -0.7059  0.0296  0.4339
 5845SOL    HW129171   0.258   1.117  14.499 -0.4558  0.4052 -3.8483
 5845SOL    HW229172   0.394   1.083  14.548 -1.0872 -0.5527  1.3988
 5846SOL     OW29173   0.378   3.552   5.878 -0.1423 -0.1394  0.2826
 5846SOL    HW129174   0.448   3.523   5.936 -1.2499  1.4352  2.4126
 5846SOL    HW229175   0.343   3.473   5.836  0.6554  0.3738 -1.3701
 5847SOL     OW29176   3.950   1.127   7.680 -0.0281  0.6596 -0.3044
 5847SOL    HW129177   3.873   1.172   7.714  1.4095  1.2918  2.0545
 5847SOL    HW229178   4.008   1.130   7.756  2.4330  0.0892 -2.1463
 5848SOL     OW29179   2.712   1.696   4.146 -0.1117 -0.5223 -0.4444
 5848SOL    HW129180   2.779   1.737   4.090  1.2827 -1.6991  0.3603
 5848SOL    HW229181   2.644   1.763   4.152  0.2374 -0.3606  1.6581
 5849SOL     OW29182   1.827   4.577   9.230  0.1134  0.4039 -0.0989
 5849SOL    HW129183   1.780   4.513   9.177  1.5561  0.3219 -1.2662
 5849SOL    HW229184   1.753   4.633   9.256  0.7352  0.7514  0.9219
 5850SOL     OW29185   0.920   0.595  11.700 -0.4409 -0.2568  0.4004
 5850SOL    HW129186   0.832   0.623  11.725 -0.4230  0.9449 -0.8788
 5850SOL    HW229187   0.933   0.658  11.630 -0.5854 -2.2142 -1.3904
 5851SOL     OW29188   1.790   3.194  15.764 -0.4735  0.6168 -0.2820
 5851SOL    HW129189   1.758   3.154  15.845  1.0642  1.1084  0.5623
 5851SOL    HW229190   1.762   3.284  15.779 -1.2563  0.1416  1.0964
 5852SOL     OW29191   1.578   0.575   8.971 -0.2763 -0.1857 -0.4128
 5852SOL    HW129192   1.547   0.582   8.881 -1.2704  1.3290  0.0512
 5852SOL    HW229193   1.523   0.508   9.010 -0.1653  0.6060  1.0808
 5853SOL     OW29194   2.110   3.486   8.323 -0.0024  0.6972 -0.1848
 5853SOL    HW129195   2.014   3.487   8.328  0.1081 -0.1258  2.3752
 5853SOL    HW229196   2.127   3.536   8.243  0.0101 -0.6772 -1.0334
 5854SOL     OW29197   3.128   1.486   8.761  0.0870  0.1413  0.0606
 5854SOL    HW129198   3.120   1.490   8.666  0.4571  1.8040  0.0953
 5854SOL    HW229199   3.070   1.562   8.771 -0.6850 -0.2039 -1.7884
 5855SOL     OW29200   1.109   3.571   1.824 -0.0332  0.0743 -0.1793
 5855SOL    HW129201   1.021   3.596   1.797  0.0651  1.1350  0.4675
 5855SOL    HW229202   1.142   3.649   1.869  0.3271  0.5102 -1.1925
 5856SOL     OW29203   0.991   1.472   4.084  0.2729 -0.2316  0.2999
 5856SOL    HW129204   1.070   1.432   4.047  0.3869  1.2907 -1.0655
 5856SOL    HW229205   1.011   1.563   4.103  0.7501  0.0652 -1.6547
 5857SOL     OW29206   2.700   4.137   8.268  0.3476  0.3741 -0.5912
 5857SOL    HW129207   2.757   4.082   8.214  1.2661  2.4839 -1.7823
 5857SOL    HW229208   2.665   4.206   8.211 -1.0919  0.7570  0.7523
 5858SOL     OW29209   4.286   2.146   7.587  0.0035  0.1705  0.1154
 5858SOL    HW129210   4.307   2.070   7.532  0.8371  0.6667 -0.2524
 5858SOL    HW229211   4.212   2.182   7.539 -0.4204  0.8746  1.2713
 5859SOL     OW29212   1.083   2.141   3.066  0.2741  0.0261  0.0670
 5859SOL    HW129213   1.168   2.151   3.024 -0.1176 -0.8675 -0.9433
 5859SOL    HW229214   1.027   2.112   2.994  0.6662 -2.4258  0.7406
 5860SOL     OW29215   2.406   1.344  13.094 -0.1466 -0.2017 -0.1383
 5860SOL    HW129216   2.388   1.258  13.056  0.0698 -0.7772  1.0611
 5860SOL    HW229217   2.324   1.360  13.142  1.7667 -1.0880  3.4139
 5861SOL     OW29218   2.215   0.101  17.393  0.3497  0.3170 -0.0764
 5861SOL    HW129219   2.188   0.046  17.319 -0.1188  0.0628  0.2859
 5861SOL    HW229220   2.185   0.188  17.366  2.5690  0.6954 -1.3533
 5862SOL     OW29221   3.498   4.540  10.843  0.6733  0.7815  0.5109
 5862SOL    HW129222   3.494   4.446  10.828  1.6100  1.3707 -3.5151
 5862SOL    HW229223   3.575   4.563  10.791 -1.1411  1.5884 -1.8907
 5863SOL     OW29224   3.552   4.168   5.413 -0.0042  0.2687 -0.6914
 5863SOL    HW129225   3.467   4.211   5.402 -1.1073 -1.9782 -0.9713
 5863SOL    HW229226   3.534   4.081   5.377 -0.0614 -0.1595  0.3808
 5864SOL     OW29227   4.361   0.045   1.464 -0.0303 -0.1120 -0.5275
 5864SOL    HW129228   4.299   0.036   1.392  0.6540  0.9425 -1.2396
 5864SOL    HW229229   4.382   0.138   1.459 -2.3081  0.4044 -0.4347
 5865SOL     OW29230   3.162   1.344   6.595 -0.1037 -0.0116  0.4277
 5865SOL    HW129231   3.097   1.297   6.543  0.3556 -1.3889  1.1188
 5865SOL    HW229232   3.115   1.425   6.616  0.4290 -0.3272  2.7574
 5866SOL     OW29233   2.568   3.891   7.206  0.1463  0.1842  0.5042
 5866SOL    HW129234   2.531   3.858   7.124  2.6556 -0.5571 -0.3423
 5866SOL    HW229235   2.565   3.813   7.262  1.7255 -1.0630 -1.1528
 5867SOL     OW29236   3.753   2.598   3.122 -0.4554 -0.0123  0.5242
 5867SOL    HW129237   3.829   2.626   3.173  1.1499 -0.1512 -1.7955
 5867SOL    HW229238   3.792   2.577   3.038 -1.5967  3.7028 -0.9260
 5868SOL     OW29239   2.939   2.915   3.559  0.1104  0.3362 -0.6304
 5868SOL    HW129240   2.967   2.959   3.639 -1.3422  0.3275 -0.1275
 5868SOL    HW229241   3.027   2.917   3.519 -0.0126 -1.0657 -0.9439
 5869SOL     OW29242   0.431   0.431   5.581 -0.2279  0.2358 -0.3198
 5869SOL    HW129243   0.486   0.498   5.621 -0.0862 -0.6694  1.0059
 5869SOL    HW229244   0.348   0.478   5.587 -0.0324  0.6405 -0.8263
 5870SOL     OW29245   3.958   2.425  15.449 -0.8687  0.1866 -0.2916
 5870SOL    HW129246   4.006   2.349  15.481 -0.4353 -0.6533 -2.9061
 5870SOL    HW229247   3.973   2.417  15.355  0.9188 -0.5666  0.0701
 5871SOL     OW29248   3.799   1.998   1.857 -0.2419 -0.4100 -0.3798
 5871SOL    HW129249   3.745   1.940   1.910 -0.7426 -0.5635 -1.0600
 5871SOL    HW229250   3.734   2.068   1.850 -0.4062 -0.4645  0.5116
 5872SOL     OW29251   1.150   2.223   8.273  0.1431  0.2243  0.2019
 5872SOL    HW129252   1.237   2.208   8.311  0.4828  1.0853 -0.2405
 5872SOL    HW229253   1.171   2.254   8.185 -1.4974 -1.1668 -0.6976
 5873SOL     OW29254   2.607   2.652   0.945  0.5512 -0.7526  0.2909
 5873SOL    HW129255   2.677   2.713   0.924  0.8312 -1.3430 -0.5204
 5873SOL    HW229256   2.555   2.646   0.865  0.3649  1.5184  0.2362
 5874SOL     OW29257   3.033   4.569   8.274  0.0967 -0.3427  0.1362
 5874SOL    HW129258   3.020   4.663   8.288  2.2734 -0.1800  1.0954
 5874SOL    HW229259   3.126   4.554   8.293 -0.3300  0.1162  2.5721
 5875SOL     OW29260   2.218   1.444   8.372 -0.4865 -0.5043  0.2922
 5875SOL    HW129261   2.227   1.372   8.310 -0.4561 -0.0557 -0.2189
 5875SOL    HW229262   2.130   1.420   8.402 -1.0119  1.9668  0.7313
 5876SOL     OW29263   1.742   0.794  13.404  0.5468  0.5523 -0.3847
 5876SOL    HW129264   1.690   0.722  13.369  0.4074  0.5515 -0.1787
 5876SOL    HW229265   1.723   0.783  13.498  1.2550  0.4049 -0.2639
 5877SOL     OW29266   3.559   4.428  15.439  0.0864 -0.4862  0.1108
 5877SOL    HW129267   3.582   4.429  15.346  0.2571  0.6625  0.1707
 5877SOL    HW229268   3.618   4.362  15.476  0.6757 -0.5595 -0.9579
 5878SOL     OW29269   2.991   3.327   1.821  0.0578 -1.1146 -0.2843
 5878SOL    HW129270   2.969   3.368   1.737  0.9426  0.8045  0.4350
 5878SOL    HW229271   2.963   3.400   1.877  1.9648  0.7563 -1.7897
 5879SOL     OW29272   2.890   2.440   3.008  0.1817  0.3785 -0.6888
 5879SOL    HW129273   2.834   2.513   3.033 -1.6303 -1.5957  1.0552
 5879SOL    HW229274   2.834   2.363   3.004  1.1743 -0.3341 -0.9165
 5880SOL     OW29275   3.385   4.604   3.781 -0.1234 -0.3165  0.7927
 5880SOL    HW129276   3.455   4.642   3.727 -0.7218  0.2385  0.4158
 5880SOL    HW229277   3.381   4.516   3.742 -2.7867 -0.2746  1.0191
 5881SOL     OW29278   0.915   0.138  12.758  0.1997  0.0068  0.4546
 5881SOL    HW129279   0.907   0.195  12.834 -2.2902 -2.1642  1.7722
 5881SOL    HW229280   0.874   0.056  12.785  0.2767  0.6057  2.3478
 5882SOL     OW29281   4.172   1.832  16.951  0.3580  0.2674 -0.1389
 5882SOL    HW129282   4.078   1.843  16.964  0.6473  1.4175  0.9313
 5882SOL    HW229283   4.204   1.793  17.032 -0.1675  0.7281  0.2933
 5883SOL     OW29284   1.606   2.472   7.571  0.6327  0.4199 -0.1486
 5883SOL    HW129285   1.661   2.548   7.553  1.0924  0.0033 -0.5030
 5883SOL    HW229286   1.670   2.400   7.570 -0.2925 -0.4451  1.6090
 5884SOL     OW29287   2.962   0.113   8.294 -0.2398 -0.2543  0.4106
 5884SOL    HW129288   3.031   0.154   8.347  0.1719  0.0151 -0.3363
 5884SOL    HW229289   2.882   0.150   8.332  0.5828  1.2160  0.6961
 5885SOL     OW29290   2.031   2.491   2.279  0.0292 -0.0715  0.1410
 5885SOL    HW129291   2.127   2.494   2.283  0.1104 -0.4173 -1.4404
 5885SOL    HW229292   2.016   2.517   2.370 -0.0150 -0.0813  0.1365
 5886SOL     OW29293   0.003   2.490   6.621 -0.4116  0.1404 -0.6882
 5886SOL    HW129294   0.071   2.434   6.584  1.1000  0.4588  1.5778
 5886SOL    HW229295   4.677   2.424   6.654  0.4912 -0.3023  0.0971
 5887SOL     OW29296   1.586   4.037  15.943  0.2844  0.0728 -0.1167
 5887SOL    HW129297   1.512   4.098  15.950 -0.9635 -1.7048  2.1595
 5887SOL    HW229298   1.552   3.998  15.862  1.3403 -0.2058 -0.4179
 5888SOL     OW29299   0.231   2.034   9.863  0.0434 -0.1406  0.1872
 5888SOL    HW129300   0.266   2.038   9.774  0.2095 -1.7535  0.1863
 5888SOL    HW229301   0.310   2.012   9.911 -0.9729 -1.2600  1.3448
 5889SOL     OW29302   4.332   1.358   7.196  0.6701  0.3946 -0.4164
 5889SOL    HW129303   4.313   1.355   7.102  1.5929 -1.0424 -0.5555
 5889SOL    HW229304   4.427   1.372   7.196  0.8578 -0.8220  0.4546
 5890SOL     OW29305   4.567   3.383   9.289 -0.2657 -0.2812 -0.2431
 5890SOL    HW129306   4.584   3.290   9.273 -1.7096 -0.8383  1.4918
 5890SOL    HW229307   4.601   3.393   9.378  1.8629  2.4304 -1.3759
 5891SOL     OW29308   4.351   0.199   6.637 -0.9903  0.2388 -0.2923
 5891SOL    HW129309   4.432   0.219   6.685 -0.5110 -0.5462 -0.7786
 5891SOL    HW229310   4.362   0.250   6.557  4.2910 -0.2349  0.1554
 5892SOL     OW29311   4.691   3.557   1.250 -0.4184  0.3367  0.0246
 5892SOL    HW129312   4.607   3.524   1.283 -0.8753  1.4669 -0.0211
 5892SOL    HW229313   0.005   3.560   1.332  1.8436  0.6549 -1.3452
 5893SOL     OW29314   1.564   3.111   3.774 -0.0903  0.3575 -0.4913
 5893SOL    HW129315   1.534   3.054   3.844  0.8470 -0.4573 -0.7511
 5893SOL    HW229316   1.490   3.105   3.714 -0.0601 -1.0923 -0.3679
 5894SOL     OW29317   3.539   3.846  16.520  0.0880 -0.1700  0.1535
 5894SOL    HW129318   3.619   3.841  16.573  0.6706 -2.0244 -0.9108
 5894SOL    HW229319   3.568   3.803  16.440 -2.8737 -3.3536  0.7684
 5895SOL     OW29320   3.332   0.725  10.574  0.2078 -0.5366 -0.1444
 5895SOL    HW129321   3.418   0.684  10.576 -0.2418 -1.5449 -1.1041
 5895SOL    HW229322   3.326   0.777  10.653  1.6451 -2.5585  1.2941
 5896SOL     OW29323   2.001   3.675   4.266 -0.3720  0.2981 -0.0756
 5896SOL    HW129324   2.030   3.738   4.331  1.4393 -0.1405 -0.4654
 5896SOL    HW229325   2.077   3.618   4.264 -0.6222 -0.0137 -0.6269
 5897SOL     OW29326   1.355   0.635  11.880  0.0698 -0.7938 -0.6887
 5897SOL    HW129327   1.406   0.639  11.961 -0.7467 -0.8567 -0.1698
 5897SOL    HW229328   1.392   0.704  11.825 -1.8226  0.8759  0.1447
 5898SOL     OW29329   3.888   1.786   3.670 -0.3543 -0.1112  0.1620
 5898SOL    HW129330   3.970   1.773   3.622 -1.2729 -0.8190 -1.2127
 5898SOL    HW229331   3.918   1.849   3.736 -0.3920 -1.1887  1.2102
 5899SOL     OW29332   0.511   0.681   8.132  0.6982  0.5127  0.1650
 5899SOL    HW129333   0.478   0.747   8.071  1.1903 -0.2112 -0.8986
 5899SOL    HW229334   0.538   0.618   8.065 -1.3664 -1.1543  0.9042
 5900SOL     OW29335   3.249   0.716  14.296 -0.6705 -0.4342 -0.2033
 5900SOL    HW129336   3.203   0.632  14.304 -3.4166  0.7240 -3.8090
 5900SOL    HW229337   3.325   0.683  14.249 -0.6658  0.6257 -0.9418
 5901SOL     OW29338   2.082   1.707   2.376 -0.5143 -0.5480  0.1257
 5901SOL    HW129339   2.074   1.654   2.298  1.0779  2.3189 -1.9972
 5901SOL    HW229340   2.104   1.789   2.331 -0.0926  0.0420  1.3988
 5902SOL     OW29341   2.059   3.214   0.086 -0.2447 -0.3087 -0.1471
 5902SOL    HW129342   2.042   3.199   0.179 -0.4490 -1.2150 -0.3301
 5902SOL    HW229343   2.006   3.291   0.063  0.1378 -0.1462 -0.4780
 5903SOL     OW29344   1.880   4.542  12.471  0.3576 -0.6217 -0.0209
 5903SOL    HW129345   1.952   4.480  12.482 -0.3826 -1.3285  0.8906
 5903SOL    HW229346   1.809   4.483  12.444  0.4700 -1.0647  0.6460
 5904SOL     OW29347   4.033   1.663  11.277  0.2723 -0.6153  0.4832
 5904SOL    HW129348   3.959   1.624  11.230 -1.2464  0.4069  2.0338
 5904SOL    HW229349   4.102   1.635  11.217 -1.1204 -0.6932 -1.0921
 5905SOL     OW29350   1.589   1.342  10.505 -0.0403  0.6640  0.3661
 5905SOL    HW129351   1.558   1.431  10.520 -2.3231  0.1495 -1.2908
 5905SOL    HW229352   1.603   1.339  10.410  0.7436  1.4949  0.4545
 5906SOL     OW29353   2.064   4.476  11.032  0.0453  0.1666  0.4055
 5906SOL    HW129354   2.053   4.568  11.053 -1.0909 -0.0518  0.7648
 5906SOL    HW229355   2.139   4.478  10.973  0.0172  0.0166  0.3624
 5907SOL     OW29356   1.725   0.812   9.494  0.5835 -0.6898  0.4507
 5907SOL    HW129357   1.703   0.780   9.406  2.6836 -0.5540 -0.1231
 5907SOL    HW229358   1.661   0.769   9.551 -1.6861  0.5890 -1.1121
 5908SOL     OW29359   3.035   1.929   7.526 -0.1245  0.2541 -0.2138
 5908SOL    HW129360   3.124   1.939   7.493 -1.3671 -0.2204 -3.6715
 5908SOL    HW229361   3.018   2.015   7.566  1.1621  0.2826  0.2449
 5909SOL     OW29362   1.319   2.792   6.902 -0.2385 -0.6110 -0.6640
 5909SOL    HW129363   1.230   2.824   6.915  0.9003  1.6397  1.4922
 5909SOL    HW229364   1.349   2.856   6.838 -0.6547 -0.7736 -1.0238
 5910SOL     OW29365   3.558   1.458  10.250 -0.0981 -0.1135  0.2386
 5910SOL    HW129366   3.634   1.415  10.212 -0.2176  0.1410 -0.2870
 5910SOL    HW229367   3.486   1.402  10.222 -2.0281  1.3733  2.2319
 5911SOL     OW29368   4.129   1.464  16.920  0.6420 -0.1360 -0.3223
 5911SOL    HW129369   4.063   1.447  16.988  1.3967 -0.6212  0.2847
 5911SOL    HW229370   4.200   1.487  16.980  0.4513  2.2625 -1.0007
 5912SOL     OW29371   1.934   3.949  16.559  0.5260 -0.6749  0.3854
 5912SOL    HW129372   1.846   3.937  16.524  1.2718  0.2846 -1.8181
 5912SOL    HW229373   1.940   4.044  16.569 -1.8378 -0.5036  0.0712
 5913SOL     OW29374   4.528   3.809   2.814 -0.2764  0.3205 -0.7323
 5913SOL    HW129375   4.450   3.858   2.789  0.4588  2.2645  0.7939
 5913SOL    HW229376   4.512   3.726   2.768  1.4739 -0.0718 -0.6183
 5914SOL     OW29377   3.120   2.956   4.224  0.2819  0.4561  0.5833
 5914SOL    HW129378   3.127   2.966   4.319  1.0009  1.1606  0.4527
 5914SOL    HW229379   3.202   2.911   4.204 -0.5631 -1.2978  0.9782
 5915SOL     OW29380   1.993   2.309   2.969 -0.6636 -0.1951 -0.3994
 5915SOL    HW129381   2.018   2.226   3.010 -1.6651 -0.0935  0.4019
 5915SOL    HW229382   1.911   2.335   3.010 -0.5147 -0.1468 -0.1319
 5916SOL     OW29383   1.252   2.133   0.932  0.4269  0.0128 -0.0354
 5916SOL    HW129384   1.230   2.203   0.994  2.1160  0.3786  0.1636
 5916SOL    HW229385   1.348   2.139   0.925  0.5699 -2.6378 -0.3403
 5917SOL     OW29386   0.798   3.053   7.785  0.4121 -0.1972  0.1916
 5917SOL    HW129387   0.820   3.130   7.731 -2.9483  0.6497  0.0335
 5917SOL    HW229388   0.801   3.089   7.873  0.8718 -0.1879  0.1720
 5918SOL     OW29389   3.624   2.100  14.089  0.7220  0.1867  0.1375
 5918SOL    HW129390   3.709   2.104  14.134  0.4235  0.4934  0.6657
 5918SOL    HW229391   3.608   2.006  14.086  0.3243  0.2592  0.0277
 5919SOL     OW29392   4.475   4.364   7.463 -0.2389 -0.1566 -0.2887
 5919SOL    HW129393   4.446   4.447   7.499  0.7880 -1.0223  2.5430
 5919SOL    HW229394   4.534   4.326   7.528  1.2849  3.6924  0.5863
 5920SOL     OW29395   4.069   1.231   7.204 -0.3350  0.1358 -0.0876
 5920SOL    HW129396   4.039   1.305   7.257 -1.9573  0.3559 -1.3149
 5920SOL    HW229397   4.156   1.219   7.242  0.1486  0.0680 -1.2338
 5921SOL     OW29398   1.072   2.739   8.253  0.3968 -0.2886  0.4290
 5921SOL    HW129399   1.117   2.806   8.201  1.8175 -0.2417  1.7339
 5921SOL    HW229400   1.024   2.689   8.187  2.6661 -0.6743 -0.9158
 5922SOL     OW29401   3.816   0.718  13.148 -0.1574 -0.0202  0.1927
 5922SOL    HW129402   3.804   0.644  13.207  2.1101 -0.7557 -0.2431
 5922SOL    HW229403   3.910   0.728  13.160 -0.4057  1.1282  1.1818
 5923SOL     OW29404   1.359   4.377  13.406 -0.1102  0.8977 -0.1848
 5923SOL    HW129405   1.286   4.398  13.347 -0.7066  0.5704  0.4405
 5923SOL    HW229406   1.309   4.371  13.487  1.0735 -2.5418  0.2977
 5924SOL     OW29407   3.331   2.477   3.986 -0.0289 -0.0331 -0.5959
 5924SOL    HW129408   3.343   2.562   4.028  1.8476 -0.8582  0.5315
 5924SOL    HW229409   3.264   2.426   4.030  0.0343  0.4880  0.0999
 5925SOL     OW29410   1.840   0.682   4.079  0.6366  0.0325  0.0885
 5925SOL    HW129411   1.879   0.598   4.056 -1.1258 -1.1411  1.3859
 5925SOL    HW229412   1.909   0.747   4.094  0.3242  0.6517 -1.1510
 5926SOL     OW29413   1.670   2.853   2.795 -0.0570 -0.2515 -0.4536
 5926SOL    HW129414   1.715   2.885   2.874 -0.9699 -1.3693  0.5146
 5926SOL    HW229415   1.620   2.781   2.833  0.0277 -0.5150 -0.8466
 5927SOL     OW29416   3.802   0.838   2.556  0.0688  0.2711 -0.1727
 5927SOL    HW129417   3.726   0.860   2.503  0.2679  1.6787  0.1221
 5927SOL    HW229418   3.811   0.749   2.521  0.7755  0.7166 -1.1285
 5928SOL     OW29419   3.044   2.961  15.068  0.0873 -0.4955  0.0113
 5928SOL    HW129420   2.996   2.918  14.997 -1.1941  1.0406 -0.0281
 5928SOL    HW229421   3.045   2.887  15.129  3.1976 -0.0753  0.5081
 5929SOL     OW29422   3.950   2.828   2.036 -0.0522 -0.1044  0.7018
 5929SOL    HW129423   3.988   2.904   1.991  0.2662 -0.9588 -0.4737
 5929SOL    HW229424   3.989   2.754   1.989  0.2979  1.4791 -1.5315
 5930SOL     OW29425   0.817   3.628   9.243  0.0296 -0.5452 -0.0531
 5930SOL    HW129426   0.759   3.704   9.248  0.5481 -0.2022  0.9344
 5930SOL    HW229427   0.869   3.644   9.164 -1.0429  0.4213 -0.5574
 5931SOL     OW29428   3.766   0.510   4.922 -0.5871 -0.2703 -0.5695
 5931SOL    HW129429   3.752   0.422   4.887 -1.7173  0.1130 -1.0560
 5931SOL    HW229430   3.730   0.501   5.010 -0.9082 -0.8628 -0.7642
 5932SOL     OW29431   3.412   2.898   2.796 -0.3488 -0.0792  0.2904
 5932SOL    HW129432   3.472   2.955   2.748  1.7949 -1.8325  0.8675
 5932SOL    HW229433   3.465   2.869   2.870 -0.9509  1.3544  1.2827
 5933SOL     OW29434   0.002   2.602  11.604 -0.2099  0.0622 -0.1538
 5933SOL    HW129435   4.707   2.615  11.515  2.6547  2.1530 -0.8138
 5933SOL    HW229436   4.681   2.529  11.630  3.1774 -2.4705  0.1991
 5934SOL     OW29437   2.037   2.937   2.992 -0.7463 -0.0364 -0.0365
 5934SOL    HW129438   2.034   2.984   2.909 -1.5291  0.4471  0.2642
 5934SOL    HW229439   1.951   2.968   3.023 -0.8677  0.7166 -1.1059
 5935SOL     OW29440   2.885   2.246   3.763  0.0736  0.3986  0.0562
 5935SOL    HW129441   2.974   2.216   3.781  0.7105  1.8218 -0.6985
 5935SOL    HW229442   2.895   2.331   3.718  2.3471  0.0127 -0.1894
 5936SOL     OW29443   1.881   3.108   8.191  0.1623 -0.2902 -0.1295
 5936SOL    HW129444   1.816   3.064   8.136 -0.8225  0.6083  0.3213
 5936SOL    HW229445   1.876   3.042   8.260 -1.2619  1.5865  1.5620
 5937SOL     OW29446   1.551   2.983   9.588 -1.0742 -0.1291 -0.1899
 5937SOL    HW129447   1.481   3.046   9.604  1.5511  1.7637  3.8185
 5937SOL    HW229448   1.614   3.022   9.527  0.3853  0.0748  1.4236
 5938SOL     OW29449   2.856   2.226  12.472 -0.1262  0.0170  0.0089
 5938SOL    HW129450   2.871   2.321  12.465  2.1420 -0.2938  0.5094
 5938SOL    HW229451   2.939   2.200  12.512 -0.5468  2.8974  2.7980
 5939SOL     OW29452   1.137   0.445  14.716  0.4375  0.3727  1.0351
 5939SOL    HW129453   1.179   0.407  14.638  1.4497  2.9006  0.3278
 5939SOL    HW229454   1.205   0.435  14.782 -0.7191 -0.7913  2.0362
 5940SOL     OW29455   4.631   1.614  15.027  0.7428 -0.0900  0.4270
 5940SOL    HW129456   4.665   1.667  14.955 -2.8917  0.6770 -0.7661
 5940SOL    HW229457   4.686   1.536  15.021 -1.5118 -1.5001 -2.2467
 5941SOL     OW29458   1.640   1.093   1.486 -0.5755 -0.0615 -0.2558
 5941SOL    HW129459   1.596   1.010   1.502  0.8429 -1.2365 -2.5284
 5941SOL    HW229460   1.640   1.089   1.390  0.0578 -3.2243 -0.1342
 5942SOL     OW29461   3.791   0.422  10.740  0.3820 -0.1634  0.0193
 5942SOL    HW129462   3.862   0.368  10.774 -0.7011 -1.5119  0.1815
 5942SOL    HW229463   3.724   0.407  10.807 -0.8193  1.8738 -0.7309
 5943SOL     OW29464   0.766   3.774   6.535 -0.0652  0.4161  0.1867
 5943SOL    HW129465   0.854   3.809   6.554  0.4957 -0.6242 -0.4698
 5943SOL    HW229466   0.764   3.694   6.587  1.8847  0.2308 -0.0147
 5944SOL     OW29467   4.259   2.012   8.427 -0.3266 -0.1831 -0.3186
 5944SOL    HW129468   4.261   2.009   8.332  0.3042 -1.1158 -0.2763
 5944SOL    HW229469   4.303   2.094   8.450 -0.8050 -0.1640  0.5300
 5945SOL     OW29470   0.816   3.790  11.940  0.7396  0.2969 -0.1093
 5945SOL    HW129471   0.738   3.822  11.987  0.3194 -0.5457 -0.2374
 5945SOL    HW229472   0.774   3.729  11.879 -0.0223 -1.1338  1.8465
 5946SOL     OW29473   2.457   2.802   5.365  0.3568 -0.1830 -0.0973
 5946SOL    HW129474   2.474   2.708   5.356 -2.9904 -1.1918  4.1378
 5946SOL    HW229475   2.533   2.831   5.417 -0.9276  0.6837  1.3147
 5947SOL     OW29476   4.042   3.328   6.061  0.1903 -0.0113 -0.2588
 5947SOL    HW129477   4.000   3.253   6.020 -1.1343  1.4874 -1.6726
 5947SOL    HW229478   4.077   3.292   6.142  1.6278  1.6310 -0.1353
 5948SOL     OW29479   0.284   2.328   7.857  0.0399 -0.3186 -0.8102
 5948SOL    HW129480   0.347   2.274   7.904 -2.0847 -1.0883  1.1662
 5948SOL    HW229481   0.324   2.415   7.858 -0.9484  0.1338  1.2053
 5949SOL     OW29482   0.895   4.241   7.474  0.5402  0.0827  0.0066
 5949SOL    HW129483   0.826   4.232   7.540  0.9838  0.8468  0.5806
 5949SOL    HW229484   0.864   4.314   7.420 -1.2537  0.4596  1.5351
 5950SOL     OW29485   1.174   0.495   6.669 -0.6082  0.2500  0.1276
 5950SOL    HW129486   1.174   0.443   6.749 -0.3037  0.1451  0.0564
 5950SOL    HW229487   1.079   0.489   6.654 -0.5845  0.7509 -0.2338
 5951SOL     OW29488   0.231   1.162   6.595  0.8846  0.1333 -0.4610
 5951SOL    HW129489   0.211   1.076   6.558  0.4414 -0.1444  0.4196
 5951SOL    HW229490   0.322   1.181   6.575  1.1662 -1.4002 -0.6222
 5952SOL     OW29491   2.545   2.400   5.746  0.5270  0.0601  0.0651
 5952SOL    HW129492   2.621   2.366   5.793  0.2257 -1.0406 -0.2382
 5952SOL    HW229493   2.481   2.372   5.811 -0.4994  1.0510 -0.5140
 5953SOL     OW29494   2.469   1.898   8.539 -0.0990  0.0254 -0.4323
 5953SOL    HW129495   2.467   1.915   8.633 -0.6510  1.9216 -0.7726
 5953SOL    HW229496   2.406   1.826   8.540  1.7369 -1.5858  0.2051
 5954SOL     OW29497   4.335   2.723  11.725 -0.3288 -0.2195 -0.7409
 5954SOL    HW129498   4.266   2.772  11.768  1.0100  2.2759 -1.4158
 5954SOL    HW229499   4.380   2.794  11.680 -0.7978  0.2779 -0.4182
 5955SOL     OW29500   4.630   4.649   2.316 -0.3332 -0.3044 -0.3306
 5955SOL    HW129501   4.572   4.602   2.257 -0.4336 -1.2270  0.5109
 5955SOL    HW229502   4.718   4.623   2.289 -0.7954 -0.2908 -1.8571
 5956SOL     OW29503   3.321   3.185   2.911  0.4616  0.3068  0.2421
 5956SOL    HW129504   3.385   3.116   2.894  0.7530  0.8377 -0.8043
 5956SOL    HW229505   3.271   3.181   2.830 -1.0767  0.1701  1.1819
 5957SOL     OW29506   1.025   1.788   6.421  0.4712  0.4626  0.2197
 5957SOL    HW129507   1.117   1.811   6.415  0.2883  0.6428 -1.8639
 5957SOL    HW229508   1.008   1.767   6.329  0.5729 -0.5520  0.4344
 5958SOL     OW29509   2.882   4.143   3.001  0.2417  0.7856 -0.2108
 5958SOL    HW129510   2.924   4.198   3.067  1.8469  1.0388 -1.4228
 5958SOL    HW229511   2.960   4.096   2.971 -1.7488 -0.3227 -3.7447
 5959SOL     OW29512   0.550   0.302   6.798 -0.7375  0.0522  0.1965
 5959SOL    HW129513   0.622   0.290   6.736  0.0418  0.9825  0.9212
 5959SOL    HW229514   0.552   0.219   6.847  0.2635 -0.1209 -0.1244
 5960SOL     OW29515   2.416   1.606   0.665 -0.3535  0.4981  0.0090
 5960SOL    HW129516   2.419   1.522   0.710 -1.3690  2.1921  3.1731
 5960SOL    HW229517   2.325   1.629   0.646 -0.5055 -1.3939 -1.5952
 5961SOL     OW29518   3.292   4.220  13.994  0.2614  0.4539 -0.0471
 5961SOL    HW129519   3.338   4.153  13.944 -2.5034 -0.7000 -1.0136
 5961SOL    HW229520   3.239   4.164  14.050  0.0943 -1.0883 -1.7736
 5962SOL     OW29521   3.133   1.219  14.236  0.3941  0.1032  0.0933
 5962SOL    HW129522   3.061   1.277  14.262  0.3862  0.1026  0.0731
 5962SOL    HW229523   3.148   1.181  14.322  2.9343  0.2482 -0.2780
 5963SOL     OW29524   0.636   4.303   5.686  0.2353  0.0333 -0.5605
 5963SOL    HW129525   0.686   4.371   5.731  1.1103 -1.8679  1.3265
 5963SOL    HW229526   0.545   4.325   5.705 -0.6441 -1.5705 -2.8990
 5964SOL     OW29527   4.720   2.119   8.043  0.2990  0.4311 -0.1595
 5964SOL    HW129528   4.652   2.085   7.984 -0.2969  2.1121 -0.4374
 5964SOL    HW229529   0.025   2.037   8.071  1.2045  0.9361  0.0006
 5965SOL     OW29530   0.432   3.293   4.632 -0.2648  0.1954 -0.6142
 5965SOL    HW129531   0.386   3.339   4.562 -0.8963 -1.6556 -1.4081
 5965SOL    HW229532   0.487   3.367   4.657 -2.4669  0.3928  3.6792
 5966SOL     OW29533   2.307   1.963   7.619  0.1646 -0.2726  0.0057
 5966SOL    HW129534   2.357   2.040   7.594 -0.1268  0.5230  1.8809
 5966SOL    HW229535   2.291   1.989   7.709 -1.4347 -0.6887 -0.1483
 5967SOL     OW29536   2.643   2.332   4.662 -0.4526 -0.0823 -0.2066
 5967SOL    HW129537   2.663   2.397   4.595 -1.1152 -0.7795 -1.0876
 5967SOL    HW229538   2.707   2.349   4.732 -0.2316 -0.0879 -0.4065
 5968SOL     OW29539   4.340   2.534  11.222  0.0842 -0.4878 -0.4086
 5968SOL    HW129540   4.353   2.463  11.285 -0.4080  0.0762  0.3249
 5968SOL    HW229541   4.282   2.489  11.160 -2.5798  0.6998  1.2657
 5969SOL     OW29542   3.382   2.685   7.869 -0.2245  0.4225  0.1123
 5969SOL    HW129543   3.297   2.650   7.898  0.8048 -1.4910  0.8393
 5969SOL    HW229544   3.417   2.620   7.808 -0.0116  1.7825 -1.1959
 5970SOL     OW29545   0.224   0.646   7.744  0.1160 -0.2106  0.3180
 5970SOL    HW129546   0.262   0.589   7.678 -1.2212 -0.8988  0.1301
 5970SOL    HW229547   0.159   0.590   7.786  0.1264  0.0932  0.7442
 5971SOL     OW29548   4.061   1.342   2.716 -0.0484  0.0616 -0.4133
 5971SOL    HW129549   4.142   1.307   2.753  0.3687  0.9179 -0.5227
 5971SOL    HW229550   4.003   1.330   2.791  1.4226  3.2791  1.2161
 5972SOL     OW29551   3.242   1.116   7.545 -0.3561  0.2970  0.5409
 5972SOL    HW129552   3.336   1.126   7.527 -0.1657  1.1755  2.0007
 5972SOL    HW229553   3.235   1.168   7.625 -0.4230  0.2665  0.5544
 5973SOL     OW29554   0.473   2.071   7.478 -0.2134  0.2724  1.0450
 5973SOL    HW129555   0.407   2.140   7.472 -1.6816 -1.1327  1.0651
 5973SOL    HW229556   0.410   2.001   7.487  0.1592  0.0293  1.7566
 5974SOL     OW29557   3.928   1.405   3.653 -0.2377 -0.0185  0.2192
 5974SOL    HW129558   3.954   1.332   3.709  3.4323 -0.7038 -2.3573
 5974SOL    HW229559   3.955   1.486   3.696  0.1441 -0.4979  0.8984
 5975SOL     OW29560   3.864   2.878   8.247 -0.4599 -0.3026  0.4058
 5975SOL    HW129561   3.770   2.890   8.232 -0.4815  0.2700  0.9991
 5975SOL    HW229562   3.892   2.966   8.269  0.7928 -0.0329 -2.3470
 5976SOL     OW29563   3.607   0.459  12.655 -0.7845  0.3361 -0.1432
 5976SOL    HW129564   3.517   0.426  12.661 -0.7091  0.3359  1.0906
 5976SOL    HW229565   3.609   0.490  12.565 -1.4013  1.9895  0.4069
 5977SOL     OW29566   4.446   1.352  14.356  0.3331  0.3915  0.3478
 5977SOL    HW129567   4.433   1.446  14.349 -0.5144  0.0614 -2.4355
 5977SOL    HW229568   4.540   1.350  14.373  0.4348 -0.5059 -0.3074
 5978SOL     OW29569   0.428   1.437   0.306  0.0226 -0.0291 -0.3643
 5978SOL    HW129570   0.474   1.520   0.299  1.4408 -0.8211 -0.3905
 5978SOL    HW229571   0.504   1.383   0.330  0.1071  0.5242  0.6049
 5979SOL     OW29572   2.242   4.092  13.419 -0.1143 -0.0764 -0.2817
 5979SOL    HW129573   2.256   4.018  13.360  0.7490  0.6471 -0.9847
 5979SOL    HW229574   2.151   4.109  13.397 -0.3416 -0.3327  0.4568
 5980SOL     OW29575   2.987   3.287   4.080 -0.4400  0.6540 -0.6428
 5980SOL    HW129576   3.081   3.289   4.061 -0.5994 -3.5063 -1.6616
 5980SOL    HW229577   2.977   3.378   4.109  2.7158  0.1358  2.1607
 5981SOL     OW29578   4.390   3.106   9.416 -0.1057 -0.5485  0.1438
 5981SOL    HW129579   4.449   3.078   9.346 -0.3736 -1.5163  0.3124
 5981SOL    HW229580   4.438   3.091   9.497  0.1446 -0.2645  0.0488
 5982SOL     OW29581   3.823   1.914  11.988 -0.2724  0.0309  0.3158
 5982SOL    HW129582   3.892   1.856  11.956 -1.1710 -0.0224 -1.5062
 5982SOL    HW229583   3.745   1.896  11.936  0.6873  1.1415 -1.5039
 5983SOL     OW29584   2.108   2.460   6.252  0.2486 -0.3694  0.4291
 5983SOL    HW129585   2.073   2.506   6.176  3.3478  0.7977 -0.3147
 5983SOL    HW229586   2.062   2.377   6.241 -1.2552  0.3969  0.9507
 5984SOL     OW29587   2.237   2.389  17.005  0.1620 -0.3019 -0.9045
 5984SOL    HW129588   2.330   2.386  17.029  0.4445 -1.4454 -2.1730
 5984SOL    HW229589   2.249   2.470  16.955  0.6296  0.9929  1.2818
 5985SOL     OW29590   3.388   0.714   9.953 -0.3115  0.4451  0.0914
 5985SOL    HW129591   3.311   0.658   9.943  0.3004 -0.2154 -0.9957
 5985SOL    HW229592   3.364   0.793   9.903  1.3860 -0.1158 -1.6029
 5986SOL     OW29593   1.047   0.246  14.429 -0.0928 -0.2649  0.0487
 5986SOL    HW129594   1.054   0.341  14.416 -0.9622 -0.2776 -0.4963
 5986SOL    HW229595   1.030   0.218  14.339 -0.6534  1.8821 -0.5055
 5987SOL     OW29596   2.504   0.929   8.510  0.1140 -0.0376  0.0965
 5987SOL    HW129597   2.430   0.873   8.486 -0.1535  0.2256  0.3192
 5987SOL    HW229598   2.468   1.011   8.476  0.4105 -0.1521 -0.5034
 5988SOL     OW29599   4.443   0.573   3.921  0.0837  0.4565 -0.1638
 5988SOL    HW129600   4.535   0.594   3.938  0.5608 -0.6288 -1.4217
 5988SOL    HW229601   4.405   0.658   3.947 -0.9848  0.0752 -0.5065
 5989SOL     OW29602   1.133   2.397   1.149  0.0398 -0.0577  0.1284
 5989SOL    HW129603   1.151   2.491   1.142  0.5039 -0.1009  0.7679
 5989SOL    HW229604   1.086   2.392   1.232 -1.0470 -3.4808 -0.6690
 5990SOL     OW29605   2.279   0.217   4.860 -0.3506 -0.0376  0.8158
 5990SOL    HW129606   2.251   0.247   4.774 -0.1637  3.0121  1.8351
 5990SOL    HW229607   2.352   0.275   4.880  0.0228 -0.4529  0.6659
 5991SOL     OW29608   1.927   0.291   4.743  0.2631  0.3827 -0.0373
 5991SOL    HW129609   1.842   0.270   4.705  0.8252 -0.1010 -1.0228
 5991SOL    HW229610   1.967   0.205   4.757  0.5470  0.5386  0.1102
 5992SOL     OW29611   1.506   3.747   6.859  0.5475  0.1986 -0.0505
 5992SOL    HW129612   1.461   3.784   6.935  0.6536 -1.8758  1.0386
 5992SOL    HW229613   1.519   3.825   6.805 -0.5118  1.4979  1.5682
 5993SOL     OW29614   0.444   0.051  16.559 -0.1306  0.0801  0.1252
 5993SOL    HW129615   0.405   4.699  16.561 -1.1514  0.5762  1.4116
 5993SOL    HW229616   0.369   0.105  16.534  0.4272  0.9955  0.3903
 5994SOL     OW29617   1.036   2.274   8.970 -0.6468  0.3564  0.8336
 5994SOL    HW129618   1.056   2.286   8.878 -0.0488  0.6683  1.0066
 5994SOL    HW229619   0.962   2.214   8.956 -0.6969  0.4910  0.5328
 5995SOL     OW29620   3.474   1.033   8.959  0.4582 -0.2082  0.7529
 5995SOL    HW129621   3.554   1.068   8.998  0.1315  1.4274 -0.0354
 5995SOL    HW229622   3.504   1.042   8.869 -0.5576 -0.0994  0.4229
 5996SOL     OW29623   1.128   2.864   8.498  0.3272  0.0430 -0.7946
 5996SOL    HW129624   1.098   2.845   8.409 -1.4593  2.1472 -0.6219
 5996SOL    HW229625   1.058   2.928   8.511  0.5925 -0.0664  1.0853
 5997SOL     OW29626   2.721   4.379  11.559 -0.0740  0.6173 -0.1234
 5997SOL    HW129627   2.688   4.292  11.534 -0.0522 -0.2968  2.9736
 5997SOL    HW229628   2.801   4.355  11.605  0.1331  0.8460 -0.3720
 5998SOL     OW29629   1.899   1.383   3.658  0.4026  0.0024  0.8220
 5998SOL    HW129630   1.869   1.437   3.585 -0.7312 -0.4749  0.9433
 5998SOL    HW229631   1.820   1.367   3.710 -0.1214 -0.7358 -0.2244
 5999SOL     OW29632   1.907   0.409   4.078  0.4812 -0.3963 -0.0744
 5999SOL    HW129633   1.900   0.341   4.011  1.4599  0.7218 -1.3184
 5999SOL    HW229634   1.903   0.361   4.161  2.5188 -2.3471 -1.1240
 6000SOL     OW29635   2.338   2.782   6.301 -0.0616  0.1362 -0.2475
 6000SOL    HW129636   2.384   2.830   6.370 -0.7885  0.4954 -0.0066
 6000SOL    HW229637   2.381   2.697   6.305 -1.6221 -0.5705  1.3526
 6001SOL     OW29638   2.346   4.492  13.743  0.4806 -0.1540 -0.1977
 6001SOL    HW129639   2.294   4.572  13.739  1.5689  0.6415  1.2719
 6001SOL    HW229640   2.347   4.464  13.652 -2.7197  0.1879 -0.3296
 6002SOL     OW29641   0.621   3.855   2.846 -0.2402 -0.2209  0.2589
 6002SOL    HW129642   0.537   3.894   2.869 -0.7534 -0.7933 -0.6429
 6002SOL    HW229643   0.684   3.900   2.902 -0.0583 -0.9676  0.6457
 6003SOL     OW29644   1.489   1.353   3.081  0.0562 -0.0145 -0.2420
 6003SOL    HW129645   1.559   1.399   3.034  0.5008  0.7356  1.1547
 6003SOL    HW229646   1.416   1.393   3.034 -1.4411 -0.9938  1.2908
 6004SOL     OW29647   2.514   4.309   3.991 -0.1724 -0.1871  0.5746
 6004SOL    HW129648   2.428   4.352   3.996  0.3894  0.9522  0.4220
 6004SOL    HW229649   2.519   4.277   3.901  1.6049  2.9032 -0.4146
 6005SOL     OW29650   1.383   4.731  13.582 -0.0123 -0.1427  0.6507
 6005SOL    HW129651   1.369   0.014  13.489  2.1341  1.1916  0.5607
 6005SOL    HW229652   1.471   4.692  13.580 -1.3045 -2.9171 -1.8774
 6006SOL     OW29653   0.551   0.268   1.972 -0.0445 -0.3433 -0.1107
 6006SOL    HW129654   0.487   0.227   1.914  0.2854 -2.6885  1.2005
 6006SOL    HW229655   0.539   0.361   1.950  0.5498 -0.2574 -0.0730
 6007SOL     OW29656   1.417   3.368   2.716  0.4848  0.3710 -0.0861
 6007SOL    HW129657   1.413   3.313   2.638  3.3734  1.2879 -0.8745
 6007SOL    HW229658   1.511   3.355   2.734  0.3744 -1.5482 -0.9023
 6008SOL     OW29659   4.364   0.722   5.144 -0.1378  0.0654 -0.3862
 6008SOL    HW129660   4.299   0.661   5.179 -0.1313  0.4485  0.2879
 6008SOL    HW229661   4.314   0.744   5.066  0.2024 -0.6593 -0.8083
 6009SOL     OW29662   1.320   0.303   4.234  0.4169  0.0926  0.1359
 6009SOL    HW129663   1.355   0.220   4.201  0.0647  0.0566 -0.1529
 6009SOL    HW229664   1.328   0.289   4.328 -1.2210  0.0949  0.2784
 6010SOL     OW29665   0.469   2.286   4.745 -0.3681  0.0605  0.0191
 6010SOL    HW129666   0.473   2.288   4.649  2.1862  3.0797  0.1845
 6010SOL    HW229667   0.402   2.218   4.750 -1.0373  0.9549  3.2652
 6011SOL     OW29668   4.289   4.416  12.219  0.0191  0.7195 -0.1870
 6011SOL    HW129669   4.338   4.493  12.189 -0.1110  0.4354 -1.1579
 6011SOL    HW229670   4.237   4.449  12.292  1.0034 -1.7107  1.6231
 6012SOL     OW29671   3.595   0.337   4.699  0.2133  0.7448  0.0634
 6012SOL    HW129672   3.684   0.309   4.675 -0.7372 -1.8620 -0.4461
 6012SOL    HW229673   3.562   0.364   4.613 -1.5980 -2.3170 -0.1965
 6013SOL     OW29674   4.698   2.246   4.189  0.1745 -0.5618  0.2894
 6013SOL    HW129675   0.001   2.327   4.155  0.2050 -1.0049 -0.7259
 6013SOL    HW229676   0.035   2.182   4.187  0.3981 -0.3930  3.4784
 6014SOL     OW29677   3.249   3.224   3.568 -0.1014 -0.0996 -0.0371
 6014SOL    HW129678   3.259   3.146   3.512 -2.1796 -0.1832 -0.3124
 6014SOL    HW229679   3.159   3.250   3.548 -0.2762 -1.2072 -0.7406
 6015SOL     OW29680   1.889   0.849  13.672 -0.5104  0.0455 -0.2500
 6015SOL    HW129681   1.884   0.789  13.597 -0.0570  0.6500 -0.7639
 6015SOL    HW229682   1.886   0.936  13.632  4.3749 -0.3210 -1.3840
 6016SOL     OW29683   2.253   2.982   8.548  0.4942 -0.5222 -0.2350
 6016SOL    HW129684   2.188   3.049   8.525  2.0864  1.1909  0.2718
 6016SOL    HW229685   2.232   2.958   8.638  2.6224  1.2802  0.7415
 6017SOL     OW29686   4.084   1.238  15.674 -0.4128 -0.0095  0.5605
 6017SOL    HW129687   4.170   1.205  15.648 -1.0366 -1.7941  0.7432
 6017SOL    HW229688   4.064   1.271  15.587  1.2898  0.4659  0.3542
 6018SOL     OW29689   1.521   4.012   4.982  0.0655 -0.3354  1.0425
 6018SOL    HW129690   1.550   4.010   5.073  1.3707 -3.2928  0.5823
 6018SOL    HW229691   1.457   3.941   4.976 -1.6651  1.2691  0.5328
 6019SOL     OW29692   0.780   1.509   6.050 -0.7258 -0.2119 -0.3355
 6019SOL    HW129693   0.717   1.479   5.984 -0.5049  0.8313 -1.0221
 6019SOL    HW229694   0.856   1.534   5.998 -0.4228 -0.3252  0.0530
 6020SOL     OW29695   3.314   1.273   3.908 -0.0732  0.0256 -0.2963
 6020SOL    HW129696   3.380   1.330   3.945 -0.6687  0.4942  0.0485
 6020SOL    HW229697   3.251   1.268   3.980 -0.0571  1.0310 -0.2110
 6021SOL     OW29698   3.345   2.678   1.661 -0.6401 -0.1741  0.0072
 6021SOL    HW129699   3.274   2.742   1.656  0.2828  0.9754  1.7080
 6021SOL    HW229700   3.356   2.675   1.756 -2.9168  1.1129  0.2960
 6022SOL     OW29701   2.514   0.910   2.797  0.4755  0.6856 -0.0916
 6022SOL    HW129702   2.478   0.995   2.772 -0.1740  0.2848 -0.5301
 6022SOL    HW229703   2.455   0.892   2.871 -0.1366  2.1473 -0.2306
 6023SOL     OW29704   0.145   1.466   4.764 -0.1398  0.3912 -0.2621
 6023SOL    HW129705   0.088   1.418   4.704 -1.6501 -1.6452  2.8325
 6023SOL    HW229706   0.091   1.540   4.790 -0.7355 -0.2207  0.2357
 6024SOL     OW29707   1.634   2.784   6.086  0.1216  0.2547  0.2854
 6024SOL    HW129708   1.640   2.809   6.178  0.7519 -0.3383  0.4084
 6024SOL    HW229709   1.718   2.815   6.051  0.0184  1.7406  1.3606
 6025SOL     OW29710   4.030   0.249   2.939  0.4837  0.0571  0.1934
 6025SOL    HW129711   3.958   0.304   2.908  0.0958 -1.6298 -1.9369
 6025SOL    HW229712   4.025   0.181   2.871 -1.0581 -1.8929  2.2608
 6026SOL     OW29713   2.286   1.113   8.157 -0.2079 -0.3057 -0.1825
 6026SOL    HW129714   2.272   1.165   8.079  1.8671  0.0498 -0.3026
 6026SOL    HW229715   2.349   1.046   8.131 -0.2954  0.1838 -1.6073
 6027SOL     OW29716   0.989   0.994  12.341  0.3216 -0.4965  0.2421
 6027SOL    HW129717   0.937   0.914  12.338  0.4714 -0.5970  0.3490
 6027SOL    HW229718   1.078   0.967  12.363  0.9917 -0.6996 -2.6982
 6028SOL     OW29719   2.006   2.947   2.118 -0.2482 -0.0364 -0.1322
 6028SOL    HW129720   1.917   2.982   2.108 -0.5944 -1.0807 -0.8260
 6028SOL    HW229721   2.061   3.021   2.092  1.2962 -1.6096 -1.3208
 6029SOL     OW29722   0.117   2.485   6.283  0.1620  0.1866  0.1116
 6029SOL    HW129723   0.105   2.578   6.298  3.0701  1.1558 -3.6690
 6029SOL    HW229724   0.171   2.462   6.359  0.5556  0.3362 -0.1216
 6030SOL     OW29725   1.397   0.262   3.804  0.4326  0.3412  0.4155
 6030SOL    HW129726   1.405   0.345   3.850 -1.6780  0.3095  0.8352
 6030SOL    HW229727   1.309   0.241   3.834 -0.5419  0.6403 -2.2493
 6031SOL     OW29728   0.551   0.076   8.938 -0.4258  0.2346  0.0062
 6031SOL    HW129729   0.516   0.078   8.849 -1.1611 -0.9033  0.2707
 6031SOL    HW229730   0.638   0.115   8.926  0.1852 -1.4153 -0.9213
 6032SOL     OW29731   0.863   2.143   0.866 -0.1817 -0.2203 -0.0649
 6032SOL    HW129732   0.770   2.165   0.869 -0.2241 -0.3358 -0.6938
 6032SOL    HW229733   0.857   2.050   0.847 -1.7532  0.2391 -1.8655
 6033SOL     OW29734   4.147   4.344   9.560  0.0889  0.5484  0.0134
 6033SOL    HW129735   4.129   4.380   9.473  1.3508  0.4455 -0.2943
 6033SOL    HW229736   4.136   4.250   9.552  1.3114  0.3467  0.5692
 6034SOL     OW29737   3.525   4.114   6.323 -0.2280  0.0104 -0.2649
 6034SOL    HW129738   3.605   4.167   6.327 -0.7792  0.8292 -0.1811
 6034SOL    HW229739   3.488   4.145   6.240 -0.4728 -1.6520 -0.7816
 6035SOL     OW29740   1.670   2.644   5.592 -0.0518  0.3964 -0.1342
 6035SOL    HW129741   1.722   2.568   5.616  1.2838  1.4744  0.3871
 6035SOL    HW229742   1.621   2.658   5.673 -2.1641  1.0052 -1.5160
 6036SOL     OW29743   4.366   2.746   8.172 -0.2171 -0.1514 -0.0449
 6036SOL    HW129744   4.328   2.713   8.253 -1.5381 -0.5857 -0.8489
 6036SOL    HW229745   4.425   2.813   8.209  0.3909 -1.3046  1.0887
 6037SOL     OW29746   1.070   3.880  15.387  0.3895 -0.0007  0.2142
 6037SOL    HW129747   0.989   3.922  15.357 -0.3418 -2.1977 -0.8804
 6037SOL    HW229748   1.060   3.802  15.332 -0.9256  0.5198 -0.2791
 6038SOL     OW29749   1.486   3.937  15.709 -0.5534  0.5299  0.3447
 6038SOL    HW129750   1.449   3.882  15.639 -2.1707  0.8172  0.9733
 6038SOL    HW229751   1.457   4.026  15.689 -0.4576  0.8034  1.4417
 6039SOL     OW29752   2.296   0.618   9.284 -0.2692  0.7631  0.2436
 6039SOL    HW129753   2.366   0.669   9.323  1.0635 -1.8222  1.2473
 6039SOL    HW229754   2.221   0.646   9.336 -1.6562 -0.2377 -1.2085
 6040SOL     OW29755   0.724   4.413  12.764  0.2777  0.3933 -0.0707
 6040SOL    HW129756   0.747   4.492  12.713  1.3516  2.0059  2.9088
 6040SOL    HW229757   0.690   4.433  12.851 -0.3312 -1.7656  0.1686
 6041SOL     OW29758   4.242   4.446   6.674 -0.0132  0.4946  0.0636
 6041SOL    HW129759   4.279   4.368   6.715 -0.2261 -0.3369 -1.3220
 6041SOL    HW229760   4.283   4.450   6.587 -0.6993 -1.9369 -0.3724
 6042SOL     OW29761   1.626   1.678   2.395 -0.1782 -0.0444 -0.4761
 6042SOL    HW129762   1.566   1.744   2.431  0.6027  0.3907  0.0221
 6042SOL    HW229763   1.706   1.699   2.443 -0.9956 -0.4216  1.0387
 6043SOL     OW29764   1.648   4.399   4.475  0.3818 -0.1876  0.0677
 6043SOL    HW129765   1.719   4.418   4.537 -0.4364  0.4086  0.8319
 6043SOL    HW229766   1.574   4.447   4.512 -0.5483  0.0913 -2.1689
 6044SOL     OW29767   4.208   2.533   5.531 -0.9467  0.0607  0.7171
 6044SOL    HW129768   4.284   2.493   5.488 -2.0955  1.1918 -2.3635
 6044SOL    HW229769   4.144   2.464   5.511 -1.1573  0.1600  1.0572
 6045SOL     OW29770   3.353   1.750   4.999  0.5574 -0.1764  0.1390
 6045SOL    HW129771   3.440   1.773   4.965 -0.3050  0.8261 -1.4418
 6045SOL    HW229772   3.349   1.807   5.076  1.3988  1.3960 -0.9600
 6046SOL     OW29773   2.767   0.574   5.022  0.0932  0.0222 -0.1712
 6046SOL    HW129774   2.773   0.481   5.002  2.0260  0.3130 -0.9223
 6046SOL    HW229775   2.677   0.601   5.002 -0.0468 -0.4926 -0.2204
 6047SOL     OW29776   2.010   2.053   0.943 -0.0125  0.1112  0.3238
 6047SOL    HW129777   2.061   2.002   0.881 -0.8742  1.6066 -1.6063
 6047SOL    HW229778   2.080   2.077   1.005  1.2172 -0.6899 -0.7634
 6048SOL     OW29779   2.099   1.915   2.200  0.1556 -0.2402 -0.4685
 6048SOL    HW129780   2.034   1.941   2.135 -0.8038 -1.5207 -0.0215
 6048SOL    HW229781   2.188   1.928   2.165 -0.6661  0.5193 -2.2912
 6049SOL     OW29782   1.006   3.536   2.162 -0.0447 -0.1141 -0.4321
 6049SOL    HW129783   1.093   3.504   2.138  0.8658  1.2029  1.0642
 6049SOL    HW229784   0.981   3.599   2.096  1.6086  1.1891  0.1957
 6050SOL     OW29785   3.071   3.814   2.619  0.0509  0.0400  1.0334
 6050SOL    HW129786   3.133   3.802   2.547 -2.2819  0.0471 -0.9782
 6050SOL    HW229787   2.995   3.773   2.579  0.3972 -0.2126  0.6357
 6051SOL     OW29788   2.140   1.725  12.978  0.2125  0.0522  0.1368
 6051SOL    HW129789   2.114   1.702  12.889 -0.0959  0.4921  0.1119
 6051SOL    HW229790   2.107   1.815  12.981 -0.3026 -0.1643  0.9551
 6052SOL     OW29791   1.611   0.784   9.221  0.3188 -0.7399 -0.3047
 6052SOL    HW129792   1.556   0.707   9.207  0.6328 -0.7440 -1.5233
 6052SOL    HW229793   1.643   0.795   9.131  0.6703 -0.3555 -0.1351
 6053SOL     OW29794   1.418   2.010   5.810  0.0444  0.2829 -0.0537
 6053SOL    HW129795   1.428   1.932   5.757 -1.7548  0.9552 -1.3741
 6053SOL    HW229796   1.459   2.068   5.746  1.4716 -1.5297 -0.7520
 6054SOL     OW29797   2.056   4.627   5.565  0.3780 -0.3045 -0.3030
 6054SOL    HW129798   2.054   4.557   5.631  0.9282  0.2991  0.3495
 6054SOL    HW229799   2.128   4.678   5.602 -0.4347  0.8435 -0.2952
 6055SOL     OW29800   4.559   4.615  12.948 -0.1139 -0.0444 -0.1363
 6055SOL    HW129801   4.481   4.623  13.003  0.3571 -0.8562  0.6376
 6055SOL    HW229802   4.537   4.646  12.860 -1.3803 -1.0758 -0.1783
 6056SOL     OW29803   4.363   4.405  17.085 -0.0490  0.1626  0.4826
 6056SOL    HW129804   4.273   4.415  17.117  0.5726  1.8449  1.6671
 6056SOL    HW229805   4.363   4.457  17.005 -0.9949 -1.9686 -0.9159
 6057SOL     OW29806   1.144   3.795   9.551 -0.3025  0.1960 -0.7659
 6057SOL    HW129807   1.235   3.771   9.567  0.0035  1.7820 -0.1510
 6057SOL    HW229808   1.139   3.735   9.477 -1.4745  0.4902 -0.9245
 6058SOL     OW29809   3.274   1.058  11.882 -0.0905  0.0512 -0.4191
 6058SOL    HW129810   3.346   1.089  11.936 -0.5018  1.8697 -0.9124
 6058SOL    HW229811   3.214   1.014  11.942  1.6971  0.1249  1.4146
 6059SOL     OW29812   2.220   0.447   8.316  0.5226 -0.3597 -0.7342
 6059SOL    HW129813   2.231   0.423   8.224 -0.2387  0.3045 -0.9964
 6059SOL    HW229814   2.126   0.452   8.336  0.3415 -2.8711 -0.9711
 6060SOL     OW29815   0.199   1.689   8.360 -0.0890  0.0609  0.5073
 6060SOL    HW129816   0.113   1.726   8.378  0.5163  1.5752  0.2852
 6060SOL    HW229817   0.187   1.597   8.381 -0.2015  0.0244  0.2873
 6061SOL     OW29818   4.039   3.640   2.419 -0.5569 -0.2560  0.4915
 6061SOL    HW129819   4.043   3.566   2.359 -1.6589  1.5880 -1.8367
 6061SOL    HW229820   4.133   3.658   2.426 -0.6640  0.6739 -0.4115
 6062SOL     OW29821   4.085   3.146  16.886  0.3087  0.3674 -0.0576
 6062SOL    HW129822   4.019   3.164  16.953 -1.0619  0.3134 -1.4199
 6062SOL    HW229823   4.040   3.086  16.827  0.3151 -0.5091  0.8259
 6063SOL     OW29824   0.132   4.447   5.853  0.3306 -0.0873 -0.0127
 6063SOL    HW129825   0.102   4.521   5.799 -0.2197 -1.7875 -2.0393
 6063SOL    HW229826   0.063   4.443   5.918 -0.9757 -1.4357 -1.4843
 6064SOL     OW29827   1.591   3.142   0.813 -0.0016  0.1495 -0.3494
 6064SOL    HW129828   1.550   3.216   0.768  0.1977 -0.1254 -0.9778
 6064SOL    HW229829   1.581   3.164   0.906  1.4019  0.8258 -0.3500
 6065SOL     OW29830   0.664   2.864   0.712  0.3667 -0.2035  0.9620
 6065SOL    HW129831   0.605   2.789   0.711 -0.2812  0.3473 -1.0855
 6065SOL    HW229832   0.703   2.853   0.625  0.7061 -1.6505  1.2924
 6066SOL     OW29833   0.887   4.322   5.494 -0.1743 -0.0418  0.6792
 6066SOL    HW129834   0.887   4.283   5.406 -2.3210  0.7199  0.3549
 6066SOL    HW229835   0.799   4.358   5.493  0.2500  0.9863  0.2369
 6067SOL     OW29836   4.508   2.528   0.002 -0.7590  0.1265 -0.0216
 6067SOL    HW129837   4.598   2.559   0.008 -0.1156 -1.4949 -1.4576
 6067SOL    HW229838   4.526   2.434  17.734  0.2355  0.4391 -1.5399
 6068SOL     OW29839   1.224   0.032   3.370 -0.3757 -0.3895 -0.8275
 6068SOL    HW129840   1.202   0.045   3.462 -2.4362 -0.7947 -1.2809
 6068SOL    HW229841   1.204   0.121   3.339 -0.4214  0.8323  2.7194
 6069SOL     OW29842   1.553   0.317   3.275 -0.1014  0.5712 -0.4226
 6069SOL    HW129843   1.503   0.286   3.351  4.5779  0.3237  2.5633
 6069SOL    HW229844   1.647   0.302   3.286  0.0544  0.2413 -2.1759
 6070SOL     OW29845   1.952   0.222  11.909  0.1459  0.3705  0.3258
 6070SOL    HW129846   1.995   0.295  11.953  0.2403  1.1740 -1.1345
 6070SOL    HW229847   1.887   0.196  11.975  0.9524  1.7391  1.6471
 6071SOL     OW29848   4.231   1.146   8.399  0.0016  0.3411 -0.1172
 6071SOL    HW129849   4.289   1.095   8.456 -0.0587  0.4837  0.0720
 6071SOL    HW229850   4.170   1.077   8.371  2.8833 -2.0144 -0.6120
 6072SOL     OW29851   4.512   1.574   1.708 -0.0778 -0.1412  0.3203
 6072SOL    HW129852   4.443   1.521   1.747  0.5792  0.1213  1.8319
 6072SOL    HW229853   4.591   1.541   1.752 -0.2728 -2.1064 -0.7731
 6073SOL     OW29854   4.660   3.622  11.889  0.4270 -0.2807  0.0974
 6073SOL    HW129855   4.687   3.530  11.897 -0.6886 -0.6807 -0.7424
 6073SOL    HW229856   4.693   3.643  11.802  1.9589 -0.5242  0.6251
 6074SOL     OW29857   4.358   4.193   9.245  0.1924 -0.2605  0.2770
 6074SOL    HW129858   4.416   4.147   9.305 -0.3461 -1.6647 -0.2856
 6074SOL    HW229859   4.278   4.149   9.275 -0.2537 -1.3854 -2.5265
 6075SOL     OW29860   3.563   4.143   3.854 -0.1662 -0.0228 -0.4529
 6075SOL    HW129861   3.552   4.048   3.851  0.1554 -0.1106  1.1914
 6075SOL    HW229862   3.602   4.161   3.768  0.5996  1.0108  0.1084
 6076SOL     OW29863   4.035   2.524   7.116  0.2989 -0.2173 -0.0298
 6076SOL    HW129864   4.056   2.431   7.122  2.1533  0.2744  1.1699
 6076SOL    HW229865   4.054   2.538   7.023 -2.2532 -0.7519 -0.6410
 6077SOL     OW29866   0.617   1.280   6.136 -0.1618 -0.2160 -0.1915
 6077SOL    HW129867   0.685   1.309   6.197 -0.3888 -1.5581  0.7129
 6077SOL    HW229868   0.671   1.247   6.064 -0.0917 -2.1313  0.7458
 6078SOL     OW29869   1.695   4.650  11.352  0.1654 -0.3087 -0.0032
 6078SOL    HW129870   1.623   4.592  11.328  1.0457 -1.1321 -0.6311
 6078SOL    HW229871   1.712   4.603  11.434  1.1113 -2.2896 -1.3222
 6079SOL     OW29872   3.142   0.926  13.171 -0.3261 -0.0234  0.3525
 6079SOL    HW129873   3.179   0.849  13.215  0.3886  1.0486  1.6226
 6079SOL    HW229874   3.220   0.956  13.124  0.1119 -0.5794  0.7187
 6080SOL     OW29875   4.174   2.978   8.031 -0.0986  0.2179 -0.8474
 6080SOL    HW129876   4.129   3.016   8.107 -0.3924 -1.2074 -0.2927
 6080SOL    HW229877   4.197   3.054   7.978  0.6825  0.2244 -0.4968
 6081SOL     OW29878   1.277   0.309   0.816  0.0387  0.1419  0.0276
 6081SOL    HW129879   1.194   0.338   0.778  0.3802  2.2256  0.8635
 6081SOL    HW229880   1.310   0.394   0.846  0.6348  0.7354 -2.2977
 6082SOL     OW29881   2.017   3.138  15.606 -0.0234  0.5888 -0.1907
 6082SOL    HW129882   1.949   3.148  15.674 -1.2248 -0.1348 -1.2936
 6082SOL    HW229883   2.073   3.214  15.619  0.6501 -0.0886  0.9182
 6083SOL     OW29884   2.436   0.287   5.538 -0.0840  0.1196  0.6069
 6083SOL    HW129885   2.499   0.336   5.591  2.1077 -1.4820 -0.5319
 6083SOL    HW229886   2.434   0.341   5.458 -0.2725 -0.0686  0.4847
 6084SOL     OW29887   4.581   0.701   4.462  0.4728  0.0225 -0.3466
 6084SOL    HW129888   4.586   0.639   4.390  0.1007  1.4365 -1.5936
 6084SOL    HW229889   4.665   0.743   4.446  0.6670 -0.4028 -0.4366
 6085SOL     OW29890   3.145   2.041   5.781  0.8766 -0.4429  0.5897
 6085SOL    HW129891   3.124   2.052   5.873  3.6657  1.9549  0.9483
 6085SOL    HW229892   3.183   2.127   5.759  1.0808 -0.5822  0.3986
 6086SOL     OW29893   2.962   0.275   4.355 -0.0260  0.3801 -0.0590
 6086SOL    HW129894   2.937   0.365   4.336 -0.9563  0.1726  0.1663
 6086SOL    HW229895   2.886   0.226   4.322 -0.1953  1.0305 -0.6367
 6087SOL     OW29896   2.141   4.036  16.334 -0.1734 -0.4240  0.2281
 6087SOL    HW129897   2.077   4.004  16.397  0.8742 -2.2858  0.3476
 6087SOL    HW229898   2.079   4.062  16.266 -1.0434 -1.0796  0.7754
 6088SOL     OW29899   3.401   1.693   7.491 -0.0402  0.1942 -0.1235
 6088SOL    HW129900   3.307   1.698   7.510  0.2173  0.0735  1.1922
 6088SOL    HW229901   3.429   1.608   7.525  0.1642 -0.4921 -2.0005
 6089SOL     OW29902   1.175   1.925  13.234  0.3704  0.2311  0.3692
 6089SOL    HW129903   1.204   1.988  13.301  1.8171 -1.3760  1.2727
 6089SOL    HW229904   1.131   1.979  13.169 -1.7033 -0.3290  1.2986
 6090SOL     OW29905   2.111   3.844   4.458 -0.0227 -0.0112  0.0124
 6090SOL    HW129906   2.192   3.863   4.506 -0.6068 -0.9039  1.3377
 6090SOL    HW229907   2.067   3.929   4.450 -1.7994 -0.7507  1.7463
 6091SOL     OW29908   0.658   2.548   6.608 -0.3169  0.6221  0.1518
 6091SOL    HW129909   0.670   2.486   6.536  0.0393  2.3363 -1.2658
 6091SOL    HW229910   0.712   2.498   6.670  2.6164  1.8564 -1.4323
 6092SOL     OW29911   1.433   4.129   3.821  0.2168  0.2724  0.1855
 6092SOL    HW129912   1.429   4.055   3.882 -1.0617 -0.7818 -1.1645
 6092SOL    HW229913   1.348   4.126   3.776  1.4220  1.6205 -2.2068
 6093SOL     OW29914   3.898   0.394  11.089  0.0692  1.0100 -0.4865
 6093SOL    HW129915   3.816   0.423  11.050  0.1802  0.9430 -0.7750
 6093SOL    HW229916   3.937   0.472  11.128  2.2015 -0.2256 -0.1497
 6094SOL     OW29917   3.496   0.159   6.831 -0.0162 -0.4962  0.0736
 6094SOL    HW129918   3.471   0.207   6.910 -1.2100  1.7306 -1.6469
 6094SOL    HW229919   3.553   0.223   6.787  1.0216 -1.7814 -0.4380
 6095SOL     OW29920   1.525   1.632  10.532  0.0313 -0.3183  0.1915
 6095SOL    HW129921   1.459   1.696  10.506  0.0103  0.5929  2.4494
 6095SOL    HW229922   1.599   1.669  10.484  0.6482 -0.9391  0.6559
 6096SOL     OW29923   1.387   1.855  15.279  0.3655  0.0629 -0.0352
 6096SOL    HW129924   1.420   1.945  15.284 -0.4450  0.2454  1.9919
 6096SOL    HW229925   1.354   1.845  15.368 -0.8692  2.8306 -0.1818
 6097SOL     OW29926   0.443   2.700  15.612  0.5432 -0.1906  0.3538
 6097SOL    HW129927   0.494   2.779  15.632 -1.4438  0.9012  1.1055
 6097SOL    HW229928   0.462   2.642  15.686 -2.1430 -0.2015  1.0463
 6098SOL     OW29929   1.208   3.348   2.254 -0.3589  0.0273 -0.1855
 6098SOL    HW129930   1.146   3.378   2.320 -1.9107 -2.0531 -0.6765
 6098SOL    HW229931   1.149   3.293   2.202 -0.5056  0.9998 -1.0656
 6099SOL     OW29932   3.106   0.162   8.734 -0.2965 -0.5757  0.1144
 6099SOL    HW129933   3.146   0.152   8.821  1.7392 -0.6041 -0.8332
 6099SOL    HW229934   3.021   0.119   8.744  0.2211 -1.2810  1.5852
 6100SOL     OW29935   4.674   2.698   1.122 -0.2808  0.1951  0.1712
 6100SOL    HW129936   4.725   2.726   1.046 -0.8900  0.7281 -0.0369
 6100SOL    HW229937   4.584   2.715   1.097 -0.1398  0.5490 -0.0953
 6101SOL     OW29938   2.297   0.511   2.231  0.1034 -0.1061  0.0847
 6101SOL    HW129939   2.240   0.581   2.263  1.9088  1.2119  0.4455
 6101SOL    HW229940   2.295   0.443   2.298  0.4250  2.1727  2.4252
 6102SOL     OW29941   2.016   4.301  12.666  0.2932 -0.2059  0.0290
 6102SOL    HW129942   2.108   4.291  12.642  0.3482 -0.0348  0.1721
 6102SOL    HW229943   1.981   4.300  12.577  0.4909 -0.3414 -0.0478
 6103SOL     OW29944   0.140   2.815   2.899 -0.4481 -0.0294 -0.1671
 6103SOL    HW129945   0.148   2.735   2.952  0.9775  1.0252  1.2081
 6103SOL    HW229946   0.124   2.783   2.811 -0.3650 -0.3834 -0.0536
 6104SOL     OW29947   1.768   4.406   9.024  0.2687  0.1791  0.0970
 6104SOL    HW129948   1.854   4.367   9.043  0.3957 -0.7770 -2.5895
 6104SOL    HW229949   1.786   4.461   8.948 -1.5522  0.4568 -0.1332
 6105SOL     OW29950   0.594   0.719   3.104  0.3661  0.0193 -0.0377
 6105SOL    HW129951   0.601   0.811   3.080  0.4132 -0.3393 -1.4304
 6105SOL    HW229952   0.687   0.697   3.112  0.0118 -1.1957  0.6787
 6106SOL     OW29953   4.035   2.595   7.835 -0.0040 -0.2243  0.4677
 6106SOL    HW129954   4.038   2.635   7.922  0.1256 -1.8872  1.2248
 6106SOL    HW229955   3.960   2.540   7.857 -1.9584  1.3041 -2.3439
 6107SOL     OW29956   3.583   3.166   2.222 -0.1866 -0.1628  0.2432
 6107SOL    HW129957   3.631   3.200   2.146  0.0205 -1.1998 -0.0885
 6107SOL    HW229958   3.539   3.087   2.191 -0.9348  0.6469 -0.7309
 6108SOL     OW29959   2.037   1.625   9.256 -0.3193 -0.0689 -0.1066
 6108SOL    HW129960   2.008   1.553   9.311  0.4337  0.5824  1.1357
 6108SOL    HW229961   2.077   1.569   9.189 -0.1025 -1.0150  0.8169
 6109SOL     OW29962   4.526   1.065   7.180 -1.4095  0.1045  0.1916
 6109SOL    HW129963   4.492   1.057   7.270 -1.4833  0.9345  0.2322
 6109SOL    HW229964   4.540   0.971   7.165 -0.5107 -0.0750  2.1361
 6110SOL     OW29965   1.188   2.745   3.618 -0.4204  0.3092  0.3753
 6110SOL    HW129966   1.168   2.700   3.535  1.7005  0.2456 -0.1016
 6110SOL    HW229967   1.102   2.776   3.646  0.4560  2.7895  0.2952
 6111SOL     OW29968   0.977   4.158   6.313 -0.0285 -0.0538 -0.1826
 6111SOL    HW129969   1.038   4.110   6.257  1.1733  1.1010  0.1458
 6111SOL    HW229970   0.906   4.101   6.342 -0.3176  0.8311  0.8377
 6112SOL     OW29971   3.761   0.361   8.258  0.1243 -0.0522 -0.6149
 6112SOL    HW129972   3.815   0.299   8.307  1.0410 -1.8262 -3.8729
 6112SOL    HW229973   3.676   0.316   8.257  0.4227 -0.5881 -2.2596
 6113SOL     OW29974   2.297   4.722  12.380 -0.0128  0.4192 -0.3561
 6113SOL    HW129975   2.272   4.708  12.288  0.4073  1.1727 -0.5925
 6113SOL    HW229976   2.311   0.082  12.381  0.4530  0.3984 -3.0818
 6114SOL     OW29977   2.529   0.240  15.858 -0.1152  0.0650  0.0341
 6114SOL    HW129978   2.468   0.171  15.834 -1.9594  1.4864  0.5999
 6114SOL    HW229979   2.577   0.194  15.926  1.2040  0.8946 -0.3311
 6115SOL     OW29980   0.288   1.212   8.638  0.2474 -0.2351  0.2272
 6115SOL    HW129981   0.307   1.288   8.692  0.6856 -0.1729 -0.0178
 6115SOL    HW229982   0.333   1.242   8.560 -0.1465 -1.3564 -0.4419
 6116SOL     OW29983   2.943   0.530   9.360  0.0066  0.1133  0.1786
 6116SOL    HW129984   2.933   0.439   9.387 -2.2623  0.2968 -0.0138
 6116SOL    HW229985   2.873   0.543   9.296 -0.4196 -1.5673  0.3175
 6117SOL     OW29986   2.206   1.307  13.328  0.1229 -0.3550 -1.0031
 6117SOL    HW129987   2.161   1.302  13.243 -1.9156 -1.1220  0.1064
 6117SOL    HW229988   2.168   1.234  13.377 -2.0725  2.2439  1.1202
 6118SOL     OW29989   1.488   1.910  10.239 -0.6402  0.2090 -0.0887
 6118SOL    HW129990   1.455   1.920  10.150  0.6748 -2.3353 -0.8533
 6118SOL    HW229991   1.582   1.923  10.225 -0.3064 -2.2215 -0.0474
 6119SOL     OW29992   2.846   4.011   1.829  0.1838 -0.0383 -0.1173
 6119SOL    HW129993   2.841   4.048   1.740  1.0020  1.3842  0.4263
 6119SOL    HW229994   2.774   4.056   1.873 -0.5294 -1.2577 -0.0626
 6120SOL     OW29995   4.487   1.722   4.838  0.2256 -0.2848 -0.3272
 6120SOL    HW129996   4.437   1.790   4.792  2.2362  0.5070 -1.3327
 6120SOL    HW229997   4.478   1.740   4.931 -0.3018  0.5487 -0.5390
 6121SOL     OW29998   1.986   0.596   8.316 -0.2677  0.2733 -0.4649
 6121SOL    HW129999   1.986   0.685   8.351 -0.6536 -0.0048  0.2324
 6121SOL    HW230000   1.906   0.559   8.352  1.0592  0.5724  2.8680
 6122SOL     OW30001   1.850   0.034  17.338  0.0748 -0.0029 -0.0598
 6122SOL    HW130002   1.765   0.018  17.380  1.6610 -2.1422  2.3718
 6122SOL    HW230003   1.821   0.027  17.247  0.1803 -0.1561 -0.0822
 6123SOL     OW30004   3.363   0.348   5.788 -0.2176  0.2142  0.1041
 6123SOL    HW130005   3.307   0.374   5.715  0.0431  0.7057  0.0769
 6123SOL    HW230006   3.318   0.373   5.868 -0.0857  2.7558 -0.6218
 6124SOL     OW30007   1.597   2.330   8.579 -0.0633 -0.1821  1.0371
 6124SOL    HW130008   1.609   2.293   8.491 -1.6124 -0.9915  1.1660
 6124SOL    HW230009   1.620   2.259   8.638 -2.0652 -1.7745 -0.1150
 6125SOL     OW30010   0.876   0.170   9.476 -0.6386  0.3750  0.2390
 6125SOL    HW130011   0.963   0.133   9.463 -0.2068  1.7112 -0.7201
 6125SOL    HW230012   0.890   0.262   9.455  0.0376  0.1898 -0.1158
 6126SOL     OW30013   4.496   1.725   0.609  0.3688  0.2603  0.2500
 6126SOL    HW130014   4.515   1.806   0.562 -0.4398 -0.0771 -0.6487
 6126SOL    HW230015   4.486   1.677   0.527 -0.5454  1.2299 -0.1972
 6127SOL     OW30016   1.219   3.072   7.479  0.1260  0.6130 -0.4156
 6127SOL    HW130017   1.280   3.144   7.494 -1.0486  0.6194  4.4096
 6127SOL    HW230018   1.136   3.120   7.468  0.8450  2.2353  1.3752
 6128SOL     OW30019   4.159   3.548   7.089  0.0962  0.6715 -0.7178
 6128SOL    HW130020   4.234   3.581   7.137 -1.5432 -0.5995  2.7359
 6128SOL    HW230021   4.113   3.510   7.164  2.0492 -0.2504  0.0144
 6129SOL     OW30022   1.401   3.925   2.843  0.1963  0.6100 -0.2562
 6129SOL    HW130023   1.451   3.957   2.917  1.6597 -0.4023 -0.8044
 6129SOL    HW230024   1.394   4.001   2.785  0.3513 -0.0846 -1.2063
 6130SOL     OW30025   0.556   1.699  12.842 -0.4601  0.0836  0.1111
 6130SOL    HW130026   0.601   1.667  12.921 -1.7268  0.2577  0.9089
 6130SOL    HW230027   0.467   1.719  12.870 -1.3287 -2.4699 -0.9528
 6131SOL     OW30028   0.446   3.477   9.440  0.1434  0.5624 -0.2955
 6131SOL    HW130029   0.438   3.570   9.461 -3.6189  0.1831  0.0346
 6131SOL    HW230030   0.526   3.462   9.489  0.2472  0.0095 -0.6404
 6132SOL     OW30031   3.209   2.960   4.489  0.9252 -0.3841 -0.2729
 6132SOL    HW130032   3.302   2.949   4.470  1.6481  0.4951  2.7286
 6132SOL    HW230033   3.207   2.956   4.585 -1.7802 -1.5100 -0.3684
 6133SOL     OW30034   2.410   2.914  13.952 -0.8093  0.3279  0.0184
 6133SOL    HW130035   2.347   2.850  13.920  2.4957 -1.9032 -1.9781
 6133SOL    HW230036   2.349   2.986  13.970 -0.4028  0.6278  0.1901
 6134SOL     OW30037   4.352   2.399   5.771  0.1979 -0.2118 -0.0083
 6134SOL    HW130038   4.329   2.318   5.725  1.4349 -0.2355 -0.5752
 6134SOL    HW230039   4.349   2.369   5.862  1.5277  1.3674  0.5398
 6135SOL     OW30040   3.596   0.726   4.437 -0.1572  0.1246 -0.1691
 6135SOL    HW130041   3.584   0.698   4.346 -1.1192  0.7912 -0.2472
 6135SOL    HW230042   3.528   0.685   4.490 -0.7758 -0.8363 -1.7327
 6136SOL     OW30043   2.132   2.674  14.687 -0.3856 -0.3199 -0.6016
 6136SOL    HW130044   2.076   2.749  14.666 -1.4807 -1.7460 -2.7720
 6136SOL    HW230045   2.067   2.605  14.698 -0.7034  0.2129  0.8656
 6137SOL     OW30046   3.844   2.460   9.055 -0.4121 -0.5686  0.0577
 6137SOL    HW130047   3.878   2.397   8.992 -1.1543 -1.4612  0.5475
 6137SOL    HW230048   3.819   2.405   9.129 -0.7840 -0.4003  0.0564
 6138SOL     OW30049   2.972   3.285   3.557  0.0279  0.3127 -0.5455
 6138SOL    HW130050   2.973   3.343   3.633 -0.3405  0.7913 -0.9102
 6138SOL    HW230051   2.878   3.278   3.540  0.2395 -2.2767 -0.6755
 6139SOL     OW30052   1.932   2.117   7.947  0.3039  0.4487 -0.4536
 6139SOL    HW130053   1.917   2.197   7.998 -0.0061  0.8254 -1.1246
 6139SOL    HW230054   1.933   2.157   7.860 -1.0987 -0.4623 -0.8783
 6140SOL     OW30055   0.838   1.881   4.648  0.3456 -0.1698 -0.3537
 6140SOL    HW130056   0.921   1.855   4.610  1.9294  1.0323  2.2792
 6140SOL    HW230057   0.792   1.802   4.618 -1.3223 -0.1839  2.2307
 6141SOL     OW30058   4.502   2.352   5.410  0.3495 -0.1750 -0.0323
 6141SOL    HW130059   4.542   2.374   5.326  1.4841  1.4464  0.9415
 6141SOL    HW230060   4.430   2.291   5.396  0.8041 -1.1177  1.7116
 6142SOL     OW30061   1.662   2.516   6.502 -0.1342  0.2809  0.8091
 6142SOL    HW130062   1.741   2.551   6.461  0.5556 -2.5271 -0.2695
 6142SOL    HW230063   1.601   2.496   6.431 -1.1498 -0.4495  1.8845
 6143SOL     OW30064   1.169   4.712   6.620 -0.2665  0.3810 -0.3089
 6143SOL    HW130065   1.129   0.051   6.666 -1.3116 -0.3531 -0.0413
 6143SOL    HW230066   1.250   0.023   6.597  0.0664  1.7121  3.5760
 6144SOL     OW30067   1.099   0.425  16.421  0.4092  0.1818 -0.2047
 6144SOL    HW130068   1.127   0.495  16.362 -0.8810  0.4504 -0.4913
 6144SOL    HW230069   1.180   0.381  16.445  0.3700  1.3294  2.0933
 6145SOL     OW30070   1.140   0.203   0.056  0.0966  0.1620 -0.5661
 6145SOL    HW130071   1.129   0.115   0.093  0.6270  0.0355 -0.7197
 6145SOL    HW230072   1.133   0.249   0.140  0.4210  0.9351 -0.9700
 6146SOL     OW30073   0.157   1.387   0.216 -0.5131 -0.2092  0.0788
 6146SOL    HW130074   0.135   1.294   0.208 -0.1448 -0.1189 -1.8789
 6146SOL    HW230075   0.251   1.380   0.236 -1.2115  0.1169  3.5561
 6147SOL     OW30076   0.634   4.456   1.138  0.3450 -0.3324  0.3332
 6147SOL    HW130077   0.566   4.522   1.146  1.1971  0.5528  0.2387
 6147SOL    HW230078   0.708   4.503   1.178 -1.1516  3.6861 -1.6281
 6148SOL     OW30079   3.152   1.026   7.307 -0.1135 -0.4544 -0.6221
 6148SOL    HW130080   3.192   1.045   7.392 -1.1289 -0.2631 -0.1850
 6148SOL    HW230081   3.194   1.081   7.242 -1.3665  1.2511 -0.0004
 6149SOL     OW30082   3.535   1.135   8.065 -0.0513  0.0709 -0.4840
 6149SOL    HW130083   3.512   1.062   8.008 -0.7579 -0.0596 -0.0306
 6149SOL    HW230084   3.629   1.147   8.052 -0.3829 -0.2797 -3.1372
 6150SOL     OW30085   4.241   2.741  14.486  0.2810 -0.4489 -0.2412
 6150SOL    HW130086   4.250   2.660  14.436 -1.4195 -0.4194 -0.6139
 6150SOL    HW230087   4.316   2.740  14.546 -2.0409  1.0184  2.7194
 6151SOL     OW30088   4.545   2.102   4.924 -0.1854  0.5367 -0.0438
 6151SOL    HW130089   4.634   2.135   4.911  0.6804 -1.1234  1.5949
 6151SOL    HW230090   4.505   2.145   4.849  0.3865 -0.1519 -0.7459
 6152SOL     OW30091   4.674   3.395   2.694 -0.3714 -0.2922 -0.2148
 6152SOL    HW130092   0.027   3.375   2.661 -0.1347 -1.0862  0.9226
 6152SOL    HW230093   4.685   3.394   2.789  1.5242  0.9105 -0.4190
 6153SOL     OW30094   4.044   1.203  13.057 -0.6429  0.0908 -0.2558
 6153SOL    HW130095   4.111   1.225  12.992  0.1408 -2.1016 -0.1948
 6153SOL    HW230096   3.989   1.144  13.005 -0.2767  0.6017 -1.2343
 6154SOL     OW30097   3.474   2.447  15.636 -0.1006 -0.1551 -0.2636
 6154SOL    HW130098   3.562   2.424  15.608 -0.1811 -0.1460 -0.5315
 6154SOL    HW230099   3.495   2.479  15.723 -2.9401  1.4018 -0.1189
 6155SOL     OW30100   1.313   1.489   8.867 -0.9487  0.3561  0.0021
 6155SOL    HW130101   1.297   1.560   8.929  1.4944 -0.6885  1.8379
 6155SOL    HW230102   1.394   1.518   8.825 -1.1463  2.0267  0.7946
 6156SOL     OW30103   3.706   2.117   9.170 -0.4201  0.4616 -0.1551
 6156SOL    HW130104   3.771   2.054   9.137 -0.1116  1.2596 -1.0813
 6156SOL    HW230105   3.655   2.072   9.238  1.0106  1.4657  1.5633
 6157SOL     OW30106   3.776   3.319   4.367  0.1815 -0.6222 -0.3715
 6157SOL    HW130107   3.762   3.248   4.304  1.2020 -1.2765  0.1419
 6157SOL    HW230108   3.694   3.328   4.415  0.1793 -0.3611 -0.4249
 6158SOL     OW30109   1.959   4.278   8.668 -0.1672 -0.0022 -0.1780
 6158SOL    HW130110   2.020   4.214   8.706  1.0222  0.2657 -1.6243
 6158SOL    HW230111   2.007   4.318   8.596  2.3616 -1.1832  0.8499
 6159SOL     OW30112   1.838   4.526   8.020  0.1271 -0.3335 -0.0158
 6159SOL    HW130113   1.907   4.543   8.084 -0.0637  0.8033 -0.1014
 6159SOL    HW230114   1.874   4.458   7.963 -0.7094  0.5639 -1.6325
 6160SOL     OW30115   4.368   1.418   2.546 -0.2532 -0.3903  0.0415
 6160SOL    HW130116   4.414   1.492   2.586 -0.3124 -1.2435  1.6801
 6160SOL    HW230117   4.386   1.424   2.452 -0.6525  1.2405  0.0646
 6161SOL     OW30118   2.622   0.967   7.282  0.5401  0.0350 -0.3464
 6161SOL    HW130119   2.714   0.994   7.284  0.8152 -1.0913  1.5599
 6161SOL    HW230120   2.636   0.888   7.230 -0.2946 -0.5529  0.3333
 6162SOL     OW30121   2.758   1.935   4.794  0.0605 -0.8981  0.0452
 6162SOL    HW130122   2.717   1.879   4.861 -1.9249  2.3457  1.5166
 6162SOL    HW230123   2.757   1.876   4.719  0.1568 -0.7982 -0.0336
 6163SOL     OW30124   2.483   3.621  16.174 -0.1670  0.1731  0.0419
 6163SOL    HW130125   2.521   3.638  16.260 -1.2027 -1.5952  0.8318
 6163SOL    HW230126   2.437   3.704  16.163 -1.2523 -0.5495 -0.8823
 6164SOL     OW30127   1.186   3.898  12.118 -0.0726 -0.1083 -0.2331
 6164SOL    HW130128   1.281   3.904  12.106 -0.2768 -0.6173 -2.0870
 6164SOL    HW230129   1.173   3.941  12.202 -0.7417 -2.2320  0.7665
 6165SOL     OW30130   3.780   2.247  10.208  0.5513 -0.1822 -0.6601
 6165SOL    HW130131   3.690   2.234  10.237  0.3236 -1.5988 -2.0051
 6165SOL    HW230132   3.772   2.338  10.176 -0.3025 -0.3220 -0.8441
 6166SOL     OW30133   0.407   0.619  16.153  0.1603 -0.1509  0.0732
 6166SOL    HW130134   0.409   0.537  16.204 -2.3314 -0.6459 -0.5825
 6166SOL    HW230135   0.344   0.662  16.212  2.4367 -0.6667  2.8638
 6167SOL     OW30136   0.712   1.946  14.818 -0.1497  0.6243  0.0072
 6167SOL    HW130137   0.647   2.000  14.773 -0.8872 -2.1087 -2.1608
 6167SOL    HW230138   0.763   2.012  14.865  0.5764 -0.9213  1.3611
 6168SOL     OW30139   4.719   2.969  13.605  0.2379  1.0178 -0.3987
 6168SOL    HW130140   0.067   2.976  13.558 -0.4136  2.1959 -1.3758
 6168SOL    HW230141   4.668   2.919  13.541 -0.9954 -0.0899  1.4626
 6169SOL     OW30142   0.408   1.421  12.159  0.0232 -0.7086  0.5771
 6169SOL    HW130143   0.497   1.422  12.193 -0.1396 -0.0606  0.9883
 6169SOL    HW230144   0.417   1.477  12.081  1.1617 -0.5983  0.7910
 6170SOL     OW30145   3.821   3.333   4.910 -0.1067  0.5024 -0.0858
 6170SOL    HW130146   3.850   3.400   4.849  0.2301  1.1805  0.8138
 6170SOL    HW230147   3.901   3.285   4.932  0.6360  2.3057  1.1765
 6171SOL     OW30148   3.505   1.230   3.419  0.2126 -0.4391  0.3431
 6171SOL    HW130149   3.496   1.324   3.408  0.1098 -0.7346 -2.0156
 6171SOL    HW230150   3.423   1.193   3.386  0.7757 -0.4969 -0.9863
 6172SOL     OW30151   4.644   0.458   9.191  0.0534 -0.2307  0.0525
 6172SOL    HW130152   4.579   0.527   9.179  0.3046  0.3201  1.8654
 6172SOL    HW230153   4.692   0.494   9.265 -0.0884 -0.6052  0.3264
 6173SOL     OW30154   1.737   2.845   5.201 -0.2063  0.4031 -0.3331
 6173SOL    HW130155   1.688   2.772   5.239  1.9879 -0.6429  0.4166
 6173SOL    HW230156   1.664   2.886   5.154 -0.2547  0.2198 -0.4158
 6174SOL     OW30157   2.321   1.440   1.558 -0.3118 -0.1769  0.3107
 6174SOL    HW130158   2.398   1.487   1.588 -0.7174  0.9180 -0.3907
 6174SOL    HW230159   2.256   1.509   1.566 -0.8584 -0.3563 -2.5783
 6175SOL     OW30160   3.914   1.055   0.732  0.2967  0.1545  0.6270
 6175SOL    HW130161   3.881   1.095   0.811 -2.7044  0.9658 -1.0565
 6175SOL    HW230162   3.976   1.122   0.703  0.6750 -0.4456  0.0194
 6176SOL     OW30163   0.370   0.552   3.065 -0.3314  0.5980 -0.1978
 6176SOL    HW130164   0.459   0.585   3.076 -0.8178  1.9984 -0.3929
 6176SOL    HW230165   0.326   0.610   3.128 -1.2980 -0.1870 -0.1410
 6177SOL     OW30166   2.051   4.433   3.153  0.3580 -0.3954 -0.2515
 6177SOL    HW130167   2.091   4.348   3.173  1.2967  0.2073  0.4516
 6177SOL    HW230168   2.126   4.482   3.120  0.4503  0.1050  0.7109
 6178SOL     OW30169   0.121   0.031  14.309 -0.0737  0.0077 -0.4643
 6178SOL    HW130170   0.182   0.100  14.282  0.9781 -0.7136  0.0790
 6178SOL    HW230171   0.099   4.735  14.222  0.1084 -0.3473 -0.3838
 6179SOL     OW30172   1.291   2.929   7.276 -0.0994 -0.2578  0.0462
 6179SOL    HW130173   1.268   2.997   7.340  0.2087  0.1484 -0.2780
 6179SOL    HW230174   1.381   2.917   7.308 -0.3980 -3.1653 -0.2337
 6180SOL     OW30175   1.172   0.980   4.923 -0.1206 -0.4188  0.1944
 6180SOL    HW130176   1.165   1.056   4.866  0.0805  0.8262  1.8267
 6180SOL    HW230177   1.083   0.944   4.932 -0.1448 -0.6811 -1.1046
 6181SOL     OW30178   1.271   2.401  15.794 -0.1088 -0.4368  0.1599
 6181SOL    HW130179   1.335   2.460  15.755  1.1545 -0.2417  2.4931
 6181SOL    HW230180   1.191   2.453  15.785  0.0633 -0.1250  0.4208
 6182SOL     OW30181   0.791   1.585   8.310 -0.3208  0.3916  0.2120
 6182SOL    HW130182   0.696   1.575   8.322 -0.0853 -2.7919 -0.6112
 6182SOL    HW230183   0.812   1.515   8.248  1.1460  1.9794 -1.0630
 6183SOL     OW30184   2.857   1.388  13.917 -0.1103 -0.1789  0.2311
 6183SOL    HW130185   2.843   1.351  13.830  0.2610 -0.0942  0.1374
 6183SOL    HW230186   2.932   1.340  13.950  0.6008  1.0546  0.4079
 6184SOL     OW30187   1.657   2.799  12.016  0.3208  0.1304 -0.5499
 6184SOL    HW130188   1.579   2.760  11.977  0.4123  0.3228 -0.9257
 6184SOL    HW230189   1.712   2.720  12.020 -0.9782 -0.7997 -0.8557
 6185SOL     OW30190   3.635   0.173   5.922  0.0690  0.7498 -0.2768
 6185SOL    HW130191   3.685   0.234   5.976  0.3728 -0.5269  0.8709
 6185SOL    HW230192   3.555   0.163   5.973 -0.1214 -1.2443 -0.9930
 6186SOL     OW30193   1.445   3.466  15.310 -0.4467 -0.6115 -0.0562
 6186SOL    HW130194   1.400   3.414  15.243  1.3450 -2.3561  0.1090
 6186SOL    HW230195   1.382   3.474  15.382  1.0268 -0.5138  1.2156
 6187SOL     OW30196   3.860   0.542  10.503 -0.0567  0.0788 -0.0435
 6187SOL    HW130197   3.866   0.468  10.443  0.6825 -0.9548  1.3129
 6187SOL    HW230198   3.819   0.500  10.578 -0.9583  0.5247 -0.2912
 6188SOL     OW30199   4.105   2.502   7.446 -0.1300 -0.5118 -0.3562
 6188SOL    HW130200   4.132   2.514   7.537  0.1293 -0.7492 -0.4022
 6188SOL    HW230201   4.175   2.441   7.424  0.3438 -0.2493  0.4370
 6189SOL     OW30202   1.800   3.921  15.689 -0.3577 -0.0351 -0.3298
 6189SOL    HW130203   1.777   3.994  15.632 -0.1120 -1.2789 -2.0140
 6189SOL    HW230204   1.713   3.889  15.712 -1.0290  2.5591  0.7050
 6190SOL     OW30205   1.516   0.688   1.667 -0.5144 -0.0387 -0.3612
 6190SOL    HW130206   1.607   0.687   1.636 -0.9884 -1.6840 -1.7186
 6190SOL    HW230207   1.493   0.780   1.681 -1.6823 -0.6686  1.8587
 6191SOL     OW30208   3.959   4.466   6.678 -0.0929  0.1484  0.2749
 6191SOL    HW130209   3.922   4.380   6.659 -1.1312  0.2921  1.6178
 6191SOL    HW230210   4.053   4.445   6.679 -0.2670 -0.6648 -0.5204
 6192SOL     OW30211   3.266   3.866   7.713 -0.1002  0.2129  0.2852
 6192SOL    HW130212   3.306   3.851   7.799  0.3494 -0.7998 -0.1004
 6192SOL    HW230213   3.311   3.941   7.674 -1.4235  0.6035 -0.4852
 6193SOL     OW30214   0.383   0.100   7.087  0.3274  0.3150  0.8046
 6193SOL    HW130215   0.317   0.031   7.083 -0.5175  1.1369  0.5730
 6193SOL    HW230216   0.325   0.175   7.074 -1.1163 -0.7546  1.0807
 6194SOL     OW30217   1.136   2.630   7.205  0.4142  0.9260  0.5959
 6194SOL    HW130218   1.166   2.721   7.217  0.3644  0.9155  0.7992
 6194SOL    HW230219   1.042   2.645   7.194  0.0980 -0.2598  1.7051
 6195SOL     OW30220   2.888   0.844   2.348 -0.0955  0.9154  0.3057
 6195SOL    HW130221   2.826   0.848   2.421 -0.1827  0.2241  0.2664
 6195SOL    HW230222   2.829   0.832   2.274 -0.8588  0.6216  0.9581
 6196SOL     OW30223   0.388   4.334   2.322 -0.3014  0.1248  0.0018
 6196SOL    HW130224   0.477   4.350   2.353  0.0102  0.4553 -1.0368
 6196SOL    HW230225   0.376   4.415   2.271 -2.1217 -0.4757 -0.5146
 6197SOL     OW30226   3.063   2.218   2.714  0.9602 -0.1809 -0.2536
 6197SOL    HW130227   3.089   2.126   2.704 -0.0104 -0.6175  1.1989
 6197SOL    HW230228   3.002   2.216   2.641  1.0202 -1.4622 -0.2622
 6198SOL     OW30229   2.990   1.801   2.926 -0.4395 -0.0127 -0.3120
 6198SOL    HW130230   2.980   1.896   2.935  2.6534  0.0027  3.1065
 6198SOL    HW230231   2.901   1.783   2.897 -0.7074  0.8038  0.0235
 6199SOL     OW30232   3.329   0.748   6.628  0.4881 -0.4009 -0.0144
 6199SOL    HW130233   3.382   0.827   6.618 -0.4720  0.0627 -1.5365
 6199SOL    HW230234   3.277   0.764   6.707 -0.7230  1.4690 -1.1781
 6200SOL     OW30235   3.069   1.936   6.709  0.1239 -0.2092 -0.5965
 6200SOL    HW130236   3.013   2.011   6.728  0.5600  0.1056 -0.5711
 6200SOL    HW230237   3.121   1.917   6.788 -1.2262  3.2391  1.1273
 6201SOL     OW30238   1.797   4.569   8.798  0.5189 -0.5286  0.2688
 6201SOL    HW130239   1.842   4.560   8.714  1.7315 -1.7800  1.0537
 6201SOL    HW230240   1.730   4.636   8.781 -0.1134 -0.5177  2.7020
 6202SOL     OW30241   3.048   2.451   5.046  0.9438  0.2729 -0.2770
 6202SOL    HW130242   3.049   2.417   5.135 -0.9234 -0.4303 -0.5165
 6202SOL    HW230243   3.100   2.392   4.991  0.9883 -2.1666  2.3986
 6203SOL     OW30244   1.831   1.383   7.484  0.5037 -0.3465  0.7692
 6203SOL    HW130245   1.889   1.326   7.433  0.1613 -0.2642  0.2857
 6203SOL    HW230246   1.880   1.384   7.566 -0.9532 -1.6634  1.6573
 6204SOL     OW30247   0.960   1.705   6.758 -0.0050 -0.0435  0.5434
 6204SOL    HW130248   0.871   1.690   6.790  0.0961  1.7092  1.6779
 6204SOL    HW230249   0.946   1.776   6.695  5.1360 -0.6689 -1.2872
 6205SOL     OW30250   4.597   4.570   4.906 -0.0803  0.4118 -0.2732
 6205SOL    HW130251   4.615   4.476   4.908 -1.0755  0.2515  1.2057
 6205SOL    HW230252   4.503   4.581   4.922  0.0716 -0.6151  1.3679
 6206SOL     OW30253   0.528   2.285   7.190 -0.2463  0.1093 -0.4682
 6206SOL    HW130254   0.522   2.316   7.100  0.0830  2.0107  0.1515
 6206SOL    HW230255   0.464   2.214   7.192 -0.7369  0.5690  0.1544
 6207SOL     OW30256   2.399   1.500   7.223 -0.4488  0.8750 -0.4326
 6207SOL    HW130257   2.440   1.558   7.287  1.1218  0.7545 -1.3230
 6207SOL    HW230258   2.448   1.520   7.143  0.4508  2.1116  0.4320
 6208SOL     OW30259   2.523   3.863   4.051  0.5349  0.0420  0.5675
 6208SOL    HW130260   2.500   3.949   4.017 -0.1762 -0.0361  0.8430
 6208SOL    HW230261   2.475   3.803   3.995 -0.9594  0.3257  1.5536
 6209SOL     OW30262   0.564   3.088   9.747 -0.5254 -1.0850  0.0132
 6209SOL    HW130263   0.595   3.050   9.829 -1.8104  2.5477  2.1577
 6209SOL    HW230264   0.634   3.067   9.685  0.0989  1.7201 -0.1947
 6210SOL     OW30265   0.423   3.732   5.133  0.0284 -0.1636  0.0900
 6210SOL    HW130266   0.367   3.660   5.104  1.2315 -0.0185 -2.6073
 6210SOL    HW230267   0.471   3.758   5.054  0.8045  1.5394  1.1212
 6211SOL     OW30268   0.322   3.754   5.695 -0.1301 -0.2302 -0.2738
 6211SOL    HW130269   0.413   3.778   5.677  0.0091  0.0270  0.7553
 6211SOL    HW230270   0.346   3.699   5.769 -0.4317  0.0699  0.0434
 6212SOL     OW30271   2.268   4.158   6.055 -0.4789 -0.4639 -0.2190
 6212SOL    HW130272   2.238   4.096   5.988 -1.0300 -0.8874  0.4222
 6212SOL    HW230273   2.334   4.202   6.001  1.0226  0.0593  2.0031
 6213SOL     OW30274   1.076   4.507   7.535 -0.2703 -0.4695 -0.2002
 6213SOL    HW130275   1.160   4.463   7.521  0.0259  0.2695 -0.6901
 6213SOL    HW230276   1.051   4.470   7.620  0.8275  2.9408  1.5795
 6214SOL     OW30277   3.723   0.125  10.941  0.2796  0.6274 -0.3489
 6214SOL    HW130278   3.713   0.032  10.962  2.1269  0.2535 -1.1972
 6214SOL    HW230279   3.729   0.159  11.030  1.2224 -2.1445  0.6381
 6215SOL     OW30280   2.527   0.511   3.291  0.4772  0.9417 -0.2281
 6215SOL    HW130281   2.599   0.474   3.239  0.4883 -0.3831  0.7182
 6215SOL    HW230282   2.452   0.482   3.239  0.1932 -1.3127  1.3977
 6216SOL     OW30283   2.564   2.957  12.367  0.4210 -0.3460  0.0483
 6216SOL    HW130284   2.638   2.898  12.381  1.3973  0.7876 -0.3779
 6216SOL    HW230285   2.575   3.029  12.430  0.2850  0.3635 -0.7340
 6217SOL     OW30286   3.241   3.225   3.962  0.1684  0.1848 -0.4849
 6217SOL    HW130287   3.304   3.200   4.029  1.3327  0.0452 -1.6386
 6217SOL    HW230288   3.284   3.300   3.922 -0.4619  0.8823  0.1622
 6218SOL     OW30289   0.219   2.146   6.114  0.1690  0.0184 -0.5365
 6218SOL    HW130290   0.129   2.144   6.147  0.1154  0.7649 -0.6196
 6218SOL    HW230291   0.208   2.232   6.073 -2.5701  0.2951  0.8066
 6219SOL     OW30292   3.185   1.805   8.919 -0.2740 -0.0075 -0.1797
 6219SOL    HW130293   3.117   1.742   8.943 -1.4058  1.6713  0.9939
 6219SOL    HW230294   3.262   1.751   8.936  0.2655  1.7408  2.9082
 6220SOL     OW30295   4.034   2.639  13.536  0.4227  0.4435 -0.0288
 6220SOL    HW130296   4.043   2.547  13.513  1.7219  1.0411 -1.9109
 6220SOL    HW230297   4.017   2.633  13.630  2.1701 -2.1684  0.1083
 6221SOL     OW30298   3.447   1.322   6.056 -0.3114 -0.4924  0.0277
 6221SOL    HW130299   3.433   1.269   5.977  1.8479 -0.8270 -0.1221
 6221SOL    HW230300   3.377   1.387   6.047  1.6547  1.3309 -2.0888
 6222SOL     OW30301   3.440   0.943  13.031 -0.0352 -0.0831 -0.4934
 6222SOL    HW130302   3.416   0.853  13.010 -0.7173  0.6060 -2.5961
 6222SOL    HW230303   3.475   0.968  12.945  3.3007 -0.2559  0.7931
 6223SOL     OW30304   2.089   0.834   1.759  0.2443  0.0739  0.2515
 6223SOL    HW130305   2.048   0.779   1.826  1.1371 -0.4650  0.3583
 6223SOL    HW230306   2.024   0.903   1.757 -0.3255 -0.3788  2.7086
 6224SOL     OW30307   3.678   3.317   9.389 -1.0490  0.6064  0.6692
 6224SOL    HW130308   3.694   3.354   9.476  0.6321 -0.0846  0.6563
 6224SOL    HW230309   3.609   3.252   9.401 -0.6851 -0.6715 -4.0250
 6225SOL     OW30310   0.530   2.171  14.775  0.1441  0.0217  0.4300
 6225SOL    HW130311   0.468   2.232  14.815  0.0370  0.1542  0.0548
 6225SOL    HW230312   0.577   2.222  14.710 -0.0140  1.4216  1.4293
 6226SOL     OW30313   3.718   4.503   9.133  0.3412 -0.1839 -0.4887
 6226SOL    HW130314   3.671   4.474   9.055  1.5432 -0.3729 -1.1390
 6226SOL    HW230315   3.748   4.418   9.164  1.8870  0.2656 -0.7635
 6227SOL     OW30316   1.272   2.352   4.263  0.6308 -0.1933 -0.0150
 6227SOL    HW130317   1.305   2.324   4.349 -0.4111 -2.4977 -0.3509
 6227SOL    HW230318   1.350   2.338   4.210  0.3037  0.9998 -0.8051
 6228SOL     OW30319   3.045   3.216  10.185 -0.1577 -0.1901  0.1532
 6228SOL    HW130320   3.105   3.253  10.249  1.9986 -0.7643 -1.5388
 6228SOL    HW230321   3.028   3.132  10.228 -0.8865  0.7689  1.7253
 6229SOL     OW30322   0.136   4.266   6.228  0.0530 -0.1945 -0.4971
 6229SOL    HW130323   0.076   4.291   6.159  0.0145 -0.9854 -0.7558
 6229SOL    HW230324   0.093   4.186   6.258 -0.5582  0.6632  0.8905
 6230SOL     OW30325   0.962   1.634   5.733 -0.0563  0.1594  0.1997
 6230SOL    HW130326   1.027   1.648   5.802 -0.5670  1.0812  0.4877
 6230SOL    HW230327   0.885   1.681   5.764 -1.9607 -1.4617 -2.1004
 6231SOL     OW30328   1.715   1.818  14.647 -0.3651 -0.3236  0.2957
 6231SOL    HW130329   1.627   1.841  14.619 -0.5614 -0.3761  0.8764
 6231SOL    HW230330   1.744   1.887  14.706  0.4611 -0.1168 -0.3463
 6232SOL     OW30331   2.178   1.482   6.419  0.4073  0.1940 -0.5495
 6232SOL    HW130332   2.242   1.517   6.482 -0.5566 -0.0821  0.5636
 6232SOL    HW230333   2.104   1.468   6.478  0.9756 -3.2553 -0.6773
 6233SOL     OW30334   0.239   3.836   3.516 -0.6168 -0.5652 -0.2346
 6233SOL    HW130335   0.206   3.800   3.598 -2.2252  0.2698 -0.5111
 6233SOL    HW230336   0.188   3.917   3.519  0.5527  0.1265  0.8130
 6234SOL     OW30337   2.466   0.989  14.390  0.3608 -0.8379 -0.3444
 6234SOL    HW130338   2.486   1.043  14.314 -2.6922 -2.1749 -2.0737
 6234SOL    HW230339   2.463   1.053  14.461  4.7598 -0.2550 -0.6900
 6235SOL     OW30340   4.726   0.198   3.819  0.3100 -0.3264 -0.0727
 6235SOL    HW130341   4.713   0.199   3.724 -3.7659 -0.9166  0.5067
 6235SOL    HW230342   4.643   0.156   3.838 -0.1233 -0.2555 -1.8474
 6236SOL     OW30343   3.672   0.799   1.782  0.2025  0.5266  0.1356
 6236SOL    HW130344   3.624   0.866   1.732 -0.8873  0.5732  1.2341
 6236SOL    HW230345   3.746   0.781   1.724 -0.0827 -0.1859 -0.0121
 6237SOL     OW30346   0.236   2.347   3.075 -0.0787 -0.9251 -0.2882
 6237SOL    HW130347   0.328   2.338   3.100 -0.3690  1.6259  1.7631
 6237SOL    HW230348   0.202   2.258   3.067 -1.1466 -0.4992 -0.4266
 6238SOL     OW30349   0.819   2.909   7.361 -0.7023  0.0550  0.0753
 6238SOL    HW130350   0.725   2.929   7.362 -0.0715  3.0491 -2.0731
 6238SOL    HW230351   0.860   2.995   7.369 -2.9747  1.0588  1.0315
 6239SOL     OW30352   1.644   2.969   4.597 -0.3781 -0.1111  0.2946
 6239SOL    HW130353   1.680   3.051   4.564 -0.0874  0.4584  2.0131
 6239SOL    HW230354   1.558   2.994   4.630 -0.8836 -1.6422  0.1270
 6240SOL     OW30355   1.261   4.522   6.138 -0.5491 -0.2218 -0.7839
 6240SOL    HW130356   1.249   4.516   6.233  2.6816  0.7638 -0.3314
 6240SOL    HW230357   1.169   4.506   6.114 -1.2601  0.0270  1.7622
 6241SOL     OW30358   0.486   3.785   7.889 -0.1270  0.5115 -0.1252
 6241SOL    HW130359   0.502   3.702   7.934 -1.9743  0.2235  0.0008
 6241SOL    HW230360   0.576   3.809   7.866  0.8586 -1.4724  1.6957
 6242SOL     OW30361   3.594   0.752  15.201  0.7988  0.2916 -0.3875
 6242SOL    HW130362   3.638   0.771  15.284  2.1422 -1.4799 -0.6778
 6242SOL    HW230363   3.503   0.779  15.209 -0.2048 -2.9134 -1.2461
 6243SOL     OW30364   4.402   3.947   3.963  0.1658  0.2085 -0.0307
 6243SOL    HW130365   4.324   3.982   3.919  1.1068 -0.0584 -1.8987
 6243SOL    HW230366   4.428   3.901   3.883  0.0630 -0.6217  0.4128
 6244SOL     OW30367   2.984   1.865  13.829  0.5667 -0.2355  0.2742
 6244SOL    HW130368   2.888   1.866  13.828  0.5690  1.3805  1.6901
 6244SOL    HW230369   3.002   1.959  13.825  0.1058 -0.2946 -3.0333
 6245SOL     OW30370   4.019   4.264  17.407 -0.2461  0.3020  0.0149
 6245SOL    HW130371   3.951   4.204  17.438  0.9967 -0.5265  1.1284
 6245SOL    HW230372   4.023   4.333  17.473 -3.8298  1.2306 -0.7366
 6246SOL     OW30373   1.599   3.151   7.537 -0.1979  0.2101  0.1709
 6246SOL    HW130374   1.514   3.181   7.570 -0.6334 -0.3550 -0.4538
 6246SOL    HW230375   1.584   3.056   7.532  2.1746 -0.3438  3.1901
 6247SOL     OW30376   4.220   1.082   1.779 -0.6115  0.0429  0.6732
 6247SOL    HW130377   4.171   1.077   1.697  0.8265 -0.3836 -0.1494
 6247SOL    HW230378   4.156   1.117   1.841  0.5126 -0.5686  2.1869
 6248SOL     OW30379   0.443   3.269   4.076 -0.0554  0.2325  0.3562
 6248SOL    HW130380   0.525   3.220   4.089 -0.3131  0.2100  1.9206
 6248SOL    HW230381   0.397   3.203   4.024 -0.8658 -0.6643  2.2193
 6249SOL     OW30382   1.805   4.541   3.024 -0.5061  0.4221 -0.6750
 6249SOL    HW130383   1.865   4.538   3.098 -0.4271  3.0849 -0.6442
 6249SOL    HW230384   1.862   4.506   2.956  0.2579  1.0618 -0.3661
 6250SOL     OW30385   2.316   0.245   9.783 -0.0876  0.2513 -0.6913
 6250SOL    HW130386   2.341   0.155   9.766 -0.9825  0.3427 -2.4902
 6250SOL    HW230387   2.221   0.238   9.788 -0.5035  3.2454 -3.9927
 6251SOL     OW30388   0.010   2.922   3.125  0.1473 -0.4760 -0.2198
 6251SOL    HW130389   0.050   2.929   3.038  1.9244 -1.0387  0.5527
 6251SOL    HW230390   4.651   2.911   3.113  0.1245 -0.1654 -0.3207
 6252SOL     OW30391   4.431   0.947  12.431  0.3863  0.4897  1.2917
 6252SOL    HW130392   4.434   0.994  12.515 -1.0721  1.0559  1.0199
 6252SOL    HW230393   4.462   0.863  12.464 -1.2466  0.2847  2.2775
 6253SOL     OW30394   1.630   0.893   9.828 -0.2768 -0.5660 -0.0347
 6253SOL    HW130395   1.718   0.931   9.839  1.0123 -4.2171  2.1865
 6253SOL    HW230396   1.590   0.898   9.914 -1.8527 -0.0528 -0.7944
 6254SOL     OW30397   1.535   2.847   7.473 -0.0451 -0.0244  0.3786
 6254SOL    HW130398   1.455   2.803   7.503 -1.7546  1.7370 -1.5675
 6254SOL    HW230399   1.603   2.791   7.510 -0.0041 -0.1797  0.0681
 6255SOL     OW30400   0.727   3.404   5.244  0.3289 -0.2004 -0.2076
 6255SOL    HW130401   0.705   3.313   5.261 -0.3173 -0.1883 -0.9259
 6255SOL    HW230402   0.752   3.438   5.330 -0.1420  0.9515 -0.5287
 6256SOL     OW30403   2.056   4.400   2.622  0.0456  0.3182  0.1949
 6256SOL    HW130404   2.020   4.402   2.534  1.7141 -1.1644 -0.5211
 6256SOL    HW230405   2.148   4.409   2.597  0.0184  1.6486  0.5793
 6257SOL     OW30406   1.443   1.612   1.428 -0.0309  0.1749 -0.1202
 6257SOL    HW130407   1.495   1.532   1.427 -1.1226 -0.5294 -0.7025
 6257SOL    HW230408   1.477   1.662   1.502 -1.8801  0.2094  0.7126
 6258SOL     OW30409   0.217   1.097   2.606  0.2363 -0.1894 -0.1768
 6258SOL    HW130410   0.242   1.013   2.568 -1.3716 -0.3663 -0.8577
 6258SOL    HW230411   0.129   1.079   2.640  0.1742  0.1924 -0.1400
 6259SOL     OW30412   2.664   0.004   4.511  0.0434  0.2572 -0.4285
 6259SOL    HW130413   2.587   4.698   4.551 -0.6884  3.0495  1.0259
 6259SOL    HW230414   2.622   0.039   4.433 -1.2311 -2.2097 -0.8365
 6260SOL     OW30415   0.997   1.612   7.164 -0.0172  0.1793 -0.5277
 6260SOL    HW130416   0.969   1.674   7.232  3.1639  1.4281 -0.3156
 6260SOL    HW230417   0.905   1.588   7.156 -0.9956  2.8314  2.7894
 6261SOL     OW30418   0.645   2.476   5.200  0.0659 -0.2142  0.4057
 6261SOL    HW130419   0.648   2.540   5.129 -0.4442 -0.6140  0.0278
 6261SOL    HW230420   0.736   2.445   5.195  0.2326  0.4590 -0.6581
 6262SOL     OW30421   4.038   2.892   4.181 -0.0196  0.0634  0.2016
 6262SOL    HW130422   4.104   2.825   4.164  1.3681  0.9800  1.8838
 6262SOL    HW230423   4.018   2.916   4.090 -1.4743  1.7057  0.9554
 6263SOL     OW30424   2.285   1.320  14.634 -0.1620  0.0970 -0.5257
 6263SOL    HW130425   2.201   1.363  14.651 -0.7765 -0.9320 -0.9522
 6263SOL    HW230426   2.314   1.313  14.725 -0.1190 -1.8817 -0.6978
 6264SOL     OW30427   0.439   3.654  13.105 -0.0918 -0.6935  0.1332
 6264SOL    HW130428   0.372   3.601  13.149  1.7824 -2.2868  1.0450
 6264SOL    HW230429   0.407   3.742  13.126 -2.5416 -2.0439  2.1076
 6265SOL     OW30430   3.808   0.967  15.569  0.2307 -0.2870  0.2969
 6265SOL    HW130431   3.795   0.881  15.528 -0.3085  0.5797 -1.3397
 6265SOL    HW230432   3.715   0.988  15.583 -0.2411 -2.6356  0.7809
 6266SOL     OW30433   1.235   1.040   0.438 -0.6773  0.0276 -0.3683
 6266SOL    HW130434   1.217   0.946   0.429  1.9008 -0.7142  2.1032
 6266SOL    HW230435   1.219   1.072   0.349 -1.7669  1.1596  0.2358
 6267SOL     OW30436   2.607   0.782   8.766 -0.1554  0.5061 -0.3718
 6267SOL    HW130437   2.606   0.859   8.822  0.5932  0.4302 -0.2510
 6267SOL    HW230438   2.521   0.792   8.726  0.0954  1.2946 -0.7126
 6268SOL     OW30439   0.844   1.432   8.715 -0.0655  0.1543 -0.6239
 6268SOL    HW130440   0.875   1.512   8.758  0.8954 -0.8098  0.4731
 6268SOL    HW230441   0.924   1.393   8.679 -0.0593 -2.4700  2.3433
 6269SOL     OW30442   3.146   3.883   3.151  0.9442  0.3501  0.1911
 6269SOL    HW130443   3.205   3.847   3.217 -0.8349 -0.4595  1.3171
 6269SOL    HW230444   3.147   3.809   3.091 -0.9112  1.3003 -1.0377
 6270SOL     OW30445   0.707   2.796   6.727 -0.1342  0.3303  1.1204
 6270SOL    HW130446   0.631   2.845   6.693 -1.2727 -0.6626  2.2252
 6270SOL    HW230447   0.682   2.708   6.699 -1.7267  0.4937  2.0267
 6271SOL     OW30448   2.712   2.743  17.344  0.0749  0.1837  0.5137
 6271SOL    HW130449   2.751   2.807  17.284  2.1880 -2.3092 -0.7658
 6271SOL    HW230450   2.785   2.689  17.372  0.9546  1.2586  0.3131
 6272SOL     OW30451   1.641   3.963   2.598  0.2941  0.7480 -0.0706
 6272SOL    HW130452   1.655   3.985   2.690  0.1951 -0.0513  0.1414
 6272SOL    HW230453   1.709   4.018   2.561  1.6357  0.2293  1.6105
 6273SOL     OW30454   4.663   4.229   5.790 -0.3217 -0.4233 -0.3531
 6273SOL    HW130455   4.605   4.303   5.773 -1.6912 -1.0050  1.8223
 6273SOL    HW230456   4.679   4.242   5.883 -0.2999 -1.5223 -0.1984
 6274SOL     OW30457   2.520   2.967   2.161  0.1108 -0.5183  0.0692
 6274SOL    HW130458   2.542   3.005   2.246  1.4534 -0.3941 -0.3400
 6274SOL    HW230459   2.450   2.907   2.188  1.7091 -0.8172  3.5296
 6275SOL     OW30460   0.089   1.006  16.423  0.0917  0.4878 -0.2957
 6275SOL    HW130461   0.107   1.003  16.517  1.0217 -0.1907 -0.4892
 6275SOL    HW230462   0.171   1.039  16.386  1.4202 -2.6207 -0.1531
 6276SOL     OW30463   3.405   1.055   4.478  0.4560 -0.3628 -0.2290
 6276SOL    HW130464   3.469   1.019   4.416 -1.2160 -1.4754 -1.2997
 6276SOL    HW230465   3.454   1.082   4.556  1.0702 -2.8169  0.2369
 6277SOL     OW30466   2.042   1.177   1.771 -0.4353 -0.0366 -0.2310
 6277SOL    HW130467   2.132   1.207   1.775  0.4229 -2.3281 -2.6124
 6277SOL    HW230468   2.026   1.153   1.862  1.2887  2.4015  0.7009
 6278SOL     OW30469   1.703   1.823   5.127 -0.5554 -0.5849  0.1517
 6278SOL    HW130470   1.616   1.827   5.168 -0.5251 -1.0551  0.2713
 6278SOL    HW230471   1.749   1.781   5.200 -0.1838  2.7692  1.8277
 6279SOL     OW30472   1.249   1.980   8.132  0.0077  0.2755 -0.0149
 6279SOL    HW130473   1.177   2.006   8.189  0.4039 -1.2520  1.2070
 6279SOL    HW230474   1.329   2.003   8.179  1.0987 -0.6794 -1.4053
 6280SOL     OW30475   0.616   0.657   6.685  0.2010 -0.2183 -0.2935
 6280SOL    HW130476   0.622   0.622   6.774 -0.5577  2.1882  0.7023
 6280SOL    HW230477   0.537   0.618   6.649 -0.1056 -0.6082  0.8178
 6281SOL     OW30478   2.724   2.328   7.490 -0.0818  0.3222 -0.0673
 6281SOL    HW130479   2.685   2.411   7.462  1.4145  1.7149  2.0081
 6281SOL    HW230480   2.712   2.275   7.411 -0.7975 -1.8985  1.5295
 6282SOL     OW30481   4.689   1.984  12.823  0.3065 -0.5114  0.6650
 6282SOL    HW130482   4.697   2.058  12.883 -1.7060 -0.8484  1.3426
 6282SOL    HW230483   0.038   1.989  12.777 -2.1847 -0.8845 -3.9577
 6283SOL     OW30484   2.852   0.446   7.572  0.0553 -0.5868  0.0860
 6283SOL    HW130485   2.924   0.383   7.562  0.1264 -0.4614 -0.1872
 6283SOL    HW230486   2.905   0.492   7.638  0.4808  0.1295 -0.7544
 6284SOL     OW30487   2.344   1.324   2.683 -0.9285 -0.3389 -0.4239
 6284SOL    HW130488   2.253   1.295   2.678 -1.2786  1.0439 -1.7752
 6284SOL    HW230489   2.397   1.270   2.743 -2.1898  1.0877  1.9811
 6285SOL     OW30490   0.246   2.547  14.059  0.2024  0.0142  0.7027
 6285SOL    HW130491   0.231   2.616  14.125  0.2289  0.2696  0.4427
 6285SOL    HW230492   0.170   2.492  14.080 -0.7857  0.6628 -1.1839
 6286SOL     OW30493   1.882   1.123  13.551  0.0937 -0.2547 -0.3833
 6286SOL    HW130494   1.852   1.156  13.467 -3.0663 -0.0795  0.8187
 6286SOL    HW230495   1.973   1.153  13.558 -0.7537  2.8274 -2.8097
 6287SOL     OW30496   3.026   0.894   6.056  0.1616  0.5623  0.4826
 6287SOL    HW130497   2.951   0.838   6.075  0.2394  0.1849 -0.3154
 6287SOL    HW230498   3.090   0.846   6.108  0.8167  2.3000  1.2993
 6288SOL     OW30499   4.097   2.923   2.740 -0.7275 -0.3657  0.2040
 6288SOL    HW130500   4.075   2.999   2.687 -0.0257 -0.6196 -0.4700
 6288SOL    HW230501   4.054   2.849   2.696  1.8301 -2.4756  1.2023
 6289SOL     OW30502   1.980   1.625   8.861  0.6449 -0.0193 -0.0848
 6289SOL    HW130503   2.050   1.684   8.834  0.1315  0.1297 -1.1005
 6289SOL    HW230504   2.004   1.613   8.953 -0.9657 -0.3738  0.2938
 6290SOL     OW30505   1.882   1.415  11.349  0.2193  0.1552  0.2379
 6290SOL    HW130506   1.876   1.492  11.293  1.0695 -1.2284 -1.7789
 6290SOL    HW230507   1.975   1.407  11.370  0.4853  0.9739 -0.6090
 6291SOL     OW30508   1.304   1.819   6.388 -0.4248 -0.3581  0.2294
 6291SOL    HW130509   1.364   1.877   6.343 -0.1933  0.6764  1.8891
 6291SOL    HW230510   1.347   1.733   6.391 -1.9391 -1.1682 -0.9509
 6292SOL     OW30511   2.162   2.013   2.532 -0.1399  0.0767 -0.0737
 6292SOL    HW130512   2.135   2.099   2.566 -1.3580 -0.1063 -0.6100
 6292SOL    HW230513   2.143   1.957   2.607 -0.5155  0.2915 -0.0083
 6293SOL     OW30514   3.637   0.891   5.434 -0.4098  0.2876  0.4223
 6293SOL    HW130515   3.705   0.951   5.403  2.5433 -4.0443 -1.4870
 6293SOL    HW230516   3.565   0.936   5.390  0.1088  1.2345  0.5546
 6294SOL     OW30517   2.105   3.719  16.537 -0.4591 -0.1021 -0.1663
 6294SOL    HW130518   2.118   3.693  16.445  0.3483  1.1463 -0.4052
 6294SOL    HW230519   2.040   3.789  16.535  0.4946  0.7881  0.1292
 6295SOL     OW30520   4.560   0.476  11.067 -0.2901 -0.1796 -0.6235
 6295SOL    HW130521   4.510   0.524  11.133 -0.3776 -2.1015  0.7124
 6295SOL    HW230522   4.501   0.402  11.051 -1.4649  0.4886  0.6320
 6296SOL     OW30523   2.092   2.793  15.972 -0.4261  0.3055  0.4315
 6296SOL    HW130524   2.073   2.850  16.047  3.2498  1.4596  0.4716
 6296SOL    HW230525   2.102   2.713  16.024  0.3353  1.0796  1.4965
 6297SOL     OW30526   3.173   4.245   8.018 -0.3654 -0.7151  0.1657
 6297SOL    HW130527   3.143   4.154   8.012  0.1526 -0.7101 -2.5276
 6297SOL    HW230528   3.225   4.236   8.098  0.7059 -2.0457 -0.6771
 6298SOL     OW30529   2.921   2.396   5.321 -0.2693  0.0656  0.3666
 6298SOL    HW130530   2.851   2.343   5.281  0.2607  1.7396 -2.8024
 6298SOL    HW230531   2.891   2.430   5.405  2.8737  1.6499  0.8474
 6299SOL     OW30532   4.732   3.232   6.775 -0.9136  0.2990  0.1973
 6299SOL    HW130533   4.734   3.303   6.839 -1.3856 -0.3024  0.8833
 6299SOL    HW230534   0.068   3.171   6.795  0.7790  2.2040 -0.0421
 6300SOL     OW30535   4.361   0.285   6.350 -0.0756 -0.4310 -0.0828
 6300SOL    HW130536   4.450   0.264   6.378  0.0273 -2.6823 -2.1099
 6300SOL    HW230537   4.345   0.200   6.308 -0.3945 -1.0754  1.3101
 6301SOL     OW30538   0.401   1.288  11.008  0.1031  0.5571 -0.3088
 6301SOL    HW130539   0.481   1.281  11.059  0.9967  2.8118 -1.3888
 6301SOL    HW230540   0.360   1.361  11.054  2.0630  1.1432  0.5067
 6302SOL     OW30541   2.310   2.666   7.315 -0.1552 -0.3353  0.2581
 6302SOL    HW130542   2.252   2.628   7.250  0.8684 -0.4172 -0.6112
 6302SOL    HW230543   2.390   2.695   7.271 -0.0295  0.8653  1.2778
 6303SOL     OW30544   4.217   1.216   5.173  0.0128 -0.2585  0.1336
 6303SOL    HW130545   4.242   1.125   5.191 -0.9633 -0.7854 -1.1566
 6303SOL    HW230546   4.283   1.265   5.222 -0.4541 -1.8919  2.4014
 6304SOL     OW30547   3.708   3.442   8.640  0.0106  0.0584  0.3171
 6304SOL    HW130548   3.664   3.527   8.638 -0.2892 -0.0982  0.2354
 6304SOL    HW230549   3.654   3.398   8.575  1.2928 -0.8750 -0.1170
 6305SOL     OW30550   1.414   2.401   0.995 -0.3140  0.4121 -0.3731
 6305SOL    HW130551   1.392   2.475   1.053  1.5494  0.5618  0.1531
 6305SOL    HW230552   1.489   2.366   1.043  0.1657  1.6426 -0.2251
 6306SOL     OW30553   4.046   4.251   5.531 -0.1900 -0.3474  0.1558
 6306SOL    HW130554   3.956   4.263   5.501 -0.5885  0.6765  1.7560
 6306SOL    HW230555   4.076   4.168   5.495  1.7983 -0.0541  1.1608
 6307SOL     OW30556   4.519   0.830   5.701 -0.2420 -0.4271 -0.1196
 6307SOL    HW130557   4.433   0.862   5.676  0.8366 -0.1286 -3.4765
 6307SOL    HW230558   4.579   0.872   5.639 -1.2746  0.5382 -0.4571
 6308SOL     OW30559   3.812   3.007   2.728 -0.6516 -0.0834  0.1513
 6308SOL    HW130560   3.827   3.096   2.696 -0.6559 -0.9814 -2.3073
 6308SOL    HW230561   3.769   2.963   2.655 -2.3764  1.8432  0.0165
 6309SOL     OW30562   0.781   1.654   5.050  0.1955 -0.5193 -0.2489
 6309SOL    HW130563   0.791   1.583   5.114  0.3967  1.1374  1.5371
 6309SOL    HW230564   0.823   1.730   5.089  0.4831 -0.2243 -1.1442
 6310SOL     OW30565   3.329   0.519   1.081 -0.3854  0.0055 -0.0638
 6310SOL    HW130566   3.387   0.467   1.026 -0.7111  2.8324 -3.0982
 6310SOL    HW230567   3.383   0.597   1.091  0.5850 -0.5065 -1.2764
 6311SOL     OW30568   0.059   0.120  11.772 -0.3950 -0.3318 -0.4978
 6311SOL    HW130569   0.094   0.033  11.752  1.8296 -0.0745  2.2170
 6311SOL    HW230570   0.122   0.145  11.840 -0.8427 -1.4966  0.3625
 6312SOL     OW30571   1.500   2.500   5.083  0.0678  0.2536  0.0136
 6312SOL    HW130572   1.468   2.503   5.173  1.4730 -1.6482  0.5796
 6312SOL    HW230573   1.439   2.437   5.044 -0.5967  0.7070  0.3372
 6313SOL     OW30574   3.642   0.701   7.898  0.4905 -0.4130 -0.1499
 6313SOL    HW130575   3.621   0.650   7.977 -1.9959 -0.7421 -1.0320
 6313SOL    HW230576   3.629   0.638   7.827  1.2688 -0.8800  0.1218
 6314SOL     OW30577   0.820   0.615   2.852  0.3007  0.0058  0.2701
 6314SOL    HW130578   0.876   0.539   2.869 -1.1226 -0.9894  0.4698
 6314SOL    HW230579   0.747   0.567   2.813 -0.0134  3.1519 -2.9913
 6315SOL     OW30580   0.872   3.353  14.933  0.2553 -0.0255 -0.2042
 6315SOL    HW130581   0.826   3.435  14.918  1.7556  0.8302 -0.1561
 6315SOL    HW230582   0.868   3.316  14.845  0.6139 -1.9411  0.5892
 6316SOL     OW30583   0.019   3.205  13.941 -0.1433  0.4818 -0.5180
 6316SOL    HW130584   4.734   3.292  13.907 -0.4445  0.3346 -0.7133
 6316SOL    HW230585   4.685   3.152  13.902  0.2934  1.1664 -2.2415
 6317SOL     OW30586   1.423   0.093  15.693  0.0154  0.3611 -0.3609
 6317SOL    HW130587   1.485   0.032  15.732 -2.8861 -3.3066 -1.5664
 6317SOL    HW230588   1.425   0.067  15.601  0.7446  2.3071 -0.9169
 6318SOL     OW30589   4.505   3.110   3.802  0.0297 -0.0056 -0.0955
 6318SOL    HW130590   4.448   3.033   3.804  1.1522 -0.8311 -0.0176
 6318SOL    HW230591   4.559   3.102   3.723 -0.8732  0.4181 -0.7556
 6319SOL     OW30592   0.624   2.180   3.744  0.2074  0.1442  0.3052
 6319SOL    HW130593   0.573   2.099   3.751 -0.9889  0.8771  0.1381
 6319SOL    HW230594   0.707   2.139   3.769 -1.0406 -1.5540  1.7706
 6320SOL     OW30595   2.480   0.476  15.970 -0.1450  0.2151  0.1919
 6320SOL    HW130596   2.509   0.479  16.061  0.6772  1.4972 -0.1129
 6320SOL    HW230597   2.522   0.397  15.937  0.1549  0.5090 -0.1285
 6321SOL     OW30598   1.338   0.022  10.747 -0.2789 -0.2662  0.6184
 6321SOL    HW130599   1.414   0.080  10.736  0.8459 -1.8466  0.1355
 6321SOL    HW230600   1.370   4.704  10.820  0.8798  0.1638  0.4288
 6322SOL     OW30601   4.354   0.312  13.701 -0.1321  0.5580  0.0660
 6322SOL    HW130602   4.280   0.354  13.746  0.2909  0.6892  0.6466
 6322SOL    HW230603   4.306   0.237  13.667  0.2416  0.6464 -0.6395
 6323SOL     OW30604   2.880   0.122   2.035  0.0017 -0.0051  0.2526
 6323SOL    HW130605   2.894   0.092   1.945 -1.7555 -0.6648  0.1875
 6323SOL    HW230606   2.785   0.112   2.040  0.2604 -1.4842  2.4855
 6324SOL     OW30607   1.352   1.132   4.367  0.1693  0.2950  0.0039
 6324SOL    HW130608   1.369   1.054   4.419 -3.0396 -1.1668 -1.1625
 6324SOL    HW230609   1.371   1.204   4.427 -2.0629  1.6075 -0.8357
 6325SOL     OW30610   1.109   1.200   0.610  0.2638  0.4092  0.5002
 6325SOL    HW130611   1.133   1.137   0.542  0.5432  0.6102  0.4156
 6325SOL    HW230612   1.126   1.147   0.688 -0.6999 -0.7985 -0.1066
 6326SOL     OW30613   0.088   1.671   1.420  0.0750 -0.1307  0.0748
 6326SOL    HW130614   0.071   1.762   1.396  1.5552  0.3016  0.6645
 6326SOL    HW230615   0.013   1.621   1.388 -0.5070  0.6542  0.1988
 6327SOL     OW30616   0.564   3.983  11.447  0.2144  0.2222 -0.1475
 6327SOL    HW130617   0.536   4.009  11.359  0.7635  0.9293 -0.1190
 6327SOL    HW230618   0.647   3.940  11.426 -0.0046 -0.1242 -0.2967
 6328SOL     OW30619   3.625   2.787  10.712 -0.3563  0.3406 -0.3277
 6328SOL    HW130620   3.664   2.822  10.792 -0.4566 -1.5739  0.5597
 6328SOL    HW230621   3.620   2.699  10.748  0.7633  0.8006  0.9692
 6329SOL     OW30622   0.466   1.670  14.558 -0.2452 -0.0811 -0.1280
 6329SOL    HW130623   0.514   1.712  14.629 -0.2441 -1.1972  0.5244
 6329SOL    HW230624   0.409   1.741  14.529 -3.1767 -2.2798  0.2143
 6330SOL     OW30625   3.977   3.082   5.944  0.2222  0.0043 -0.6420
 6330SOL    HW130626   3.963   2.999   5.990 -1.2800  0.0984 -0.9398
 6330SOL    HW230627   3.887   3.099   5.917 -0.2848 -2.2897 -0.3893
 6331SOL     OW30628   3.044   3.962  14.869 -0.0186 -0.1491 -0.7065
 6331SOL    HW130629   3.102   3.899  14.826 -1.6266 -1.8373 -0.4528
 6331SOL    HW230630   2.987   3.990  14.797 -1.7957 -0.1487  0.6900
 6332SOL     OW30631   4.217   0.462  17.372  0.1186  0.1680  0.3251
 6332SOL    HW130632   4.172   0.500  17.297  1.9990  2.1874  0.2047
 6332SOL    HW230633   4.159   0.394  17.404 -0.0565 -0.1412 -0.6557
 6333SOL     OW30634   3.744   4.287   4.024  0.0410  0.4388  0.4107
 6333SOL    HW130635   3.669   4.248   3.978  0.3923  0.3660 -0.1063
 6333SOL    HW230636   3.730   4.254   4.112  1.6318 -1.8132 -0.1825
 6334SOL     OW30637   1.517   1.677   7.456 -0.5408 -0.2191  0.2933
 6334SOL    HW130638   1.455   1.660   7.527 -0.5072  0.7920  0.5681
 6334SOL    HW230639   1.542   1.590   7.425 -1.0986 -0.7054  1.1930
 6335SOL     OW30640   3.353   3.787   4.969 -0.8194 -0.3940  0.3857
 6335SOL    HW130641   3.427   3.838   4.937 -0.3269  0.4040  2.8318
 6335SOL    HW230642   3.407   3.710   4.985  2.3206  1.6787 -0.2014
 6336SOL     OW30643   2.781   1.312  13.663  0.1932 -0.3824 -0.4986
 6336SOL    HW130644   2.790   1.293  13.570  0.4086 -0.6081 -0.4301
 6336SOL    HW230645   2.686   1.304  13.672  0.2957  0.3745  1.3516
 6337SOL     OW30646   0.965   4.622   5.209 -0.4173 -0.6880  0.3272
 6337SOL    HW130647   1.050   4.660   5.191 -0.8113  0.5212  1.0482
 6337SOL    HW230648   0.944   4.674   5.287  1.1919 -0.5648  0.6794
 6338SOL     OW30649   3.507   1.262   0.328  0.0822  0.3979 -0.0091
 6338SOL    HW130650   3.518   1.278   0.422  1.1766 -0.4086  0.0104
 6338SOL    HW230651   3.600   1.254   0.305  0.2811  0.3317  0.8270
 6339SOL     OW30652   1.307   0.351  14.883  0.1344 -0.2791  0.2711
 6339SOL    HW130653   1.384   0.322  14.834  1.9525  1.4497  2.0911
 6339SOL    HW230654   1.315   0.272  14.936 -1.5557  0.2546  1.2997
 6340SOL     OW30655   4.295   2.106   7.843 -0.1539 -0.4642  0.2434
 6340SOL    HW130656   4.302   2.118   7.749 -0.2482 -1.0835  0.1577
 6340SOL    HW230657   4.223   2.167   7.860  0.5138 -0.1096  1.8946
 6341SOL     OW30658   1.415   0.325   2.755  1.1062  0.1562  0.2676
 6341SOL    HW130659   1.397   0.237   2.787  2.1770  0.4375  1.5883
 6341SOL    HW230660   1.483   0.361   2.811 -0.3318  3.8881 -0.3599
 6342SOL     OW30661   1.849   2.942   0.389 -0.3627  0.7427  0.0630
 6342SOL    HW130662   1.932   2.894   0.383 -1.9674 -1.8582 -1.2537
 6342SOL    HW230663   1.885   3.026   0.419  1.2114  0.1287 -0.1041
 6343SOL     OW30664   2.925   2.115   2.485 -0.3621  0.2688  0.9332
 6343SOL    HW130665   2.888   2.028   2.474 -1.5523  0.8887  0.0509
 6343SOL    HW230666   2.915   2.145   2.394 -1.1027 -0.0497  0.9143
 6344SOL     OW30667   4.583   0.140   2.425  0.3507 -0.3777 -0.0567
 6344SOL    HW130668   4.517   0.111   2.488 -1.7391 -0.4902 -2.3334
 6344SOL    HW230669   4.599   0.054   2.385  0.3117 -1.2329  1.7514
 6345SOL     OW30670   0.036   0.183  16.746 -0.0089 -0.1904 -0.7391
 6345SOL    HW130671   0.126   0.175  16.714  0.5472 -0.3303  0.8849
 6345SOL    HW230672   0.048   0.157  16.837  0.4469 -0.2166 -0.8088
 6346SOL     OW30673   2.109   2.546  12.374  0.0301  0.3830 -0.1168
 6346SOL    HW130674   2.108   2.487  12.449  0.9724 -0.5383 -0.8358
 6346SOL    HW230675   2.157   2.624  12.402  1.3617 -0.8748  1.0422
 6347SOL     OW30676   4.197   2.053   2.172  0.2517 -0.3634  0.4413
 6347SOL    HW130677   4.230   1.979   2.121  1.1016 -0.4119  1.0599
 6347SOL    HW230678   4.146   2.013   2.243 -1.8997 -1.0199 -1.4772
 6348SOL     OW30679   4.394   4.023   4.252 -0.3921  0.5055 -0.5406
 6348SOL    HW130680   4.331   3.951   4.254 -1.0109  1.0268 -0.8569
 6348SOL    HW230681   4.414   4.032   4.159 -0.0376  1.4800 -0.3703
 6349SOL     OW30682   1.119   2.497  11.477  0.4963  0.5484  0.4492
 6349SOL    HW130683   1.154   2.570  11.528 -0.2523  0.0455  1.6698
 6349SOL    HW230684   1.169   2.503  11.395  0.2076  0.8914  0.2948
 6350SOL     OW30685   0.738   0.282   4.733 -0.1241 -0.5980 -1.2293
 6350SOL    HW130686   0.783   0.228   4.798 -1.5294  1.4378  1.4231
 6350SOL    HW230687   0.648   0.250   4.745  0.0874 -0.2676  1.2059
 6351SOL     OW30688   4.111   4.614   4.604 -0.0518  0.4482  0.2292
 6351SOL    HW130689   4.196   4.625   4.646 -1.0356  1.1472  2.0457
 6351SOL    HW230690   4.074   4.554   4.669  0.1533 -0.4248 -0.4608
 6352SOL     OW30691   2.779   1.084   9.476 -0.3839 -0.2907 -0.3002
 6352SOL    HW130692   2.789   1.027   9.400  0.3965  0.5570 -0.8278
 6352SOL    HW230693   2.841   1.041   9.534  0.0898 -0.4591 -0.9333
 6353SOL     OW30694   2.889   3.629   2.527 -0.3490 -0.0758  0.0478
 6353SOL    HW130695   2.813   3.681   2.501 -0.2915 -1.4957 -2.9388
 6353SOL    HW230696   2.889   3.574   2.449  0.9700  0.8662 -0.6036
 6354SOL     OW30697   0.880   1.587   7.895  0.3730 -0.7221 -0.0301
 6354SOL    HW130698   0.897   1.656   7.959 -0.1322  0.9811 -1.7226
 6354SOL    HW230699   0.965   1.582   7.851 -0.4525 -0.7772 -1.6314
 6355SOL     OW30700   2.727   3.777   8.005 -0.9052 -0.0476  0.4618
 6355SOL    HW130701   2.757   3.866   7.989 -0.0371 -0.3572  0.3980
 6355SOL    HW230702   2.727   3.740   7.917  1.8905  0.5482  0.2149
 6356SOL     OW30703   0.157   0.158   2.434  0.0948 -0.4414 -0.3386
 6356SOL    HW130704   0.110   0.076   2.449 -0.5877  0.2573  1.2905
 6356SOL    HW230705   0.202   0.176   2.517  0.2318  1.4146 -0.8157
 6357SOL     OW30706   2.612   1.719  13.001  0.4539  0.6329  0.9857
 6357SOL    HW130707   2.568   1.734  13.085 -0.7268 -1.0336  0.6689
 6357SOL    HW230708   2.550   1.758  12.939 -1.4489 -1.6980  1.4413
 6358SOL     OW30709   0.508   3.061   2.224 -0.0236 -0.6075 -0.5309
 6358SOL    HW130710   0.601   3.084   2.227  0.3390 -2.2230  0.4530
 6358SOL    HW230711   0.471   3.124   2.162 -3.8255 -2.2225  0.1446
 6359SOL     OW30712   4.591   0.349   9.517  0.2111 -0.5483  0.6839
 6359SOL    HW130713   4.498   0.331   9.521  0.1521 -0.2339  0.7923
 6359SOL    HW230714   4.594   0.443   9.496 -0.0322 -1.0185 -1.4035
 6360SOL     OW30715   1.870   2.847   8.269 -0.2891 -0.0160 -0.0757
 6360SOL    HW130716   1.841   2.801   8.190 -0.1478 -1.4642  0.7357
 6360SOL    HW230717   1.795   2.840   8.328  1.3436 -0.3064  1.9557
 6361SOL     OW30718   3.739   0.073   7.905 -0.3023 -0.0662  0.2699
 6361SOL    HW130719   3.809   0.081   7.969  1.3687  2.1463 -1.8666
 6361SOL    HW230720   3.759   4.729   7.854  0.3015 -0.5125  1.2107
 6362SOL     OW30721   3.883   0.608   8.905 -0.6297 -0.3260 -0.6795
 6362SOL    HW130722   3.900   0.702   8.900  0.3992 -0.5906 -2.1635
 6362SOL    HW230723   3.963   0.576   8.945 -0.3101  0.7376 -0.4587
 6363SOL     OW30724   1.878   1.875   4.583 -0.3887  0.5635  0.1457
 6363SOL    HW130725   1.923   1.959   4.599  0.2983  0.1626  0.3277
 6363SOL    HW230726   1.837   1.869   4.669  1.2805  0.7124  0.9575
 6364SOL     OW30727   0.226   0.308   4.601  0.4879  0.2735  0.4855
 6364SOL    HW130728   0.236   0.399   4.575  0.8393 -0.2784 -1.3375
 6364SOL    HW230729   0.249   0.254   4.525 -3.1710  1.5115 -1.4834
 6365SOL     OW30730   0.100   0.597   6.603  0.4315 -0.2111  0.4523
 6365SOL    HW130731   0.115   0.577   6.696  0.9956 -2.2588 -0.0890
 6365SOL    HW230732   0.044   0.674   6.616  0.9905  0.1554  0.6981
 6366SOL     OW30733   2.030   1.085   5.356 -0.1923  0.4781 -0.0387
 6366SOL    HW130734   1.956   1.024   5.351  0.0663  0.2687 -1.3827
 6366SOL    HW230735   2.027   1.126   5.269 -0.9853 -0.8612 -0.6432
 6367SOL     OW30736   1.360   2.445  12.114  0.2976  0.2048  0.6918
 6367SOL    HW130737   1.339   2.525  12.164 -2.2720  0.2944 -0.5136
 6367SOL    HW230738   1.455   2.452  12.124  0.2565 -0.5187  1.6358
 6368SOL     OW30739   1.885   1.778   1.178 -0.8564 -0.3202 -1.0783
 6368SOL    HW130740   1.884   1.683   1.178 -0.6674 -0.3216 -2.8026
 6368SOL    HW230741   1.977   1.785   1.202 -0.5720 -0.1495 -2.2425
 6369SOL     OW30742   4.425   2.954   8.405 -0.2409  0.1244  1.1945
 6369SOL    HW130743   4.340   2.910   8.398  1.0733 -2.5946  2.5490
 6369SOL    HW230744   4.412   3.018   8.475  1.0298  2.2777 -0.5460
 6370SOL     OW30745   0.654   1.990   3.187  0.3409 -0.2778 -0.2044
 6370SOL    HW130746   0.730   2.046   3.199 -0.0977  0.7344 -2.1959
 6370SOL    HW230747   0.628   1.992   3.279  2.5592  2.0674  0.3520
 6371SOL     OW30748   0.997   2.448   6.407 -0.2844 -0.4424  0.2459
 6371SOL    HW130749   1.052   2.373   6.382 -0.0175  0.6046 -2.3019
 6371SOL    HW230750   1.049   2.522   6.375 -1.3989  0.9027  1.5601
 6372SOL     OW30751   0.434   3.628  16.751  0.5683  0.0591 -0.2715
 6372SOL    HW130752   0.383   3.651  16.673 -1.3533  2.1001  1.5561
 6372SOL    HW230753   0.402   3.540  16.770 -0.7318  0.7236  0.7124
 6373SOL     OW30754   0.139   2.646  11.239  0.0792 -0.0675  0.0712
 6373SOL    HW130755   0.199   2.720  11.237 -0.4542  0.4660  3.9119
 6373SOL    HW230756   0.187   2.572  11.278  2.0946  0.3946 -1.5491
 6374SOL     OW30757   4.489   3.885   1.388  0.3269  0.0340  0.1874
 6374SOL    HW130758   4.412   3.891   1.445  1.5445 -0.8728  1.9321
 6374SOL    HW230759   4.552   3.833   1.438 -1.6244 -2.2403  0.3248
 6375SOL     OW30760   1.002   3.875   5.777 -0.0599 -0.4070 -0.1105
 6375SOL    HW130761   1.084   3.851   5.736  0.4325 -0.4367  0.8819
 6375SOL    HW230762   0.982   3.957   5.733 -2.5226 -0.5275  0.7504
 6376SOL     OW30763   0.403   1.366  16.278 -0.0259  0.3927 -0.6547
 6376SOL    HW130764   0.446   1.435  16.227  1.2694  0.8427  1.0910
 6376SOL    HW230765   0.334   1.421  16.316  1.9704  1.6402  1.1003
 6377SOL     OW30766   2.701   0.589   9.206 -0.2529  0.0359  0.1494
 6377SOL    HW130767   2.658   0.577   9.121  0.5430 -2.0939  0.0602
 6377SOL    HW230768   2.649   0.533   9.264 -0.1643 -1.1828 -0.9604
 6378SOL     OW30769   2.507   4.420  13.943  0.0095 -0.2053  0.1468
 6378SOL    HW130770   2.574   4.405  13.876  0.5298 -0.7193  0.7812
 6378SOL    HW230771   2.444   4.450  13.878 -1.2796 -1.6337  0.7631
 6379SOL     OW30772   3.437   2.320   2.409 -0.0552  0.0752  0.4862
 6379SOL    HW130773   3.424   2.287   2.320  0.7728 -0.7230  0.6516
 6379SOL    HW230774   3.470   2.409   2.394  0.1023 -0.0334  0.1773
 6380SOL     OW30775   2.744   2.717  10.908 -0.1559  0.1922  0.6743
 6380SOL    HW130776   2.726   2.649  10.973 -1.1663  0.3491  0.5626
 6380SOL    HW230777   2.784   2.661  10.841  2.1417  1.6116  0.8747
 6381SOL     OW30778   1.701   2.222   5.409 -0.1043 -0.3339  0.2592
 6381SOL    HW130779   1.781   2.174   5.432 -1.4261 -1.2835  2.8392
 6381SOL    HW230780   1.730   2.248   5.321  2.2466  0.6066  1.2842
 6382SOL     OW30781   1.176   4.412   5.789 -0.5294  0.0019  0.1038
 6382SOL    HW130782   1.128   4.496   5.786 -0.3181  0.1734  1.5493
 6382SOL    HW230783   1.182   4.385   5.698 -0.1366  2.4185 -0.5873
 6383SOL     OW30784   4.630   3.750   5.805 -0.3754  0.4806 -0.3399
 6383SOL    HW130785   4.606   3.673   5.856 -1.0171  1.5340  0.9356
 6383SOL    HW230786   4.626   3.722   5.713 -0.9720  0.3586 -0.2719
 6384SOL     OW30787   0.422   0.473   4.901 -0.4926 -0.2905 -0.1046
 6384SOL    HW130788   0.473   0.456   4.980 -0.3991 -1.8278 -0.4891
 6384SOL    HW230789   0.424   0.383   4.867 -0.6715 -0.4124  0.2097
 6385SOL     OW30790   2.767   2.477  16.860  0.1273  0.1431 -0.0152
 6385SOL    HW130791   2.717   2.409  16.815 -0.6072  0.6868 -0.0148
 6385SOL    HW230792   2.757   2.447  16.951  0.5766 -2.2913 -0.7750
 6386SOL     OW30793   0.723   0.819   8.635  0.3791 -1.0068 -0.1582
 6386SOL    HW130794   0.706   0.784   8.548 -0.3221  2.4138 -1.4077
 6386SOL    HW230795   0.705   0.913   8.624  1.4059 -0.7683  0.1200
 6387SOL     OW30796   3.212   4.289   0.960  0.0059 -0.4683 -0.0674
 6387SOL    HW130797   3.136   4.251   1.004 -1.0257  0.4255 -1.0890
 6387SOL    HW230798   3.283   4.227   0.977 -1.3993 -2.1930 -0.4283
 6388SOL     OW30799   1.692   3.731   5.042 -0.3611 -0.5118  0.2289
 6388SOL    HW130800   1.713   3.663   5.105 -0.4242 -0.2358  0.5455
 6388SOL    HW230801   1.736   3.801   5.090 -0.6913  0.1226 -0.3871
 6389SOL     OW30802   2.029   0.522   8.836  0.0376 -0.8772  0.1241
 6389SOL    HW130803   1.998   0.438   8.802  0.5254 -0.1513 -2.0745
 6389SOL    HW230804   2.108   0.522   8.783 -0.2156 -1.8073 -0.2529
 6390SOL     OW30805   2.821   1.475  10.029 -0.7408  0.0307  0.2053
 6390SOL    HW130806   2.850   1.408  10.091  1.7993  0.7829 -0.1966
 6390SOL    HW230807   2.864   1.450   9.947 -2.5703 -2.2634 -0.0703
 6391SOL     OW30808   2.942   1.255   6.431  0.3270 -0.1038  0.0584
 6391SOL    HW130809   2.865   1.307   6.409  1.1727  0.5927 -1.2531
 6391SOL    HW230810   2.917   1.173   6.389 -0.9736 -0.2202  1.0851
 6392SOL     OW30811   1.244   1.728   8.063 -0.4641  0.0057  0.8328
 6392SOL    HW130812   1.179   1.693   8.123 -2.0565 -1.9753 -2.0190
 6392SOL    HW230813   1.233   1.821   8.085  2.3596  0.0362  2.0789
 6393SOL     OW30814   0.998   4.305   9.170 -0.1973  0.1647  0.3772
 6393SOL    HW130815   1.009   4.397   9.193 -1.8274  0.2648  0.7575
 6393SOL    HW230816   0.992   4.262   9.255  0.5830  0.8300  0.7703
 6394SOL     OW30817   3.975   3.146   7.249 -0.1217  0.0108  0.6962
 6394SOL    HW130818   3.886   3.118   7.229 -0.5563  0.2142  2.3033
 6394SOL    HW230819   4.008   3.084   7.314  0.3265  0.3505  0.7901
 6395SOL     OW30820   0.806   1.882   6.586  0.3436  0.2032 -0.5008
 6395SOL    HW130821   0.733   1.943   6.572 -0.6251 -1.1096 -1.2870
 6395SOL    HW230822   0.807   1.830   6.506 -2.4583 -0.3981 -0.1665
 6396SOL     OW30823   2.958   1.355   5.126 -0.0654  0.3130  0.3066
 6396SOL    HW130824   2.996   1.313   5.049 -0.6809 -2.4078  1.4672
 6396SOL    HW230825   3.027   1.411   5.161 -1.1528  0.0829  2.8202
 6397SOL     OW30826   3.895   2.882   0.635 -0.7502  0.2939  0.3656
 6397SOL    HW130827   3.935   2.931   0.707  0.4400 -1.4538  0.8830
 6397SOL    HW230828   3.845   2.950   0.589 -0.2148  0.1806 -0.3767
 6398SOL     OW30829   3.483   1.754  12.693  0.6061 -0.2578  0.0936
 6398SOL    HW130830   3.517   1.767  12.781  1.1033 -1.0530  0.0227
 6398SOL    HW230831   3.411   1.817  12.690  1.7102  0.9269 -1.8561
 6399SOL     OW30832   2.175   1.275   2.352 -0.0631  0.0657  0.0224
 6399SOL    HW130833   2.264   1.308   2.363  0.0560 -0.5392  0.9184
 6399SOL    HW230834   2.139   1.325   2.279 -1.5362  0.1296  0.7877
 6400SOL     OW30835   1.857   0.918   7.227  0.0053  0.1432  0.7548
 6400SOL    HW130836   1.868   1.010   7.252  1.3503  0.4916 -1.0748
 6400SOL    HW230837   1.787   0.896   7.288 -1.0116 -0.9913 -0.8228
 6401SOL     OW30838   1.161   3.959   1.464  0.0347  0.2074 -0.3086
 6401SOL    HW130839   1.180   3.872   1.499 -0.2530  0.6988  1.0740
 6401SOL    HW230840   1.070   3.974   1.489  1.0498 -0.9460  3.9263
 6402SOL     OW30841   1.844   4.516  10.855  0.6239 -0.2685 -0.7128
 6402SOL    HW130842   1.903   4.498  10.928 -0.4691 -1.1390 -0.0373
 6402SOL    HW230843   1.775   4.566  10.899 -0.1188 -1.9869  0.0913
 6403SOL     OW30844   4.040   3.262   3.976  0.4888 -0.3673  0.2235
 6403SOL    HW130845   4.069   3.327   4.040 -0.1142  0.4488 -0.3340
 6403SOL    HW230846   4.117   3.207   3.991 -0.1800 -1.1137  0.9420
 6404SOL     OW30847   3.357   4.370  12.949  0.2550  0.2865 -0.4242
 6404SOL    HW130848   3.392   4.458  12.965 -1.0947  0.9785 -1.3042
 6404SOL    HW230849   3.362   4.334  13.038  3.4424 -0.5452 -0.9202
 6405SOL     OW30850   3.782   3.799  13.022 -0.3620 -0.2182  0.5625
 6405SOL    HW130851   3.838   3.749  13.082  0.6532  0.9004  0.5604
 6405SOL    HW230852   3.710   3.816  13.082  0.0359 -1.9340  1.5220
 6406SOL     OW30853   2.601   4.468   6.657 -0.5162  0.5874  0.6170
 6406SOL    HW130854   2.615   4.377   6.681 -2.7929 -0.0386 -0.4216
 6406SOL    HW230855   2.606   4.465   6.562 -1.6761 -2.2479  0.6554
 6407SOL     OW30856   0.725   1.496   7.101 -0.3688  0.3010 -0.0240
 6407SOL    HW130857   0.646   1.443   7.109 -0.4215  0.5574  1.0829
 6407SOL    HW230858   0.766   1.470   7.018  0.8066  1.0569  0.3321
 6408SOL     OW30859   3.756   4.694   6.573 -0.4840  0.2602  0.0777
 6408SOL    HW130860   3.729   4.655   6.656  0.5028  1.3543  0.9186
 6408SOL    HW230861   3.847   4.711   6.598 -0.3929 -0.7510  0.4029
 6409SOL     OW30862   1.561   2.162   5.629  0.3099 -0.5916  0.3941
 6409SOL    HW130863   1.643   2.127   5.664  0.5376  0.0154  0.4825
 6409SOL    HW230864   1.590   2.189   5.541  3.0024 -0.4175  1.3388
 6410SOL     OW30865   3.833   1.409  12.980  0.0937  0.1664  0.4110
 6410SOL    HW130866   3.886   1.377  13.053  2.8607 -0.0792 -1.6811
 6410SOL    HW230867   3.759   1.351  12.995 -0.5851  1.1064  0.7068
 6411SOL     OW30868   1.427   1.418  10.161  0.2881  0.7056 -0.2610
 6411SOL    HW130869   1.505   1.424  10.106  0.9563 -0.0412  0.6016
 6411SOL    HW230870   1.390   1.506  10.154 -1.2961  0.0270 -0.3968
 6412SOL     OW30871   0.077   4.132   5.331  0.3886 -0.5713 -0.5539
 6412SOL    HW130872   4.731   4.082   5.334  1.7050 -2.6487  0.3124
 6412SOL    HW230873   0.056   4.188   5.406 -0.3892  0.6275 -1.6643
 6413SOL     OW30874   1.880   0.297   5.773  0.9163 -0.4096  0.3139
 6413SOL    HW130875   1.968   0.322   5.747 -0.4023  1.2989 -2.5861
 6413SOL    HW230876   1.861   0.376   5.823 -1.5189 -1.5868  1.2504
 6414SOL     OW30877   3.004   2.291   4.645 -0.7576  0.0819 -0.2418
 6414SOL    HW130878   3.026   2.289   4.552 -2.4206 -1.7458 -0.5968
 6414SOL    HW230879   2.932   2.230   4.634 -1.6504  1.2490 -0.8955
 6415SOL     OW30880   2.454   2.117   3.073 -0.3737  0.4475 -0.4039
 6415SOL    HW130881   2.485   2.136   3.161 -0.3025  0.9959 -0.5475
 6415SOL    HW230882   2.400   2.196   3.065  0.1431  0.9224  0.8547
 6416SOL     OW30883   4.098   2.159   6.432 -0.1841  0.0440  0.2505
 6416SOL    HW130884   4.116   2.216   6.507  0.5120  1.7602 -1.2117
 6416SOL    HW230885   4.058   2.216   6.366 -1.1434 -1.3771 -0.4119
 6417SOL     OW30886   3.379   0.688  14.530 -0.0970 -0.1270 -0.0053
 6417SOL    HW130887   3.329   0.608  14.545 -1.6058  1.0231  1.1295
 6417SOL    HW230888   3.336   0.724  14.452  0.2022 -0.3141 -0.2542
 6418SOL     OW30889   1.388   3.099  13.466 -0.3774  0.1967 -0.1172
 6418SOL    HW130890   1.360   3.110  13.375 -0.2998 -2.7428 -0.4877
 6418SOL    HW230891   1.325   3.031  13.490  1.8734 -1.6364  0.5340
 6419SOL     OW30892   0.925   2.014  14.001 -0.4905  0.3860 -0.0323
 6419SOL    HW130893   0.963   2.034  14.086 -0.1185 -1.1390  0.1589
 6419SOL    HW230894   0.874   1.937  14.024  1.5529 -2.1289 -3.8339
 6420SOL     OW30895   4.556   2.879   9.240 -0.5821  0.4310 -0.5643
 6420SOL    HW130896   4.588   2.808   9.184 -1.9484 -0.7516  0.1593
 6420SOL    HW230897   4.462   2.868   9.223 -1.2505  0.0489  3.5501
 6421SOL     OW30898   0.742   3.808   2.196  0.0629 -0.1977 -0.2096
 6421SOL    HW130899   0.759   3.756   2.118 -0.0895 -0.0578 -0.3359
 6421SOL    HW230900   0.832   3.835   2.216 -0.0339 -0.0185 -0.0259
 6422SOL     OW30901   0.456   1.502   2.745 -0.6091 -0.4618  1.0251
 6422SOL    HW130902   0.550   1.491   2.758 -0.0881  1.3239 -1.3440
 6422SOL    HW230903   0.425   1.429   2.691 -1.3268 -0.3153  1.2380
 6423SOL     OW30904   0.784   4.228  11.431 -0.4459 -0.2723  0.2410
 6423SOL    HW130905   0.771   4.133  11.434 -0.2160 -0.3652 -2.4905
 6423SOL    HW230906   0.829   4.252  11.512  2.4254 -2.0464 -0.8284
 6424SOL     OW30907   1.167   0.195  15.246 -0.0902 -0.1473  0.6422
 6424SOL    HW130908   1.217   0.180  15.326 -2.1062 -3.1975  1.3232
 6424SOL    HW230909   1.171   0.291  15.254 -1.1883 -0.0907  0.6028
 6425SOL     OW30910   2.307   1.391  11.129 -0.0552 -0.0767  0.7355
 6425SOL    HW130911   2.353   1.446  11.065 -2.4362  0.2179 -0.7230
 6425SOL    HW230912   2.272   1.318  11.078  1.9290 -1.4716  1.3792
 6426SOL     OW30913   0.550   1.491   8.405  0.0051 -0.3090 -0.6774
 6426SOL    HW130914   0.529   1.398   8.397  0.7533 -0.4046 -1.4993
 6426SOL    HW230915   0.483   1.518   8.469 -0.4346 -2.1834 -0.3486
 6427SOL     OW30916   1.576   1.088   2.228  0.9702  0.3625 -0.2017
 6427SOL    HW130917   1.486   1.090   2.262  1.0637 -1.6299  0.1859
 6427SOL    HW230918   1.567   1.038   2.147  0.6858 -0.1334  0.1352
 6428SOL     OW30919   3.198   1.014   4.113 -0.3883  0.4190  0.1424
 6428SOL    HW130920   3.240   0.972   4.037  0.1580 -0.5807  0.9936
 6428SOL    HW230921   3.256   1.086   4.137 -0.7289  0.5965  0.4336
 6429SOL     OW30922   1.530   4.278   8.327  0.4763  0.0257  0.0585
 6429SOL    HW130923   1.546   4.365   8.363  0.6268 -0.3666  0.9623
 6429SOL    HW230924   1.522   4.232   8.411 -1.0491  0.7790  0.3316
 6430SOL     OW30925   2.919   4.417  13.075  0.0335  0.2162  0.1906
 6430SOL    HW130926   2.941   4.332  13.112 -0.2566  0.7538  1.5794
 6430SOL    HW230927   3.007   4.454  13.070  0.1249 -0.3737 -2.5727
 6431SOL     OW30928   0.542   2.081   9.170 -0.1765  0.0617  1.4586
 6431SOL    HW130929   0.454   2.076   9.207 -0.2634  0.1314  1.2590
 6431SOL    HW230930   0.549   2.165   9.124  0.7985 -0.1729  1.1723
 6432SOL     OW30931   2.723   0.342   4.707  0.0176  0.3357  0.3057
 6432SOL    HW130932   2.795   0.380   4.756 -1.5786  0.9035  2.2208
 6432SOL    HW230933   2.765   0.265   4.670  2.3065  2.0013 -0.5423
 6433SOL     OW30934   0.637   1.890   2.493 -0.1227 -0.2966 -0.5580
 6433SOL    HW130935   0.565   1.837   2.527 -1.7819  0.5687 -2.7552
 6433SOL    HW230936   0.668   1.864   2.406  2.6302 -0.2184  0.3722
 6434SOL     OW30937   3.415   4.187   8.148  0.2665 -0.2614  0.6440
 6434SOL    HW130938   3.493   4.235   8.177 -0.0856  0.7464 -0.1121
 6434SOL    HW230939   3.429   4.118   8.214  0.3470  0.2116  1.1169
 6435SOL     OW30940   4.596   3.162   3.321 -0.3119 -0.5161 -0.6006
 6435SOL    HW130941   4.582   3.103   3.247 -2.3717  1.1200 -1.4851
 6435SOL    HW230942   4.561   3.243   3.286 -1.9171 -0.5960  0.7943
 6436SOL     OW30943   2.228   0.814   4.385  0.3448 -0.2452 -0.2266
 6436SOL    HW130944   2.302   0.868   4.357 -1.8711  3.4425  1.0488
 6436SOL    HW230945   2.176   0.826   4.306 -0.0336 -0.6908 -0.0411
 6437SOL     OW30946   3.167   0.475  14.269  0.1258  0.2661  0.4947
 6437SOL    HW130947   3.150   0.383  14.289 -1.1126  0.6186  1.0824
 6437SOL    HW230948   3.191   0.469  14.176 -0.2012  1.7653  0.2943
 6438SOL     OW30949   2.998   1.246   4.883  0.4387  0.3636  0.0186
 6438SOL    HW130950   2.962   1.279   4.800 -0.8618 -1.9932 -0.3287
 6438SOL    HW230951   3.074   1.207   4.838 -1.6221 -1.4285 -1.8925
 6439SOL     OW30952   3.772   3.155   8.092 -0.3562 -0.1236  0.3537
 6439SOL    HW130953   3.700   3.207   8.126  0.2390  0.7558  0.2646
 6439SOL    HW230954   3.734   3.069   8.110 -0.4723  0.0411  0.8846
 6440SOL     OW30955   0.806   4.568  12.077  0.5410  0.0920  0.0377
 6440SOL    HW130956   0.833   4.500  12.015  1.8288 -0.0806  0.7862
 6440SOL    HW230957   0.792   4.643  12.020  1.4837 -0.0721 -0.4205
 6441SOL     OW30958   4.567   3.670   6.990 -0.9176 -0.5328 -0.1837
 6441SOL    HW130959   4.501   3.728   7.028 -0.4344  0.5019 -0.9500
 6441SOL    HW230960   4.650   3.716   7.002 -1.1921 -0.1742  0.3338
 6442SOL     OW30961   3.344   3.464   6.890  0.1260  0.1100  0.1308
 6442SOL    HW130962   3.322   3.531   6.955 -0.5160  1.7626 -1.7917
 6442SOL    HW230963   3.434   3.443   6.913  0.0239  0.6108  0.9837
 6443SOL     OW30964   2.991   0.629   2.544  0.1672  0.2575  0.1170
 6443SOL    HW130965   2.986   0.668   2.457  2.3484  0.2482 -0.0199
 6443SOL    HW230966   2.948   0.692   2.602 -0.4983 -0.5672  0.5224
 6444SOL     OW30967   3.092   1.418   4.292  0.9503 -0.0523  0.1312
 6444SOL    HW130968   3.026   1.487   4.290  0.5898 -0.5140 -3.2969
 6444SOL    HW230969   3.051   1.347   4.244  1.5151  0.8652 -1.7004
 6445SOL     OW30970   4.344   1.401   7.840 -0.2574 -0.0888 -0.0812
 6445SOL    HW130971   4.423   1.347   7.841 -1.7289 -2.2724 -0.3834
 6445SOL    HW230972   4.330   1.430   7.930  0.4420  0.9140 -0.2934
 6446SOL     OW30973   1.323   2.625  12.336 -0.7711  0.0040  0.0513
 6446SOL    HW130974   1.238   2.661  12.361 -0.1234 -0.2809  2.6400
 6446SOL    HW230975   1.367   2.628  12.420 -2.0315 -1.1506  0.7548
 6447SOL     OW30976   1.291   2.451   5.939  0.8277  0.4783  0.0972
 6447SOL    HW130977   1.200   2.480   5.926  0.4066 -0.1437  1.6237
 6447SOL    HW230978   1.324   2.516   6.001 -2.7131  0.7654  1.7226
 6448SOL     OW30979   4.406   3.763  15.491 -0.3836 -0.2110 -0.3166
 6448SOL    HW130980   4.444   3.691  15.441  0.7098  0.6267 -0.6893
 6448SOL    HW230981   4.424   3.848  15.449 -0.3857 -0.7692 -1.4609
 6449SOL     OW30982   3.995   0.038   6.644 -0.1446 -0.0138  0.5872
 6449SOL    HW130983   4.035   0.057   6.729  1.0942  0.2889 -0.0518
 6449SOL    HW230984   4.073   0.022   6.591  0.3898  1.5179  0.8812
 6450SOL     OW30985   0.101   1.396   7.406  0.6198 -0.6238 -0.0036
 6450SOL    HW130986   0.141   1.422   7.490 -1.5804  0.0690  0.8466
 6450SOL    HW230987   0.012   1.373   7.434 -0.0998  1.0264 -0.9025
 6451SOL     OW30988   1.464   1.090   3.025  0.0319  0.0151 -0.0136
 6451SOL    HW130989   1.377   1.074   2.990  0.3819  0.4607 -1.0914
 6451SOL    HW230990   1.440   1.177   3.056  0.6044 -0.0552  0.6237
 6452SOL     OW30991   0.044   2.661  12.346  0.4389  0.1649 -0.4271
 6452SOL    HW130992   0.123   2.610  12.365  1.5997  0.9864 -3.1538
 6452SOL    HW230993   0.068   2.707  12.266 -1.4223  0.8861 -0.5704
 6453SOL     OW30994   1.954   2.581   5.232  0.2956 -0.1116 -0.3448
 6453SOL    HW130995   2.007   2.606   5.157 -0.4827  0.9317 -0.5565
 6453SOL    HW230996   1.913   2.503   5.194 -3.9106  0.3532  3.2059
 6454SOL     OW30997   0.747   0.780  10.881 -0.1841  0.1689  0.5738
 6454SOL    HW130998   0.662   0.745  10.907  0.0119  1.7710  3.4833
 6454SOL    HW230999   0.780   0.813  10.965 -0.4983 -0.4590  0.9447
 6455SOL     OW31000   1.648   3.080  11.962  0.0293 -0.4130 -0.1816
 6455SOL    HW131001   1.623   3.077  11.870  0.5630 -3.6042 -0.2171
 6455SOL    HW231002   1.630   2.988  11.984 -0.3655 -0.5503 -1.1013
 6456SOL     OW31003   4.121   0.270  11.871 -0.0010 -0.0418  0.6627
 6456SOL    HW131004   4.192   0.255  11.933  0.5545 -0.1182  0.0035
 6456SOL    HW231005   4.152   0.224  11.793 -0.9481 -0.1229  0.3325
 6457SOL     OW31006   0.793   3.490   2.760 -0.0991  0.8061  0.0399
 6457SOL    HW131007   0.815   3.562   2.701 -0.7948  2.2797  1.5715
 6457SOL    HW231008   0.730   3.451   2.699 -0.3788 -1.7150  1.9169
 6458SOL     OW31009   3.708   2.917   4.717  0.4005 -0.6264  0.3425
 6458SOL    HW131010   3.683   2.959   4.799  0.4442  0.2204 -0.0792
 6458SOL    HW231011   3.796   2.951   4.699 -1.0598  1.9076 -2.0885
 6459SOL     OW31012   3.650   0.707   8.755 -0.3958  0.0967  0.4938
 6459SOL    HW131013   3.707   0.703   8.678  0.4435 -0.5402  1.1429
 6459SOL    HW231014   3.692   0.638   8.807  0.1706 -0.2201 -0.3879
 6460SOL     OW31015   3.045   4.082   8.751  0.4319  0.7384 -0.2243
 6460SOL    HW131016   3.059   3.987   8.746  1.8414  0.8837  0.9981
 6460SOL    HW231017   3.005   4.099   8.666 -0.2635  3.1055  0.5788
 6461SOL     OW31018   1.886   3.169  12.483  0.0531 -0.2159 -0.7798
 6461SOL    HW131019   1.968   3.182  12.435  0.0786  0.2184 -0.6190
 6461SOL    HW231020   1.823   3.185  12.414 -0.0617 -0.3720 -0.7098
 6462SOL     OW31021   3.590   2.095   8.433 -0.2891  0.2613 -0.1614
 6462SOL    HW131022   3.553   2.030   8.493 -0.4710  0.3047 -0.2260
 6462SOL    HW231023   3.600   2.169   8.493 -1.8759  0.7649 -0.5253
 6463SOL     OW31024   3.089   1.471   0.632  0.1290 -0.6592 -0.0340
 6463SOL    HW131025   3.002   1.490   0.666  1.3086  0.6066  2.2670
 6463SOL    HW231026   3.106   1.546   0.574  0.5731 -0.9793 -0.3219
 6464SOL     OW31027   0.047   1.230   3.032 -0.1718 -0.2164  0.1974
 6464SOL    HW131028   0.128   1.258   2.989 -1.7767  2.5268 -1.0260
 6464SOL    HW231029   0.064   1.139   3.057 -0.5301 -0.4840 -0.5395
 6465SOL     OW31030   4.021   0.278  10.751 -0.4285  0.0904 -0.2883
 6465SOL    HW131031   4.039   0.274  10.845  1.1671 -0.6497 -0.6287
 6465SOL    HW231032   4.109   0.302  10.723  0.3982 -0.5189  1.8019
 6466SOL     OW31033   2.980   0.098   2.298  0.1899 -0.3557  0.0950
 6466SOL    HW131034   2.975   0.102   2.203 -0.4129  2.5234  0.2625
 6466SOL    HW231035   2.888   0.102   2.325  0.4982 -0.4071  1.1485
 6467SOL     OW31036   3.402   2.400   6.854 -0.3430  0.2185 -0.2815
 6467SOL    HW131037   3.340   2.346   6.807 -0.1060 -2.8761  2.9673
 6467SOL    HW231038   3.459   2.438   6.787  0.3715 -0.0434  0.1767
 6468SOL     OW31039   0.708   4.277   9.326 -0.3502 -0.2560  0.2463
 6468SOL    HW131040   0.632   4.315   9.369 -0.1802 -2.9366  2.9676
 6468SOL    HW231041   0.693   4.302   9.235  2.0206  2.7568  0.6878
 6469SOL     OW31042   1.807   1.061   5.798 -0.3338 -0.4934 -0.3228
 6469SOL    HW131043   1.822   1.037   5.706 -2.2609 -0.5805 -0.6108
 6469SOL    HW231044   1.715   1.085   5.791  0.1246  0.6032 -2.9829
 6470SOL     OW31045   1.852   4.396  14.837  0.2616  0.3117 -0.4830
 6470SOL    HW131046   1.843   4.478  14.885  1.0466  2.0886 -3.3606
 6470SOL    HW231047   1.941   4.403  14.803  0.6996  0.5522  0.7331
 6471SOL     OW31048   4.598   0.019  15.571 -0.2488 -0.1268 -0.1397
 6471SOL    HW131049   4.688   0.041  15.546 -0.0673 -2.0605 -1.1661
 6471SOL    HW231050   4.582   4.686  15.505  0.4022  2.3403 -2.8307
 6472SOL     OW31051   4.107   2.913   8.494 -0.1414 -0.1273 -0.3367
 6472SOL    HW131052   4.056   2.899   8.574  0.2966 -0.3536 -0.1011
 6472SOL    HW231053   4.047   2.957   8.434  0.6993  1.9383  0.3614
 6473SOL     OW31054   2.008   3.878   2.821 -0.5252 -0.4117 -0.1757
 6473SOL    HW131055   1.977   3.844   2.736  0.2398 -1.2699 -0.1175
 6473SOL    HW231056   2.004   3.973   2.816  0.3233 -0.2678  1.9911
 6474SOL     OW31057   0.559   1.790   6.086 -0.5033  0.2275 -0.1599
 6474SOL    HW131058   0.511   1.871   6.071  1.4238  1.3146 -0.5233
 6474SOL    HW231059   0.580   1.755   6.000 -0.6243 -0.6269  0.1621
 6475SOL     OW31060   4.649   2.359   8.613 -0.6161 -0.6389 -0.5484
 6475SOL    HW131061   4.703   2.409   8.675 -0.3394 -0.1506 -1.1904
 6475SOL    HW231062   4.582   2.343   8.680  0.8281  0.7046  1.2257
 6476SOL     OW31063   4.525   3.665   0.608 -0.1912 -0.3118  0.4318
 6476SOL    HW131064   4.539   3.709   0.691 -1.3960  1.8359 -0.4943
 6476SOL    HW231065   4.597   3.603   0.616  0.3442 -0.0018 -1.9959
 6477SOL     OW31066   0.099   2.775  13.792  0.1116 -0.0957  0.2723
 6477SOL    HW131067   0.060   2.847  13.741  1.1042  0.0663 -0.2584
 6477SOL    HW231068   0.110   2.815  13.879 -0.2084  1.2694 -0.3124
 6478SOL     OW31069   4.501   3.452  16.901  0.6278 -0.6590  0.6544
 6478SOL    HW131070   4.565   3.384  16.880  0.2390 -1.5199  2.2711
 6478SOL    HW231071   4.426   3.393  16.907 -0.0137  0.0107 -0.7146
 6479SOL     OW31072   0.008   3.086   8.333  0.2273  0.0866  0.1788
 6479SOL    HW131073   4.680   3.144   8.290 -0.7654 -2.5676 -2.0236
 6479SOL    HW231074   4.691   3.018   8.375  1.2705 -1.3135 -0.7699
 6480SOL     OW31075   1.999   3.224   5.709 -0.4267 -0.5842  0.3017
 6480SOL    HW131076   1.962   3.267   5.785 -1.4960 -2.2993  0.7528
 6480SOL    HW231077   2.084   3.200   5.747 -0.5388 -0.3037  0.7182
 6481SOL     OW31078   3.074   0.771   8.391 -0.0741  0.5815  0.8504
 6481SOL    HW131079   3.144   0.715   8.424  0.1949  1.5164  1.8758
 6481SOL    HW231080   3.055   0.738   8.303  0.7571  1.8323  0.2005
 6482SOL     OW31081   4.590   3.645   5.566  0.1535 -0.6309  0.3491
 6482SOL    HW131082   4.546   3.677   5.488 -0.2761 -0.0219  0.8381
 6482SOL    HW231083   4.636   3.564   5.545 -0.0303 -0.7692  0.4837
 6483SOL     OW31084   0.565   2.711   3.150  0.3508 -0.0931 -0.2323
 6483SOL    HW131085   0.583   2.792   3.197  0.5232  1.1014 -2.3502
 6483SOL    HW231086   0.546   2.656   3.226  0.3098 -2.7557 -2.1326
 6484SOL     OW31087   1.759   1.896  11.561  0.3782 -0.1879 -0.1506
 6484SOL    HW131088   1.740   1.951  11.486 -2.7044 -0.7565  0.2053
 6484SOL    HW231089   1.775   1.963  11.628  0.8081  1.1387 -1.5873
 6485SOL     OW31090   2.608   3.710   4.460 -0.2188 -0.4334  0.2630
 6485SOL    HW131091   2.549   3.763   4.407  0.1637 -0.0384  0.2293
 6485SOL    HW231092   2.627   3.637   4.402  2.9513 -1.0322  2.0530
 6486SOL     OW31093   1.892   0.494   2.263  0.3654 -0.0819  0.5613
 6486SOL    HW131094   1.967   0.538   2.304 -1.0174  2.4470  0.3603
 6486SOL    HW231095   1.859   0.560   2.203  1.4871 -1.8255 -1.9866
 6487SOL     OW31096   0.909   3.441   0.238  0.1301  0.7623 -0.0364
 6487SOL    HW131097   0.900   3.473   0.149 -1.0298 -0.4966 -0.3750
 6487SOL    HW231098   0.955   3.362   0.210  0.6224  0.7439  0.8005
 6488SOL     OW31099   3.794   1.419   7.150  0.3853  0.3350 -0.3297
 6488SOL    HW131100   3.844   1.408   7.231  0.7195  1.7622 -0.3243
 6488SOL    HW231101   3.818   1.340   7.101 -1.1542  0.2648 -0.9555
 6489SOL     OW31102   0.437   0.959   8.313 -0.2870  0.3755  0.0155
 6489SOL    HW131103   0.347   0.934   8.333  0.2737 -1.2029  0.6070
 6489SOL    HW231104   0.443   0.960   8.218  0.0908  1.3453  0.0452
 6490SOL     OW31105   1.148   4.686   2.751  0.2201  0.0115 -1.1561
 6490SOL    HW131106   1.190   0.007   2.687  0.2979  2.3047  0.8932
 6490SOL    HW231107   1.213   4.618   2.771 -0.8751 -0.4223  0.9222
 6491SOL     OW31108   0.256   3.478   4.930 -0.1669  0.1807  0.2854
 6491SOL    HW131109   0.173   3.452   4.970  0.3885  1.6083  2.3714
 6491SOL    HW231110   0.223   3.534   4.859 -3.6112 -0.5572  1.3276
 6492SOL     OW31111   0.989   4.290  14.480  0.0148 -0.5018 -0.3003
 6492SOL    HW131112   0.942   4.225  14.532  0.6340 -1.6354 -1.1484
 6492SOL    HW231113   0.967   4.375  14.518  1.6729  0.4287 -1.4570
 6493SOL     OW31114   1.327   3.031   9.957 -0.0988 -0.1741  0.0201
 6493SOL    HW131115   1.283   3.071   9.882  2.7740 -0.7220 -1.9915
 6493SOL    HW231116   1.406   3.075   9.924  0.3157  1.3258  2.9503
 6494SOL     OW31117   2.578   3.586   4.971 -0.1626  0.0015 -0.1895
 6494SOL    HW131118   2.569   3.662   5.029 -0.0324  0.6019 -0.9484
 6494SOL    HW231119   2.592   3.643   4.895  2.9686 -0.8205 -0.2317
 6495SOL     OW31120   1.422   4.395   6.475  0.1248 -0.3715  0.1240
 6495SOL    HW131121   1.508   4.384   6.515 -0.5338 -0.2552  1.5578
 6495SOL    HW231122   1.395   4.308   6.447 -0.7608 -0.5933  1.7042
 6496SOL     OW31123   0.447   2.261   2.048  0.3677  0.2431 -0.0157
 6496SOL    HW131124   0.444   2.178   2.095 -1.0512 -0.3145 -1.0805
 6496SOL    HW231125   0.439   2.235   1.956 -0.2794  0.9949 -0.1791
 6497SOL     OW31126   1.381   0.238   3.540  0.1833  0.3939 -0.1256
 6497SOL    HW131127   1.320   0.311   3.530  0.3530  0.5521 -0.0152
 6497SOL    HW231128   1.388   0.234   3.635  1.0368 -1.1833 -0.2545
 6498SOL     OW31129   1.397   0.122   5.500  0.0947 -0.4314  0.1628
 6498SOL    HW131130   1.322   0.171   5.535 -0.3808 -0.9904 -0.0670
 6498SOL    HW231131   1.368   0.032   5.514  0.0159 -0.2366  1.2863
 6499SOL     OW31132   0.510   1.102  14.725 -0.1304 -0.4775 -0.1519
 6499SOL    HW131133   0.453   1.130  14.796 -0.9929  2.3081 -1.9233
 6499SOL    HW231134   0.592   1.150  14.739 -0.5623 -0.1323  1.2606
 6500SOL     OW31135   3.815   1.545  11.129 -0.1736 -0.4197 -0.0591
 6500SOL    HW131136   3.809   1.496  11.047 -0.0967  1.5457 -1.2171
 6500SOL    HW231137   3.756   1.495  11.187  1.8542 -0.2865  2.1253
 6501SOL     OW31138   1.885   4.587   3.304  0.0242  0.5413 -0.4716
 6501SOL    HW131139   1.948   4.522   3.272 -0.6840 -0.6032  0.4374
 6501SOL    HW231140   1.906   4.579   3.397 -2.4898  0.1283  0.0448
 6502SOL     OW31141   2.913   4.038  16.235  0.3727 -0.8642 -0.1587
 6502SOL    HW131142   2.840   3.977  16.235  1.0947 -1.7347  0.5111
 6502SOL    HW231143   2.954   4.021  16.150 -0.6903  1.6277 -1.1555
 6503SOL     OW31144   1.751   2.186   6.996  0.3191 -0.0967  0.6966
 6503SOL    HW131145   1.725   2.103   7.037  2.3062  0.3752  2.8308
 6503SOL    HW231146   1.662   2.213   6.971  0.9185 -0.6922 -2.1506
 6504SOL     OW31147   0.947   3.183  16.700  0.1654 -0.3127 -0.5044
 6504SOL    HW131148   1.035   3.209  16.674 -0.5805  2.7789  0.1203
 6504SOL    HW231149   0.903   3.183  16.616 -0.7027  0.7379 -0.0434
 6505SOL     OW31150   1.781   3.809  12.253  0.0226  0.0169 -0.2966
 6505SOL    HW131151   1.849   3.758  12.296 -1.6088  0.0042  2.2444
 6505SOL    HW231152   1.726   3.739  12.219 -2.0353  1.5105 -0.0612
 6506SOL     OW31153   0.203   2.035   1.221  0.5875 -0.3649 -0.2081
 6506SOL    HW131154   0.286   1.994   1.198 -0.3107 -0.4752 -3.2210
 6506SOL    HW231155   0.194   2.118   1.174 -0.1818 -0.7327 -0.7110
 6507SOL     OW31156   0.560   2.920   1.873  0.2771 -0.1337 -0.2898
 6507SOL    HW131157   0.513   2.852   1.921  0.2566 -0.1233 -0.2952
 6507SOL    HW231158   0.621   2.946   1.941 -1.2056 -0.5860  1.2218
 6508SOL     OW31159   2.202   4.223   3.253 -0.5020  0.7634  0.2513
 6508SOL    HW131160   2.294   4.209   3.234 -0.8428 -0.6434 -0.3195
 6508SOL    HW231161   2.159   4.146   3.216  0.2780 -1.1861  3.3945
 6509SOL     OW31162   0.855   0.060   3.216 -0.0621 -0.1242  0.2664
 6509SOL    HW131163   0.806   0.042   3.297 -0.8859 -1.0568 -0.4378
 6509SOL    HW231164   0.888   4.705   3.208 -0.8741 -0.2153 -1.8741
 6510SOL     OW31165   0.615   1.448  16.064  0.5611 -0.0015 -0.4322
 6510SOL    HW131166   0.595   1.399  15.984 -1.2694  0.5116 -0.2996
 6510SOL    HW231167   0.632   1.374  16.121 -0.9190  0.8432  1.1000
 6511SOL     OW31168   0.426   0.170   7.919 -0.4974  0.1064  0.0160
 6511SOL    HW131169   0.461   0.227   7.851  1.0278  0.5376  1.1475
 6511SOL    HW231170   0.333   0.183   7.900 -0.0026  1.7218 -1.3190
 6512SOL     OW31171   0.782   3.916   5.527 -0.2326 -0.9784  0.0952
 6512SOL    HW131172   0.750   4.004   5.506 -0.2882 -1.2266 -0.9013
 6512SOL    HW231173   0.877   3.930   5.516 -0.4434 -0.6650 -1.4255
 6513SOL     OW31174   3.237   3.333  13.222 -0.2960 -0.3227  0.3532
 6513SOL    HW131175   3.218   3.342  13.316  1.4721 -0.3860  0.7340
 6513SOL    HW231176   3.208   3.419  13.191 -1.8742 -0.5676  1.1577
 6514SOL     OW31177   1.063   4.729  12.005  0.0897 -0.3702  0.0192
 6514SOL    HW131178   1.093   0.084  11.994  1.1148 -0.7947 -0.6397
 6514SOL    HW231179   0.971   0.008  11.981 -0.1209  1.5678  1.9800
 6515SOL     OW31180   1.461   1.128   3.720  0.4255  0.6894  0.7056
 6515SOL    HW131181   1.503   1.147   3.636 -1.5480 -1.9344 -0.8600
 6515SOL    HW231182   1.459   1.034   3.705 -2.9306  0.8618  0.2077
 6516SOL     OW31183   1.109   1.563   4.889  0.2493 -0.1670 -0.1601
 6516SOL    HW131184   1.093   1.521   4.974 -2.1467 -1.3131 -1.1756
 6516SOL    HW231185   1.130   1.654   4.908  1.3946 -1.0991  3.0440
 6517SOL     OW31186   0.610   0.849   5.013 -0.1323 -0.0988 -0.2048
 6517SOL    HW131187   0.574   0.924   4.965  2.1569 -0.1986 -2.0566
 6517SOL    HW231188   0.570   0.775   4.967 -3.6164  0.8640  1.2495
 6518SOL     OW31189   3.545   4.615   6.267 -0.0682 -0.5383  0.2478
 6518SOL    HW131190   3.584   4.593   6.182  2.4627 -2.1544  1.7985
 6518SOL    HW231191   3.574   4.706   6.270 -1.0265 -0.2016 -0.8362
 6519SOL     OW31192   1.045   0.972   8.344  0.0529 -0.0169 -0.0045
 6519SOL    HW131193   1.047   0.918   8.265  1.8009 -0.7298  0.5190
 6519SOL    HW231194   1.123   1.027   8.337 -1.1737  1.9087  1.4019
 6520SOL     OW31195   1.299   3.242   6.310 -0.2491  0.1459  0.3667
 6520SOL    HW131196   1.302   3.306   6.382 -1.1803 -0.4336  0.9226
 6520SOL    HW231197   1.244   3.291   6.250 -0.7419  1.3936  1.8291
 6521SOL     OW31198   2.286   1.250   7.923  0.3374 -0.6506 -0.3309
 6521SOL    HW131199   2.241   1.224   7.842  0.7688  0.9922 -1.0794
 6521SOL    HW231200   2.341   1.323   7.898 -0.2335 -0.3953 -0.8556
 6522SOL     OW31201   4.110   1.107   2.355  0.2937  0.5531 -0.0317
 6522SOL    HW131202   4.113   1.201   2.377  0.7188  0.4735  0.2482
 6522SOL    HW231203   4.020   1.089   2.381 -0.3104  0.9777 -1.7754
 6523SOL     OW31204   0.319   1.320   8.202  0.4638  0.6313  0.4322
 6523SOL    HW131205   0.339   1.312   8.109 -1.8763  0.3739 -0.0490
 6523SOL    HW231206   0.225   1.337   8.198 -0.1234 -2.7847 -0.2709
 6524SOL     OW31207   0.954   4.429   6.362 -0.2975  0.1183 -0.6640
 6524SOL    HW131208   1.050   4.435   6.363 -0.4811  3.1443  0.3040
 6524SOL    HW231209   0.938   4.335   6.369 -2.3759  0.4436 -1.1936
 6525SOL     OW31210   1.738   3.222  13.291 -0.4828  0.0729  0.1346
 6525SOL    HW131211   1.778   3.281  13.227  0.2086 -2.2302 -1.5077
 6525SOL    HW231212   1.693   3.161  13.232 -1.0110  2.0312 -1.5089
 6526SOL     OW31213   0.954   2.273   7.131  0.1327 -0.4364 -0.5779
 6526SOL    HW131214   0.920   2.344   7.077  1.4869  0.1384 -0.6675
 6526SOL    HW231215   1.047   2.294   7.138 -0.2310  0.6396  0.8392
 6527SOL     OW31216   3.475   0.326   8.615  0.1872  0.7903 -0.0020
 6527SOL    HW131217   3.419   0.400   8.639 -1.8514 -1.3517  1.8516
 6527SOL    HW231218   3.556   0.349   8.659 -0.0898 -1.4270  1.6656
 6528SOL     OW31219   2.710   0.099   3.103 -0.0484 -0.3995 -0.1739
 6528SOL    HW131220   2.633   0.049   3.076  0.4628 -1.1280 -0.3087
 6528SOL    HW231221   2.778   0.032   3.116  0.0078 -0.3436 -0.1782
 6529SOL     OW31222   4.228   0.204   3.119  0.1034 -0.1528 -0.0342
 6529SOL    HW131223   4.184   0.129   3.160 -0.0069  0.3312  0.7415
 6529SOL    HW231224   4.175   0.212   3.039 -0.0437 -0.8618 -0.0152
 6530SOL     OW31225   0.783   4.629   7.204 -0.5221  0.2857  0.0879
 6530SOL    HW131226   0.848   4.698   7.206  0.0509 -0.0969 -3.7652
 6530SOL    HW231227   0.772   4.590   7.290 -2.9213  0.9150  0.0881
 6531SOL     OW31228   2.788   3.207   1.176  0.0293 -0.0217  0.0490
 6531SOL    HW131229   2.812   3.141   1.241 -0.3620  0.9203  1.1506
 6531SOL    HW231230   2.775   3.290   1.222 -0.7480  1.0680 -2.1334
 6532SOL     OW31231   0.206   1.940   4.824 -0.0037  0.1730  0.2179
 6532SOL    HW131232   0.258   1.928   4.904 -0.2773  1.6112  0.6136
 6532SOL    HW231233   0.159   1.858   4.831  2.0471 -0.8831  1.7488
 6533SOL     OW31234   1.512   2.724  12.572 -0.0394  0.8808 -0.1522
 6533SOL    HW131235   1.564   2.667  12.629 -1.4743 -0.8695 -0.5829
 6533SOL    HW231236   1.585   2.760  12.524 -0.2867  0.8088 -0.5817
 6534SOL     OW31237   4.681   2.249   1.037 -0.0180  0.5001 -0.2830
 6534SOL    HW131238   4.645   2.164   1.064  2.3765 -0.6321 -0.7119
 6534SOL    HW231239   4.611   2.273   0.977  0.9030  0.7794 -1.2292
 6535SOL     OW31240   1.625   1.860   4.129  0.0766 -0.0066 -0.8165
 6535SOL    HW131241   1.638   1.817   4.213 -0.1223  2.1107  0.2924
 6535SOL    HW231242   1.699   1.919   4.112 -0.5778  1.2875  0.7672
 6536SOL     OW31243   2.568   2.583   6.030 -0.1376 -0.4394 -0.1130
 6536SOL    HW131244   2.525   2.499   6.046  0.2896 -0.5322  0.5291
 6536SOL    HW231245   2.657   2.564   6.059  0.0011  1.9723  1.0836
 6537SOL     OW31246   3.799   3.811   5.141 -0.2934 -0.2356  0.4637
 6537SOL    HW131247   3.789   3.779   5.230  0.7623  2.8169  1.6705
 6537SOL    HW231248   3.746   3.889   5.158  0.3108  0.2725  0.0178
 6538SOL     OW31249   2.943   3.193   8.207 -0.0737  0.0553 -0.6966
 6538SOL    HW131250   2.958   3.287   8.219  0.3500 -0.2754  1.4580
 6538SOL    HW231251   2.850   3.184   8.190 -0.4219 -0.2399  1.3016
 6539SOL     OW31252   2.864   4.028   3.778  0.6296 -0.1952 -0.9150
 6539SOL    HW131253   2.807   4.036   3.702  1.0702  0.6982 -1.1448
 6539SOL    HW231254   2.831   4.097   3.836 -0.6914 -0.2456 -1.6022
 6540SOL     OW31255   3.208   2.938   2.536 -0.1240  0.1662  0.3155
 6540SOL    HW131256   3.195   2.913   2.628  1.5697 -1.1794  0.1734
 6540SOL    HW231257   3.223   3.031   2.552 -0.8714  0.5023 -0.9524
 6541SOL     OW31258   0.654   3.859   9.160 -0.5022 -0.6885 -0.0017
 6541SOL    HW131259   0.707   3.924   9.114 -0.3917 -0.9723 -0.2727
 6541SOL    HW231260   0.620   3.923   9.223 -2.2811  0.4023 -2.0876
 6542SOL     OW31261   2.752   4.189  16.386 -0.1735 -0.1139  0.2227
 6542SOL    HW131262   2.798   4.161  16.306 -0.1160 -2.3235  1.0348
 6542SOL    HW231263   2.738   4.109  16.435  0.4413 -0.4016 -0.0698
 6543SOL     OW31264   1.978   3.718   9.618 -0.0198 -0.8921 -0.1936
 6543SOL    HW131265   1.942   3.670   9.543  0.5629  2.4553 -2.5838
 6543SOL    HW231266   1.899   3.737   9.669  0.2898 -0.7190  0.2197
 6544SOL     OW31267   0.193   2.082   4.184 -0.2698  0.0613 -0.5920
 6544SOL    HW131268   0.245   2.040   4.252 -1.6870 -1.9516 -0.7462
 6544SOL    HW231269   0.250   2.157   4.171 -0.7744  0.7939  1.4252
 6545SOL     OW31270   1.102   0.251   5.487  0.3703 -0.1033 -0.5811
 6545SOL    HW131271   1.057   0.180   5.441 -2.5459  2.2051 -1.2938
 6545SOL    HW231272   1.056   0.248   5.572 -0.7469 -0.5156 -1.1994
 6546SOL     OW31273   3.990   3.623   8.649  0.3338 -0.5269 -0.3678
 6546SOL    HW131274   4.048   3.549   8.630 -0.8548 -1.5024 -0.1919
 6546SOL    HW231275   3.964   3.577   8.729  2.8888  0.0514  0.7840
 6547SOL     OW31276   2.616   4.532   3.343  0.2460  0.1713 -0.2658
 6547SOL    HW131277   2.620   4.586   3.264  2.0638 -1.1887 -1.1054
 6547SOL    HW231278   2.610   4.446   3.301 -1.0420  1.3460 -2.4917
 6548SOL     OW31279   2.743   2.951   7.071  0.2898 -0.7285 -0.1392
 6548SOL    HW131280   2.682   2.917   7.136 -1.1769  0.7426 -0.7774
 6548SOL    HW231281   2.728   3.045   7.065  2.6972 -0.4954 -2.9421
 6549SOL     OW31282   0.712   0.210   3.936 -0.7223  0.0564 -0.3066
 6549SOL    HW131283   0.699   0.298   3.971 -0.3939  0.7832 -1.9701
 6549SOL    HW231284   0.660   0.161   3.999 -2.0099  2.8904  0.8384
 6550SOL     OW31285   1.099   1.359   8.464  0.2558 -0.2718  0.0764
 6550SOL    HW131286   1.132   1.400   8.543 -2.7666  2.7029 -0.2084
 6550SOL    HW231287   1.034   1.294   8.491  0.4451 -0.7968 -0.6946
 6551SOL     OW31288   2.168   3.352   4.064 -0.1590  0.5603  0.2525
 6551SOL    HW131289   2.120   3.346   4.147  0.2750  2.5773  0.6491
 6551SOL    HW231290   2.245   3.401   4.091  1.1685 -1.0206 -0.6877
 6552SOL     OW31291   1.966   3.921   3.351  0.0462  0.3084 -0.1948
 6552SOL    HW131292   1.957   3.826   3.351 -2.9200  0.6105  2.9529
 6552SOL    HW231293   1.948   3.950   3.441 -0.1811 -3.9247  1.1233
 6553SOL     OW31294   0.247   3.888  10.460 -0.3434 -0.3055 -0.0248
 6553SOL    HW131295   0.296   3.917  10.536  0.7467 -0.0410 -0.8209
 6553SOL    HW231296   0.157   3.883  10.492  0.0246  1.0131  1.1835
 6554SOL     OW31297   3.864   0.957   2.212 -0.3529  0.0027  0.0041
 6554SOL    HW131298   3.952   0.938   2.243 -1.5774 -2.2077  2.1493
 6554SOL    HW231299   3.818   0.991   2.289 -0.3597  1.0773 -0.4772
 6555SOL     OW31300   1.922   1.189   7.255 -0.2610 -0.2398  0.4404
 6555SOL    HW131301   2.013   1.218   7.246 -0.2069  0.2274  2.3596
 6555SOL    HW231302   1.886   1.224   7.174 -0.7368 -0.3947  0.5854
 6556SOL     OW31303   2.139   4.353   4.517  0.6292 -0.1389  0.0930
 6556SOL    HW131304   2.181   4.276   4.479 -0.0740  0.5652 -2.1176
 6556SOL    HW231305   2.115   4.318   4.603 -1.1593  0.4042 -0.1895
 6557SOL     OW31306   4.196   4.275  16.193 -0.2070 -0.7721  0.2006
 6557SOL    HW131307   4.257   4.349  16.191 -1.8217  0.5595  0.0406
 6557SOL    HW231308   4.248   4.197  16.177  0.2207 -0.1824 -1.3136
 6558SOL     OW31309   2.811   4.544  10.034 -0.0169 -0.4138 -0.3211
 6558SOL    HW131310   2.862   4.621  10.013 -0.0993 -0.8673 -2.1778
 6558SOL    HW231311   2.794   4.547  10.128  0.1399 -2.4859 -0.2168
 6559SOL     OW31312   2.223   3.824  11.410  0.2303 -0.0647 -0.1129
 6559SOL    HW131313   2.238   3.876  11.331  0.2613 -0.4988 -0.3902
 6559SOL    HW231314   2.212   3.890  11.479  4.0954  0.4336  0.0171
 6560SOL     OW31315   1.726   2.707   7.596 -0.0690  0.1194  0.1301
 6560SOL    HW131316   1.782   2.688   7.520 -1.3315  0.2629 -0.8377
 6560SOL    HW231317   1.795   2.744   7.652  0.4015 -2.3320  1.1702
 6561SOL     OW31318   2.819   0.330   3.889  0.2662  0.1620 -0.2833
 6561SOL    HW131319   2.837   0.369   3.804  0.1952 -0.5127 -0.6108
 6561SOL    HW231320   2.732   0.293   3.877  1.3400 -2.6128  0.2801
 6562SOL     OW31321   3.024   0.530   6.031 -0.0901  0.6250  0.4310
 6562SOL    HW131322   2.951   0.591   6.020 -1.7771 -1.4856 -0.1394
 6562SOL    HW231323   2.967   0.453   6.030 -2.1885  2.1811  0.1705
 6563SOL     OW31324   1.384   4.050   6.890 -0.0469  0.3209 -0.5649
 6563SOL    HW131325   1.411   4.056   6.798 -1.4959 -0.2561 -1.0260
 6563SOL    HW231326   1.322   4.123   6.889  0.0407  0.3708 -2.7984
 6564SOL     OW31327   1.896   0.781   5.596  0.3901  0.0974 -0.0035
 6564SOL    HW131328   1.843   0.829   5.533  0.2429  0.5750  0.4794
 6564SOL    HW231329   1.959   0.851   5.614 -0.0278  0.3985  0.2959
 6565SOL     OW31330   2.411   1.581   4.401  0.2893 -0.5132  0.5437
 6565SOL    HW131331   2.330   1.547   4.439 -0.5063  0.0411 -0.6464
 6565SOL    HW231332   2.459   1.508   4.361 -0.8289 -1.5910  1.1428
 6566SOL     OW31333   1.444   2.178  11.108 -0.1488 -0.3087  0.5521
 6566SOL    HW131334   1.480   2.220  11.186 -0.9457 -2.6419  2.1647
 6566SOL    HW231335   1.525   2.141  11.072 -1.3231 -1.5406 -0.8413
 6567SOL     OW31336   2.666   2.562   7.731  0.7831 -0.1133 -0.3623
 6567SOL    HW131337   2.678   2.565   7.826  1.2587 -2.5438 -0.3523
 6567SOL    HW231338   2.619   2.479   7.724  0.5880 -0.1355  1.1748
 6568SOL     OW31339   3.995   2.630   5.749 -0.3311 -0.5851  0.7002
 6568SOL    HW131340   4.056   2.605   5.680  1.5090 -1.1330  2.5171
 6568SOL    HW231341   3.983   2.544   5.788 -0.0352 -0.4615  1.0717
 6569SOL     OW31342   3.006   0.824  11.275  0.0563  0.6740 -0.1095
 6569SOL    HW131343   2.929   0.880  11.279 -2.7218 -3.1279 -1.2164
 6569SOL    HW231344   2.984   0.740  11.315 -1.7603  1.1392 -0.1628
 6570SOL     OW31345   4.575   2.112  11.900  0.5110 -0.0857 -0.0517
 6570SOL    HW131346   4.540   2.130  11.812  0.1931 -1.1682 -0.1429
 6570SOL    HW231347   4.653   2.168  11.901  0.9731 -0.7597  1.3958
 6571SOL     OW31348   1.663   0.159   5.024  0.2451  0.1715  0.8933
 6571SOL    HW131349   1.611   0.126   5.097 -2.7955  0.5778 -1.0820
 6571SOL    HW231350   1.613   0.229   4.983  2.2149  1.0511 -0.0130
 6572SOL     OW31351   2.106   1.487   3.362  0.3990 -0.0779 -0.3497
 6572SOL    HW131352   2.086   1.553   3.428 -2.0209 -1.8421  0.6800
 6572SOL    HW231353   2.080   1.537   3.284  0.3179 -0.3134 -0.4764
 6573SOL     OW31354   0.214   0.423   5.872 -0.4663 -0.6984  0.2319
 6573SOL    HW131355   0.289   0.413   5.930 -0.1191 -1.2514 -0.3079
 6573SOL    HW231356   0.231   0.496   5.813 -2.0936 -1.2507 -0.9501
 6574SOL     OW31357   1.154   3.672   7.847 -0.4519  0.5861 -0.0230
 6574SOL    HW131358   1.122   3.750   7.893  0.1814  0.7769  0.0946
 6574SOL    HW231359   1.248   3.684   7.860 -0.2735 -0.7000 -0.1606
 6575SOL     OW31360   4.447   4.370  11.769  0.3038  0.1133  0.0778
 6575SOL    HW131361   4.532   4.331  11.791 -0.1753  1.2484  3.7957
 6575SOL    HW231362   4.385   4.303  11.798  1.6922 -1.2126 -0.0265
 6576SOL     OW31363   1.330   1.665  10.186  0.1629 -0.3780 -0.0784
 6576SOL    HW131364   1.378   1.747  10.199  0.2182 -0.5019  0.4709
 6576SOL    HW231365   1.240   1.698  10.186 -0.4995 -2.1205 -2.7458
 6577SOL     OW31366   0.884   1.991   5.490 -0.4195  0.3273  0.1911
 6577SOL    HW131367   0.926   2.077   5.499  0.2076 -0.1297  1.5772
 6577SOL    HW231368   0.794   2.006   5.462  0.3674  1.4922 -1.6747
 6578SOL     OW31369   2.752   2.814  15.168 -0.1156 -0.0491  0.3018
 6578SOL    HW131370   2.687   2.822  15.098 -0.8219 -0.8016  0.8652
 6578SOL    HW231371   2.775   2.724  15.144 -0.5341 -0.3274  0.9317
 6579SOL     OW31372   0.551   2.831   8.730 -0.4144  0.3952 -0.6777
 6579SOL    HW131373   0.628   2.780   8.703  1.1201  2.1612  0.4260
 6579SOL    HW231374   0.504   2.817   8.647  1.6984 -3.8515 -1.1590
 6580SOL     OW31375   2.113   0.197  12.264  0.6963 -0.5105  0.5439
 6580SOL    HW131376   2.056   0.249  12.320 -0.8308 -2.3829  0.7501
 6580SOL    HW231377   2.166   0.258  12.213 -2.4865  1.5842 -0.2497
 6581SOL     OW31378   2.639   4.576   1.535 -0.4914  0.0492  0.0032
 6581SOL    HW131379   2.674   4.662   1.556 -0.8403 -0.0318  0.8977
 6581SOL    HW231380   2.707   4.519   1.570  0.5513  1.0385 -0.3994
 6582SOL     OW31381   3.012   1.057   2.479 -0.4408  0.6138 -0.0953
 6582SOL    HW131382   3.034   1.109   2.401 -2.8422  1.9807  0.1628
 6582SOL    HW231383   2.973   0.982   2.434  0.4375  0.0098  0.1300
 6583SOL     OW31384   2.305   1.575   5.905 -0.2456 -0.5518 -0.4652
 6583SOL    HW131385   2.283   1.497   5.855  0.0058 -1.0736  0.2441
 6583SOL    HW231386   2.259   1.636   5.848  2.2636  2.3895  0.6553
 6584SOL     OW31387   4.192   0.048   2.494 -0.5240  0.1914  0.0278
 6584SOL    HW131388   4.198   4.726   2.418  1.3240  0.3996  0.0130
 6584SOL    HW231389   4.107   0.092   2.482  0.5315  2.1363 -0.3564
 6585SOL     OW31390   1.314   1.492   2.908  0.4022 -0.3529  0.6067
 6585SOL    HW131391   1.235   1.449   2.941 -1.0565  0.7446 -1.4724
 6585SOL    HW231392   1.270   1.576   2.903 -0.1945 -0.7224 -0.2191
 6586SOL     OW31393   2.888   0.969   5.606  0.2843  0.7455  0.4366
 6586SOL    HW131394   2.955   0.957   5.538 -0.8835 -0.0339 -0.5873
 6586SOL    HW231395   2.942   0.967   5.685 -0.8634 -1.2278  1.1572
 6587SOL     OW31396   3.077   2.410   3.668  0.0620  0.3205  0.2495
 6587SOL    HW131397   3.102   2.499   3.692  0.6759  0.3660 -0.5696
 6587SOL    HW231398   3.148   2.360   3.707  0.0876  0.2892  0.1640
 6588SOL     OW31399   3.117   3.720   2.932 -0.0705 -0.9220 -0.5216
 6588SOL    HW131400   3.085   3.717   2.842 -0.2491  1.1003 -0.5279
 6588SOL    HW231401   3.199   3.671   2.930 -0.4211 -1.6313  1.5820
 6589SOL     OW31402   0.340   1.609   5.494 -0.2744 -0.6194  0.2491
 6589SOL    HW131403   0.254   1.598   5.453 -0.0306  1.1441 -0.7320
 6589SOL    HW231404   0.343   1.705   5.498 -0.6914 -0.6253  0.6642
 6590SOL     OW31405   2.230   1.755  10.956  0.0888 -0.0046  0.0693
 6590SOL    HW131406   2.160   1.723  11.014 -1.1381  1.1832 -0.7597
 6590SOL    HW231407   2.251   1.670  10.918  2.2954  1.3066 -1.5751
 6591SOL     OW31408   4.675   2.101   3.614  0.2882 -0.1432  0.3410
 6591SOL    HW131409   4.616   2.026   3.615 -0.3646  0.3881  1.2929
 6591SOL    HW231410   4.638   2.153   3.542  0.9010 -0.0349  0.1006
 6592SOL     OW31411   0.242   3.565   9.697  0.1188 -0.0811  0.3266
 6592SOL    HW131412   0.272   3.475   9.706  4.5090  1.3403  0.1071
 6592SOL    HW231413   0.272   3.577   9.607  0.6536 -1.1554  0.3621
 6593SOL     OW31414   2.589   1.136  13.886 -0.1327 -0.4878 -0.1222
 6593SOL    HW131415   2.558   1.209  13.832  0.8628 -1.2544 -1.7095
 6593SOL    HW231416   2.584   1.062  13.825  2.1133 -2.4564  2.1143
 6594SOL     OW31417   0.697   2.745  12.770  0.3217 -0.9181  0.2166
 6594SOL    HW131418   0.650   2.813  12.820  1.8197  0.7842 -0.6961
 6594SOL    HW231419   0.714   2.806  12.699  2.3919 -2.3977 -0.5665
 6595SOL     OW31420   0.377   4.399  11.614  0.4161 -0.3125 -0.5383
 6595SOL    HW131421   0.444   4.334  11.637 -0.5880 -0.7264  1.2156
 6595SOL    HW231422   0.431   4.471  11.583  3.2912 -1.6586  1.3097
 6596SOL     OW31423   3.686   4.627   7.374 -0.0717 -0.3203  0.6973
 6596SOL    HW131424   3.726   4.540   7.377  1.5607  0.4571  1.4888
 6596SOL    HW231425   3.608   4.612   7.320 -0.3336  0.3296  0.9055
 6597SOL     OW31426   1.797   2.834  15.904 -0.6791  0.1058 -0.0115
 6597SOL    HW131427   1.725   2.884  15.864 -1.5208 -1.7438 -0.8271
 6597SOL    HW231428   1.876   2.865  15.860 -0.4613  1.2925  1.2207
 6598SOL     OW31429   4.522   4.416   4.585 -0.7661  0.4686 -0.1488
 6598SOL    HW131430   4.572   4.341   4.617  2.6362  0.9850 -4.2886
 6598SOL    HW231431   4.435   4.410   4.625 -0.7365  0.9095 -0.0090
 6599SOL     OW31432   4.220   3.226   3.314  0.2635 -0.2547  0.5201
 6599SOL    HW131433   4.277   3.258   3.245 -3.3952  0.2767 -2.2602
 6599SOL    HW231434   4.152   3.175   3.269 -2.5128  0.2029  4.1151
 6600SOL     OW31435   1.652   1.383   3.775 -0.6611 -0.5750 -0.3177
 6600SOL    HW131436   1.619   1.363   3.687  2.4820  0.5753 -1.7509
 6600SOL    HW231437   1.607   1.462   3.804  1.7523  1.1392 -1.2146
 6601SOL     OW31438   1.459   0.839  10.078 -0.0833  0.1103 -0.0821
 6601SOL    HW131439   1.444   0.930  10.105  1.4348  0.6443 -0.9970
 6601SOL    HW231440   1.532   0.827  10.139 -0.0881  0.4768 -0.0039
 6602SOL     OW31441   1.831   4.329   0.636 -0.3430 -0.3966  0.0077
 6602SOL    HW131442   1.742   4.298   0.652  0.0723 -0.9956  1.1151
 6602SOL    HW231443   1.869   4.363   0.716  2.7126 -1.7553 -0.8492
 6603SOL     OW31444   0.716   0.379   3.093  0.5747 -0.0333 -0.1335
 6603SOL    HW131445   0.695   0.392   3.185 -0.8515  1.7532 -0.7194
 6603SOL    HW231446   0.753   0.466   3.078  1.0421 -0.2026  0.0395
 6604SOL     OW31447   2.110   3.470   4.860 -0.6159 -0.4764  0.2774
 6604SOL    HW131448   2.160   3.552   4.852  0.4087 -0.8141  3.4501
 6604SOL    HW231449   2.158   3.418   4.924 -2.6474 -2.1202  0.4673
 6605SOL     OW31450   2.531   2.143   9.905  0.2366 -0.2768  0.2093
 6605SOL    HW131451   2.609   2.180   9.865 -0.8066  0.0168 -1.5548
 6605SOL    HW231452   2.566   2.112   9.989  0.3559 -0.3169  0.1438
 6606SOL     OW31453   0.762   0.255   1.789 -0.1420 -0.0842 -0.2932
 6606SOL    HW131454   0.738   0.214   1.706  1.0426 -0.6177 -0.3778
 6606SOL    HW231455   0.690   0.232   1.847  0.0777  2.7366  1.1317
 6607SOL     OW31456   1.372   4.616  15.462 -0.5338 -0.4228 -0.9256
 6607SOL    HW131457   1.374   4.704  15.424  1.2710 -0.5210 -1.0498
 6607SOL    HW231458   1.305   4.573  15.408  0.3294 -1.6159 -1.0407
 6608SOL     OW31459   0.829   2.857   6.467 -0.4512 -0.3447  0.0064
 6608SOL    HW131460   0.809   2.777   6.419 -1.0261 -0.0743 -0.1983
 6608SOL    HW231461   0.798   2.830   6.553  1.5424 -0.8095  0.5808
 6609SOL     OW31462   2.018   3.002   2.721  0.1672  0.1526 -0.0443
 6609SOL    HW131463   1.985   3.021   2.633  1.0991 -1.3728 -0.7231
 6609SOL    HW231464   2.110   3.024   2.709 -0.3827  2.4927 -0.0438
 6610SOL     OW31465   1.361   4.047   5.873 -0.6153 -0.7377  0.1058
 6610SOL    HW131466   1.381   4.025   5.782 -1.3734  1.6920 -0.6467
 6610SOL    HW231467   1.381   4.140   5.874 -3.9767 -0.0385  0.8592
 6611SOL     OW31468   0.371   4.587   3.331  0.1047 -0.0316  0.2161
 6611SOL    HW131469   0.369   4.636   3.413  0.0661  0.8141 -0.2941
 6611SOL    HW231470   0.356   4.658   3.268  0.5081 -0.4290 -0.3343
 6612SOL     OW31471   4.623   2.064   7.605  0.0183  0.3559 -0.3990
 6612SOL    HW131472   4.569   2.142   7.590 -0.1150 -0.0860 -2.2585
 6612SOL    HW231473   4.711   2.100   7.604  1.2519 -2.5904  0.4996
 6613SOL     OW31474   4.420   2.848   7.607  0.3748  0.3641  0.2057
 6613SOL    HW131475   4.362   2.864   7.681  2.1880  1.0759  1.4774
 6613SOL    HW231476   4.364   2.843   7.530  0.9567  0.4258 -0.2208
 6614SOL     OW31477   0.668   3.320  16.130  0.0055  0.5444 -0.6486
 6614SOL    HW131478   0.703   3.408  16.115 -2.2412  1.6260  0.3238
 6614SOL    HW231479   0.582   3.353  16.104  1.2551  2.9740 -1.7555
 6615SOL     OW31480   0.973   1.738  13.190 -0.0716 -0.5326 -0.3535
 6615SOL    HW131481   1.047   1.787  13.225 -1.1158 -0.1072  1.2436
 6615SOL    HW231482   0.997   1.645  13.195 -0.1497 -0.5590 -0.4579
 6616SOL     OW31483   0.224   3.858   7.840  0.1749  0.3823  0.7488
 6616SOL    HW131484   0.153   3.802   7.872 -0.1491 -0.8672 -2.1777
 6616SOL    HW231485   0.301   3.824   7.886 -0.2808  1.8253  2.5956
 6617SOL     OW31486   4.547   1.344  16.557 -0.0458  0.9972 -0.4457
 6617SOL    HW131487   4.638   1.352  16.529  0.4166 -1.1854  0.4928
 6617SOL    HW231488   4.547   1.268  16.614 -4.0640  0.9861 -0.4705
 6618SOL     OW31489   2.687   0.025   7.443  0.3192  0.5328 -0.3738
 6618SOL    HW131490   2.745   4.686   7.422 -3.1110 -2.5465  0.9735
 6618SOL    HW231491   2.607   4.716   7.471  1.2584 -2.1659 -1.9200
 6619SOL     OW31492   4.244   1.895  14.125  0.1606  0.2585 -0.6123
 6619SOL    HW131493   4.226   1.852  14.041  0.6059  2.3255 -1.7545
 6619SOL    HW231494   4.336   1.920  14.118 -0.1235  2.1823  2.6186
 6620SOL     OW31495   0.781   0.568   1.759  0.3545 -0.0452 -0.0474
 6620SOL    HW131496   0.764   0.579   1.853 -0.4710  0.6610 -0.2809
 6620SOL    HW231497   0.787   0.473   1.760  0.8218 -0.0287 -1.0867
 6621SOL     OW31498   4.264   2.665  17.735 -0.3666  0.5256 -0.9353
 6621SOL    HW131499   4.217   2.633   0.073  0.4435 -0.8459 -1.0170
 6621SOL    HW231500   4.351   2.645   0.029  0.2747  3.2915 -0.8887
 6622SOL     OW31501   3.625   2.798   7.980  0.0566 -0.2170  0.0495
 6622SOL    HW131502   3.656   2.737   8.047 -1.4524  0.0646  0.9983
 6622SOL    HW231503   3.550   2.751   7.944 -1.2426  1.7782  0.1289
 6623SOL     OW31504   3.275   2.643   1.908  0.0354  0.4909  0.1175
 6623SOL    HW131505   3.274   2.732   1.945 -1.7329  0.4269  0.2361
 6623SOL    HW231506   3.198   2.599   1.943 -0.1253  1.4215  0.9453
 6624SOL     OW31507   3.407   2.332   6.102 -0.2411 -0.1107  0.1582
 6624SOL    HW131508   3.397   2.425   6.121 -1.8153 -0.0320 -1.0801
 6624SOL    HW231509   3.456   2.299   6.177 -3.1463 -1.1574  1.5946
 6625SOL     OW31510   4.521   0.756   1.825  0.2385 -0.1770 -0.2327
 6625SOL    HW131511   4.590   0.737   1.762  0.3272  1.0135 -0.4923
 6625SOL    HW231512   4.447   0.752   1.764  0.2346 -0.5630 -0.2066
 6626SOL     OW31513   0.546   4.384   3.259 -0.2664  0.0197  0.0829
 6626SOL    HW131514   0.551   4.403   3.165  0.3547  4.2194  0.9935
 6626SOL    HW231515   0.510   4.467   3.290 -0.1346  0.6925 -1.5746
 6627SOL     OW31516   2.262   1.912   3.019  0.6200  0.2712  0.0608
 6627SOL    HW131517   2.169   1.936   3.011  0.7138  0.1357 -1.4828
 6627SOL    HW231518   2.301   1.999   3.023 -0.8630  0.9444  0.0694
 6628SOL     OW31519   3.661   2.319   7.333 -0.4850 -0.0882 -0.3818
 6628SOL    HW131520   3.680   2.268   7.255 -2.5823  1.1755 -1.7368
 6628SOL    HW231521   3.737   2.301   7.389 -0.5653 -1.4392 -0.7190
 6629SOL     OW31522   0.351   3.894  13.271 -0.2818 -0.1430  0.0193
 6629SOL    HW131523   0.393   3.933  13.348 -1.2901 -0.2932  0.6350
 6629SOL    HW231524   0.265   3.891  13.311  0.8853 -2.7254  2.3289
 6630SOL     OW31525   2.982   2.201   7.333 -0.3499  0.4837 -0.2486
 6630SOL    HW131526   2.972   2.106   7.340  2.0145  0.1318 -1.5615
 6630SOL    HW231527   2.899   2.221   7.290 -1.7367 -0.8163  1.8433
 6631SOL     OW31528   0.703   4.129   1.577  0.0726 -0.1649 -0.3854
 6631SOL    HW131529   0.732   4.164   1.493 -3.2724  1.1303 -0.9930
 6631SOL    HW231530   0.616   4.167   1.583  0.0410 -0.1962 -0.6319
 6632SOL     OW31531   3.587   4.143  13.705 -0.0304 -0.8737 -0.4243
 6632SOL    HW131532   3.644   4.158  13.629 -0.7980 -1.1676 -1.0563
 6632SOL    HW231533   3.523   4.213  13.701  0.2129 -0.5426  1.6386
 6633SOL     OW31534   3.073   1.703   1.522 -0.3756 -0.2320  0.1399
 6633SOL    HW131535   3.143   1.659   1.571  0.8042  1.6933  0.2118
 6633SOL    HW231536   3.013   1.631   1.505 -0.0416 -0.9487  1.9063
 6634SOL     OW31537   0.964   3.102   8.493  0.3256  0.2821  0.2062
 6634SOL    HW131538   0.929   3.111   8.404  1.2865  1.7665 -0.0241
 6634SOL    HW231539   0.883   3.096   8.543  0.9022 -1.7157  0.8946
 6635SOL     OW31540   3.052   1.523   2.869 -0.0455  0.3183  0.9784
 6635SOL    HW131541   3.086   1.612   2.879  0.3641  0.0174  2.2353
 6635SOL    HW231542   3.040   1.514   2.963 -0.0692 -1.7354  0.7695
 6636SOL     OW31543   2.501   3.770   5.155 -0.0083  0.4419  0.0334
 6636SOL    HW131544   2.456   3.839   5.205 -1.8390 -1.5530  1.1065
 6636SOL    HW231545   2.560   3.739   5.224 -1.2665 -1.0197  0.4388
 6637SOL     OW31546   4.468   2.958  11.641  0.8127 -0.2427 -0.1807
 6637SOL    HW131547   4.518   2.995  11.568 -1.2394 -3.8881 -3.4823
 6637SOL    HW231548   4.542   2.929  11.694 -0.1679  1.2784  1.9787
 6638SOL     OW31549   2.186   4.278   6.288  0.5628  0.6904  0.5460
 6638SOL    HW131550   2.205   4.233   6.206  1.7742  0.9437  0.6895
 6638SOL    HW231551   2.260   4.244   6.337  0.5262 -2.5867 -1.6871
 6639SOL     OW31552   4.238   1.671   2.781  0.4028 -0.2254  0.0981
 6639SOL    HW131553   4.332   1.660   2.765 -0.0023  0.2975 -2.6010
 6639SOL    HW231554   4.201   1.591   2.743  0.8086 -1.0168  1.3767
 6640SOL     OW31555   4.307   0.535  11.928 -0.0166  0.3081  0.8675
 6640SOL    HW131556   4.219   0.566  11.947 -0.6084  0.0322 -1.4579
 6640SOL    HW231557   4.299   0.448  11.968  1.6234 -0.8462 -1.3106
 6641SOL     OW31558   2.049   2.030   4.955  0.3898  0.0520  0.2365
 6641SOL    HW131559   2.053   2.086   5.033  2.8438  3.3901 -2.2901
 6641SOL    HW231560   2.099   1.952   4.977 -0.9341 -1.4375 -2.1574
 6642SOL     OW31561   1.463   2.342  11.346 -0.2869 -0.4055  0.5242
 6642SOL    HW131562   1.464   2.431  11.311 -1.0243 -0.2377  0.9354
 6642SOL    HW231563   1.544   2.347  11.397  1.2853 -0.7007 -1.9256
 6643SOL     OW31564   2.124   3.168  13.080  0.3988 -0.1769  0.1722
 6643SOL    HW131565   2.101   3.099  13.018  1.9429  1.7470 -2.5346
 6643SOL    HW231566   2.043   3.198  13.120  0.7207  0.3380  0.4386
 6644SOL     OW31567   1.017   4.359   2.545  0.3167 -0.1688  0.4833
 6644SOL    HW131568   1.094   4.403   2.581 -0.2542 -0.8770  2.5362
 6644SOL    HW231569   0.951   4.420   2.578 -0.2513 -1.7005  2.1472
 6645SOL     OW31570   2.549   4.564  16.530 -0.0736 -0.0102  0.3341
 6645SOL    HW131571   2.595   4.604  16.604  0.5192 -0.1462  0.0421
 6645SOL    HW231572   2.474   4.533  16.581 -0.7366  1.8972  0.5111
 6646SOL     OW31573   2.866   2.960   7.987 -0.7623 -0.2596 -0.4175
 6646SOL    HW131574   2.904   2.918   8.063 -3.1676  1.0041  1.5011
 6646SOL    HW231575   2.920   2.917   7.921  2.6879  0.7738  1.7355
 6647SOL     OW31576   0.053   0.955  16.709 -0.5748  0.2512  0.0196
 6647SOL    HW131577   4.730   0.884  16.737 -1.7073  1.0848 -0.2473
 6647SOL    HW231578   0.142   0.927  16.731 -0.9839 -2.4577 -1.6750
 6648SOL     OW31579   2.015   2.142   6.549  0.1430 -0.4140  0.0593
 6648SOL    HW131580   1.941   2.165   6.605 -1.3257 -2.4798 -1.0216
 6648SOL    HW231581   2.085   2.167   6.609  0.5516 -0.1563 -0.5257
 6649SOL     OW31582   0.561   3.128   7.093  0.1461 -0.2982 -0.7380
 6649SOL    HW131583   0.516   3.155   7.012  0.8650  2.8160 -0.0840
 6649SOL    HW231584   0.541   3.205   7.146  0.3233 -0.6116 -0.2262
 6650SOL     OW31585   1.273   3.706   2.243 -0.4148 -0.6259  0.5341
 6650SOL    HW131586   1.315   3.767   2.303 -1.0010  0.2472  0.0392
 6650SOL    HW231587   1.303   3.629   2.292  1.8591 -0.8448 -1.1767
 6651SOL     OW31588   4.494   1.703   5.882  0.0521  0.6596  1.1341
 6651SOL    HW131589   4.498   1.798   5.888 -2.7002  0.8213  0.6256
 6651SOL    HW231590   4.496   1.677   5.974 -0.8280 -2.4979  0.2740
 6652SOL     OW31591   0.200   0.077   9.910 -0.0234  0.2662  0.0854
 6652SOL    HW131592   0.258   0.078   9.986  0.1027 -0.5942  0.0112
 6652SOL    HW231593   0.250   0.001   9.878  0.1153  1.0348 -1.4992
 6653SOL     OW31594   2.396   2.992   5.103  0.0062  0.0189  0.1532
 6653SOL    HW131595   2.387   3.019   5.011  2.3673 -1.4795 -0.5209
 6653SOL    HW231596   2.421   2.901   5.082  2.4839  0.5811  0.7238
 6654SOL     OW31597   1.359   0.260   1.102 -0.0490  0.4080  0.7515
 6654SOL    HW131598   1.351   0.318   1.178 -0.6832  3.1851 -1.4106
 6654SOL    HW231599   1.382   0.325   1.036  1.0834 -0.2656  0.4843
 6655SOL     OW31600   2.702   3.284   6.456  0.6982  0.2673  0.2072
 6655SOL    HW131601   2.611   3.307   6.437  0.2847  0.0992  2.0076
 6655SOL    HW231602   2.737   3.363   6.415  1.2182  0.1171  0.3682
 6656SOL     OW31603   4.488   1.221   6.958 -0.2651 -0.3745  0.0665
 6656SOL    HW131604   4.539   1.291   6.999 -0.7886 -1.5555  2.7244
 6656SOL    HW231605   4.491   1.150   7.022  1.6473 -0.8609 -0.5695
 6657SOL     OW31606   0.338   3.933  12.196 -0.0593 -0.6847 -0.1841
 6657SOL    HW131607   0.282   3.914  12.271 -0.5615  1.2763 -0.0629
 6657SOL    HW231608   0.275   3.985  12.147  1.0205  0.8694  0.0756
 6658SOL     OW31609   0.949   3.993  14.093  0.0082 -0.1586  0.4095
 6658SOL    HW131610   0.909   3.986  14.180 -1.0736  4.4578  0.2723
 6658SOL    HW231611   0.885   4.048  14.047 -3.5646 -3.7663  1.0494
 6659SOL     OW31612   3.582   1.906   9.320  0.4500  0.2069 -0.1794
 6659SOL    HW131613   3.534   1.868   9.394  0.5172  2.4737  1.0334
 6659SOL    HW231614   3.665   1.858   9.319  0.8681  0.8703  2.4042
 6660SOL     OW31615   2.836   0.786  13.674  0.0771  0.0095 -0.1303
 6660SOL    HW131616   2.873   0.817  13.757  0.2644  0.5658 -0.4188
 6660SOL    HW231617   2.914   0.739  13.645 -0.5830 -1.7233  0.9082
 6661SOL     OW31618   1.079   2.200  10.101 -0.7805 -0.1259 -0.4004
 6661SOL    HW131619   1.049   2.166  10.017 -1.4127  0.3318 -0.3669
 6661SOL    HW231620   1.018   2.271  10.123  1.3826  0.8723  2.5257
 6662SOL     OW31621   0.448   1.280   7.630 -0.2742  0.2053  0.4795
 6662SOL    HW131622   0.477   1.192   7.652  0.5213 -0.1995 -2.1599
 6662SOL    HW231623   0.520   1.335   7.663 -1.1355  1.7311 -0.1577
 6663SOL     OW31624   4.383   0.928   2.056 -0.1944 -0.3417 -0.2784
 6663SOL    HW131625   4.387   0.854   1.995  0.3124 -1.9695  1.7122
 6663SOL    HW231626   4.324   0.888   2.120 -0.2876  0.7351  0.3023
 6664SOL     OW31627   2.635   2.230   5.424  0.1602 -0.1660  0.4746
 6664SOL    HW131628   2.547   2.206   5.453 -0.3446 -3.0392 -3.3890
 6664SOL    HW231629   2.634   2.231   5.328  1.4088  1.4459  0.4801
 6665SOL     OW31630   0.789   2.799   7.887 -0.2970  0.3479 -0.2643
 6665SOL    HW131631   0.770   2.876   7.833 -2.9435 -2.3542 -3.1476
 6665SOL    HW231632   0.800   2.742   7.811 -0.6090  0.4639 -0.3969
 6666SOL     OW31633   0.988   1.296   6.052 -0.0194 -0.8058  0.0029
 6666SOL    HW131634   0.946   1.359   6.111  0.2272 -0.0595 -0.6101
 6666SOL    HW231635   0.911   1.247   6.022  0.7219 -0.7263 -2.0626
 6667SOL     OW31636   3.549   0.870   6.307  0.5656  0.1722  0.7830
 6667SOL    HW131637   3.496   0.948   6.293  0.8537  0.3229  0.5478
 6667SOL    HW231638   3.626   0.901   6.356  1.6950 -1.0601 -0.2297
 6668SOL     OW31639   0.876   3.942  10.517 -0.0152  0.3722 -0.1394
 6668SOL    HW131640   0.857   3.935  10.611  0.6896 -2.8663 -0.2424
 6668SOL    HW231641   0.870   4.036  10.500  1.9685  0.7847  1.5351
 6669SOL     OW31642   0.559   3.766   1.907 -0.4407 -0.1555 -0.1726
 6669SOL    HW131643   0.572   3.819   1.828  1.0429  1.1614  0.9401
 6669SOL    HW231644   0.589   3.832   1.970  0.4270 -2.6531  2.0046
 6670SOL     OW31645   2.989   0.457   4.775  0.2038 -0.5572 -0.1442
 6670SOL    HW131646   2.969   0.551   4.784  0.1500 -0.7905  2.2286
 6670SOL    HW231647   3.057   0.464   4.708  0.5301  0.2420  0.2642
 6671SOL     OW31648   1.014   0.058   1.723 -0.2975 -0.5790 -0.1615
 6671SOL    HW131649   1.012   0.125   1.655 -1.1833 -1.0544 -0.6075
 6671SOL    HW231650   1.017   0.116   1.799 -3.6913 -0.2964 -0.2128
 6672SOL     OW31651   1.941   4.064   1.490 -0.0271  0.0557 -0.0479
 6672SOL    HW131652   1.904   4.092   1.573  0.8619  1.5936 -0.1677
 6672SOL    HW231653   1.869   4.015   1.452 -1.4981  2.0724  0.1521
 6673SOL     OW31654   2.117   0.157   7.960 -0.4844  0.1538 -0.8560
 6673SOL    HW131655   2.149   0.187   7.875 -1.9412  1.2000 -1.0337
 6673SOL    HW231656   2.036   0.123   7.924 -1.4407  2.1751 -0.6383
 6674SOL     OW31657   1.048   2.213   4.756  1.0234 -0.9187  0.1802
 6674SOL    HW131658   0.985   2.171   4.814 -1.4700 -0.7034 -2.3265
 6674SOL    HW231659   0.996   2.280   4.711 -1.0330 -1.7607  1.3306
 6675SOL     OW31660   2.036   2.043   3.102 -0.7681  0.2423  0.3942
 6675SOL    HW131661   2.023   1.990   3.181  0.7986 -0.9118 -0.1104
 6675SOL    HW231662   1.949   2.040   3.064 -1.0795  1.4036  1.0240
 6676SOL     OW31663   1.984   4.408   2.336 -0.0533  0.6985  0.2809
 6676SOL    HW131664   1.970   4.501   2.319 -2.8555  0.5108  1.5987
 6676SOL    HW231665   1.925   4.373   2.269 -0.9158 -0.9729  1.9092
 6677SOL     OW31666   1.969   1.986  17.609  0.3548  0.1735  0.1552
 6677SOL    HW131667   1.942   1.901  17.645 -1.7033  1.3870  1.4705
 6677SOL    HW231668   2.058   1.993  17.645  0.2247 -0.8608  0.6859
 6678SOL     OW31669   4.620   3.805   2.416  0.3623 -0.2606  0.0417
 6678SOL    HW131670   4.639   3.898   2.423  0.5135 -0.1039 -2.4935
 6678SOL    HW231671   4.524   3.812   2.411  0.4459  0.5588 -0.3700
 6679SOL     OW31672   1.399   1.296   1.834 -0.2086  0.5196 -0.6777
 6679SOL    HW131673   1.335   1.323   1.900 -0.3993 -1.7391  0.0794
 6679SOL    HW231674   1.442   1.380   1.848 -1.5587  0.9781  0.7447
 6680SOL     OW31675   3.830   1.007   4.566  0.2543  0.2684 -0.3294
 6680SOL    HW131676   3.815   1.094   4.530  2.9053  1.4935  1.6330
 6680SOL    HW231677   3.774   0.950   4.514 -0.1270 -0.3225  0.7333
 6681SOL     OW31678   0.178   3.865   8.739 -0.1121 -0.0541  0.4407
 6681SOL    HW131679   0.182   3.833   8.828  0.1063 -0.4030  0.3040
 6681SOL    HW231680   0.092   3.827   8.722 -0.4756  1.6787 -1.7499
 6682SOL     OW31681   0.345   1.811   7.512 -0.1603  0.1943  0.1385
 6682SOL    HW131682   0.351   1.715   7.515 -0.0633  0.1763 -0.5850
 6682SOL    HW231683   0.389   1.820   7.596  0.7473  0.7198 -0.3932
 6683SOL     OW31684   2.881   1.695  12.948  0.6025  0.1910 -0.0022
 6683SOL    HW131685   2.885   1.773  12.892 -1.3019  1.0231  1.0098
 6683SOL    HW231686   2.786   1.694  12.963  0.1289  1.6423 -2.8944
 6684SOL     OW31687   3.085   2.203   3.065  0.8278  0.5954  0.5833
 6684SOL    HW131688   3.038   2.286   3.057  0.9835  0.4053 -2.1278
 6684SOL    HW231689   3.043   2.157   2.992 -1.8989  1.6556  1.4623
 6685SOL     OW31690   1.465   4.468   4.274 -0.3774  0.4042 -0.8832
 6685SOL    HW131691   1.527   4.455   4.346 -1.7067  1.1827  0.3977
 6685SOL    HW231692   1.522   4.530   4.227 -1.0248  0.5319 -1.5015
 6686SOL     OW31693   0.366   0.691   3.553 -0.1080 -0.1352  0.4364
 6686SOL    HW131694   0.450   0.691   3.508 -1.8883 -1.6708 -2.9073
 6686SOL    HW231695   0.354   0.596   3.560 -0.6460 -0.2055 -1.3411
 6687SOL     OW31696   0.167   2.480   0.945 -0.3004 -0.2169 -0.2987
 6687SOL    HW131697   0.125   2.437   0.870 -1.3260 -1.5109  1.0024
 6687SOL    HW231698   0.126   2.566   0.950  2.2499  0.9579  0.3595
 6688SOL     OW31699   0.928   3.934  16.182  0.2160  0.4115  0.5440
 6688SOL    HW131700   1.023   3.934  16.189  0.1225 -0.9229  1.8170
 6688SOL    HW231701   0.913   3.880  16.260  2.5258 -1.2201 -0.1490
 6689SOL     OW31702   3.740   3.232   4.027  0.8007  0.6684  0.2025
 6689SOL    HW131703   3.794   3.223   3.949  0.0854 -1.9283  0.0084
 6689SOL    HW231704   3.785   3.171   4.086  2.3617  0.1706 -1.5219
 6690SOL     OW31705   4.006   4.210   3.952  0.0085  0.0033 -0.1312
 6690SOL    HW131706   3.928   4.206   4.006  0.0976  3.4837  0.2303
 6690SOL    HW231707   4.063   4.268   4.002 -0.9770  1.7397 -1.0472
 6691SOL     OW31708   0.829   3.037  16.910  0.9405  0.1845  0.1081
 6691SOL    HW131709   0.875   2.955  16.930 -0.4466 -0.7889 -0.6388
 6691SOL    HW231710   0.881   3.060  16.833  0.1610 -0.8061 -0.7225
 6692SOL     OW31711   2.296   1.093   3.989 -0.0541 -0.2665  0.3553
 6692SOL    HW131712   2.216   1.134   4.024 -0.7863 -0.3614 -1.2347
 6692SOL    HW231713   2.276   1.097   3.896 -1.3440  0.2036  0.6440
 6693SOL     OW31714   0.218   3.551   5.283 -0.3571  0.0477 -0.1596
 6693SOL    HW131715   0.213   3.489   5.211  3.2740 -1.7540  1.0941
 6693SOL    HW231716   0.304   3.525   5.316 -1.0611  0.4217  1.9830
 6694SOL     OW31717   2.594   3.150  11.190 -0.1265 -0.2171 -0.2001
 6694SOL    HW131718   2.521   3.158  11.252 -0.9229  1.9028 -1.3947
 6694SOL    HW231719   2.570   3.065  11.154 -2.1913  0.4512 -0.4320
 6695SOL     OW31720   1.934   2.475   8.357  0.3635  0.0395 -0.3056
 6695SOL    HW131721   2.030   2.475   8.358  0.3787  0.9332 -2.0114
 6695SOL    HW231722   1.914   2.480   8.450 -0.0810  0.1805 -0.4086
 6696SOL     OW31723   2.156   3.231   7.209 -1.0055 -0.7649  0.3367
 6696SOL    HW131724   2.249   3.227   7.185 -0.5236  0.0125  2.1379
 6696SOL    HW231725   2.160   3.160   7.273 -1.0255 -0.6570  0.4557
 6697SOL     OW31726   3.614   2.640  14.900  0.5049  0.6024  0.0982
 6697SOL    HW131727   3.531   2.626  14.947 -0.2815  0.7021 -1.2708
 6697SOL    HW231728   3.673   2.622  14.973 -1.8349  0.5725  2.0240
 6698SOL     OW31729   0.447   1.834  16.537  0.2883 -0.0774  0.1120
 6698SOL    HW131730   0.485   1.860  16.454 -1.4181  0.8377 -0.3719
 6698SOL    HW231731   0.497   1.754  16.557  0.6940  0.2544  0.4353
 6699SOL     OW31732   1.858   4.642  14.949 -0.0886  0.4024 -0.6198
 6699SOL    HW131733   1.893   4.732  14.954 -1.5082  0.9444 -0.4536
 6699SOL    HW231734   1.766   4.665  14.962 -0.0102 -0.7132  1.7810
 6700SOL     OW31735   1.835   2.648   7.345  0.1825  0.3300  0.5543
 6700SOL    HW131736   1.772   2.637   7.274  0.7216 -2.3488  0.5050
 6700SOL    HW231737   1.918   2.622   7.306  0.8216  1.5728  1.0825
 6701SOL     OW31738   0.315   0.375   3.348 -0.3206 -0.2071  0.2373
 6701SOL    HW131739   0.289   0.416   3.266  0.3378 -1.5533 -0.6544
 6701SOL    HW231740   0.397   0.333   3.321 -0.5789 -0.7010  0.2313
 6702SOL     OW31741   4.628   4.421  14.396  0.0799  0.2605  0.0542
 6702SOL    HW131742   4.712   4.378  14.415 -0.1686 -0.1892  0.1342
 6702SOL    HW231743   4.633   4.499  14.452  2.5700  0.0172  0.1831
 6703SOL     OW31744   2.394   4.102   7.204  0.0791 -0.2804  0.0007
 6703SOL    HW131745   2.444   4.020   7.202 -1.9905 -1.5925  1.7999
 6703SOL    HW231746   2.315   4.077   7.156  0.7395 -1.5457 -0.4363
 6704SOL     OW31747   1.547   4.241  13.134 -0.3793  0.7386  0.0942
 6704SOL    HW131748   1.546   4.330  13.099  0.7193  0.2817 -1.0872
 6704SOL    HW231749   1.492   4.190  13.075 -0.6195  0.0794  0.8827
 6705SOL     OW31750   2.528   3.362   2.103 -0.1780  0.5384  0.3985
 6705SOL    HW131751   2.612   3.352   2.149 -0.1023 -0.2516  0.1024
 6705SOL    HW231752   2.467   3.336   2.172  1.3508 -2.4266  0.6518
 6706SOL     OW31753   0.466   4.610  11.363 -0.0552 -0.4764 -0.5542
 6706SOL    HW131754   0.484   4.516  11.371  0.0692 -0.3314  0.9326
 6706SOL    HW231755   0.493   4.632  11.274  0.8039  0.0545 -0.1600
 6707SOL     OW31756   0.661   4.243   7.021 -0.2571 -0.1249  0.3109
 6707SOL    HW131757   0.651   4.238   6.926 -1.9892 -1.3848  0.5523
 6707SOL    HW231758   0.690   4.333   7.035  1.0541 -0.3186 -1.1619
 6708SOL     OW31759   4.152   1.593   9.063  0.4233 -0.4052 -0.0783
 6708SOL    HW131760   4.106   1.511   9.080  0.3868 -0.1663  0.9758
 6708SOL    HW231761   4.117   1.613   8.976  1.8790  0.8230 -0.4024
 6709SOL     OW31762   2.423   1.849   4.251  0.5812 -0.0857 -0.3005
 6709SOL    HW131763   2.390   1.794   4.180  1.0908 -1.3386  0.4281
 6709SOL    HW231764   2.409   1.788   4.324  0.6075 -0.0358 -0.2537
 6710SOL     OW31765   3.803   3.150   7.513 -0.2463  0.3012 -0.0196
 6710SOL    HW131766   3.810   3.057   7.491  0.2657  0.3590 -0.1037
 6710SOL    HW231767   3.873   3.147   7.578 -0.5594  0.0517  0.3067
 6711SOL     OW31768   2.520   2.477   2.076  0.5875 -0.2466 -0.0613
 6711SOL    HW131769   2.546   2.435   2.158  1.5547  0.0856 -0.1960
 6711SOL    HW231770   2.602   2.503   2.034  0.4951 -0.9147 -0.6551
 6712SOL     OW31771   1.388   0.738  14.206 -0.0579 -0.4493  0.1947
 6712SOL    HW131772   1.427   0.661  14.165  3.1921  0.9061  0.7291
 6712SOL    HW231773   1.391   0.724  14.301 -0.4942  2.7744  0.7082
 6713SOL     OW31774   0.556   4.504   9.425  0.1617 -0.1148 -0.1869
 6713SOL    HW131775   0.600   4.565   9.484  0.9231 -0.8507  0.0069
 6713SOL    HW231776   0.536   4.549   9.343  0.0253  0.2293  0.0357
 6714SOL     OW31777   0.596   2.248  10.565  0.3669  0.3611  0.0248
 6714SOL    HW131778   0.610   2.230  10.472 -0.6092 -1.5274  0.2385
 6714SOL    HW231779   0.678   2.218  10.605 -0.2811 -2.1479 -0.4716
 6715SOL     OW31780   3.969   3.403   7.199  0.1125 -0.2274 -0.2043
 6715SOL    HW131781   3.900   3.425   7.261 -0.3606  1.1054 -1.1972
 6715SOL    HW231782   3.972   3.311   7.225  1.2627  0.3431  1.7081
 6716SOL     OW31783   3.329   4.420   7.814  0.2170  0.5648 -0.2756
 6716SOL    HW131784   3.314   4.383   7.727 -2.1904  0.6187  0.1158
 6716SOL    HW231785   3.277   4.372   7.879  2.2810 -1.0389  0.1542
 6717SOL     OW31786   3.269   0.593   4.363  0.6472  0.1586 -0.3602
 6717SOL    HW131787   3.263   0.680   4.401 -2.7667 -0.4810  0.6239
 6717SOL    HW231788   3.309   0.606   4.277 -0.9135  0.4737 -1.0550
 6718SOL     OW31789   1.091   0.047  16.557 -0.6349  0.2978 -0.4413
 6718SOL    HW131790   1.148   4.705  16.554 -0.6954  0.2310  0.2632
 6718SOL    HW231791   1.149   0.122  16.546  0.0295 -0.2221 -0.4876
 6719SOL     OW31792   0.643   1.280   8.816 -0.1902  0.2707  0.3755
 6719SOL    HW131793   0.706   1.338   8.773  1.4725 -0.6133  1.6497
 6719SOL    HW231794   0.704   1.222   8.861  0.9310  0.6758 -0.6257
 6720SOL     OW31795   0.115   1.743   7.119 -0.2398 -0.4870  0.4019
 6720SOL    HW131796   0.175   1.760   7.191  1.3426 -0.4271 -0.9371
 6720SOL    HW231797   0.117   1.647   7.128 -1.6883 -0.3477  2.2344
 6721SOL     OW31798   0.842   4.556  14.962  0.3528  0.5564  0.1077
 6721SOL    HW131799   0.880   4.634  15.003  0.5256  0.5155  0.0210
 6721SOL    HW231800   0.917   4.501  14.943  0.0620  0.2198 -0.0749
 6722SOL     OW31801   4.019   0.426   7.082 -0.6971 -0.2401 -0.2905
 6722SOL    HW131802   4.099   0.392   7.040 -0.3918 -0.3760  0.4075
 6722SOL    HW231803   4.016   0.516   7.052  1.2363  0.4485  1.5545
 6723SOL     OW31804   1.527   4.569   1.323 -0.3063  0.4469 -0.1192
 6723SOL    HW131805   1.578   4.566   1.405  0.4963 -1.1671 -0.6780
 6723SOL    HW231806   1.579   4.621   1.262  0.1912 -0.7661 -0.7152
 6724SOL     OW31807   3.894   1.785   5.971  0.1202  0.0984  0.5183
 6724SOL    HW131808   3.866   1.706   6.017 -0.2462  0.0779  0.2594
 6724SOL    HW231809   3.833   1.851   6.004 -0.0250  1.4770 -2.5410
 6725SOL     OW31810   4.183   0.364  16.934 -0.2280 -0.3627 -0.3313
 6725SOL    HW131811   4.246   0.308  16.889  0.1625 -1.1851  1.2646
 6725SOL    HW231812   4.243   0.418  16.985  1.1945 -1.6881 -0.6276
 6726SOL     OW31813   3.949   0.053   8.095  0.3196  0.4725  0.2962
 6726SOL    HW131814   3.966   0.144   8.119  0.7426  0.0984  1.4425
 6726SOL    HW231815   4.012   0.010   8.154  1.3331 -0.4379 -1.4456
 6727SOL     OW31816   0.143   4.361   2.542 -0.8610 -0.0046  0.1921
 6727SOL    HW131817   0.204   4.356   2.615  1.5694  0.3066 -1.8103
 6727SOL    HW231818   0.139   4.270   2.514 -0.0372 -0.1456  0.5365
 6728SOL     OW31819   0.007   0.098  13.888 -0.0194  0.2528  0.1395
 6728SOL    HW131820   0.097   0.131  13.887  0.1589 -0.3589 -2.6931
 6728SOL    HW231821   4.700   0.182  13.868  0.0868  0.3143  0.1722
 6729SOL     OW31822   4.129   1.165   7.450  0.1456 -0.2059 -0.4887
 6729SOL    HW131823   4.073   1.138   7.377 -0.4180  0.9981 -0.5085
 6729SOL    HW231824   4.077   1.139   7.526 -0.4578 -1.1646 -1.2299
 6730SOL     OW31825   0.760   0.938   6.516 -0.9809 -0.3169 -0.4465
 6730SOL    HW131826   0.825   1.007   6.511 -1.8408  0.4646 -0.9143
 6730SOL    HW231827   0.774   0.889   6.435 -2.8424  1.0925 -1.6345
 6731SOL     OW31828   1.771   3.425   4.607 -0.5680 -0.3298  0.6263
 6731SOL    HW131829   1.739   3.493   4.665 -1.2545  0.2850 -0.4874
 6731SOL    HW231830   1.849   3.468   4.570  0.0387 -2.0522 -0.1018
 6732SOL     OW31831   0.088   2.379   1.881  0.1503 -0.3816 -0.2143
 6732SOL    HW131832   0.066   2.344   1.967 -0.6943 -0.3075 -0.3990
 6732SOL    HW231833   0.005   2.383   1.834 -0.0844  0.9577  0.3014
 6733SOL     OW31834   2.618   3.856   2.006 -0.2953  0.3605  0.4757
 6733SOL    HW131835   2.562   3.885   2.078 -0.2946  0.3540  0.4788
 6733SOL    HW231836   2.569   3.775   1.994  1.5738 -0.4516 -1.6747
 6734SOL     OW31837   2.111   2.168   3.344 -0.2531 -0.1563 -0.0132
 6734SOL    HW131838   2.070   2.176   3.258 -0.6411 -2.4215 -0.0418
 6734SOL    HW231839   2.092   2.076   3.360 -0.1950 -0.4454 -1.5655
 6735SOL     OW31840   0.122   3.747   4.508  0.0621  0.2335 -0.1594
 6735SOL    HW131841   0.125   3.653   4.489  1.5673  0.1479  0.5100
 6735SOL    HW231842   0.028   3.751   4.490  0.5476  2.6373 -2.1678
 6736SOL     OW31843   2.609   4.009   9.754  0.2751 -0.3077 -0.1566
 6736SOL    HW131844   2.689   3.958   9.739  0.3513  0.1523 -1.3568
 6736SOL    HW231845   2.537   3.953   9.725  0.1792 -1.2368  1.9276
 6737SOL     OW31846   3.168   2.203  10.954 -0.1866 -0.1493  0.7348
 6737SOL    HW131847   3.198   2.289  10.982 -0.4131  0.4504 -0.8441
 6737SOL    HW231848   3.221   2.144  11.008  0.5297 -0.9728 -0.8480
 6738SOL     OW31849   1.514   4.431   6.931 -0.4883 -0.2209  0.3044
 6738SOL    HW131850   1.555   4.344   6.940  0.0568 -0.0528 -0.5504
 6738SOL    HW231851   1.424   4.407   6.954 -0.7567  1.6378  1.1717
 6739SOL     OW31852   4.682   3.729   7.676  0.1576 -0.2359 -0.6814
 6739SOL    HW131853   4.637   3.709   7.594 -0.2248 -0.6067 -0.3838
 6739SOL    HW231854   4.606   3.769   7.718  0.9169  1.4743 -0.9607
 6740SOL     OW31855   0.101   3.404   6.596 -0.5577 -0.2466 -0.0368
 6740SOL    HW131856   0.041   3.477   6.614 -1.2948 -0.5392 -1.3034
 6740SOL    HW231857   0.064   3.341   6.658  0.8403  0.0192  1.0673
 6741SOL     OW31858   0.628   0.268   5.805  0.1781 -0.1065  0.0786
 6741SOL    HW131859   0.601   0.268   5.714  0.2702  0.6223  0.0472
 6741SOL    HW231860   0.538   0.271   5.836  1.0770  1.0761  2.6339
 6742SOL     OW31861   2.812   4.289  15.301  0.4014 -0.4366 -0.2116
 6742SOL    HW131862   2.739   4.343  15.331  0.7958  0.3433 -0.6819
 6742SOL    HW231863   2.879   4.312  15.366  2.8102 -2.4079 -1.9951
 6743SOL     OW31864   1.273   4.371  11.576  0.0518 -0.5651  0.2727
 6743SOL    HW131865   1.337   4.438  11.552  0.9709 -0.9191  1.7064
 6743SOL    HW231866   1.270   4.380  11.671 -2.6717 -2.4767  0.3705
 6744SOL     OW31867   0.025   0.407   1.726  0.0290 -0.0067 -0.0740
 6744SOL    HW131868   0.035   0.420   1.820  1.2656 -1.8912  0.0585
 6744SOL    HW231869   0.026   0.500   1.706 -0.3979  0.0343  0.0832
 6745SOL     OW31870   4.300   1.673  15.883  0.1595 -0.2801  0.3991
 6745SOL    HW131871   4.297   1.582  15.854  0.9911 -0.4208  0.7662
 6745SOL    HW231872   4.272   1.653  15.972 -0.1842 -1.9547 -0.0794
 6746SOL     OW31873   0.386   4.379   5.407 -0.2022  0.3526  0.2178
 6746SOL    HW131874   0.457   4.388   5.343  1.3592  0.0071  1.9169
 6746SOL    HW231875   0.385   4.287   5.432  1.2564  0.1034 -0.6830
 6747SOL     OW31876   3.646   1.387   4.756 -0.7655  0.0367  0.4894
 6747SOL    HW131877   3.633   1.481   4.773 -0.8266  0.4049 -1.6136
 6747SOL    HW231878   3.720   1.387   4.697 -0.0950 -2.9916  1.3276
 6748SOL     OW31879   3.122   0.952  10.846  0.2365 -0.6447  0.5502
 6748SOL    HW131880   3.189   0.936  10.912  0.3119  0.4603  0.7508
 6748SOL    HW231881   3.047   0.924  10.899 -0.0835 -0.7876  0.0202
 6749SOL     OW31882   1.872   2.069  11.760  0.1790 -0.5553  0.1969
 6749SOL    HW131883   1.943   2.107  11.708  0.2804 -0.0355  0.7143
 6749SOL    HW231884   1.921   1.989  11.778 -0.8105 -1.3508 -0.6827
 6750SOL     OW31885   4.287   2.419   4.772 -0.0166  0.6068 -0.1118
 6750SOL    HW131886   4.225   2.347   4.766  0.4876  0.3803 -2.5559
 6750SOL    HW231887   4.237   2.499   4.754  1.1146  1.3067 -0.1920
 6751SOL     OW31888   2.739   4.122   5.538 -0.0642  0.6173  0.3738
 6751SOL    HW131889   2.761   4.094   5.449  0.5608  1.5245  0.2436
 6751SOL    HW231890   2.706   4.042   5.578  1.2942 -1.7964 -3.3064
 6752SOL     OW31891   1.237   4.268   6.900 -0.4569  0.4987  0.0252
 6752SOL    HW131892   1.220   4.323   6.824 -0.6331  2.5400  1.5385
 6752SOL    HW231893   1.248   4.337   6.965 -1.3991  1.2499 -0.6201
 6753SOL     OW31894   2.071   1.993  12.635  0.2020  0.1263 -0.0737
 6753SOL    HW131895   1.995   2.025  12.587  0.1990 -0.7704 -0.6480
 6753SOL    HW231896   2.142   2.032  12.584  0.5812 -0.5597 -0.0635
 6754SOL     OW31897   3.546   2.651   7.319 -0.3574  0.6108  0.6100
 6754SOL    HW131898   3.535   2.623   7.229  2.5068 -0.5153  0.5847
 6754SOL    HW231899   3.574   2.567   7.356  1.6659  1.1123  0.2149
 6755SOL     OW31900   1.676   1.925   7.562  0.4140 -0.0407  0.4085
 6755SOL    HW131901   1.591   1.969   7.558  0.2706 -0.3928 -0.4828
 6755SOL    HW231902   1.649   1.843   7.520  2.3886  1.5041 -3.8631
 6756SOL     OW31903   2.483   0.532  11.802 -0.1303 -0.2135 -0.0667
 6756SOL    HW131904   2.471   0.561  11.711  1.6481  2.1612  0.4525
 6756SOL    HW231905   2.416   0.587  11.843  0.8743  1.3966 -0.5906
 6757SOL     OW31906   1.886   3.092   4.973  0.4865 -0.0937  0.2907
 6757SOL    HW131907   1.923   3.162   5.027  0.8584  0.5125 -0.7363
 6757SOL    HW231908   1.801   3.082   5.017  0.0262 -0.0524 -0.5813
 6758SOL     OW31909   2.196   3.092  13.999  0.1497  0.1476  0.1891
 6758SOL    HW131910   2.157   3.012  14.034  2.2768 -0.7078  0.5678
 6758SOL    HW231911   2.166   3.148  14.070  0.0278 -0.3208  0.5117
 6759SOL     OW31912   4.371   1.145   6.403 -0.4433  0.1084 -0.6313
 6759SOL    HW131913   4.370   1.241   6.397 -0.1423  0.0914 -0.9934
 6759SOL    HW231914   4.373   1.116   6.312  2.3655 -2.0358  0.1253
 6760SOL     OW31915   0.439   3.268   8.095 -0.0081 -0.6610 -0.0446
 6760SOL    HW131916   0.488   3.214   8.157  0.7528  1.7622  1.4564
 6760SOL    HW231917   0.414   3.197   8.036 -1.3993  1.6439 -2.2253
 6761SOL     OW31918   3.779   2.506  12.394 -0.1115  0.5885 -0.7474
 6761SOL    HW131919   3.864   2.463  12.385 -0.5632 -0.5647  0.5095
 6761SOL    HW231920   3.796   2.580  12.335 -0.3603 -0.1021 -1.6711
 6762SOL     OW31921   4.275   1.197   8.149  0.2964  0.1061  0.0884
 6762SOL    HW131922   4.261   1.209   8.242  3.1746  2.2736  0.2484
 6762SOL    HW231923   4.337   1.124   8.138  0.3332  0.2590 -0.7144
 6763SOL     OW31924   1.758   2.937   7.747 -0.3383  0.1237  0.2021
 6763SOL    HW131925   1.838   2.903   7.788 -1.2577 -0.5670  1.4262
 6763SOL    HW231926   1.778   3.030   7.736  0.2413 -0.0642 -0.3515
 6764SOL     OW31927   3.758   4.364   7.285 -0.7997  0.1196 -0.1744
 6764SOL    HW131928   3.822   4.293   7.298 -0.0678  0.8856  0.3999
 6764SOL    HW231929   3.802   4.434   7.237 -0.3225 -2.9243 -4.2173
 6765SOL     OW31930   3.078   0.578   8.159  0.2792 -0.2741  0.1014
 6765SOL    HW131931   2.998   0.547   8.202  0.0994  0.1687  0.0859
 6765SOL    HW231932   3.067   0.536   8.073 -2.4120 -1.4764  1.0224
 6766SOL     OW31933   3.686   0.041  10.034  0.2524 -0.0335 -0.2595
 6766SOL    HW131934   3.639   0.044  10.116  1.6345 -0.0534  0.5387
 6766SOL    HW231935   3.643   0.115   9.992 -1.5793 -0.6223  0.5955
 6767SOL     OW31936   1.343   3.536  16.639 -0.3617 -0.6565  0.2693
 6767SOL    HW131937   1.295   3.595  16.697  0.9454  1.6675 -0.9684
 6767SOL    HW231938   1.432   3.571  16.652 -1.3293  2.2841 -0.9608
 6768SOL     OW31939   1.701   4.193  16.192  0.3332  0.1103  0.1409
 6768SOL    HW131940   1.633   4.165  16.252  1.1887 -2.4102 -0.0877
 6768SOL    HW231941   1.672   4.160  16.107  0.8319  1.1205 -0.4304
 6769SOL     OW31942   3.292   3.974  16.566 -0.4697  0.1976  0.5414
 6769SOL    HW131943   3.253   3.945  16.649 -0.2268  2.3186  1.4239
 6769SOL    HW231944   3.375   3.928  16.566 -0.2936  0.5266 -0.4660
 6770SOL     OW31945   3.174   1.520  15.196  0.6916  0.3386 -0.2242
 6770SOL    HW131946   3.211   1.532  15.109  3.1106  1.7238  1.0119
 6770SOL    HW231947   3.206   1.593  15.249  1.8000 -0.4644  0.2201
 6771SOL     OW31948   3.919   0.051   4.463  0.3711  0.0358  0.2518
 6771SOL    HW131949   3.995   4.734   4.488  0.5272  0.1162 -0.0567
 6771SOL    HW231950   3.884   4.720   4.403 -0.1937  0.2012  0.3995
 6772SOL     OW31951   1.201   0.752   4.632  0.1609 -0.3040  0.2211
 6772SOL    HW131952   1.171   0.778   4.720  1.9983  2.9051 -0.1021
 6772SOL    HW231953   1.149   0.674   4.614 -1.3751  0.7337  0.2008
 6773SOL     OW31954   1.784   1.503   6.195  0.1697 -0.4391 -0.0279
 6773SOL    HW131955   1.877   1.506   6.171  0.8464  0.3034  2.6216
 6773SOL    HW231956   1.800   1.538   6.283  2.0366  2.1603 -1.4279
 6774SOL     OW31957   4.716   3.528  14.142  0.1363 -0.2130 -0.1165
 6774SOL    HW131958   0.007   3.568  14.225 -0.4267  1.6702 -0.8508
 6774SOL    HW231959   4.621   3.541  14.140  0.2896  1.0713  0.4265
 6775SOL     OW31960   1.762   3.312   6.599  0.0605  0.2034  0.0569
 6775SOL    HW131961   1.711   3.385   6.635  2.0686  2.5795 -1.9569
 6775SOL    HW231962   1.808   3.356   6.527 -2.1084  1.8698 -0.3216
 6776SOL     OW31963   0.545   3.759  12.148  0.2359 -0.2986 -0.0917
 6776SOL    HW131964   0.474   3.822  12.143  0.0715 -0.5648 -0.9755
 6776SOL    HW231965   0.493   3.679  12.161 -0.6093 -0.1482 -2.5506
 6777SOL     OW31966   1.463   2.486   7.271  0.2863 -0.2745  0.5843
 6777SOL    HW131967   1.455   2.574   7.235 -3.4331  0.0607  2.2085
 6777SOL    HW231968   1.418   2.486   7.356  0.9786  0.8300  0.9556
 6778SOL     OW31969   3.069   0.818   4.243  0.5162  0.1596  0.0210
 6778SOL    HW131970   3.133   0.837   4.312 -1.2059  0.4149  1.5762
 6778SOL    HW231971   3.083   0.890   4.182  0.6037  1.7047  1.8448
 6779SOL     OW31972   4.689   3.194   4.010 -0.3287 -0.3616 -0.3304
 6779SOL    HW131973   4.654   3.167   3.925 -0.2745 -0.5009 -0.3096
 6779SOL    HW231974   4.605   3.224   4.044  0.2206  1.0165 -0.2042
 6780SOL     OW31975   2.643   0.872  10.441  0.3300 -0.5069  0.4940
 6780SOL    HW131976   2.571   0.835  10.492 -1.1637  0.5556 -0.8474
 6780SOL    HW231977   2.704   0.860  10.514  1.7076 -0.2064 -0.5974
 6781SOL     OW31978   4.093   3.685   4.052  0.2033  0.4762 -0.3259
 6781SOL    HW131979   4.108   3.593   4.077  2.2910  0.5460 -1.3075
 6781SOL    HW231980   4.120   3.685   3.960  2.0671 -1.2723  0.2195
 6782SOL     OW31981   1.263   3.609   6.934 -0.0375  0.7231  0.1910
 6782SOL    HW131982   1.293   3.666   6.864 -1.0123  1.0702  0.0437
 6782SOL    HW231983   1.248   3.529   6.884  0.1381  0.2630  0.8864
 6783SOL     OW31984   1.815   0.094  12.375 -0.0945 -0.0423  0.0344
 6783SOL    HW131985   1.752   0.119  12.442 -1.0113  2.1352 -1.6389
 6783SOL    HW231986   1.834   0.001  12.389  0.2643  0.3128  1.9740
 6784SOL     OW31987   2.128   0.863   8.256  0.7530 -0.1899  0.0915
 6784SOL    HW131988   2.043   0.908   8.252  1.2279  0.6815 -0.2476
 6784SOL    HW231989   2.183   0.940   8.269  3.7163 -2.8102  2.7207
 6785SOL     OW31990   3.972   3.454   8.896 -0.1325  0.3629 -0.2244
 6785SOL    HW131991   3.889   3.497   8.913  0.7923  0.9362  2.9738
 6785SOL    HW231992   3.955   3.365   8.926  0.6729  0.1258 -0.4619
 6786SOL     OW31993   2.354   3.417   5.463 -0.3433  0.0559 -0.3135
 6786SOL    HW131994   2.280   3.465   5.428  0.8035  1.8707 -0.2702
 6786SOL    HW231995   2.424   3.451   5.407  1.7432 -1.9255  1.0969
 6787SOL     OW31996   0.023   0.872   2.877  0.7330  0.3601  0.0215
 6787SOL    HW131997   0.087   0.887   2.808  1.2605  0.5745  0.5531
 6787SOL    HW231998   0.075   0.893   2.955  0.2781 -0.0930  0.4512
 6788SOL     OW31999   3.924   2.964  13.533  0.1997 -0.3426  0.3776
 6788SOL    HW132000   3.994   3.018  13.497 -0.1491 -0.5838 -0.6475
 6788SOL    HW232001   3.946   2.876  13.504 -0.3798  0.4133 -2.3931
 6789SOL     OW32002   0.500   4.670   8.052  0.0247 -0.5689 -0.4012
 6789SOL    HW132003   0.430   4.610   8.027 -0.6434 -0.0385  0.1858
 6789SOL    HW232004   0.468   0.019   8.018  0.2183  0.2995  1.5669
 6790SOL     OW32005   0.588   1.582  12.444  0.1230  0.7035 -0.1561
 6790SOL    HW132006   0.651   1.649  12.469 -0.1570  0.3199  1.6113
 6790SOL    HW232007   0.639   1.507  12.415 -0.2145  0.3501  0.1555
 6791SOL     OW32008   0.098   2.907  13.269 -0.2985 -0.0060  0.7341
 6791SOL    HW132009   0.093   3.001  13.289  2.2956 -0.2338  2.4464
 6791SOL    HW232010   0.191   2.903  13.245 -0.4902  0.5756 -0.1124
 6792SOL     OW32011   4.698   4.358   6.880 -0.2020 -0.7453  0.5320
 6792SOL    HW132012   4.711   4.305   6.802 -0.1805  0.9041 -0.5767
 6792SOL    HW232013   0.024   4.323   6.946 -0.6362  0.8913  1.7969
 6793SOL     OW32014   3.489   0.213  10.833  0.2276  0.5874  0.4611
 6793SOL    HW132015   3.474   0.263  10.913 -1.5792 -0.2053  0.6240
 6793SOL    HW232016   3.561   0.168  10.876  0.3137  0.8627  0.6022
 6794SOL     OW32017   1.837   3.476   3.425 -0.3972 -0.9122  0.4190
 6794SOL    HW132018   1.900   3.513   3.363  0.7000 -0.7298  1.6312
 6794SOL    HW232019   1.761   3.534   3.422  0.2332 -0.0670  0.7181
 6795SOL     OW32020   3.505   0.425   4.439  0.1598 -0.3981 -0.3284
 6795SOL    HW132021   3.473   0.351   4.387  1.0951  0.0082 -1.4830
 6795SOL    HW232022   3.424   0.477   4.439 -0.5687 -1.5293 -0.9830
 6796SOL     OW32023   1.665   0.039  14.553 -0.2991 -0.2943 -0.2984
 6796SOL    HW132024   1.738   4.714  14.546  0.4722  0.8200 -1.8453
 6796SOL    HW232025   1.659   0.060  14.459  3.1025 -0.1286 -0.4692
 6797SOL     OW32026   0.762   1.188  14.830 -0.6027  0.6480  0.3546
 6797SOL    HW132027   0.850   1.198  14.794 -0.0280 -0.4365  1.4280
 6797SOL    HW232028   0.773   1.225  14.918  2.2577 -1.7058  1.0032
 6798SOL     OW32029   0.637   0.423   2.806  0.2088 -0.3539  0.2920
 6798SOL    HW132030   0.617   0.406   2.898 -3.1805  1.7946 -0.0497
 6798SOL    HW232031   0.641   0.333   2.774  0.7048 -0.3739  0.4051
 6799SOL     OW32032   2.873   3.257   5.515 -0.0184  0.0972  0.6818
 6799SOL    HW132033   2.853   3.175   5.469 -1.8226  1.7404 -1.4569
 6799SOL    HW232034   2.966   3.259   5.539  0.1429  0.7433 -0.0235
 6800SOL     OW32035   3.734   4.090   3.632 -0.2599 -0.0712  0.2097
 6800SOL    HW132036   3.802   4.151   3.659  1.1971 -2.2674  1.5644
 6800SOL    HW232037   3.773   4.004   3.650 -1.2549 -0.4233  0.6755
 6801SOL     OW32038   2.174   1.084  11.352  0.4852  0.1091  0.9022
 6801SOL    HW132039   2.253   1.123  11.313  1.6151 -2.1333  0.9350
 6801SOL    HW232040   2.157   1.018  11.284  1.4106 -2.1514  2.8835
 6802SOL     OW32041   2.046   1.568  10.066 -0.3024  0.0297 -0.0000
 6802SOL    HW132042   2.141   1.576  10.072 -0.2591 -1.0385  0.8336
 6802SOL    HW232043   2.039   1.487  10.015  1.2895 -0.5194  0.6332
 6803SOL     OW32044   2.933   3.891   6.074 -0.0513  0.3944  0.9895
 6803SOL    HW132045   2.872   3.937   6.132  0.5744  0.4317  1.6153
 6803SOL    HW232046   2.992   3.859   6.142  1.7885  0.0377 -0.7589
 6804SOL     OW32047   0.447   3.248   6.539  0.0446 -0.0174 -0.0309
 6804SOL    HW132048   0.496   3.288   6.468  1.0478 -0.5997  0.3339
 6804SOL    HW232049   0.455   3.154   6.519 -0.9936 -0.1047 -0.0308
 6805SOL     OW32050   1.985   3.196  12.763 -0.5404  0.1118  0.0318
 6805SOL    HW132051   1.961   3.173  12.673 -0.0540 -0.8007  0.1345
 6805SOL    HW232052   1.918   3.261  12.784  0.9015  1.0870  1.5712
 6806SOL     OW32053   1.511   4.470   7.408  0.1874  0.1471 -1.1028
 6806SOL    HW132054   1.591   4.512   7.375  1.6824 -3.0630 -1.5447
 6806SOL    HW232055   1.443   4.526   7.372 -4.4601 -3.1210  2.6028
 6807SOL     OW32056   4.207   1.861   4.703  0.0246 -0.3961  0.7760
 6807SOL    HW132057   4.236   1.853   4.612  0.0791  1.9578  0.5872
 6807SOL    HW232058   4.192   1.771   4.731 -0.5335 -0.4702  0.2249
 6808SOL     OW32059   3.158   3.134   3.118  0.0907  0.3365 -0.1256
 6808SOL    HW132060   3.159   3.038   3.119 -1.1039  0.3042 -1.0500
 6808SOL    HW232061   3.217   3.155   3.045  1.2313 -1.8616  0.1521
 6809SOL     OW32062   2.059   2.479   2.741  0.5146  0.2071 -0.1984
 6809SOL    HW132063   2.046   2.441   2.828 -0.9186 -1.9117 -1.3445
 6809SOL    HW232064   2.050   2.573   2.761  0.9556 -0.1913  1.8800
 6810SOL     OW32065   0.947   3.937   8.804 -0.2340 -0.2088  0.1291
 6810SOL    HW132066   1.019   3.875   8.814 -1.2887 -0.9680  3.1858
 6810SOL    HW232067   0.988   4.024   8.813 -0.4477 -0.0537 -0.4463
 6811SOL     OW32068   2.749   0.623   9.591  0.0775  0.2522 -0.4398
 6811SOL    HW132069   2.791   0.616   9.505  0.8413 -0.3529 -0.0146
 6811SOL    HW232070   2.778   0.708   9.624  0.5879 -0.3037  0.5509
 6812SOL     OW32071   0.074   0.765   8.636  0.1431 -0.0254 -0.0189
 6812SOL    HW132072   0.068   0.736   8.727 -1.2351 -0.1252 -0.1436
 6812SOL    HW232073   0.165   0.738   8.625  0.9452  2.5037  0.3125
 6813SOL     OW32074   2.773   1.440   6.723  0.1925  0.2672 -0.7042
 6813SOL    HW132075   2.802   1.388   6.649  1.8268 -1.4675  1.1391
 6813SOL    HW232076   2.846   1.419   6.782 -0.0145 -0.4911 -0.7229
 6814SOL     OW32077   2.048   2.740   2.801 -0.5239 -0.2098  0.0556
 6814SOL    HW132078   2.044   2.781   2.887 -1.1867 -2.2601  1.0029
 6814SOL    HW232079   2.049   2.814   2.741 -2.1635 -0.5283 -0.3616
 6815SOL     OW32080   3.838   2.633   8.702 -0.1508 -0.6671 -0.2758
 6815SOL    HW132081   3.791   2.652   8.784  0.0762 -0.7471 -0.1249
 6815SOL    HW232082   3.832   2.538   8.713 -0.8519 -0.7305 -1.2409
 6816SOL     OW32083   2.201   4.151   7.480  0.6924 -0.3447 -0.1900
 6816SOL    HW132084   2.258   4.090   7.526  1.4132  1.1235  0.8306
 6816SOL    HW232085   2.230   4.241   7.496  1.1089 -0.4913 -0.1278
 6817SOL     OW32086   0.620   0.921  13.221  0.7620 -0.1014 -0.5404
 6817SOL    HW132087   0.540   0.970  13.241  0.4338 -0.2848 -1.4167
 6817SOL    HW232088   0.602   0.837  13.263 -0.6001 -0.9270 -2.7800
 6818SOL     OW32089   3.923   2.003   7.892 -0.3608 -0.0868 -0.2171
 6818SOL    HW132090   3.981   1.956   7.832 -2.7138 -2.0004 -0.9686
 6818SOL    HW232091   3.988   2.065   7.926  0.7560 -0.9493 -0.7828
 6819SOL     OW32092   4.314   1.360  14.099 -0.2223  0.3721 -0.3908
 6819SOL    HW132093   4.287   1.398  14.182  1.8865  1.1265 -0.0313
 6819SOL    HW232094   4.398   1.403  14.079  0.1955  0.4658  1.5172
 6820SOL     OW32095   1.203   0.177  15.551 -0.4202 -0.1723 -0.0064
 6820SOL    HW132096   1.129   0.153  15.605 -1.0367 -0.1120 -0.8249
 6820SOL    HW232097   1.276   0.141  15.601 -1.9320 -1.9342  0.9258
 6821SOL     OW32098   2.483   2.617   2.455 -0.1927 -0.4923  0.2517
 6821SOL    HW132099   2.442   2.585   2.535  2.3439 -1.4603  1.1575
 6821SOL    HW232100   2.578   2.623   2.463  0.0303 -0.2097 -2.4235
 6822SOL     OW32101   3.517   2.698  14.634  0.4825 -0.0452 -0.2523
 6822SOL    HW132102   3.556   2.668  14.717  0.0135 -0.9353 -0.3555
 6822SOL    HW232103   3.426   2.717  14.654  0.7529  0.6107  0.3599
 6823SOL     OW32104   1.299   0.943   6.494  0.8155 -0.0220 -0.6921
 6823SOL    HW132105   1.288   0.974   6.584  0.9956  0.6042 -0.8835
 6823SOL    HW232106   1.220   0.981   6.455 -0.0115 -2.6097 -1.5369
 6824SOL     OW32107   3.748   0.707   7.012  0.6536  0.8184  0.7796
 6824SOL    HW132108   3.745   0.756   7.094 -0.0557  0.3293  1.0486
 6824SOL    HW232109   3.672   0.651   7.026  0.2522  1.2066  0.1849
 6825SOL     OW32110   1.043   0.904   5.593  0.0292  0.3000 -0.2499
 6825SOL    HW132111   1.083   0.909   5.506  1.0860  0.0844  0.2326
 6825SOL    HW232112   0.955   0.875   5.569 -0.9856  2.5531  0.7312
 6826SOL     OW32113   0.254   2.964  11.374 -0.0380 -0.4965  0.0036
 6826SOL    HW132114   0.185   2.971  11.309  0.1097  0.5045 -0.0323
 6826SOL    HW232115   0.230   2.890  11.431  3.0664  0.4999  2.6065
 6827SOL     OW32116   3.028   2.406   9.775  0.2102  0.0374 -0.2834
 6827SOL    HW132117   2.980   2.471   9.722 -0.4282 -0.6534 -0.5523
 6827SOL    HW232118   3.064   2.343   9.713 -1.3604  0.2944 -1.4764
 6828SOL     OW32119   0.830   2.683   7.564 -0.1791 -0.7329 -0.0714
 6828SOL    HW132120   0.916   2.650   7.587  0.4372  0.9733  0.0558
 6828SOL    HW232121   0.852   2.725   7.481 -0.2238  1.5562  1.0739
 6829SOL     OW32122   0.258   4.550   6.842  0.3516  0.4661  0.4144
 6829SOL    HW132123   0.339   4.503   6.821  0.0872  0.2188 -0.0467
 6829SOL    HW232124   0.187   4.501   6.801  0.4499  0.7419 -0.0749
 6830SOL     OW32125   2.956   3.742   5.343  0.7819  0.5913 -0.0819
 6830SOL    HW132126   2.980   3.710   5.431  0.4807 -0.1011 -0.2508
 6830SOL    HW232127   3.017   3.707   5.278  3.5517  0.9033  2.3008
 6831SOL     OW32128   3.497   0.923   7.929  0.1709 -0.1944  0.3625
 6831SOL    HW132129   3.555   0.848   7.917  0.1168 -0.2362  0.3680
 6831SOL    HW232130   3.426   0.878   7.883  0.4261 -0.5372  0.3088
 6832SOL     OW32131   3.580   1.632   7.278  0.4465 -0.0565 -0.2213
 6832SOL    HW132132   3.621   1.593   7.355 -2.6859 -0.2531  1.3265
 6832SOL    HW232133   3.501   1.669   7.317  0.7683  2.6252 -2.0819
 6833SOL     OW32134   1.439   3.015   2.383 -0.4479  0.1493  0.3725
 6833SOL    HW132135   1.521   2.984   2.422  0.4181  0.7954 -0.9532
 6833SOL    HW232136   1.385   2.936   2.396 -0.3951  0.3754  1.9132
 6834SOL     OW32137   0.062   1.949   8.612  0.2651 -0.5534 -0.1472
 6834SOL    HW132138   0.093   2.007   8.541  0.2676 -2.6742 -1.8703
 6834SOL    HW232139   4.727   1.899   8.572 -0.1472 -1.7979  2.1559
 6835SOL     OW32140   0.752   0.147  17.707 -0.4139 -0.2176 -0.4472
 6835SOL    HW132141   0.817   0.087  17.672  0.7969  0.7334  0.1639
 6835SOL    HW232142   0.704   0.177  17.630  1.9644  0.7463 -1.5498
 6836SOL     OW32143   4.614   0.068   7.862 -0.6726  0.1791  0.1820
 6836SOL    HW132144   4.683   0.034   7.919  0.1852 -0.1025 -1.0130
 6836SOL    HW232145   4.539   0.057   7.920 -0.3183  1.1171  0.8202
 6837SOL     OW32146   0.211   2.632   5.986 -0.3014 -0.4462 -0.5352
 6837SOL    HW132147   0.143   2.690   5.952  1.0656  0.2454 -2.0753
 6837SOL    HW232148   0.271   2.684   6.040  2.2337 -1.1455 -2.6731
 6838SOL     OW32149   2.804   3.276   1.534 -0.5033  0.4168  0.3650
 6838SOL    HW132150   2.832   3.365   1.514  0.5606 -0.1321 -0.5522
 6838SOL    HW232151   2.882   3.227   1.510  0.4422  1.9188  0.4000
 6839SOL     OW32152   4.053   2.431   8.560  0.1362 -0.0462 -0.1324
 6839SOL    HW132153   4.043   2.346   8.517 -1.6062 -0.6699  1.4982
 6839SOL    HW232154   4.007   2.485   8.495  1.4347  2.7717  1.2771
 6840SOL     OW32155   3.799   1.681   8.114 -0.1404 -0.3901 -0.2674
 6840SOL    HW132156   3.800   1.775   8.131  1.1469 -0.4815  0.1833
 6840SOL    HW232157   3.870   1.655   8.172  0.9161  0.3266 -1.2400
 6841SOL     OW32158   0.125   4.624   4.962 -0.3851  0.2871  0.1182
 6841SOL    HW132159   0.098   4.665   5.044 -0.5291 -0.0584  0.2411
 6841SOL    HW232160   0.042   4.613   4.917  0.0894 -1.8041 -0.2079
 6842SOL     OW32161   1.876   4.297   7.648  0.2527 -0.1496 -0.0101
 6842SOL    HW132162   1.896   4.210   7.614  0.6295 -1.0765  2.5214
 6842SOL    HW232163   1.864   4.349   7.569 -1.1350  0.9522  0.9251
 6843SOL     OW32164   4.688   2.899   8.688  0.1182 -0.0654 -0.1578
 6843SOL    HW132165   4.658   2.943   8.767 -4.0679 -3.1602 -0.0260
 6843SOL    HW232166   4.626   2.826   8.692 -0.0220  0.0858  0.3800
 6844SOL     OW32167   0.839   4.206  12.614  0.3481 -0.0586  0.0788
 6844SOL    HW132168   0.809   4.267  12.546 -0.5071  1.2507  1.6362
 6844SOL    HW232169   0.820   4.268  12.685 -0.6968  0.7316 -0.8754
 6845SOL     OW32170   3.542   3.112   9.724  0.4625 -0.1250  0.1002
 6845SOL    HW132171   3.519   3.020   9.737  0.3607 -0.5531 -3.1947
 6845SOL    HW232172   3.512   3.144   9.809 -1.1637 -0.0336 -0.5055
 6846SOL     OW32173   0.050   3.679   7.980  0.1945  0.5522 -0.2345
 6846SOL    HW132174   4.731   3.615   7.932 -0.6116  0.7656  0.3875
 6846SOL    HW232175   0.130   3.630   7.997 -1.1325 -1.2815  0.7493
 6847SOL     OW32176   1.418   3.711  15.206  0.4627 -0.0478  0.5588
 6847SOL    HW132177   1.431   3.745  15.117  0.1546  2.0089  1.3026
 6847SOL    HW232178   1.412   3.618  15.182  0.1481 -0.1867  1.1885
 6848SOL     OW32179   2.034   2.822   7.096 -0.1940 -0.1051 -0.2624
 6848SOL    HW132180   2.104   2.869   7.052  1.1183 -1.6033  0.2398
 6848SOL    HW232181   2.080   2.765   7.157 -0.1012 -0.4510 -0.6581
 6849SOL     OW32182   2.068   2.595   8.057 -0.6477 -0.0508  0.0607
 6849SOL    HW132183   2.091   2.637   8.140 -0.0138 -2.5913  1.1832
 6849SOL    HW232184   2.153   2.610   8.015 -0.3906  0.7069  0.8496
 6850SOL     OW32185   4.573   2.904  13.377 -0.2826  0.3295  0.2142
 6850SOL    HW132186   4.517   2.827  13.366 -0.0776 -0.0754  2.0033
 6850SOL    HW232187   4.638   2.891  13.308  0.4419  1.3221  0.7106
 6851SOL     OW32188   3.207   0.888   5.027 -0.1714 -0.5173  0.7559
 6851SOL    HW132189   3.143   0.918   5.091  0.2165  0.6778  0.6001
 6851SOL    HW232190   3.291   0.894   5.072  0.4212  0.4318 -0.4488
 6852SOL     OW32191   1.759   3.767   3.943 -0.1229 -0.1198 -0.4944
 6852SOL    HW132192   1.793   3.803   3.861 -1.4191  0.5056 -0.7666
 6852SOL    HW232193   1.759   3.851   3.989  1.1852 -1.8490  2.6662
 6853SOL     OW32194   1.788   3.660  17.145  0.0274 -0.2663 -0.1904
 6853SOL    HW132195   1.730   3.622  17.211  1.2193 -0.6270  0.6578
 6853SOL    HW232196   1.833   3.588  17.102  2.8568  1.8488 -0.8030
 6854SOL     OW32197   1.943   3.307   8.606  0.0517  0.0646  0.2371
 6854SOL    HW132198   1.858   3.274   8.636 -0.0333  0.3069  0.2615
 6854SOL    HW232199   1.916   3.398   8.610 -0.0241  0.1153 -1.4515
 6855SOL     OW32200   1.096   2.193   5.103  0.2962 -0.1398  0.6661
 6855SOL    HW132201   1.046   2.126   5.055 -0.8247  1.3687 -0.2588
 6855SOL    HW232202   1.071   2.188   5.196  2.8665  1.0117  1.4003
 6856SOL     OW32203   1.510   3.505  16.114 -0.6055  0.4194 -0.0264
 6856SOL    HW132204   1.533   3.511  16.207  0.6275  0.6927 -0.3425
 6856SOL    HW232205   1.496   3.411  16.117 -0.8780  0.5369  2.0001
 6857SOL     OW32206   1.092   3.660   4.958 -0.0031  0.2067  0.7006
 6857SOL    HW132207   1.060   3.717   5.028 -0.0399 -0.0463  0.8909
 6857SOL    HW232208   1.062   3.577   4.996 -1.4363  0.1917 -0.4555
 6858SOL     OW32209   0.582   3.392   2.581 -0.5560 -0.1925 -0.3299
 6858SOL    HW132210   0.602   3.457   2.513  0.5879  1.1768  1.2915
 6858SOL    HW232211   0.492   3.421   2.595 -0.9002 -1.8634  0.8231
 6859SOL     OW32212   1.621   3.736   8.593  0.8006  0.1145  0.3234
 6859SOL    HW132213   1.643   3.816   8.546  2.4374 -0.3338  0.3404
 6859SOL    HW232214   1.710   3.701   8.601  0.3285 -1.4590 -1.1093
 6860SOL     OW32215   2.205   4.636  17.219  0.5604 -0.1686  0.0900
 6860SOL    HW132216   2.263   4.560  17.221  1.5611  0.5503 -2.6288
 6860SOL    HW232217   2.126   4.601  17.178 -1.3553  1.5121  2.3525
 6861SOL     OW32218   4.531   3.736  14.822  0.1153  0.2357  0.3820
 6861SOL    HW132219   4.512   3.827  14.798  3.5187  0.7396 -0.4254
 6861SOL    HW232220   4.482   3.744  14.903  0.8176 -0.5877  0.8869
 6862SOL     OW32221   1.171   0.889   5.361 -0.1441 -0.3175 -0.3325
 6862SOL    HW132222   1.097   0.934   5.322 -1.1679 -0.8347  1.0116
 6862SOL    HW232223   1.192   0.825   5.292  0.3882 -0.0976 -0.3783
 6863SOL     OW32224   3.166   1.727  17.660 -0.5271 -0.3710 -0.1096
 6863SOL    HW132225   3.110   1.730  17.738 -1.9652 -2.8276 -1.0373
 6863SOL    HW232226   3.093   1.700  17.603 -0.7480  0.2546 -0.1174
 6864SOL     OW32227   0.163   1.067  10.251  0.2944 -0.2792  0.1609
 6864SOL    HW132228   0.078   1.103  10.226  0.0689 -0.0413  1.3010
 6864SOL    HW232229   0.208   1.148  10.275  0.8441 -0.3719 -0.5498
 6865SOL     OW32230   4.720   0.057   9.508  0.3133  0.1089  0.3609
 6865SOL    HW132231   4.711   0.007   9.427 -0.3120  0.4995  0.1865
 6865SOL    HW232232   4.675   0.139   9.488 -0.1581 -0.2944 -0.2513
 6866SOL     OW32233   4.600   3.375   0.886 -0.7712 -0.2981 -0.3431
 6866SOL    HW132234   4.623   3.467   0.870 -1.0113 -0.0356  0.7983
 6866SOL    HW232235   4.621   3.329   0.805  2.6176 -1.3132  1.1030
 6867SOL     OW32236   2.487   3.431   4.732 -0.6632 -0.0929 -0.2972
 6867SOL    HW132237   2.531   3.467   4.809  1.9698 -0.9607 -1.4183
 6867SOL    HW232238   2.516   3.489   4.661 -0.4800  0.9918  0.6733
 6868SOL     OW32239   4.595   0.470   8.606  0.2577  0.2604  0.1019
 6868SOL    HW132240   4.683   0.480   8.642  0.1731  1.4918 -0.0361
 6868SOL    HW232241   4.605   0.401   8.541 -1.1368  0.7263 -0.6043
 6869SOL     OW32242   0.058   4.370  12.719 -0.3597  0.5599 -0.3705
 6869SOL    HW132243   0.107   4.420  12.654 -0.5565 -2.0087 -2.4947
 6869SOL    HW232244   0.106   4.398  12.797 -0.6340  0.1155 -0.0433
 6870SOL     OW32245   3.837   4.299  13.200  0.0608  0.0514  0.1571
 6870SOL    HW132246   3.807   4.228  13.144 -1.4448  1.1294 -0.4165
 6870SOL    HW232247   3.930   4.306  13.178  0.0264 -1.1566 -0.3297
 6871SOL     OW32248   0.301   4.001   5.233  0.7386  0.2426 -0.4489
 6871SOL    HW132249   0.212   4.026   5.256  0.0997 -1.1249 -1.4293
 6871SOL    HW232250   0.309   3.924   5.290 -0.6881  0.2997 -0.1583
 6872SOL     OW32251   2.102   1.842   2.746 -0.2294 -0.0222  0.2852
 6872SOL    HW132252   2.135   1.755   2.724  3.2402  1.1305  1.0181
 6872SOL    HW232253   2.105   1.832   2.841 -2.8458 -1.1702  0.2487
 6873SOL     OW32254   2.329   4.578  11.704  0.1299 -0.1277 -0.2354
 6873SOL    HW132255   2.279   4.640  11.757  0.2308 -0.1231 -0.1454
 6873SOL    HW232256   2.279   4.569  11.623  1.7070  0.2273 -1.2395
 6874SOL     OW32257   3.612   2.170   7.576  0.0910  0.2893 -0.1094
 6874SOL    HW132258   3.593   2.223   7.499 -0.0561 -0.3284 -0.5037
 6874SOL    HW232259   3.602   2.077   7.555  0.9142  0.5247 -1.5308
 6875SOL     OW32260   3.269   2.972   8.388  0.7424  0.1567  0.3905
 6875SOL    HW132261   3.284   2.895   8.442  0.4592  1.3923  2.2398
 6875SOL    HW232262   3.221   3.025   8.452 -0.2662  0.2726 -0.4533
 6876SOL     OW32263   0.824   0.508   6.401 -0.1662  0.3515 -0.1287
 6876SOL    HW132264   0.762   0.440   6.427 -3.4520  2.5587 -2.1764
 6876SOL    HW232265   0.900   0.460   6.369 -0.5974 -0.6841  0.4071
 6877SOL     OW32266   3.279   4.079   2.599 -0.4232 -0.2493 -0.6285
 6877SOL    HW132267   3.350   4.055   2.540  0.2357  0.2571 -0.0354
 6877SOL    HW232268   3.335   4.113   2.669 -1.8893 -0.3975  0.6136
 6878SOL     OW32269   1.559   0.808   4.302 -0.1606  0.5532 -0.0846
 6878SOL    HW132270   1.504   0.825   4.378 -0.6953 -0.8812 -0.1394
 6878SOL    HW232271   1.637   0.766   4.339 -1.1706 -1.2758  0.0112
 6879SOL     OW32272   1.423   3.630   1.891 -0.3741  0.0376  0.1255
 6879SOL    HW132273   1.358   3.691   1.927 -1.2973 -0.7007 -0.3137
 6879SOL    HW232274   1.426   3.569   1.964  0.8036  1.5253  1.3326
 6880SOL     OW32275   2.580   3.680  10.684 -0.7103  0.0177 -0.2718
 6880SOL    HW132276   2.652   3.681  10.747 -0.1415 -0.6384 -0.9174
 6880SOL    HW232277   2.549   3.766  10.712  0.5736  0.3117  0.2711
 6881SOL     OW32278   2.205   3.397  16.479 -0.0064 -0.1608  0.6800
 6881SOL    HW132279   2.211   3.410  16.384 -0.3282 -0.4088  0.6224
 6881SOL    HW232280   2.234   3.307  16.492 -0.1244 -0.0740  1.5399
 6882SOL     OW32281   0.109   1.332  15.256 -0.3987 -0.0371 -0.7257
 6882SOL    HW132282   0.069   1.376  15.331  0.4833  0.9655 -0.8504
 6882SOL    HW232283   0.182   1.390  15.234 -1.1466  1.3103  0.3697
 6883SOL     OW32284   3.546   2.505   7.089  0.1639 -0.1975 -0.2411
 6883SOL    HW132285   3.494   2.476   7.014 -0.8427 -2.5098  1.3260
 6883SOL    HW232286   3.626   2.460   7.063  1.1903  0.7330  1.3843
 6884SOL     OW32287   2.331   0.215   9.088  0.5371  0.2768 -0.4382
 6884SOL    HW132288   2.290   0.190   9.171  1.0415 -1.2063 -0.6385
 6884SOL    HW232289   2.374   0.295   9.119  2.9673 -0.5781 -1.5673
 6885SOL     OW32290   4.605   3.925   7.990 -0.3537 -0.3754  0.2252
 6885SOL    HW132291   4.528   3.904   7.937  0.0152 -2.9227  0.6702
 6885SOL    HW232292   4.659   3.847   7.979  1.3600  1.0726 -1.5898
 6886SOL     OW32293   0.228   0.120   3.856  0.4454  0.1728  0.6628
 6886SOL    HW132294   0.159   0.173   3.816  1.5085  1.8544  1.0651
 6886SOL    HW232295   0.202   0.032   3.831 -1.8461  0.8366  0.6936
 6887SOL     OW32296   4.244   4.368   8.502 -0.3756 -0.3759 -0.1129
 6887SOL    HW132297   4.298   4.295   8.534 -0.9154 -0.2006  1.2067
 6887SOL    HW232298   4.231   4.430   8.574 -1.4137 -1.6799  0.8195
 6888SOL     OW32299   2.702   0.197   6.304  0.4833  0.3882  0.0116
 6888SOL    HW132300   2.617   0.180   6.263  0.1289  0.8177  0.5726
 6888SOL    HW232301   2.748   0.136   6.247  2.0280  1.2549  0.3237
 6889SOL     OW32302   4.074   1.592   3.331  0.2571  0.0130  0.2834
 6889SOL    HW132303   4.157   1.548   3.351  1.2289  0.4793 -2.6418
 6889SOL    HW232304   4.084   1.667   3.390 -0.0247  0.2657  0.0078
 6890SOL     OW32305   1.380   3.135   9.324 -0.3742 -0.0442 -0.1771
 6890SOL    HW132306   1.288   3.118   9.340 -0.5374 -0.9407 -2.0600
 6890SOL    HW232307   1.375   3.223   9.362  0.2935  0.7068 -1.8076
 6891SOL     OW32308   1.851   3.182  14.572  0.0553 -0.0873  0.3354
 6891SOL    HW132309   1.904   3.207  14.648 -0.0571 -1.0362  0.7177
 6891SOL    HW232310   1.822   3.097  14.603 -0.4027 -0.0099  0.1232
 6892SOL     OW32311   3.331   1.698   8.480 -0.0445 -0.0980 -0.2477
 6892SOL    HW132312   3.290   1.729   8.399  2.6446  1.4409 -1.0157
 6892SOL    HW232313   3.264   1.635   8.508  0.3138 -1.0598 -1.5711
 6893SOL     OW32314   4.724   0.719   1.599 -0.2455  0.2944 -0.1658
 6893SOL    HW132315   0.054   0.776   1.557 -1.1007 -0.7634 -2.9126
 6893SOL    HW232316   4.654   0.717   1.534 -2.2110  1.1772  1.9250
 6894SOL     OW32317   0.925   2.603   8.061  0.1762 -0.1550  0.5928
 6894SOL    HW132318   0.879   2.662   8.000  1.5048 -0.3922 -0.6306
 6894SOL    HW232319   0.857   2.595   8.128  0.9494 -1.2188  1.2527
 6895SOL     OW32320   2.523   2.141  14.352  0.5995 -0.3120 -0.4697
 6895SOL    HW132321   2.459   2.078  14.317 -1.0997  1.1720 -0.0252
 6895SOL    HW232322   2.464   2.205  14.390 -0.9209 -0.9112 -1.7966
 6896SOL     OW32323   2.203   0.138   5.593 -0.4054 -0.0648  0.3968
 6896SOL    HW132324   2.223   0.109   5.683 -1.3000  1.8952  1.2201
 6896SOL    HW232325   2.270   0.206   5.586 -0.8360  0.3744  0.5349
 6897SOL     OW32326   0.214   0.665   3.275 -0.5517  0.6738  0.5128
 6897SOL    HW132327   0.209   0.664   3.370 -2.6490  0.7820  0.4072
 6897SOL    HW232328   0.125   0.674   3.243 -0.7631  0.5245  1.0619
 6898SOL     OW32329   2.222   1.755   1.473 -0.9968  0.3195 -0.3753
 6898SOL    HW132330   2.149   1.693   1.479 -0.8970  0.3472  1.1718
 6898SOL    HW232331   2.210   1.805   1.554 -1.6927  0.5787 -0.6324
 6899SOL     OW32332   3.315   0.059  10.635 -0.6716 -0.4814  0.6568
 6899SOL    HW132333   3.348   0.103  10.714 -0.3137 -1.5582  1.1062
 6899SOL    HW232334   3.393   0.042  10.582 -1.3859  1.3433 -0.9774
 6900SOL     OW32335   0.363   1.064   3.367 -0.2080  0.1817 -0.5877
 6900SOL    HW132336   0.270   1.085   3.379  0.5671  2.1451  1.8888
 6900SOL    HW232337   0.392   1.154   3.348  0.9846 -0.7847 -3.3544
 6901SOL     OW32338   3.987   2.752   5.415 -0.1370 -0.3456  0.2676
 6901SOL    HW132339   3.947   2.837   5.430 -0.5573 -0.7058  1.2531
 6901SOL    HW232340   4.072   2.777   5.451 -0.3973  2.0472 -0.7946
 6902SOL     OW32341   3.137   2.320  12.202 -0.4075  0.4844  0.2274
 6902SOL    HW132342   3.213   2.377  12.217 -0.4977  0.5972  0.2606
 6902SOL    HW232343   3.107   2.361  12.121 -0.6091  2.5119  1.3160
 6903SOL     OW32344   0.486   0.024  12.995  0.3777  0.0241  0.8693
 6903SOL    HW132345   0.435   4.702  12.937 -0.0680  0.6679  0.6318
 6903SOL    HW232346   0.466   4.719  13.080 -1.3180  1.4573  1.1343
 6904SOL     OW32347   4.557   4.305  12.128  0.2794  0.2379  0.9394
 6904SOL    HW132348   4.468   4.340  12.119  0.7081  0.7748 -1.2944
 6904SOL    HW232349   4.559   4.225  12.074  2.0204  1.1109 -0.2779
 6905SOL     OW32350   3.918   0.505  16.957  0.3481  0.4720 -0.7336
 6905SOL    HW132351   3.981   0.537  17.022  2.8900 -1.3017 -2.3236
 6905SOL    HW232352   3.936   0.549  16.874 -0.5788  1.0850 -0.6053
 6906SOL     OW32353   3.264   2.670   5.996 -0.0663 -0.1402 -0.1278
 6906SOL    HW132354   3.323   2.734   6.035  0.5643  1.1282 -3.1190
 6906SOL    HW232355   3.313   2.627   5.925  0.0518 -2.4176  1.3410
 6907SOL     OW32356   1.230   2.195  11.322 -0.0619  0.4564 -0.6311
 6907SOL    HW132357   1.289   2.127  11.290 -0.3969  0.5499 -1.4474
 6907SOL    HW232358   1.293   2.262  11.346  1.3183 -1.5830  1.4301
 6908SOL     OW32359   3.670   3.132   5.350 -0.7595  0.1543 -0.4255
 6908SOL    HW132360   3.599   3.118   5.288  0.5529 -0.4937 -1.7843
 6908SOL    HW232361   3.617   3.168   5.421  0.5447  0.5055  0.3647
 6909SOL     OW32362   0.673   2.485   1.967  0.1246  0.1377 -0.2644
 6909SOL    HW132363   0.610   2.504   2.037  0.5548 -1.2164  0.4900
 6909SOL    HW232364   0.628   2.412   1.926  2.6685 -1.4141 -0.3426
 6910SOL     OW32365   0.746   4.500   7.708 -0.5102  0.0909  0.5178
 6910SOL    HW132366   0.822   4.481   7.763  1.5882  1.3078 -1.9529
 6910SOL    HW232367   0.681   4.457   7.763 -0.5938 -0.0456  0.3127
 6911SOL     OW32368   1.385   0.918   1.419  0.4157  0.0225 -0.3467
 6911SOL    HW132369   1.303   0.918   1.469  1.0120 -1.6725  0.6268
 6911SOL    HW232370   1.388   1.004   1.377 -0.2156  0.3988  0.3739
 6912SOL     OW32371   1.407   4.657   7.923  0.8522  0.2440  0.2368
 6912SOL    HW132372   1.449   4.619   8.000  0.3344 -1.8703 -0.5257
 6912SOL    HW232373   1.318   4.626   7.938  1.4142 -0.7055  1.5904
 6913SOL     OW32374   2.764   3.302   3.902 -0.2016 -0.1481 -0.4958
 6913SOL    HW132375   2.692   3.245   3.931  0.3223 -0.1586  0.7444
 6913SOL    HW232376   2.810   3.313   3.985 -2.1141  1.9155  0.3334
 6914SOL     OW32377   1.508   0.628   8.695 -0.2345  0.1023 -0.5303
 6914SOL    HW132378   1.465   0.701   8.740 -0.1425 -0.4013  0.3735
 6914SOL    HW232379   1.429   0.592   8.655  1.5404  0.0767 -3.9599
 6915SOL     OW32380   1.279   2.027   6.034  0.2367  0.0763  0.7845
 6915SOL    HW132381   1.335   2.029   5.957 -1.6357 -0.7192 -0.5798
 6915SOL    HW232382   1.330   1.991   6.107 -0.8038 -1.8768  0.5368
 6916SOL     OW32383   0.660   4.528   5.304  0.5462  0.2921 -0.2159
 6916SOL    HW132384   0.746   4.495   5.279 -0.2008 -1.6388 -0.2214
 6916SOL    HW232385   0.667   4.576   5.387  0.9490 -2.5188  1.3810
 6917SOL     OW32386   0.275   2.912   5.345 -0.0050 -0.0158 -0.3909
 6917SOL    HW132387   0.297   2.943   5.433  1.0209  1.2180 -1.0861
 6917SOL    HW232388   0.203   2.852   5.366 -1.5162  1.3603 -1.6779
 6918SOL     OW32389   0.006   2.072   0.695  0.1764  0.1890 -0.0213
 6918SOL    HW132390   0.027   2.061   0.788  0.2358 -0.4958 -0.1190
 6918SOL    HW232391   0.092   2.102   0.663 -1.1413  2.2295 -1.6938
 6919SOL     OW32392   3.880   4.329  13.569  0.7497  0.1998 -0.7049
 6919SOL    HW132393   3.958   4.362  13.524  1.0286 -0.8882 -1.0246
 6919SOL    HW232394   3.921   4.299  13.650  2.8428  1.1384 -1.4318
 6920SOL     OW32395   1.183   2.100   6.684 -0.5366  0.5351 -0.0983
 6920SOL    HW132396   1.101   2.079   6.729 -0.7180  2.2000  0.3568
 6920SOL    HW232397   1.225   2.157   6.748 -1.6898 -0.4454  1.5565
 6921SOL     OW32398   1.227   4.551   3.892 -0.0215  0.5877  0.0639
 6921SOL    HW132399   1.139   4.586   3.880 -0.1583  0.1336 -0.2674
 6921SOL    HW232400   1.230   4.552   3.988  1.4481 -0.6811  0.0469
 6922SOL     OW32401   2.943   3.764   4.772  0.5180  0.1044 -0.0034
 6922SOL    HW132402   2.936   3.809   4.688 -1.7413 -0.5182 -0.1690
 6922SOL    HW232403   3.001   3.691   4.752  1.1874  0.3463  1.0699
 6923SOL     OW32404   3.796   0.867   9.628 -0.6484  0.2746  0.0645
 6923SOL    HW132405   3.793   0.852   9.723  0.0186  0.9718  0.1915
 6923SOL    HW232406   3.765   0.958   9.628 -1.2181  0.0833 -1.0275
 6924SOL     OW32407   4.384   1.685   8.175  0.0330 -0.0545  0.8399
 6924SOL    HW132408   4.368   1.701   8.082 -2.3139  2.8937  1.7517
 6924SOL    HW232409   4.404   1.591   8.170 -0.4471 -0.0726 -0.5891
 6925SOL     OW32410   1.905   0.676   3.014 -0.8255 -0.4652  0.5734
 6925SOL    HW132411   1.830   0.635   2.971  0.4805 -2.0475 -0.1834
 6925SOL    HW232412   1.971   0.611   2.988  1.5445  2.0372  0.3314
 6926SOL     OW32413   0.852   0.314   0.387  0.2212 -0.1500  0.4237
 6926SOL    HW132414   0.849   0.247   0.455  0.6875 -1.3680 -0.7465
 6926SOL    HW232415   0.849   0.256   0.311  1.9007  1.1283 -0.6189
 6927SOL     OW32416   0.494   3.725   3.116 -0.2708  0.2201 -0.3955
 6927SOL    HW132417   0.567   3.677   3.075 -0.3716  0.0497 -0.3749
 6927SOL    HW232418   0.427   3.722   3.048 -1.4715  0.5826  0.7680
 6928SOL     OW32419   0.936   1.757   6.140 -0.6556  0.1441  0.0651
 6928SOL    HW132420   0.897   1.817   6.076 -1.3922 -0.3337  0.0634
 6928SOL    HW232421   0.856   1.719   6.177 -0.2146  1.1447  2.0386
 6929SOL     OW32422   4.620   0.966   8.018 -0.2049  0.2128  0.2988
 6929SOL    HW132423   4.689   0.995   8.077 -0.1855 -2.1698  1.4627
 6929SOL    HW232424   4.650   0.876   8.003  0.5240  0.2299  1.6623
 6930SOL     OW32425   3.029   2.710   0.524  0.0967  0.0446  0.5903
 6930SOL    HW132426   2.973   2.660   0.465  1.8837 -3.3245  1.7129
 6930SOL    HW232427   2.999   2.682   0.611  1.1527  2.7393  1.8176
 6931SOL     OW32428   2.170   3.749   8.177 -0.0069 -0.2896 -0.3601
 6931SOL    HW132429   2.192   3.695   8.102 -1.8015 -0.3473 -0.8547
 6931SOL    HW232430   2.111   3.815   8.139  2.2107  2.5661  1.1409
 6932SOL     OW32431   1.538   3.878  16.293 -0.4027 -0.4187 -0.0255
 6932SOL    HW132432   1.611   3.844  16.344 -1.8447 -3.1541  0.1918
 6932SOL    HW232433   1.521   3.960  16.339 -0.7494 -1.5640  1.8634
 6933SOL     OW32434   2.360   3.708  13.736 -0.5221 -0.3167  0.0684
 6933SOL    HW132435   2.404   3.624  13.719  0.5767  0.7916 -2.5227
 6933SOL    HW232436   2.435   3.767  13.725 -2.1601  1.4890 -1.3442
 6934SOL     OW32437   2.524   3.926   4.328  0.4235  0.5180  0.1404
 6934SOL    HW132438   2.523   4.021   4.341 -2.1730  0.4703  0.3607
 6934SOL    HW232439   2.522   3.904   4.235  2.2877 -0.7770  0.4128
 6935SOL     OW32440   0.817   3.155  15.081 -0.6837 -0.2727  0.0596
 6935SOL    HW132441   0.837   3.227  15.020  0.0277 -1.4507 -1.0908
 6935SOL    HW232442   0.897   3.133  15.128  0.4568  1.2875 -1.1373
 6936SOL     OW32443   1.006   1.303   2.729 -0.4225  0.0150 -0.1447
 6936SOL    HW132444   0.943   1.239   2.695  1.0087 -2.3942  1.7700
 6936SOL    HW232445   1.031   1.356   2.653  1.9558  1.4396  1.6397
 6937SOL     OW32446   4.722   1.114  14.258 -0.2328  0.4139 -0.1361
 6937SOL    HW132447   4.665   1.166  14.201 -1.8211 -0.1517  0.9369
 6937SOL    HW232448   0.056   1.179  14.271 -0.4125  0.6045 -0.1329
 6938SOL     OW32449   2.075   1.874   8.724 -0.2145 -0.3474  0.0618
 6938SOL    HW132450   2.018   1.915   8.789 -0.3023 -1.7976  0.9112
 6938SOL    HW232451   2.143   1.844   8.784 -1.3264 -0.0550  1.4633
 6939SOL     OW32452   3.993   4.257   7.117 -0.5686 -0.2121  0.2514
 6939SOL    HW132453   4.068   4.299   7.074 -1.7398  1.0665 -0.5426
 6939SOL    HW232454   4.016   4.254   7.210 -0.7334  0.3210  0.3080
 6940SOL     OW32455   1.453   4.261  15.942 -0.0497 -0.1182  0.2843
 6940SOL    HW132456   1.363   4.274  15.972  1.0538  4.1409  1.6732
 6940SOL    HW232457   1.443   4.279  15.848 -1.1774 -1.1221  0.2150
 6941SOL     OW32458   0.575   2.068   5.500 -0.9129 -0.5726 -0.3795
 6941SOL    HW132459   0.538   2.136   5.557 -0.2208 -2.6675  2.6183
 6941SOL    HW232460   0.573   2.120   5.420  0.6973 -0.0331 -0.0755
 6942SOL     OW32461   4.571   2.626   2.832  0.4564  0.0748  0.3593
 6942SOL    HW132462   4.576   2.671   2.916  0.3856 -3.1216  2.0892
 6942SOL    HW232463   4.482   2.652   2.811  0.3393  2.8966  4.1865
 6943SOL     OW32464   1.988   4.118   6.793  0.2811 -0.1639 -0.8484
 6943SOL    HW132465   2.037   4.045   6.829  0.7728  0.3548 -0.4791
 6943SOL    HW232466   1.905   4.076   6.771 -0.2909  1.7704 -2.4345
 6944SOL     OW32467   3.188   4.059   5.163 -0.3079 -0.2276 -0.2798
 6944SOL    HW132468   3.167   3.990   5.100  0.8263 -0.4717 -0.3853
 6944SOL    HW232469   3.106   4.102   5.138  0.4281  1.3178 -0.0733
 6945SOL     OW32470   2.382   3.716  16.482  0.0461 -0.1558  0.0364
 6945SOL    HW132471   2.389   3.801  16.438 -2.8639 -0.2316 -0.5699
 6945SOL    HW232472   2.343   3.750  16.563  1.6059 -0.1400  0.7850
 6946SOL     OW32473   2.673   2.124   6.138  0.3555 -0.4502  0.2347
 6946SOL    HW132474   2.629   2.137   6.222  0.0270 -1.9200  0.2830
 6946SOL    HW232475   2.652   2.033   6.117 -1.2096  0.0556 -0.3891
 6947SOL     OW32476   1.256   0.018   4.982  0.6206 -0.1358 -0.9475
 6947SOL    HW132477   1.309   0.093   5.007  0.9397 -0.6083 -0.1857
 6947SOL    HW232478   1.243   4.705   5.065 -0.6534  0.1845 -0.9571
 6948SOL     OW32479   2.586   1.049   8.914  0.2389 -0.8580  0.2653
 6948SOL    HW132480   2.681   1.050   8.900  0.3483 -2.3146  0.8244
 6948SOL    HW232481   2.557   1.137   8.891 -1.0443 -1.1958  0.5920
 6949SOL     OW32482   3.333   3.975   1.960  0.2220 -0.7505 -0.3241
 6949SOL    HW132483   3.352   4.053   1.907  1.3595 -0.9679 -0.2287
 6949SOL    HW232484   3.238   3.990   1.966  0.8313  3.3793 -0.8697
 6950SOL     OW32485   4.444   0.777   8.288  0.0800 -0.2528 -0.7140
 6950SOL    HW132486   4.525   0.731   8.306 -0.0780 -0.0266  0.5773
 6950SOL    HW232487   4.403   0.786   8.374 -0.1319 -3.3854 -0.4922
 6951SOL     OW32488   4.261   0.998   8.727 -0.2534 -0.6882  0.4533
 6951SOL    HW132489   4.344   1.027   8.689 -0.3877 -0.7129  0.1417
 6951SOL    HW232490   4.233   1.077   8.772  0.4635 -0.1349 -0.0800
 6952SOL     OW32491   0.500   0.572   2.612  0.1248  1.0158  0.1132
 6952SOL    HW132492   0.554   0.523   2.674  0.3929  1.5158  0.2678
 6952SOL    HW232493   0.415   0.561   2.654  0.6314 -3.0939  0.1084
 6953SOL     OW32494   1.795   2.049   5.732  0.3519  0.0286  0.0928
 6953SOL    HW132495   1.769   1.959   5.755  1.7955 -0.5382 -0.5037
 6953SOL    HW232496   1.833   2.084   5.812  0.5114  1.5643 -0.6639
 6954SOL     OW32497   2.274   0.809   8.995 -0.0687  0.1031 -0.5448
 6954SOL    HW132498   2.289   0.716   9.009  1.5427  0.3451 -0.5922
 6954SOL    HW232499   2.344   0.854   9.043 -1.0355  1.2445 -0.2180
 6955SOL     OW32500   2.478   0.919   4.381 -0.2658 -0.2088 -0.1823
 6955SOL    HW132501   2.537   0.873   4.322 -0.6571  0.7374 -1.2948
 6955SOL    HW232502   2.546   0.933   4.447 -0.1458 -0.5794 -0.2242
 6956SOL     OW32503   2.111   0.335   6.006  0.1822  0.0914  0.2181
 6956SOL    HW132504   2.082   0.289   6.085  0.0360 -0.5509 -0.2064
 6956SOL    HW232505   2.087   0.422   6.037 -0.4753 -0.7049  1.9762
 6957SOL     OW32506   0.112   1.484   2.587  0.5586 -0.0817 -0.1228
 6957SOL    HW132507   0.085   1.409   2.533  2.0145 -1.7394  1.4521
 6957SOL    HW232508   0.188   1.439   2.625  0.6656  0.2853  0.0901
 6958SOL     OW32509   4.734   0.500   1.973  0.1716  0.1199  0.1221
 6958SOL    HW132510   0.063   0.557   2.016  0.0326  0.4100 -0.0565
 6958SOL    HW232511   4.735   0.427   2.035 -0.5475 -0.4784 -0.5893
 6959SOL     OW32512   0.292   1.952  11.220 -0.2040  0.2705 -0.3054
 6959SOL    HW132513   0.380   1.936  11.256  0.2424  1.5317 -0.8058
 6959SOL    HW232514   0.306   1.948  11.126 -1.4013 -3.8660 -0.3038
 6960SOL     OW32515   0.474   3.558   0.089  0.3326  0.1934  0.1772
 6960SOL    HW132516   0.395   3.570   0.143 -0.9412  2.2865 -2.1607
 6960SOL    HW232517   0.450   3.485   0.031 -0.6123 -0.7184  1.7023
 6961SOL     OW32518   1.102   0.433  15.623  0.2420 -0.5148  0.1737
 6961SOL    HW132519   1.108   0.343  15.593 -1.8908  0.2901 -2.6934
 6961SOL    HW232520   1.179   0.466  15.575 -0.5255  0.8425 -0.1205
 6962SOL     OW32521   1.030   2.058  14.380  0.2342  0.9907  0.0010
 6962SOL    HW132522   1.088   1.983  14.372  0.7900  1.5264 -1.0364
 6962SOL    HW232523   0.980   2.036  14.459  1.2242 -2.6319 -0.4118
 6963SOL     OW32524   0.466   0.389   5.980  0.4639  1.0452  0.3413
 6963SOL    HW132525   0.534   0.456   5.973  0.9006  0.3007 -2.5149
 6963SOL    HW232526   0.434   0.404   6.069 -0.2495 -1.3513  0.4879
 6964SOL     OW32527   2.913   1.615  15.070 -0.2329 -0.3854 -0.0754
 6964SOL    HW132528   2.986   1.570  15.114 -0.0375  1.7673  1.7930
 6964SOL    HW232529   2.842   1.577  15.122 -1.5130  1.8584 -0.1855
 6965SOL     OW32530   3.610   2.934  15.668  0.4924  0.0093  0.0913
 6965SOL    HW132531   3.658   3.017  15.674 -2.1727  1.5629  0.1831
 6965SOL    HW232532   3.536   2.958  15.724  0.4210  0.9120 -0.3910
 6966SOL     OW32533   1.948   2.664   6.876  0.1947  0.1110  0.4860
 6966SOL    HW132534   1.878   2.724   6.853  0.3271  0.6724  1.5517
 6966SOL    HW232535   1.989   2.730   6.932  0.0675  0.0354  0.6702
 6967SOL     OW32536   3.540   1.652   4.817  0.1639  0.3451 -0.3709
 6967SOL    HW132537   3.531   1.691   4.730  1.3748 -0.8559 -1.0506
 6967SOL    HW232538   3.457   1.605   4.824  0.3339  0.2246  0.7885
 6968SOL     OW32539   3.179   1.987  15.017  0.2023 -0.0777  0.1912
 6968SOL    HW132540   3.103   2.045  15.012 -1.2703 -1.8681  1.6738
 6968SOL    HW232541   3.237   2.024  15.083 -1.8343  1.6149  1.0361
 6969SOL     OW32542   3.913   4.178   6.439  0.1501  0.2480  0.1047
 6969SOL    HW132543   3.869   4.255   6.403 -1.8286 -0.0611  1.8997
 6969SOL    HW232544   3.854   4.153   6.510 -0.1712  0.8101  0.0322
 6970SOL     OW32545   4.467   3.403   3.740  0.0278  0.2132 -0.5049
 6970SOL    HW132546   4.477   3.310   3.755 -0.0078  0.3114  0.1302
 6970SOL    HW232547   4.437   3.405   3.649 -1.8780  0.5722  0.1282
 6971SOL     OW32548   0.570   1.258   6.778  0.4657  0.1080  0.8264
 6971SOL    HW132549   0.572   1.230   6.686  0.8052  1.8082  0.3090
 6971SOL    HW232550   0.483   1.299   6.775  0.5495  0.3074  1.1711
 6972SOL     OW32551   0.732   1.507  13.319  0.7543  0.3221 -0.0486
 6972SOL    HW132552   0.736   1.550  13.404 -1.6834 -0.9804  0.7155
 6972SOL    HW232553   0.689   1.569  13.260  0.6626  0.6623  0.3804
 6973SOL     OW32554   0.555   3.830   1.396 -0.0468 -0.5915  0.0861
 6973SOL    HW132555   0.569   3.906   1.340 -1.9918 -1.2301 -1.2663
 6973SOL    HW232556   0.539   3.878   1.477 -0.2436  2.4532 -1.7680
 6974SOL     OW32557   4.512   0.320   2.191 -0.2818 -0.4883  0.1484
 6974SOL    HW132558   4.542   0.274   2.269  1.4919 -1.6036 -1.1808
 6974SOL    HW232559   4.505   0.235   2.148 -1.2409 -0.7241  0.7767
 6975SOL     OW32560   2.894   0.846   3.118  0.4967 -0.0063 -0.2393
 6975SOL    HW132561   2.866   0.758   3.144 -0.4527  0.2457 -0.4080
 6975SOL    HW232562   2.824   0.864   3.055  1.3220  0.1666 -1.0946
 6976SOL     OW32563   4.042   4.033   6.216  0.1938 -0.0643 -0.0040
 6976SOL    HW132564   4.126   4.007   6.253 -0.6809 -0.9094  1.3554
 6976SOL    HW232565   3.998   4.070   6.292 -0.4600  1.4018 -1.0795
 6977SOL     OW32566   4.054   3.405   6.780 -0.0648 -0.4775  0.2037
 6977SOL    HW132567   4.060   3.437   6.870 -2.1946  1.0394 -0.1874
 6977SOL    HW232568   3.964   3.427   6.753  0.2446  0.3558 -0.1331
 6978SOL     OW32569   3.709   3.316   9.672  0.4418 -0.2985  0.2188
 6978SOL    HW132570   3.705   3.344   9.763  1.0136 -1.6679  0.6595
 6978SOL    HW232571   3.635   3.256   9.667 -1.1421  1.5321  1.9218
 6979SOL     OW32572   1.696   3.631   4.769 -0.3319 -0.1770  0.2801
 6979SOL    HW132573   1.673   3.547   4.809  1.4540  0.1266  1.9581
 6979SOL    HW232574   1.697   3.686   4.847  0.0760  1.4417 -0.8426
 6980SOL     OW32575   3.431   3.608   6.006 -0.0688 -0.3212  0.2829
 6980SOL    HW132576   3.499   3.558   6.051 -2.4153 -1.1725  2.8517
 6980SOL    HW232577   3.441   3.698   6.038  1.2358  0.0258 -1.0885
 6981SOL     OW32578   4.118   0.589   5.201  0.1481  0.8140  0.5611
 6981SOL    HW132579   4.045   0.649   5.218 -0.0804  0.9990 -1.1330
 6981SOL    HW232580   4.122   0.544   5.286 -0.6189 -1.3893 -0.5656
 6982SOL     OW32581   4.571   0.321   2.854 -0.1687  0.3706 -0.4913
 6982SOL    HW132582   4.541   0.234   2.880  0.3659  0.3602  0.1154
 6982SOL    HW232583   4.559   0.370   2.936  4.0826  1.2673 -0.3651
 6983SOL     OW32584   0.343   3.195   4.897 -1.0376  0.0299 -0.4169
 6983SOL    HW132585   0.330   3.290   4.904  1.1404  0.1803  1.8476
 6983SOL    HW232586   0.386   3.188   4.812  0.3424  3.4253 -0.0042
 6984SOL     OW32587   4.223   3.633   3.196 -0.2135 -0.4126 -0.2591
 6984SOL    HW132588   4.307   3.607   3.157  0.3388  1.7350 -0.4681
 6984SOL    HW232589   4.153   3.595   3.142 -0.1606  0.9431 -1.2920
 6985SOL     OW32590   1.849   2.804  12.736 -0.1893  0.6250  0.1396
 6985SOL    HW132591   1.777   2.742  12.720 -0.8717  1.3484  0.4219
 6985SOL    HW232592   1.806   2.860  12.801  2.0416  1.7863  0.5996
 6986SOL     OW32593   1.549   1.929   4.674  0.1944 -0.4231 -0.1064
 6986SOL    HW132594   1.630   1.973   4.698 -0.9057  1.3044  0.4843
 6986SOL    HW232595   1.507   1.918   4.760  2.3224 -1.4464  0.7971
 6987SOL     OW32596   0.792   3.286   5.503  0.3479  0.2559  0.0325
 6987SOL    HW132597   0.717   3.232   5.480  1.2044 -1.5660  1.5127
 6987SOL    HW232598   0.766   3.314   5.591  0.8501  1.1475 -0.0962
 6988SOL     OW32599   0.608   0.976   6.094 -0.1754 -0.6251  0.3667
 6988SOL    HW132600   0.586   0.998   6.184  0.4293 -1.4800  0.7317
 6988SOL    HW232601   0.529   0.932   6.065  0.6427 -1.2109 -0.9897
 6989SOL     OW32602   1.059   1.355  16.333 -0.6529 -0.0850 -0.2037
 6989SOL    HW132603   1.104   1.371  16.416 -0.6567 -1.0682 -0.0202
 6989SOL    HW232604   0.968   1.377  16.352 -0.5164  2.5433 -2.5484
 6990SOL     OW32605   1.168   2.821  14.710 -1.2098 -0.0366 -0.0288
 6990SOL    HW132606   1.134   2.792  14.795 -1.3049  1.9989  0.6235
 6990SOL    HW232607   1.149   2.915  14.711 -0.3969  0.1205  0.5004
 6991SOL     OW32608   3.393   3.065  15.782 -0.0110 -0.2542  0.3610
 6991SOL    HW132609   3.324   3.024  15.730  0.4602 -1.6404  0.8155
 6991SOL    HW232610   3.381   3.156  15.757  0.3525 -0.4430 -0.4819
 6992SOL     OW32611   4.677   1.156   6.437  0.0415 -0.1819  0.7568
 6992SOL    HW132612   4.601   1.099   6.425  1.1321 -1.5883  0.4498
 6992SOL    HW232613   4.647   1.209   6.510 -0.4361 -0.2987  0.6446
 6993SOL     OW32614   2.107   3.215   8.446 -0.4070  0.7923  0.0590
 6993SOL    HW132615   2.111   3.304   8.411 -0.3686  0.7192 -0.1227
 6993SOL    HW232616   2.037   3.235   8.509  0.2043  0.6900  0.7624
 6994SOL     OW32617   3.166   3.313   1.212 -0.2434  0.1396  0.6157
 6994SOL    HW132618   3.109   3.334   1.138  1.3787  0.6232 -0.4747
 6994SOL    HW232619   3.230   3.255   1.171 -1.1357 -0.0218 -0.5752
 6995SOL     OW32620   0.189   3.710   6.006 -0.1129 -0.0711  0.2728
 6995SOL    HW132621   0.249   3.660   5.950 -0.8246 -2.4640  1.6510
 6995SOL    HW232622   0.247   3.782   6.026 -0.3523  0.7720 -1.9885
 6996SOL     OW32623   2.858   4.702   5.208 -0.1150  0.6146  0.1537
 6996SOL    HW132624   2.925   0.010   5.154 -0.0521 -0.2970 -0.5034
 6996SOL    HW232625   2.864   4.609   5.183  0.9584  1.2466 -1.9608
 6997SOL     OW32626   0.247   4.293   3.915 -0.3891  0.1459 -0.5828
 6997SOL    HW132627   0.235   4.201   3.889 -0.7580 -0.2296  0.8769
 6997SOL    HW232628   0.313   4.312   3.849 -0.9514  1.2750 -0.8241
 6998SOL     OW32629   2.905   3.403   9.997  0.4757  0.3232 -0.8906
 6998SOL    HW132630   2.930   3.338  10.063 -1.0514  0.8067  0.1745
 6998SOL    HW232631   2.918   3.483  10.048 -0.2852  0.0573 -0.2856
 6999SOL     OW32632   1.765   4.091   2.838 -0.2775  0.2551 -0.3000
 6999SOL    HW132633   1.778   4.083   2.933  1.0087  0.8777 -0.4194
 6999SOL    HW232634   1.851   4.130   2.819 -1.4772  1.2927 -3.6844
 7000SOL     OW32635   2.623   3.034   1.668 -0.2938 -0.0924 -0.2889
 7000SOL    HW132636   2.681   3.027   1.744  1.4844  1.1921 -1.5303
 7000SOL    HW232637   2.618   3.129   1.663  1.9423  0.2219  3.0048
 7001SOL     OW32638   0.703   1.133   7.082 -0.0078 -0.4594 -0.5598
 7001SOL    HW132639   0.636   1.196   7.056  2.2752  2.7237  1.1906
 7001SOL    HW232640   0.784   1.175   7.051 -0.3144  1.3395  1.0702
 7002SOL     OW32641   0.529   0.682   6.363  0.8730  0.2964  0.0547
 7002SOL    HW132642   0.470   0.616   6.400  1.4142 -0.6912 -0.8390
 7002SOL    HW232643   0.608   0.644   6.401 -1.3831 -2.9289  1.5793
 7003SOL     OW32644   2.043   4.592   7.584  0.2897 -0.2199  0.0163
 7003SOL    HW132645   2.089   4.541   7.650 -1.8030  0.2608  1.8280
 7003SOL    HW232646   2.109   4.586   7.514 -0.2645 -2.0960 -0.3398
 7004SOL     OW32647   0.516   4.471   6.816  0.6689 -0.0943  0.2878
 7004SOL    HW132648   0.597   4.471   6.866  0.3988  2.3447  0.7552
 7004SOL    HW232649   0.538   4.431   6.733  0.2691  2.3217 -0.9987
 7005SOL     OW32650   4.015   2.209   1.190 -0.5323 -0.3077 -0.1957
 7005SOL    HW132651   4.035   2.296   1.224 -1.6254 -0.1871  0.1288
 7005SOL    HW232652   3.969   2.175   1.266 -0.2280 -1.0219 -0.3316
 7006SOL     OW32653   2.706   3.006   3.410  0.2846 -0.0434  0.6171
 7006SOL    HW132654   2.725   2.966   3.495 -0.7706 -0.5932  0.5981
 7006SOL    HW232655   2.791   3.017   3.369 -0.1857  0.2579 -0.2880
 7007SOL     OW32656   4.649   3.342   8.227  0.2394 -0.0552  0.2150
 7007SOL    HW132657   4.699   3.365   8.149  0.8423  0.3955  0.7364
 7007SOL    HW232658   4.564   3.309   8.196  1.2206 -1.4357 -1.0097
 7008SOL     OW32659   1.391   2.517   8.008 -0.3400  0.5328  0.0587
 7008SOL    HW132660   1.406   2.429   7.973 -0.8181  0.5298 -0.1435
 7008SOL    HW232661   1.333   2.506   8.083 -0.1640 -0.2456  0.0823
 7009SOL     OW32662   1.173   1.494   4.633 -0.1923 -0.0423  0.1329
 7009SOL    HW132663   1.195   1.544   4.712 -0.7601  0.7130 -0.1875
 7009SOL    HW232664   1.078   1.487   4.649  0.0453 -0.9978  1.1041
 7010SOL     OW32665   1.029   3.566   2.922  0.0380  0.2373  0.2521
 7010SOL    HW132666   1.107   3.553   2.868 -1.0872  0.4173 -1.3901
 7010SOL    HW232667   0.965   3.506   2.885  0.8455  0.4097 -1.4034
 7011SOL     OW32668   0.805   3.299   3.542  0.0100  0.0719  0.4965
 7011SOL    HW132669   0.835   3.387   3.518 -1.7622  0.3139 -0.7472
 7011SOL    HW232670   0.852   3.284   3.624  2.4407  0.2772 -0.8407
 7012SOL     OW32671   2.632   4.462   6.386  0.0092  0.0736  0.0332
 7012SOL    HW132672   2.571   4.504   6.326 -1.2387 -2.7101 -0.6199
 7012SOL    HW232673   2.697   4.426   6.326  0.5799  2.5534 -0.8412
 7013SOL     OW32674   1.780   3.487   1.830  0.5022  0.7938 -0.7038
 7013SOL    HW132675   1.781   3.514   1.922 -0.3483  1.5390 -0.9224
 7013SOL    HW232676   1.858   3.535   1.801  1.1973  0.6860  0.9854
 7014SOL     OW32677   0.386   2.643   6.589 -0.2425 -0.3330  0.0845
 7014SOL    HW132678   0.464   2.587   6.587 -0.1457 -0.2437  1.2915
 7014SOL    HW232679   0.333   2.576   6.546 -2.2371  1.5884 -0.4066
 7015SOL     OW32680   2.027   3.370   1.104 -0.2131  0.1677 -0.3984
 7015SOL    HW132681   1.962   3.300   1.105  1.6476 -1.5677  0.4048
 7015SOL    HW232682   1.990   3.438   1.160 -1.7202 -1.5391  0.6831
 7016SOL     OW32683   2.635   2.636  13.576  0.4652 -0.1009  0.0404
 7016SOL    HW132684   2.670   2.710  13.625  0.3394  0.0751 -0.1370
 7016SOL    HW232685   2.716   2.619  13.527  0.2439 -2.5076  0.4881
 7017SOL     OW32686   1.090   1.008   6.932 -0.6392  0.0290 -0.7416
 7017SOL    HW132687   1.106   0.997   7.026 -0.4214 -0.6962 -0.8651
 7017SOL    HW232688   1.004   0.967   6.930 -0.5816 -0.0374 -1.7267
 7018SOL     OW32689   3.780   0.763   7.338  0.5320 -0.3113  0.1797
 7018SOL    HW132690   3.695   0.780   7.295 -0.1228  1.2376  2.0895
 7018SOL    HW232691   3.745   0.730   7.420 -1.2228  1.1393  0.0155
 7019SOL     OW32692   1.235   2.590   6.362 -0.6125 -0.5190  0.4217
 7019SOL    HW132693   1.283   2.578   6.280 -0.6648 -1.6711  0.5597
 7019SOL    HW232694   1.297   2.597   6.434 -0.8277 -1.0610  0.6632
 7020SOL     OW32695   4.710   3.801   1.106 -0.3153  0.1465 -0.6494
 7020SOL    HW132696   4.692   3.718   1.150  0.5932 -0.4045 -1.2978
 7020SOL    HW232697   0.069   3.803   1.086  0.2364 -2.1792  1.7009
 7021SOL     OW32698   4.475   3.121   8.934 -0.3320  0.0386 -0.1082
 7021SOL    HW132699   4.389   3.081   8.922 -0.6434  0.9897 -1.0550
 7021SOL    HW232700   4.495   3.115   9.027  0.1641  1.5387 -0.1203
 7022SOL     OW32701   3.236   2.899   4.787 -0.2504  0.7636  0.0899
 7022SOL    HW132702   3.188   2.830   4.833  1.0081  0.0123  0.2938
 7022SOL    HW232703   3.325   2.867   4.803 -0.3141  0.1193 -0.8692
 7023SOL     OW32704   2.062   2.173  11.468  0.3234  0.1903  0.1875
 7023SOL    HW132705   2.073   2.258  11.510  0.7890  0.3383 -0.2362
 7023SOL    HW232706   2.137   2.165  11.410 -0.9934 -3.0174 -1.0234
 7024SOL     OW32707   0.400   4.720  11.048  0.2616  0.4825  0.0053
 7024SOL    HW132708   0.482   0.017  11.010 -0.2751  0.7373 -0.9202
 7024SOL    HW232709   0.337   4.721  10.976  0.5114  0.5669 -0.2149
 7025SOL     OW32710   0.642   2.816   4.228 -0.3498  0.1083  0.3146
 7025SOL    HW132711   0.729   2.818   4.269  0.7398  0.2534 -2.0215
 7025SOL    HW232712   0.645   2.722   4.209  2.8223  0.2584 -0.0549
 7026SOL     OW32713   0.011   0.744   5.477  0.3633  0.0160  0.0475
 7026SOL    HW132714   4.728   0.651   5.464 -0.2746  0.0452  0.7199
 7026SOL    HW232715   4.673   0.792   5.438  1.8797  2.2736 -0.0177
 7027SOL     OW32716   2.079   3.000   9.204 -0.2899 -0.2703 -0.3169
 7027SOL    HW132717   2.157   3.022   9.154  0.5633  0.4736  1.3210
 7027SOL    HW232718   2.061   2.913   9.168  0.5808 -0.6464  0.1651
 7028SOL     OW32719   4.327   4.242   3.368 -0.0707 -0.2587  0.0621
 7028SOL    HW132720   4.350   4.209   3.281  0.3887  1.4500 -0.4715
 7028SOL    HW232721   4.414   4.278   3.383 -0.3254 -0.2980  1.6190
 7029SOL     OW32722   0.558   4.103   5.209  0.0223  0.2416  0.2667
 7029SOL    HW132723   0.587   4.126   5.297 -4.3410  0.6800  1.5719
 7029SOL    HW232724   0.475   4.062   5.230  0.6769 -0.1667  2.0254
 7030SOL     OW32725   1.396   2.094   8.347  0.9911  0.1019 -0.1166
 7030SOL    HW132726   1.389   2.046   8.429  0.4784 -0.7932 -0.6775
 7030SOL    HW232727   1.486   2.118   8.365  0.6773  0.3129  1.1844
 7031SOL     OW32728   3.239   1.122   3.710 -0.5352  0.3834  0.2728
 7031SOL    HW132729   3.260   1.045   3.764  0.1399  2.3223  2.7797
 7031SOL    HW232730   3.264   1.192   3.770  2.3798  0.2922 -0.8368
 7032SOL     OW32731   0.850   0.203   7.011  0.0704  0.1829  0.2295
 7032SOL    HW132732   0.780   0.187   7.075 -1.0408 -1.9846 -1.5426
 7032SOL    HW232733   0.924   0.211   7.071  1.0179  1.9639 -1.1533
 7033SOL     OW32734   2.033   0.955  17.373  0.2623 -0.2092 -0.3438
 7033SOL    HW132735   1.950   0.932  17.332  0.5269 -1.1557 -0.3452
 7033SOL    HW232736   2.003   0.982  17.459 -1.2257  0.0100 -0.9375
 7034SOL     OW32737   1.678   0.431   1.665 -0.0460  0.1336  0.0525
 7034SOL    HW132738   1.712   0.517   1.638  0.6925 -0.3435 -0.5477
 7034SOL    HW232739   1.584   0.446   1.671  0.1428  1.0063  0.7571
 7035SOL     OW32740   1.515   0.250  16.999 -0.1680 -0.2193  0.2564
 7035SOL    HW132741   1.514   0.243  16.903  0.4451  2.8205  0.0171
 7035SOL    HW232742   1.470   0.333  17.013 -1.6081 -1.2453  1.7068
 7036SOL     OW32743   3.177   1.475   8.488  0.0319  0.0951 -0.3088
 7036SOL    HW132744   3.112   1.439   8.427 -0.5512  0.1978  0.2444
 7036SOL    HW232745   3.255   1.421   8.475 -1.4126 -2.1235  0.2471
 7037SOL     OW32746   3.664   2.011  17.088 -0.2595 -0.1418 -0.2787
 7037SOL    HW132747   3.683   1.933  17.141 -1.1118 -0.7748 -0.8988
 7037SOL    HW232748   3.739   2.064  17.116 -1.6493  0.9123  1.4446
 7038SOL     OW32749   3.858   0.702  15.000 -0.0790  0.1591  0.2125
 7038SOL    HW132750   3.788   0.745  15.050 -0.5968 -0.6768  0.2074
 7038SOL    HW232751   3.868   0.770  14.933 -3.2445 -0.7195 -1.1675
 7039SOL     OW32752   1.822   3.354  13.499  0.1798 -0.0045 -0.6283
 7039SOL    HW132753   1.794   3.294  13.430  1.0545 -0.0801 -0.9075
 7039SOL    HW232754   1.768   3.432  13.484  0.6661  0.1579 -1.4905
 7040SOL     OW32755   2.389   2.029  17.499  0.4040  0.2522 -0.4574
 7040SOL    HW132756   2.316   1.972  17.475  0.7891 -0.7970  0.8651
 7040SOL    HW232757   2.391   2.093  17.428 -2.5496  0.0328 -0.7435
 7041SOL     OW32758   1.666   1.097  16.769  0.3069 -0.2077  0.0698
 7041SOL    HW132759   1.590   1.142  16.733 -1.0169 -3.0798 -0.7673
 7041SOL    HW232760   1.740   1.155  16.755 -1.2605  2.0291  1.0741
 7042SOL     OW32761   2.274   2.392   3.374  0.1014  0.1019  1.2561
 7042SOL    HW132762   2.209   2.323   3.373 -0.0748  0.2634  1.8898
 7042SOL    HW232763   2.325   2.368   3.451 -0.1735 -2.3429  0.6681
 7043SOL     OW32764   1.925   3.352   5.967 -0.1207 -0.7343  0.3816
 7043SOL    HW132765   1.856   3.296   6.004 -0.0529 -1.1755 -0.1714
 7043SOL    HW232766   1.966   3.400   6.039  1.1976  2.3273 -2.4640
 7044SOL     OW32767   1.155   0.556   7.728  0.4867 -0.5363 -0.3295
 7044SOL    HW132768   1.215   0.585   7.659 -0.7283 -0.1175 -1.2079
 7044SOL    HW232769   1.142   0.468   7.692  0.6633 -0.9895  0.7434
 7045SOL     OW32770   1.740   1.848  16.935 -0.4191 -0.6349 -0.1745
 7045SOL    HW132771   1.718   1.940  16.953 -2.2342 -0.8619 -1.2200
 7045SOL    HW232772   1.736   1.851  16.839  0.7527 -1.7621 -0.2621
 7046SOL     OW32773   2.411   3.931   4.917 -0.0490 -0.2940  0.0208
 7046SOL    HW132774   2.428   3.888   5.001 -0.1127  2.5250  1.4965
 7046SOL    HW232775   2.501   3.935   4.886 -0.1209  2.5521  0.1773
 7047SOL     OW32776   3.127   3.005   1.206  0.2114 -0.3085  0.0807
 7047SOL    HW132777   3.134   2.939   1.137  0.9442 -2.0364  1.8066
 7047SOL    HW232778   3.216   3.040   1.216  0.5737 -1.2226  0.0650
 7048SOL     OW32779   4.238   2.527   2.597 -0.0815  0.3053  0.2506
 7048SOL    HW132780   4.253   2.514   2.503  0.9057 -0.6366  0.5337
 7048SOL    HW232781   4.328   2.507   2.623  0.2111  3.1690  1.4986
 7049SOL     OW32782   0.273   0.580   4.009  0.3519  0.5771 -0.2659
 7049SOL    HW132783   0.193   0.531   4.029  1.8831 -1.1833  1.5478
 7049SOL    HW232784   0.231   0.646   3.953 -0.8106  1.0499  1.1506
 7050SOL     OW32785   0.962   3.258   7.674 -0.4453 -0.0455  0.1604
 7050SOL    HW132786   0.968   3.303   7.590  0.3263 -1.6734 -0.6461
 7050SOL    HW232787   0.969   3.340   7.724  1.8842  1.8066 -3.1849
 7051SOL     OW32788   4.005   1.171   3.134 -0.1211  0.3441 -0.2767
 7051SOL    HW132789   3.977   1.085   3.103 -0.0938 -0.0512  0.7808
 7051SOL    HW232790   3.936   1.192   3.196 -1.1436 -0.6161 -1.0911
 7052SOL     OW32791   0.901   3.513  16.213 -0.0204  0.2783 -0.6206
 7052SOL    HW132792   0.946   3.517  16.297  0.0921  0.7522 -0.7017
 7052SOL    HW232793   0.968   3.502  16.146 -0.4080  3.7010 -1.5868
 7053SOL     OW32794   0.400   3.607   3.774  0.1520 -0.2848  0.7935
 7053SOL    HW132795   0.321   3.559   3.802  0.7696 -1.2615  0.8525
 7053SOL    HW232796   0.464   3.543   3.804 -0.3277 -1.5642 -0.9297
 7054SOL     OW32797   3.235   1.597   1.682  0.5060 -0.3265  0.2810
 7054SOL    HW132798   3.229   1.502   1.687 -1.7386 -0.3858 -3.4651
 7054SOL    HW232799   3.308   1.614   1.741 -0.4946  2.5520  0.6889
 7055SOL     OW32800   1.675   1.419   3.287  0.0423 -0.1966 -0.8002
 7055SOL    HW132801   1.596   1.403   3.234 -0.3570  0.0617 -0.2867
 7055SOL    HW232802   1.743   1.364   3.246  0.5077  0.0204 -0.3048
 7056SOL     OW32803   1.420   2.199   2.988 -0.7400  0.2188 -0.0808
 7056SOL    HW132804   1.387   2.277   2.942  0.3394  0.1976 -0.8775
 7056SOL    HW232805   1.476   2.232   3.058 -1.3569  1.7597 -0.2914
 7057SOL     OW32806   4.368   3.283   1.976  0.6722  0.4912  0.6540
 7057SOL    HW132807   4.278   3.283   1.943  1.5572 -0.6141 -1.7629
 7057SOL    HW232808   4.394   3.193   1.954  0.5201  0.7856 -0.6973
 7058SOL     OW32809   4.052   4.293   7.388  0.4210  0.1185  0.2881
 7058SOL    HW132810   4.119   4.357   7.365 -0.8318  1.7336  1.2079
 7058SOL    HW232811   4.027   4.315   7.478  1.0641  1.2884  0.1799
 7059SOL     OW32812   1.561   2.753   7.194  0.1582  0.3040 -0.3427
 7059SOL    HW132813   1.575   2.793   7.280  0.9579  2.0899 -1.2940
 7059SOL    HW232814   1.555   2.826   7.132  3.2802  1.1651  0.3413
 7060SOL     OW32815   4.130   2.116   6.836 -0.5083 -0.9152 -0.0717
 7060SOL    HW132816   4.144   2.146   6.925  2.7328  2.1935 -1.6247
 7060SOL    HW232817   4.170   2.182   6.780  0.6051 -1.0161  0.6129
 7061SOL     OW32818   2.350   0.048  15.781 -0.2411 -0.1888  0.5720
 7061SOL    HW132819   2.302   0.049  15.699 -0.7336 -0.1729  0.8605
 7061SOL    HW232820   2.288   0.002  15.838  0.1863 -0.3983  0.8732
 7062SOL     OW32821   4.416   0.107   2.635 -0.6644 -0.7052  0.0670
 7062SOL    HW132822   4.336   0.100   2.583 -0.8940 -0.2779  0.3590
 7062SOL    HW232823   4.415   0.198   2.665 -2.1673 -1.2580  1.6967
 7063SOL     OW32824   4.135   3.003   2.143 -0.5213 -0.1869 -0.3196
 7063SOL    HW132825   4.043   3.028   2.148  0.0819  1.3261  3.3407
 7063SOL    HW232826   4.158   3.015   2.235  0.6516 -0.5261 -0.5659
 7064SOL     OW32827   0.296   0.139  11.387 -0.4081  0.0004  0.1644
 7064SOL    HW132828   0.314   0.205  11.320  1.1544 -1.6551 -1.0402
 7064SOL    HW232829   0.356   0.066  11.370 -0.6148 -0.1399  0.0325
 7065SOL     OW32830   3.017   2.759   2.378  0.5051 -0.0475  0.2620
 7065SOL    HW132831   3.085   2.822   2.402  0.8828 -0.1298 -0.6212
 7065SOL    HW232832   3.032   2.696   2.449 -1.3548 -0.3343  0.4102
 7066SOL     OW32833   3.920   2.813   3.659 -0.1088  0.3639  0.5008
 7066SOL    HW132834   3.905   2.726   3.696 -3.5665  0.3146 -1.0095
 7066SOL    HW232835   3.984   2.796   3.589  0.7200  1.9472  0.8815
 7067SOL     OW32836   2.538   0.169   8.065 -0.0380 -0.2173 -0.2798
 7067SOL    HW132837   2.516   0.258   8.090 -1.7807 -0.5411 -0.6530
 7067SOL    HW232838   2.487   0.176   7.985 -0.3249 -3.7566 -0.4192
 7068SOL     OW32839   2.399   3.157  16.489 -0.2432  0.3814  0.0619
 7068SOL    HW132840   2.439   3.187  16.408 -1.2541 -0.8181 -0.8831
 7068SOL    HW232841   2.435   3.068  16.498 -1.6912 -0.4780 -2.5224
 7069SOL     OW32842   4.096   4.589  13.530 -0.0468  0.2378  0.1942
 7069SOL    HW132843   4.123   4.508  13.487 -1.9573 -0.3521  0.1085
 7069SOL    HW232844   4.043   4.634  13.466  0.4672  0.5960  0.0189
 7070SOL     OW32845   0.784   2.163  10.740 -0.1194 -0.0319  0.4627
 7070SOL    HW132846   0.870   2.136  10.772 -0.6518  0.3587  2.2306
 7070SOL    HW232847   0.761   2.240  10.793  2.2732  0.8315  0.2629
 7071SOL     OW32848   3.266   0.097  15.663  0.1235 -0.3148 -0.4061
 7071SOL    HW132849   3.245   0.176  15.613  2.9364  0.9885  0.4474
 7071SOL    HW232850   3.304   0.039  15.597  0.3197 -0.0161 -0.5534
 7072SOL     OW32851   2.609   3.943   2.807  0.1429 -0.1452  0.5915
 7072SOL    HW132852   2.633   3.851   2.815 -2.0743 -0.8999 -1.4165
 7072SOL    HW232853   2.685   3.977   2.760  0.7145 -2.2550 -0.0323
 7073SOL     OW32854   2.141   0.905   5.653  0.0023  0.1904 -0.0812
 7073SOL    HW132855   2.213   0.845   5.672  1.2132  1.1221 -1.6683
 7073SOL    HW232856   2.178   0.949   5.577  0.2717  1.3259  0.7123
 7074SOL     OW32857   2.171   3.586   5.380  0.0451 -0.3714  0.2757
 7074SOL    HW132858   2.126   3.666   5.406  0.2576  0.0838 -0.7622
 7074SOL    HW232859   2.139   3.581   5.290 -0.7319 -0.3329  0.5504
 7075SOL     OW32860   2.448   1.908   0.810  0.1525  0.0824 -0.3619
 7075SOL    HW132861   2.454   1.976   0.742  1.6197 -0.6707 -0.9684
 7075SOL    HW232862   2.452   1.826   0.761 -0.5746 -0.2281  0.0879
 7076SOL     OW32863   4.052   3.942  13.725  0.1123 -0.4947 -0.3862
 7076SOL    HW132864   3.982   3.998  13.759 -0.9961 -0.5312 -2.6266
 7076SOL    HW232865   4.008   3.860  13.702 -0.3825 -0.6253  0.9933
 7077SOL     OW32866   1.238   2.407   2.041 -0.2895  0.2522 -0.6999
 7077SOL    HW132867   1.143   2.408   2.031 -0.4053  1.0604  0.4732
 7077SOL    HW232868   1.258   2.327   1.992 -0.0971  0.4275 -0.9099
 7078SOL     OW32869   2.352   3.183  15.167  0.1939  0.6734 -0.2979
 7078SOL    HW132870   2.445   3.166  15.152  0.4051  1.1239  0.4797
 7078SOL    HW232871   2.358   3.198  15.262 -0.7592  2.9060 -0.5755
 7079SOL     OW32872   3.732   0.247   0.603  0.6760 -0.2648  0.0720
 7079SOL    HW132873   3.652   0.292   0.629  1.0981  0.1940  0.5847
 7079SOL    HW232874   3.703   0.156   0.606 -0.3132 -0.0457 -2.6331
 7080SOL     OW32875   3.604   1.878   7.482 -0.3697  0.5562 -0.3721
 7080SOL    HW132876   3.545   1.820   7.530  0.6583 -1.4152 -1.5314
 7080SOL    HW232877   3.547   1.911   7.413 -1.7204 -1.2852 -0.1423
 7081SOL     OW32878   3.931   2.091  14.080 -0.5344 -0.2265  0.3473
 7081SOL    HW132879   3.999   2.054  14.023 -0.8871 -1.2596  0.5927
 7081SOL    HW232880   3.948   2.042  14.160 -0.0491  0.2420  0.5356
 7082SOL     OW32881   0.660   3.197   5.972 -0.0666  0.0990 -0.2769
 7082SOL    HW132882   0.717   3.177   6.047 -0.9334  0.5979  0.5110
 7082SOL    HW232883   0.728   3.205   5.905 -1.0945  2.1166 -1.0740
 7083SOL     OW32884   4.297   0.376  11.215 -0.5479  0.5529 -0.0652
 7083SOL    HW132885   4.301   0.454  11.270 -0.1076  0.8236 -0.4860
 7083SOL    HW232886   4.373   0.324  11.239  0.8378  2.7169  0.2098
 7084SOL     OW32887   0.673   2.995   1.438 -0.3299 -0.9051 -0.2079
 7084SOL    HW132888   0.609   2.987   1.508 -1.1490  0.9631 -0.7376
 7084SOL    HW232889   0.717   3.078   1.455 -1.7354 -0.7579  2.7471
 7085SOL     OW32890   4.147   4.091   2.257 -0.3431  0.2820 -0.1257
 7085SOL    HW132891   4.145   4.004   2.216  2.7564  0.1542 -0.0029
 7085SOL    HW232892   4.133   4.148   2.181  3.2152  1.7559  0.3081
 7086SOL     OW32893   1.741   3.070   0.595  0.1555  0.4312  0.9106
 7086SOL    HW132894   1.686   3.064   0.674 -0.7352 -1.3373  0.1703
 7086SOL    HW232895   1.688   3.034   0.524  1.9506 -0.4381  0.0148
 7087SOL     OW32896   0.360   2.701   2.613 -0.8582 -0.0546  0.0026
 7087SOL    HW132897   0.384   2.657   2.694  3.0078  1.0226 -0.5678
 7087SOL    HW232898   0.376   2.793   2.633 -0.3271 -0.2665  0.5654
 7088SOL     OW32899   2.560   1.376   8.365  0.1954  0.3543 -0.6077
 7088SOL    HW132900   2.651   1.346   8.362 -0.8108 -2.7133 -0.7877
 7088SOL    HW232901   2.564   1.465   8.329  0.9403  0.2524 -0.7777
 7089SOL     OW32902   4.050   1.058  13.284 -0.0853  0.7030  0.1258
 7089SOL    HW132903   4.036   1.110  13.205 -0.6736 -0.0628 -0.2808
 7089SOL    HW232904   4.081   0.975  13.248  0.2983  1.6031 -1.6247
 7090SOL     OW32905   2.262   4.617   5.335  0.2498 -0.5048  0.1299
 7090SOL    HW132906   2.326   4.649   5.399  0.3473 -1.1134  0.3310
 7090SOL    HW232907   2.184   4.638   5.387 -0.7291 -2.7124 -0.4788
 7091SOL     OW32908   3.722   3.557   9.555 -0.7080 -0.0753  0.2336
 7091SOL    HW132909   3.817   3.559   9.558 -0.5593 -0.2345 -3.9189
 7091SOL    HW232910   3.704   3.480   9.609 -0.1772 -1.0742 -1.0166
 7092SOL     OW32911   2.183   2.181   9.006 -0.3066  0.3203  0.6702
 7092SOL    HW132912   2.234   2.159   9.084  2.0405 -0.4194 -1.0528
 7092SOL    HW232913   2.244   2.189   8.932 -0.1901 -0.3347  0.6946
 7093SOL     OW32914   4.042   2.757   4.878  0.2560 -0.1169 -0.0542
 7093SOL    HW132915   3.992   2.675   4.885  0.9999 -0.5777 -0.0519
 7093SOL    HW232916   4.065   2.757   4.785  2.7232 -0.3800  0.5585
 7094SOL     OW32917   2.171   1.825   8.469 -0.3069  0.3445 -0.3588
 7094SOL    HW132918   2.205   1.909   8.439 -0.9960  0.4063 -0.9432
 7094SOL    HW232919   2.150   1.856   8.557 -2.8051  1.4511 -1.3638
 7095SOL     OW32920   3.870   3.580   3.742  0.7410 -0.3995 -0.3916
 7095SOL    HW132921   3.844   3.575   3.834 -0.6018  0.2942 -0.7281
 7095SOL    HW232922   3.864   3.485   3.728 -2.0015 -0.4475  1.0788
 7096SOL     OW32923   2.699   3.314   5.718  0.2957 -0.0038  0.1646
 7096SOL    HW132924   2.762   3.291   5.650  1.0910  2.2258  0.1390
 7096SOL    HW232925   2.645   3.235   5.715  1.0838 -0.5150 -0.6613
 7097SOL     OW32926   3.006   3.545  10.823  0.3012  0.0310  0.2020
 7097SOL    HW132927   2.989   3.453  10.844 -2.0478  0.7613  1.4903
 7097SOL    HW232928   3.054   3.580  10.898 -1.3122 -0.2717  1.3722
 7098SOL     OW32929   2.561   1.008   5.742 -0.0891 -0.2653  0.4572
 7098SOL    HW132930   2.575   1.102   5.753 -1.6039  0.1268 -0.9966
 7098SOL    HW232931   2.475   1.013   5.700 -0.6619  0.4760  1.7266
 7099SOL     OW32932   0.824   4.457   4.157  0.0134 -0.2949  0.0805
 7099SOL    HW132933   0.811   4.365   4.179 -0.7224 -0.2854 -0.3191
 7099SOL    HW232934   0.734   4.486   4.167  0.7156  1.7264  0.5359
 7100SOL     OW32935   2.236   2.877   3.166  0.2587 -0.1815 -0.3721
 7100SOL    HW132936   2.170   2.856   3.100  1.4540 -1.5432 -1.1181
 7100SOL    HW232937   2.176   2.908   3.233 -0.9971 -3.1113 -0.1394
 7101SOL     OW32938   0.415   0.829  14.752 -0.1394 -0.6240 -0.5992
 7101SOL    HW132939   0.442   0.834  14.844  1.2853  0.8521 -1.1019
 7101SOL    HW232940   0.416   0.914  14.707  0.9103  0.0925  0.7608
 7102SOL     OW32941   1.869   1.327   3.141 -0.2220  0.4140 -0.1864
 7102SOL    HW132942   1.946   1.277   3.169  1.2471  1.7089 -1.8875
 7102SOL    HW232943   1.856   1.302   3.049  1.7228 -0.1935 -0.2975
 7103SOL     OW32944   0.509   4.123  15.322  0.0126 -0.0529 -0.0399
 7103SOL    HW132945   0.480   4.210  15.293  0.2578 -0.2341 -0.8178
 7103SOL    HW232946   0.565   4.103  15.247  1.2478  0.7895  0.6585
 7104SOL     OW32947   0.436   0.812   1.670 -0.2091 -0.2707  0.1272
 7104SOL    HW132948   0.371   0.756   1.712 -0.2907  0.5795  1.1250
 7104SOL    HW232949   0.403   0.891   1.713  1.4852 -0.0903  1.1063
 7105SOL     OW32950   1.614   0.886   8.456  0.1891  0.1886 -0.0855
 7105SOL    HW132951   1.571   0.890   8.541 -2.0441  0.3117 -1.2138
 7105SOL    HW232952   1.667   0.806   8.464 -0.6830 -0.4068 -0.2314
 7106SOL     OW32953   2.330   2.204   7.088  0.3029  0.2190  0.7160
 7106SOL    HW132954   2.324   2.109   7.075  2.9002  0.1493  0.0240
 7106SOL    HW232955   2.237   2.220   7.105 -0.0362 -0.9420 -0.0456
 7107SOL     OW32956   2.719   0.597   0.306 -0.5269 -0.4655 -0.2347
 7107SOL    HW132957   2.656   0.529   0.283 -1.0829  0.1701 -0.6151
 7107SOL    HW232958   2.744   0.558   0.390  1.3194 -1.1767 -1.1310
 7108SOL     OW32959   1.010   3.590  13.116  0.1780 -0.3694  0.1275
 7108SOL    HW132960   0.919   3.619  13.130 -0.6886 -3.0126 -0.0509
 7108SOL    HW232961   0.997   3.498  13.139 -0.6998 -1.0349 -3.0712
 7109SOL     OW32962   0.997   2.059  10.846  0.2438 -0.3106  0.1092
 7109SOL    HW132963   1.006   1.987  10.784  0.0899 -1.3211  1.2755
 7109SOL    HW232964   1.083   2.088  10.875  0.3342 -0.7777  0.2899
 7110SOL     OW32965   4.627   1.516   1.306  0.3841  0.2738  0.1371
 7110SOL    HW132966   4.580   1.594   1.278 -1.2411 -0.2699  1.3458
 7110SOL    HW232967   4.550   1.467   1.337 -0.6828  1.6594 -0.3319
 7111SOL     OW32968   4.693   2.175  12.998  0.0598 -0.1620  0.4453
 7111SOL    HW132969   0.004   2.234  13.058 -2.4146  0.7393  1.4968
 7111SOL    HW232970   4.647   2.236  12.941  1.2930  0.6464  0.3290
 7112SOL     OW32971   0.420   0.079   2.216  0.0421  0.4527  0.1999
 7112SOL    HW132972   0.358   0.106   2.149 -0.2439  0.8683  0.6268
 7112SOL    HW232973   0.372   0.054   2.295 -0.4777  2.2234  0.4292
 7113SOL     OW32974   1.168   3.731  16.785  0.2803  0.0524  0.1038
 7113SOL    HW132975   1.075   3.753  16.795  0.4577  0.4951  0.8205
 7113SOL    HW232976   1.209   3.815  16.763 -1.3856  0.5016 -1.2912
 7114SOL     OW32977   0.765   0.213   8.838 -0.3956  0.1333 -0.0742
 7114SOL    HW132978   0.765   0.235   8.745 -0.0207  1.0790  0.1449
 7114SOL    HW232979   0.772   0.296   8.886 -0.2909  0.1702 -0.1526
 7115SOL     OW32980   3.268   3.690   1.993  0.1431  0.3452  0.1713
 7115SOL    HW132981   3.304   3.774   2.021 -0.9057  0.8937 -0.1405
 7115SOL    HW232982   3.259   3.718   1.902  0.6570  1.4932  0.4681
 7116SOL     OW32983   2.252   0.625  13.059  0.0138  0.0023 -0.2089
 7116SOL    HW132984   2.213   0.538  13.070  0.6790 -0.4243 -1.2271
 7116SOL    HW232985   2.288   0.640  13.146 -0.1439  2.4444 -0.5525
 7117SOL     OW32986   1.129   2.261   1.450 -0.2444  0.1405 -0.2829
 7117SOL    HW132987   1.192   2.203   1.407  0.3026  0.1756  0.4585
 7117SOL    HW232988   1.169   2.348   1.451 -0.8352  0.3851  1.5100
 7118SOL     OW32989   4.141   0.735   0.763 -0.3307  0.1886 -0.6847
 7118SOL    HW132990   4.183   0.675   0.701 -0.6241  1.8359 -2.4565
 7118SOL    HW232991   4.131   0.671   0.833 -0.7243  0.2062 -0.7298
 7119SOL     OW32992   0.129   3.037  14.380  1.0788  0.0890  0.1972
 7119SOL    HW132993   0.101   3.114  14.331  1.1490 -0.9669 -1.5003
 7119SOL    HW232994   0.220   3.067  14.377  1.2964 -0.5764  0.0969
 7120SOL     OW32995   3.844   4.119  13.828  0.2795  0.4108  0.1735
 7120SOL    HW132996   3.780   4.150  13.764 -0.6965  0.2488  1.0755
 7120SOL    HW232997   3.796   4.147  13.906 -0.4073 -0.5580  0.0991
 7121SOL     OW32998   0.920   2.532   8.504 -0.1325  0.3171 -0.1924
 7121SOL    HW132999   1.014   2.533   8.488 -0.3081  0.9689 -1.2156
 7121SOL    HW233000   0.871   2.530   8.421 -1.8560  0.5549  0.8300
 7122SOL     OW33001   3.512   1.377  16.244  0.5509 -0.0908  0.0884
 7122SOL    HW133002   3.598   1.410  16.218  0.6390  0.7424  1.4178
 7122SOL    HW233003   3.535   1.341  16.330  0.0715 -1.8855 -0.5323
 7123SOL     OW33004   2.229   3.400   7.848 -0.4838  0.3350  0.1667
 7123SOL    HW133005   2.300   3.351   7.889  0.8978  2.3622  0.1453
 7123SOL    HW233006   2.201   3.348   7.772 -0.8041 -0.2060  0.6613
 7124SOL     OW33007   2.318   4.522   8.413  0.2471  0.1193 -0.5470
 7124SOL    HW133008   2.375   4.482   8.478  1.7517  0.8965 -1.3825
 7124SOL    HW233009   2.237   4.515   8.463  0.4781 -1.4501 -0.3883
 7125SOL     OW33010   3.399   0.725   3.181 -0.3007 -0.3702  0.1695
 7125SOL    HW133011   3.458   0.799   3.191 -0.9037  0.1770 -0.3587
 7125SOL    HW233012   3.356   0.756   3.101 -0.9450 -1.1028  0.2280
 7126SOL     OW33013   0.733   0.108  13.183 -0.0308 -0.1216  0.1355
 7126SOL    HW133014   0.682   0.176  13.141  0.6675  1.0298  1.1561
 7126SOL    HW233015   0.663   0.065  13.233  0.0540  1.1852  1.4012
 7127SOL     OW33016   2.484   1.515  13.970 -0.0720 -0.7045  0.2339
 7127SOL    HW133017   2.528   1.483  14.048 -0.8515  0.1737  1.0379
 7127SOL    HW233018   2.477   1.431  13.923  2.1153 -0.6213 -0.2430
 7128SOL     OW33019   3.645   3.116   3.149 -0.2494 -0.2423 -0.1605
 7128SOL    HW133020   3.640   3.211   3.151  0.3670 -0.1780 -1.3377
 7128SOL    HW233021   3.637   3.106   3.054  2.7278 -1.5466 -0.2975
 7129SOL     OW33022   1.312   3.371   9.463 -0.0725  0.5001 -0.8376
 7129SOL    HW133023   1.336   3.462   9.477 -1.8663  0.7017  0.9895
 7129SOL    HW233024   1.227   3.374   9.507  1.4279  0.0250  2.0813
 7130SOL     OW33025   2.199   2.750   7.548  0.3924  0.7151  0.1481
 7130SOL    HW133026   2.226   2.724   7.459 -1.5500 -0.8962  0.0450
 7130SOL    HW233027   2.284   2.772   7.587 -0.0246  1.7680  0.4267
 7131SOL     OW33028   3.869   2.560   7.341 -0.1290 -0.5492  0.3829
 7131SOL    HW133029   3.893   2.536   7.251 -1.9752 -0.4036 -0.1420
 7131SOL    HW233030   3.956   2.540   7.375  0.2684 -1.7984 -1.3710
 7132SOL     OW33031   2.771   4.477  10.348 -0.5968 -0.8731  0.1574
 7132SOL    HW133032   2.810   4.464  10.434 -0.0925  0.8747  0.1877
 7132SOL    HW233033   2.707   4.406  10.341 -1.3621 -0.1701 -0.0606
 7133SOL     OW33034   0.733   3.681  13.211 -0.2836  0.7048  0.2042
 7133SOL    HW133035   0.754   3.774  13.211 -0.0787  0.6585 -0.7648
 7133SOL    HW233036   0.662   3.688  13.146 -0.3405  0.2992  0.2231
 7134SOL     OW33037   2.716   4.661   3.574  0.0984  0.5449  0.0749
 7134SOL    HW133038   2.656   4.608   3.521 -1.2194  1.1293  0.9959
 7134SOL    HW233039   2.733   0.007   3.525 -0.0414 -0.4590 -1.6589
 7135SOL     OW33040   3.943   0.242  15.915 -0.1395  0.2745  0.8085
 7135SOL    HW133041   3.875   0.243  15.847  1.5277  0.7524 -0.8671
 7135SOL    HW233042   3.965   0.336  15.914  0.3257  0.1607 -3.7746
 7136SOL     OW33043   1.885   4.149  14.604 -0.3587 -0.4572  0.2171
 7136SOL    HW133044   1.940   4.196  14.666 -0.9152  1.0660 -0.4390
 7136SOL    HW233045   1.836   4.222  14.566  2.5169  1.4444  0.1455
 7137SOL     OW33046   0.834   0.402   5.108  0.2993  0.4057 -0.0485
 7137SOL    HW133047   0.875   0.452   5.038  0.0268  2.7361  1.4701
 7137SOL    HW233048   0.805   0.466   5.173  1.4352  0.1948  0.6845
 7138SOL     OW33049   4.476   4.602   7.574 -0.1014 -0.5632 -0.0137
 7138SOL    HW133050   4.475   4.560   7.659 -2.3425  1.1131  0.7932
 7138SOL    HW233051   4.421   4.677   7.598  0.5780  0.1138 -0.5672
 7139SOL     OW33052   0.115   2.127   3.215 -0.2704 -0.2249 -0.0103
 7139SOL    HW133053   0.203   2.100   3.188 -0.7108  0.1206 -1.7852
 7139SOL    HW233054   0.141   2.169   3.297 -0.4937 -0.2059  0.0505
 7140SOL     OW33055   1.282   2.590  14.768  0.2969 -0.1891  0.2040
 7140SOL    HW133056   1.266   2.680  14.742  0.3010  0.4239  2.2918
 7140SOL    HW233057   1.312   2.556  14.684  0.7636  3.1125 -0.9326
 7141SOL     OW33058   0.185   0.208   9.144 -0.1931  0.0823  0.0581
 7141SOL    HW133059   0.114   0.184   9.204 -1.0747 -0.9739 -1.4107
 7141SOL    HW233060   0.207   0.298   9.167  0.1859  0.0807 -0.2913
 7142SOL     OW33061   1.569   1.983   6.935  0.6073  0.1094  0.0327
 7142SOL    HW133062   1.513   2.060   6.925  0.6633  0.0651 -0.6398
 7142SOL    HW233063   1.531   1.933   7.008  1.2863  1.1917  1.1266
 7143SOL     OW33064   0.740   0.647   2.039 -0.0308  0.9817  0.1578
 7143SOL    HW133065   0.763   0.738   2.055  2.7976  0.5998 -1.7423
 7143SOL    HW233066   0.813   0.601   2.080 -0.9459 -1.3625 -0.8139
 7144SOL     OW33067   3.864   1.665   6.305  0.5861 -0.0172  0.6881
 7144SOL    HW133068   3.933   1.720   6.343  2.6301  1.4430 -5.2385
 7144SOL    HW233069   3.908   1.608   6.243 -0.3356 -1.6904  1.5619
 7145SOL     OW33070   4.094   3.264   1.933 -0.3717  0.0260  0.7752
 7145SOL    HW133071   4.043   3.186   1.911 -1.4708  0.7195  0.8443
 7145SOL    HW233072   4.103   3.302   1.846  1.0139  2.4884  1.9942
 7146SOL     OW33073   3.137   1.571   6.704  0.2417 -0.2324  0.5237
 7146SOL    HW133074   3.213   1.629   6.709  0.2459 -0.2458  0.6325
 7146SOL    HW233075   3.087   1.610   6.633 -1.4219  2.2799  3.0841
 7147SOL     OW33076   0.746   1.493   7.372  0.4723 -0.4883  0.0447
 7147SOL    HW133077   0.718   1.465   7.285 -1.5845 -0.4917  0.7092
 7147SOL    HW233078   0.779   1.410   7.408 -0.5280 -0.0598  1.9802
 7148SOL     OW33079   1.633   4.499  15.099  0.0954  0.4857 -0.5097
 7148SOL    HW133080   1.561   4.438  15.117 -0.1734  1.0840  0.4607
 7148SOL    HW233081   1.592   4.552  15.031 -0.5917  2.8989  1.7897
 7149SOL     OW33082   1.734   3.946   8.469  0.0521  0.1426  0.5406
 7149SOL    HW133083   1.724   4.003   8.393 -1.4869  0.1088  0.7173
 7149SOL    HW233084   1.744   4.007   8.543 -2.6967 -0.6316  1.5429
 7150SOL     OW33085   0.206   2.724   2.254  0.3088 -0.2242  0.5770
 7150SOL    HW133086   0.183   2.727   2.161 -1.3850  0.9918  1.0523
 7150SOL    HW233087   0.295   2.761   2.257 -0.0804  0.6952  0.6512
 7151SOL     OW33088   1.639   0.317   8.770 -0.1985 -0.1203 -0.2478
 7151SOL    HW133089   1.689   0.335   8.850  4.0490 -0.5435 -2.7978
 7151SOL    HW233090   1.549   0.320   8.801  0.2454  3.2518  0.7291
 7152SOL     OW33091   2.926   1.663  17.536 -0.3491  0.1567 -0.1931
 7152SOL    HW133092   2.850   1.712  17.565  0.4343  2.2620 -1.7072
 7152SOL    HW233093   2.884   1.580  17.514 -0.0914 -0.1895  0.6296
 7153SOL     OW33094   2.533   0.059   4.288  0.2531 -0.4108 -0.2131
 7153SOL    HW133095   2.480   4.726   4.248  0.0857  0.1800 -0.9916
 7153SOL    HW233096   2.516   0.133   4.229 -0.9730  0.7034  1.4939
 7154SOL     OW33097   2.154   2.399   0.851  0.1725 -0.3971  0.2526
 7154SOL    HW133098   2.173   2.489   0.879 -1.5007  0.4620 -1.3989
 7154SOL    HW233099   2.232   2.358   0.888  0.3866 -0.9033 -0.7590
 7155SOL     OW33100   4.151   1.487   4.334  0.1553 -0.2678  0.0367
 7155SOL    HW133101   4.100   1.416   4.295 -0.4234  0.6748 -0.9219
 7155SOL    HW233102   4.120   1.560   4.281  3.0445  1.7506  1.1594
 7156SOL     OW33103   4.414   0.829   0.834 -0.1223 -0.2520  0.1768
 7156SOL    HW133104   4.409   0.854   0.927 -1.3046 -1.5998  0.4850
 7156SOL    HW233105   4.319   0.817   0.825 -0.0338  0.1948 -1.2248
 7157SOL     OW33106   0.301   1.171   7.023 -0.0860  0.0576  0.1002
 7157SOL    HW133107   0.310   1.086   6.979 -0.1528 -0.1415  0.4734
 7157SOL    HW233108   0.223   1.161   7.077 -1.0819 -3.6778 -1.9573
 7158SOL     OW33109   3.407   0.773   8.898 -0.1648  0.4229  0.0655
 7158SOL    HW133110   3.436   0.862   8.915 -3.6333  1.4053  0.7549
 7158SOL    HW233111   3.488   0.745   8.855  0.5144  1.6502  0.5482
 7159SOL     OW33112   0.275   1.429   0.918 -0.0923 -0.3378 -0.4342
 7159SOL    HW133113   0.215   1.442   0.845  2.7078  1.7854 -2.3810
 7159SOL    HW233114   0.249   1.513   0.955 -3.4755 -1.6798  0.2293
 7160SOL     OW33115   3.086   1.219  11.712 -0.4561  0.5599 -0.0663
 7160SOL    HW133116   3.130   1.254  11.790 -0.7292  0.1590  0.2658
 7160SOL    HW233117   3.128   1.135  11.727  0.0877  0.8739  0.1949
 7161SOL     OW33118   2.730   1.695   1.838 -0.0542 -0.2553 -0.4259
 7161SOL    HW133119   2.786   1.742   1.899  1.6964 -1.0731 -1.4013
 7161SOL    HW233120   2.802   1.644   1.800 -1.7611 -2.4028 -0.8086
 7162SOL     OW33121   0.066   0.681  16.203 -0.1308 -0.6745  0.4977
 7162SOL    HW133122   0.029   0.632  16.130  1.6286 -2.0492  0.5245
 7162SOL    HW233123   0.011   0.759  16.213 -0.1977 -0.3173 -2.7224
 7163SOL     OW33124   3.084   2.705   4.930 -0.0035 -0.3201  0.0079
 7163SOL    HW133125   2.990   2.723   4.921 -0.0599 -0.5561  0.1300
 7163SOL    HW233126   3.076   2.617   4.966 -0.4673 -0.2468  0.0947
 7164SOL     OW33127   1.837   0.460   9.377 -0.0610 -0.6938 -0.2022
 7164SOL    HW133128   1.810   0.452   9.286  1.0720  0.2915 -0.6199
 7164SOL    HW233129   1.763   0.477   9.436 -0.6794  0.8467 -1.4433
 7165SOL     OW33130   3.939   3.812   2.171 -0.7452 -0.6916 -0.1577
 7165SOL    HW133131   4.024   3.801   2.128 -1.3772  0.7689 -1.7774
 7165SOL    HW233132   3.895   3.729   2.153 -2.3187  0.0101  0.4672
 7166SOL     OW33133   0.268   2.269  11.593 -0.2188 -0.4493  0.3620
 7166SOL    HW133134   0.338   2.220  11.636  0.3816  1.5550  1.6414
 7166SOL    HW233135   0.240   2.195  11.539  0.7939 -2.3370  2.4036
 7167SOL     OW33136   0.544   0.843   7.453  0.4216 -0.4746 -0.7103
 7167SOL    HW133137   0.453   0.868   7.464  1.5774  2.9868  0.8545
 7167SOL    HW233138   0.563   0.789   7.529 -0.8855  1.7288  1.1684
 7168SOL     OW33139   0.168   2.162   1.542 -0.5722  0.0137 -0.4489
 7168SOL    HW133140   0.118   2.081   1.530 -0.6158 -0.1276  0.6876
 7168SOL    HW233141   0.137   2.203   1.462 -1.6797  0.4944  0.2310
 7169SOL     OW33142   0.771   4.251   1.325 -0.1364 -0.0175 -0.5411
 7169SOL    HW133143   0.856   4.274   1.288  0.4071 -0.4218  0.4712
 7169SOL    HW233144   0.743   4.338   1.351 -1.1915 -0.8508  1.1371
 7170SOL     OW33145   0.378   3.332  10.620 -0.1536 -0.0997 -0.5355
 7170SOL    HW133146   0.351   3.424  10.619 -1.3427 -0.4551 -0.6171
 7170SOL    HW233147   0.462   3.351  10.663 -1.6341  2.3803  1.3143
 7171SOL     OW33148   1.626   3.308  12.652 -0.0209 -0.2757  0.4234
 7171SOL    HW133149   1.619   3.215  12.629  0.7768 -0.4768  0.9507
 7171SOL    HW233150   1.606   3.348  12.568  1.4429  2.2897  1.3038
 7172SOL     OW33151   2.684   1.132   3.349  0.6875 -0.2263  0.0516
 7172SOL    HW133152   2.705   1.209   3.400 -0.5093 -0.1476  0.4314
 7172SOL    HW233153   2.770   1.089   3.349  1.3567  1.1276 -1.7570
 7173SOL     OW33154   3.896   3.875   6.642  0.5152 -0.3997  0.2336
 7173SOL    HW133155   3.896   3.813   6.714  2.0320 -0.8936 -0.1874
 7173SOL    HW233156   3.811   3.856   6.603 -1.5801  2.5241  3.3705
 7174SOL     OW33157   4.347   1.443   3.074 -0.2475 -0.1560  0.4628
 7174SOL    HW133158   4.327   1.460   3.167 -1.1947  1.3683 -0.0234
 7174SOL    HW233159   4.441   1.429   3.084 -0.0598  0.9829  0.3074
 7175SOL     OW33160   0.464   3.809   8.937  0.4224 -0.2880  0.0503
 7175SOL    HW133161   0.369   3.813   8.924  0.6042 -2.0330 -2.0136
 7175SOL    HW233162   0.476   3.892   8.983  1.1989  0.3802 -1.3463
 7176SOL     OW33163   4.315   2.518  12.493  0.3373  0.2226 -0.3322
 7176SOL    HW133164   4.348   2.434  12.460 -4.0873 -1.6108 -0.1173
 7176SOL    HW233165   4.394   2.568  12.512  0.7752 -0.9576  0.9119
 7177SOL     OW33166   3.359   2.739  10.625  0.1062  0.6369  0.5673
 7177SOL    HW133167   3.324   2.808  10.682 -1.0809  1.8342 -1.5893
 7177SOL    HW233168   3.443   2.713  10.662  0.2986 -2.1057 -1.7980
 7178SOL     OW33169   2.252   4.324   5.007  0.4578  0.4354 -0.6215
 7178SOL    HW133170   2.210   4.394   5.057 -0.7889 -1.3445  0.8167
 7178SOL    HW233171   2.320   4.295   5.068  0.4923 -0.0322 -0.8829
 7179SOL     OW33172   4.204   3.731   6.827 -0.3301 -0.4348 -0.3211
 7179SOL    HW133173   4.249   3.682   6.759  0.8793 -0.9547  0.8564
 7179SOL    HW233174   4.189   3.667   6.897  0.5688  1.4810  1.6335
 7180SOL     OW33175   2.677   2.766  11.815 -0.1553 -0.5292 -0.4961
 7180SOL    HW133176   2.766   2.741  11.841 -0.0174  0.9786  0.4875
 7180SOL    HW233177   2.642   2.802  11.896  1.6484  0.8697 -0.3398
 7181SOL     OW33178   0.284   1.999  16.680 -0.2908 -0.6777  0.3171
 7181SOL    HW133179   0.340   1.955  16.616  0.7535 -0.3293  0.9902
 7181SOL    HW233180   0.291   1.938  16.754  4.0751 -2.3878 -1.5042
 7182SOL     OW33181   0.500   2.355   9.598  0.1596 -0.8282  0.2920
 7182SOL    HW133182   0.430   2.331   9.659  0.3122 -0.0706  0.7627
 7182SOL    HW233183   0.523   2.264   9.580  0.4214 -0.8889  0.9180
 7183SOL     OW33184   4.596   2.703   6.247  0.4061  0.5697  0.4848
 7183SOL    HW133185   4.572   2.794   6.259  0.1137  0.4031  1.1755
 7183SOL    HW233186   4.689   2.721   6.258  0.6714  0.0906 -1.0027
 7184SOL     OW33187   2.632   4.129   9.033 -0.6949  0.2401  0.2197
 7184SOL    HW133188   2.585   4.128   9.116 -1.5766 -1.1096 -0.2965
 7184SOL    HW233189   2.664   4.218   9.019  0.6879 -0.3864 -0.6207
 7185SOL     OW33190   0.955   0.607   7.357 -0.0972 -0.1520 -0.1495
 7185SOL    HW133191   0.991   0.686   7.398  0.2280 -0.2290 -0.2820
 7185SOL    HW233192   0.941   0.636   7.267  1.2403 -0.2423 -0.3901
 7186SOL     OW33193   1.742   2.827   4.373  0.5563 -0.3481 -0.7521
 7186SOL    HW133194   1.722   2.883   4.448  0.1421 -0.1710 -1.0019
 7186SOL    HW233195   1.837   2.839   4.367  0.5899 -0.0542  0.4211
 7187SOL     OW33196   4.297   1.781   9.405  0.4206  0.2828  0.7716
 7187SOL    HW133197   4.282   1.686   9.411 -3.1277  0.8711  1.4212
 7187SOL    HW233198   4.354   1.787   9.481  0.4708  1.0170  0.6707
 7188SOL     OW33199   3.518   2.618  14.380 -0.1143  0.3140 -0.1278
 7188SOL    HW133200   3.526   2.655  14.468 -0.0233 -1.0020  0.4127
 7188SOL    HW233201   3.426   2.590  14.377  0.3335 -1.1546 -0.0279
 7189SOL     OW33202   4.565   3.624   6.073 -0.4510 -0.9149  0.3913
 7189SOL    HW133203   4.470   3.631   6.065  0.0793  3.3599 -1.7765
 7189SOL    HW233204   4.576   3.551   6.135 -1.1025 -0.9241  0.4945
 7190SOL     OW33205   4.414   3.313  10.599 -0.2253 -0.2375  0.1018
 7190SOL    HW133206   4.496   3.340  10.559 -0.9131 -0.3738 -1.3804
 7190SOL    HW233207   4.356   3.389  10.599 -0.4855 -0.4374 -0.7809
 7191SOL     OW33208   0.236   2.604   0.102 -0.0281 -0.1882 -0.0300
 7191SOL    HW133209   0.323   2.623   0.139  0.5144  0.6760 -1.7181
 7191SOL    HW233210   0.234   2.509   0.108 -1.4853 -0.0404  1.8878
 7192SOL     OW33211   0.106   1.794  11.427 -0.3339  0.2546 -0.0835
 7192SOL    HW133212   0.139   1.838  11.506 -3.5649 -0.6281  1.7622
 7192SOL    HW233213   0.036   1.856  11.403  0.1113  1.0492  0.6549
 7193SOL     OW33214   3.383   4.331  13.700 -0.1471 -0.1759 -0.2682
 7193SOL    HW133215   3.327   4.293  13.767  0.7480 -0.1414  0.4957
 7193SOL    HW233216   3.371   4.424  13.719 -0.5255 -0.1819 -0.4734
 7194SOL     OW33217   2.866   2.032   7.970  0.1820 -0.5229  0.2147
 7194SOL    HW133218   2.838   2.111   7.924 -2.2532 -1.9064 -0.7021
 7194SOL    HW233219   2.789   1.976   7.959  0.1411 -0.5037  0.3969
 7195SOL     OW33220   2.814   0.124  16.408 -0.0916  0.0365  0.4463
 7195SOL    HW133221   2.890   0.116  16.351 -0.1054  0.0343  0.4279
 7195SOL    HW233222   2.775   0.037  16.405  2.0278 -0.9251  1.1192
 7196SOL     OW33223   1.697   1.683   3.075  0.0268  0.4326  0.3907
 7196SOL    HW133224   1.717   1.710   2.985  1.8372 -0.3062  0.5754
 7196SOL    HW233225   1.693   1.587   3.067 -1.5264  0.4838  0.5686
 7197SOL     OW33226   1.452   0.556   9.238 -0.2295 -0.2778  0.1779
 7197SOL    HW133227   1.424   0.595   9.320  0.5715 -0.3208  0.4703
 7197SOL    HW233228   1.488   0.469   9.259 -1.6047 -0.9620 -0.3182
 7198SOL     OW33229   4.126   2.580   6.861 -0.0710 -0.9019 -0.4896
 7198SOL    HW133230   4.189   2.630   6.912  1.2982 -1.4586 -1.6402
 7198SOL    HW233231   4.072   2.654   6.834  2.8548  1.9998  1.6489
 7199SOL     OW33232   2.200   2.293   7.708  0.3149  0.3332  0.3511
 7199SOL    HW133233   2.116   2.268   7.746  1.3007 -1.5209  1.3594
 7199SOL    HW233234   2.179   2.375   7.665 -0.3372  0.0706  0.1670
 7200SOL     OW33235   1.678   0.158   1.993 -0.1887  0.0504  0.5973
 7200SOL    HW133236   1.598   0.204   2.017  0.0335  0.2308  0.9910
 7200SOL    HW233237   1.730   0.195   2.064  0.6307 -1.0270  0.5652
 7201SOL     OW33238   2.692   4.722   6.518  0.2158  0.2254  0.0793
 7201SOL    HW133239   2.786   4.708   6.510  0.0250 -0.5908 -0.7984
 7201SOL    HW233240   2.661   4.634   6.494 -0.8461  1.0979 -1.7310
 7202SOL     OW33241   2.126   0.046   5.035 -0.9672 -0.0712  0.2383
 7202SOL    HW133242   2.165   0.099   4.965  0.7595 -1.0551  0.4618
 7202SOL    HW233243   2.127   0.101   5.113 -2.1359  1.3005 -0.6961
 7203SOL     OW33244   2.832   0.752   5.289  0.2482 -0.1707 -0.7932
 7203SOL    HW133245   2.922   0.768   5.318 -0.6843  0.6428  1.6534
 7203SOL    HW233246   2.818   0.660   5.311 -0.9473  0.4062  0.8635
 7204SOL     OW33247   4.385   0.657   7.754 -0.3281 -0.0279  0.3708
 7204SOL    HW133248   4.359   0.748   7.738 -0.3281 -0.4343 -1.8412
 7204SOL    HW233249   4.318   0.603   7.714 -0.7693  0.2838  0.6864
 7205SOL     OW33250   1.633   3.332   8.122 -0.0681 -0.5230 -0.2337
 7205SOL    HW133251   1.545   3.369   8.132  0.3044  0.1180  0.6660
 7205SOL    HW233252   1.612   3.244   8.091 -0.1058 -0.9801  1.1025
 7206SOL     OW33253   2.745   3.466   6.784  0.3822 -0.0005  0.9371
 7206SOL    HW133254   2.811   3.508   6.839 -0.7726 -0.1160  2.3827
 7206SOL    HW233255   2.780   3.382   6.752 -3.0344 -1.1405  0.2436
 7207SOL     OW33256   3.193   0.620   5.072  0.1280 -0.1826 -0.3183
 7207SOL    HW133257   3.179   0.715   5.074  1.9209  0.0522  0.8462
 7207SOL    HW233258   3.276   0.607   5.026  0.2659 -0.9021  0.1349
 7208SOL     OW33259   2.246   0.235  15.996  0.1318 -0.2771  0.0326
 7208SOL    HW133260   2.249   0.282  15.913  0.9619  0.8247  0.6933
 7208SOL    HW233261   2.333   0.256  16.030 -0.1393  0.6127  0.1823
 7209SOL     OW33262   1.628   4.426  14.571 -0.4517 -0.1230  0.0183
 7209SOL    HW133263   1.713   4.459  14.540  0.9471 -2.2979  1.5248
 7209SOL    HW233264   1.641   4.409  14.664 -1.3182 -2.8419 -0.3648
 7210SOL     OW33265   4.202   1.226   0.366  0.0785 -0.6529 -0.6162
 7210SOL    HW133266   4.274   1.283   0.340  1.2208 -1.4434  0.7689
 7210SOL    HW233267   4.218   1.133   0.346  3.4740 -0.1902 -0.0859
 7211SOL     OW33268   1.032   2.718   0.663  0.2767 -0.1935 -0.6258
 7211SOL    HW133269   1.077   2.652   0.716 -0.3165  0.0292  0.1598
 7211SOL    HW233270   0.966   2.729   0.731  0.7865 -0.0769 -0.1494
 7212SOL     OW33271   3.205   0.197   4.670  0.5545  0.0565 -0.2041
 7212SOL    HW133272   3.175   0.261   4.606 -1.6913 -1.2844 -0.4685
 7212SOL    HW233273   3.152   0.126   4.635 -0.4290 -0.8628  3.1095
 7213SOL     OW33274   2.705   0.159   2.783 -0.1386 -0.8550  0.2746
 7213SOL    HW133275   2.628   0.113   2.749  0.5277 -2.1831  0.5774
 7213SOL    HW233276   2.747   0.183   2.700  1.3021 -0.2650  1.1737
 7214SOL     OW33277   2.907   1.675  14.801  0.0396 -0.9493  0.2847
 7214SOL    HW133278   2.988   1.726  14.792  0.1613 -1.5817 -2.3848
 7214SOL    HW233279   2.918   1.647  14.892  0.3484 -1.6171  0.0415
 7215SOL     OW33280   2.708   0.756   8.191  0.1886  0.3442  0.4496
 7215SOL    HW133281   2.733   0.761   8.283  0.0315 -0.6782  0.5568
 7215SOL    HW233282   2.636   0.817   8.175  0.9974  1.0538 -0.4491
 7216SOL     OW33283   3.297   1.891   5.505 -0.1451  0.1789 -0.8948
 7216SOL    HW133284   3.262   1.802   5.502  1.2035 -0.3550 -0.9810
 7216SOL    HW233285   3.324   1.885   5.597  1.0403  1.7801 -1.1386
 7217SOL     OW33286   3.440   3.230   6.318  0.1514  0.2357  0.6399
 7217SOL    HW133287   3.426   3.256   6.227  0.2990 -1.1616  0.2241
 7217SOL    HW233288   3.363   3.174   6.328  1.1794 -1.1495  0.6623
 7218SOL     OW33289   1.869   3.168   9.173 -0.1121  0.0077  0.1290
 7218SOL    HW133290   1.939   3.103   9.181  1.3305  0.9547 -4.2387
 7218SOL    HW233291   1.788   3.117   9.174  0.9573 -1.6552  1.6334
 7219SOL     OW33292   4.722   2.980   1.202 -0.5112 -0.1923  0.1571
 7219SOL    HW133293   0.022   3.045   1.141  1.2984 -1.1461  0.1866
 7219SOL    HW233294   4.664   2.919   1.156 -0.1439 -2.1824  2.3590
 7220SOL     OW33295   3.316   0.496   8.745 -0.1861  0.4251  0.0283
 7220SOL    HW133296   3.223   0.475   8.738 -0.1892  0.3281  0.3692
 7220SOL    HW233297   3.316   0.496   8.841 -0.4933 -0.9638  0.0311
 7221SOL     OW33298   1.794   3.384  12.828 -0.4409  0.2209  0.3565
 7221SOL    HW133299   1.757   3.344  12.906 -2.9962  2.1904  0.1403
 7221SOL    HW233300   1.727   3.360  12.763 -1.1509  0.5375  0.9695
 7222SOL     OW33301   3.955   4.391   2.595 -0.0340 -0.3044  0.3377
 7222SOL    HW133302   4.026   4.381   2.658 -1.8512 -2.5247  2.0221
 7222SOL    HW233303   4.003   4.366   2.516 -2.8192  0.3503 -1.5797
 7223SOL     OW33304   0.634   0.537   0.251 -0.1078 -0.1374  0.3034
 7223SOL    HW133305   0.679   0.479   0.190 -0.9120  0.1072 -0.5125
 7223SOL    HW233306   0.593   0.474   0.310  1.5708 -0.5969  0.9714
 7224SOL     OW33307   1.695   4.463   6.275  0.0586  0.0549 -0.0476
 7224SOL    HW133308   1.638   4.422   6.210 -0.5858  2.5659 -1.0403
 7224SOL    HW233309   1.684   4.409   6.354 -0.1970 -1.5941 -1.2065
 7225SOL     OW33310   1.248   1.682   2.593 -0.1577 -0.2817 -0.9753
 7225SOL    HW133311   1.276   1.685   2.684 -1.4936  0.4901 -0.5908
 7225SOL    HW233312   1.305   1.614   2.558  1.2914  0.3739  0.1303
 7226SOL     OW33313   4.016   4.216  10.900  0.5337  0.6854 -0.1285
 7226SOL    HW133314   3.932   4.172  10.892  0.8496  0.0626 -0.0562
 7226SOL    HW233315   4.075   4.146  10.927  0.2268  0.8545  0.9808
 7227SOL     OW33316   2.463   4.279   5.896 -1.0174  0.2261  0.0859
 7227SOL    HW133317   2.450   4.373   5.912 -1.7307  0.1228  0.0952
 7227SOL    HW233318   2.444   4.280   5.802 -1.3900 -1.0843  0.1545
 7228SOL     OW33319   3.334   0.734   9.292 -0.5502  0.2638 -0.1867
 7228SOL    HW133320   3.254   0.717   9.243 -0.2666 -0.4780 -0.3800
 7228SOL    HW233321   3.331   0.830   9.289 -0.6746  0.2683  0.0365
 7229SOL     OW33322   0.483   4.137   8.152  0.4269  0.5179 -0.1654
 7229SOL    HW133323   0.416   4.074   8.179  1.9054 -1.8261 -2.0351
 7229SOL    HW233324   0.465   4.126   8.059 -2.1655  0.2728  0.3422
 7230SOL     OW33325   0.557   3.904   0.518  0.4849  0.0131  0.0836
 7230SOL    HW133326   0.482   3.843   0.520 -0.4456  1.1329 -0.7915
 7230SOL    HW233327   0.628   3.852   0.555  0.8000  0.5423  0.2162
 7231SOL     OW33328   0.512   0.496   5.141  0.4846 -0.1310  0.2561
 7231SOL    HW133329   0.577   0.500   5.211  1.7664 -0.4081 -0.9286
 7231SOL    HW233330   0.436   0.463   5.189  1.1833  1.6476  2.5928
 7232SOL     OW33331   1.367   1.914   4.148  0.4118  0.0629 -0.4169
 7232SOL    HW133332   1.404   1.914   4.236  1.7985 -1.5370 -0.9994
 7232SOL    HW233333   1.451   1.901   4.104 -0.0278 -1.0415 -0.9502
 7233SOL     OW33334   3.557   0.808  12.350  0.1251 -0.0340  0.4707
 7233SOL    HW133335   3.586   0.883  12.401 -0.1252 -1.1159  2.2201
 7233SOL    HW233336   3.488   0.779  12.410 -0.1734 -1.8526 -0.7455
 7234SOL     OW33337   1.254   2.744   5.772  0.3276  0.0519  0.2179
 7234SOL    HW133338   1.233   2.783   5.857 -2.0302  0.1622 -0.4031
 7234SOL    HW233339   1.347   2.764   5.766  0.3334  0.0800  0.4033
 7235SOL     OW33340   0.720   1.582   7.671  0.1983 -0.3561 -0.4933
 7235SOL    HW133341   0.784   1.631   7.619  1.4402 -0.4974  0.8985
 7235SOL    HW233342   0.743   1.614   7.758 -1.7623 -0.1376 -0.0575
 7236SOL     OW33343   0.714   3.620   1.280  0.1144 -0.3396 -0.0083
 7236SOL    HW133344   0.662   3.541   1.267  0.8797 -0.6035 -1.4570
 7236SOL    HW233345   0.638   3.677   1.289 -0.0624 -0.3963 -1.1691
 7237SOL     OW33346   2.820   0.546   3.679 -0.2450 -0.1990  0.3750
 7237SOL    HW133347   2.885   0.614   3.695  0.1309 -0.6882  0.9325
 7237SOL    HW233348   2.746   0.607   3.677 -0.2571 -0.1737  1.8001
 7238SOL     OW33349   3.259   4.309   8.829 -0.1731 -0.2621 -0.1016
 7238SOL    HW133350   3.169   4.277   8.843 -0.6011  1.6238  1.4827
 7238SOL    HW233351   3.233   4.399   8.809  1.1472  0.3364  0.8584
 7239SOL     OW33352   1.125   3.776  11.567  0.4168 -0.0053  0.2066
 7239SOL    HW133353   1.213   3.805  11.591  0.1814  1.0418 -0.1743
 7239SOL    HW233354   1.092   3.754  11.654 -0.7456  0.5619 -0.0889
 7240SOL     OW33355   1.671   0.303   3.704  0.3024  0.5363  0.1456
 7240SOL    HW133356   1.678   0.374   3.640 -0.6730  1.0352  0.5994
 7240SOL    HW233357   1.584   0.323   3.738 -0.8806  0.5736 -2.8642
 7241SOL     OW33358   1.969   0.884   6.865 -0.9823 -0.7604 -0.6571
 7241SOL    HW133359   1.957   0.798   6.907  0.5838 -0.8833 -0.4835
 7241SOL    HW233360   2.014   0.853   6.787  1.0394 -1.2509  0.7245
 7242SOL     OW33361   0.236   2.258  16.321  0.2898  0.0250 -0.2873
 7242SOL    HW133362   0.179   2.182  16.328 -0.1926  0.3389 -0.7025
 7242SOL    HW233363   0.325   2.223  16.328  0.7238  0.4782 -3.1310
 7243SOL     OW33364   3.507   3.006   4.518 -0.1281 -0.5678  0.3176
 7243SOL    HW133365   3.577   2.984   4.580  0.9885  1.0492 -0.3754
 7243SOL    HW233366   3.509   3.101   4.510  0.6556 -0.5621  0.5144
 7244SOL     OW33367   3.916   4.081   9.826  0.0606  0.5410  0.9376
 7244SOL    HW133368   3.874   4.003   9.862 -1.2547  0.3168 -1.1433
 7244SOL    HW233369   3.858   4.150   9.858 -1.2066 -1.1760  2.3499
 7245SOL     OW33370   2.671   0.564   1.443  0.4485  0.1998  0.3573
 7245SOL    HW133371   2.650   0.477   1.476 -0.6069 -0.0840 -1.1040
 7245SOL    HW233372   2.588   0.601   1.474 -1.2328 -0.6686 -3.1026
 7246SOL     OW33373   3.223   2.380   4.767 -0.0129 -0.0940 -0.2943
 7246SOL    HW133374   3.231   2.440   4.693 -1.6675 -0.6533 -0.9271
 7246SOL    HW233375   3.152   2.322   4.739 -0.7186  1.1002 -0.9704
 7247SOL     OW33376   1.565   0.003   9.175  0.4340  0.0806 -0.0710
 7247SOL    HW133377   1.599   4.735   9.086  0.8544  0.8237  0.0586
 7247SOL    HW233378   1.475   0.027   9.156  0.6552  2.1093  1.4043
 7248SOL     OW33379   1.777   2.787  15.541 -0.1541 -0.1059 -0.1075
 7248SOL    HW133380   1.728   2.867  15.560 -0.5803 -0.7063  1.3123
 7248SOL    HW233381   1.863   2.823  15.521 -0.3556 -0.1317 -1.0280
 7249SOL     OW33382   2.934   4.233  11.690  0.3631 -0.5315 -0.2237
 7249SOL    HW133383   2.986   4.167  11.736  2.2253  1.1653  0.1017
 7249SOL    HW233384   2.959   4.218  11.599 -0.5408  2.0152 -0.8861
 7250SOL     OW33385   0.254   3.464   8.136 -0.0937  0.1589  0.2373
 7250SOL    HW133386   0.175   3.430   8.093 -0.5473  1.6587 -0.1196
 7250SOL    HW233387   0.304   3.382   8.137 -0.3375 -0.0105 -2.0142
 7251SOL     OW33388   3.078   3.865  12.617 -0.6753  0.2914  0.4520
 7251SOL    HW133389   3.048   3.928  12.551 -1.8036 -0.5089  0.1912
 7251SOL    HW233390   3.002   3.808  12.625  1.1454 -2.4220 -1.7513
 7252SOL     OW33391   4.412   3.653   4.207  0.5681 -0.0626  0.0555
 7252SOL    HW133392   4.417   3.620   4.117  0.9402  0.4299 -0.1073
 7252SOL    HW233393   4.321   3.682   4.212  0.4870 -0.4747  0.9509
 7253SOL     OW33394   3.174   3.531   5.965 -0.0467 -0.0426  0.3266
 7253SOL    HW133395   3.267   3.545   5.984  0.4296 -2.8766  0.0903
 7253SOL    HW233396   3.156   3.615   5.924 -1.0879 -1.2679 -1.7665
 7254SOL     OW33397   0.147   2.108   8.408  0.2835  0.4846 -0.2890
 7254SOL    HW133398   0.115   2.115   8.318 -1.0562 -0.8752  0.0634
 7254SOL    HW233399   0.152   2.203   8.421 -0.6767  0.6071 -0.7739
 7255SOL     OW33400   1.394   3.594   5.584 -0.8189  0.0177  0.3947
 7255SOL    HW133401   1.437   3.623   5.663 -0.2724 -0.6574  0.3493
 7255SOL    HW233402   1.403   3.498   5.587 -0.6793  0.0618  1.2100
 7256SOL     OW33403   2.442   4.318   2.950  0.6129  0.0617 -0.2348
 7256SOL    HW133404   2.367   4.367   2.984 -0.1469 -2.9402  2.3704
 7256SOL    HW233405   2.409   4.241   2.905  0.4909 -0.3588  0.5825
 7257SOL     OW33406   4.610   1.516   3.800 -0.2949 -0.0126  0.6025
 7257SOL    HW133407   4.569   1.544   3.881  0.9151  0.4679  1.0482
 7257SOL    HW233408   4.617   1.423   3.822  0.4996 -0.5868 -1.9996
 7258SOL     OW33409   4.499   0.273   5.641  0.2097 -0.3925 -0.0492
 7258SOL    HW133410   4.522   0.269   5.734  0.0946  0.2221  0.0010
 7258SOL    HW233411   4.508   0.367   5.625 -0.1349 -0.5157 -0.9514
 7259SOL     OW33412   2.197   0.449   9.518 -0.3566 -0.1204  1.0316
 7259SOL    HW133413   2.273   0.495   9.555 -0.8051  0.7995  0.8119
 7259SOL    HW233414   2.135   0.454   9.590 -0.9507  1.6938  0.4086
 7260SOL     OW33415   0.994   3.197   7.382  0.0366  0.0005  0.0286
 7260SOL    HW133416   0.978   3.292   7.380 -1.3581 -0.2704 -1.0673
 7260SOL    HW233417   1.023   3.170   7.295  0.3790  0.3388  0.0360
 7261SOL     OW33418   1.121   3.691   8.203 -0.4017  0.3179  0.0233
 7261SOL    HW133419   1.066   3.613   8.207 -0.6490  0.5057  0.3981
 7261SOL    HW233420   1.062   3.762   8.230 -1.7690 -0.9305  0.3405
 7262SOL     OW33421   3.984   1.583  12.159 -0.1331 -0.0297 -0.1528
 7262SOL    HW133422   4.013   1.514  12.218 -0.3532  1.5305  1.7595
 7262SOL    HW233423   4.054   1.645  12.182  0.8810 -2.2683  2.7398
 7263SOL     OW33424   4.711   1.948  13.161 -0.2749 -0.2010  0.0478
 7263SOL    HW133425   4.673   1.986  13.240 -0.8945  0.1216 -0.4066
 7263SOL    HW233426   4.687   2.019  13.102 -2.4881 -0.8275  0.1860
 7264SOL     OW33427   4.717   3.814   3.013  0.0539  0.3960 -0.5270
 7264SOL    HW133428   0.032   3.891   2.988  0.5745  0.6793  1.4192
 7264SOL    HW233429   4.651   3.819   2.944  1.6899  0.6045 -2.0799
 7265SOL     OW33430   4.079   3.297  13.488  0.3659  0.0867 -0.3003
 7265SOL    HW133431   4.040   3.236  13.426  1.1130  0.4869 -1.1638
 7265SOL    HW233432   4.103   3.238  13.560 -0.3794  0.1039 -0.0329
 7266SOL     OW33433   3.393   1.108   6.294  0.5764 -0.8266  0.6512
 7266SOL    HW133434   3.324   1.173   6.287 -0.9119 -2.3743  0.8159
 7266SOL    HW233435   3.435   1.133   6.212 -1.0319 -0.4414 -0.0630
 7267SOL     OW33436   0.243   0.252  16.569  0.6763  0.3906 -0.5657
 7267SOL    HW133437   0.301   0.293  16.633  0.7652  0.7312 -0.8638
 7267SOL    HW233438   0.262   0.316  16.500 -0.5465  0.5642 -0.7533
 7268SOL     OW33439   3.797   1.092  13.428  0.3899  0.0557  0.4236
 7268SOL    HW133440   3.751   1.053  13.353  3.1842  1.9816 -2.3239
 7268SOL    HW233441   3.887   1.093  13.395  0.7099 -0.1328  1.2987
 7269SOL     OW33442   1.235   2.912   6.000  0.1948 -0.4321  0.0896
 7269SOL    HW133443   1.144   2.896   5.977  0.5098 -3.3840  0.8326
 7269SOL    HW233444   1.260   3.005   5.999 -0.8126 -0.1678  2.1497
 7270SOL     OW33445   1.919   2.114   5.965  0.1338 -0.9839  0.2765
 7270SOL    HW133446   1.896   2.051   6.033  0.9966 -0.3857  1.1335
 7270SOL    HW233447   2.015   2.112   5.966  0.1497 -0.6435 -0.7032
 7271SOL     OW33448   0.933   2.731   8.880 -0.1787 -0.0341  0.0293
 7271SOL    HW133449   0.950   2.806   8.936 -0.0896 -1.1690  1.5322
 7271SOL    HW233450   0.890   2.772   8.805  1.3325 -0.6948 -1.1928
 7272SOL     OW33451   2.286   0.113   4.496  0.3226 -0.4310  0.7992
 7272SOL    HW133452   2.233   0.178   4.542  1.4262  0.6928  0.4928
 7272SOL    HW233453   2.379   0.137   4.502  0.8459 -2.0572 -1.0269
 7273SOL     OW33454   4.493   2.334   7.611 -0.1344  0.4152 -0.3185
 7273SOL    HW133455   4.480   2.426   7.587  0.3045  0.6757  0.4251
 7273SOL    HW233456   4.412   2.288   7.591  0.6327 -0.3849 -1.6125
 7274SOL     OW33457   3.353   3.531   6.456  0.4749 -0.2235 -0.2338
 7274SOL    HW133458   3.280   3.472   6.438 -0.1712 -0.4901  3.2154
 7274SOL    HW233459   3.342   3.588   6.380  1.8052 -0.5033 -0.6342
 7275SOL     OW33460   3.552   0.421  16.144  0.3675  0.2859  0.2770
 7275SOL    HW133461   3.614   0.351  16.163  1.8007  1.2148 -1.0587
 7275SOL    HW233462   3.600   0.467  16.075  0.0731 -0.0634 -0.1590
 7276SOL     OW33463   3.259   1.004   8.657  0.3147 -0.4672 -0.4660
 7276SOL    HW133464   3.317   1.059   8.709 -2.9341  2.1373  0.4107
 7276SOL    HW233465   3.307   0.979   8.578 -0.9553  1.0689 -1.7094
 7277SOL     OW33466   2.384   3.148   4.255 -0.0054  0.4718 -0.0747
 7277SOL    HW133467   2.309   3.200   4.284  0.3921  1.2957 -0.5174
 7277SOL    HW233468   2.443   3.151   4.330  0.4360 -2.2403 -0.3199
 7278SOL     OW33469   3.857   1.336   4.610  0.2781  0.2776 -0.3779
 7278SOL    HW133470   3.846   1.431   4.606 -4.5426 -0.1882  1.6521
 7278SOL    HW233471   3.839   1.319   4.518 -0.6853  0.1834 -0.1806
 7279SOL     OW33472   3.390   1.328   0.956 -0.8561  0.1143  0.1389
 7279SOL    HW133473   3.382   1.252   1.013 -1.8286 -0.8070 -1.2442
 7279SOL    HW233474   3.322   1.295   0.897 -0.6643  1.5062 -0.8836
 7280SOL     OW33475   1.507   4.240   7.691 -0.4724  0.1441  0.3589
 7280SOL    HW133476   1.554   4.237   7.607 -0.5108  0.1008  0.3388
 7280SOL    HW233477   1.489   4.146   7.692 -0.6908  0.2274  2.9033
 7281SOL     OW33478   2.016   4.131   5.792 -0.0872 -0.4179  0.2155
 7281SOL    HW133479   1.958   4.175   5.855 -2.6462 -0.1985 -2.2577
 7281SOL    HW233480   2.008   4.045   5.833 -0.2990 -0.0643  0.9181
 7282SOL     OW33481   4.162   4.354  10.730 -0.5917  0.1444 -0.3713
 7282SOL    HW133482   4.113   4.308  10.798  1.1391  0.9123  1.3891
 7282SOL    HW233483   4.221   4.282  10.708  0.1373  0.6794 -0.1579
 7283SOL     OW33484   1.709   0.812   6.124 -0.2310  0.1719 -0.3275
 7283SOL    HW133485   1.653   0.828   6.200  1.3829  1.8516  0.5428
 7283SOL    HW233486   1.711   0.718   6.138  3.4567  0.7315  2.9269
 7284SOL     OW33487   2.368   2.494  16.753  0.2885 -0.7128 -0.1356
 7284SOL    HW133488   2.399   2.584  16.749  0.2224 -0.7023 -0.4181
 7284SOL    HW233489   2.318   2.490  16.671 -0.0576  1.3980 -0.0081
 7285SOL     OW33490   0.594   0.630   5.947 -0.1489  0.1978  0.2697
 7285SOL    HW133491   0.651   0.659   6.018  0.2036 -1.2001  0.5559
 7285SOL    HW233492   0.515   0.683   5.959  0.6865  1.5345 -0.0885
 7286SOL     OW33493   1.442   1.557  15.577  0.3261 -0.0890 -0.1319
 7286SOL    HW133494   1.369   1.618  15.591  0.2554 -0.7708  2.3489
 7286SOL    HW233495   1.503   1.612  15.528  1.6146  0.3216  1.9460
 7287SOL     OW33496   1.126   3.304  12.877 -0.0129 -0.1090  0.0559
 7287SOL    HW133497   1.042   3.344  12.900  0.9363  2.5209 -1.1578
 7287SOL    HW233498   1.153   3.289  12.968  0.9034 -0.7637 -0.3336
 7288SOL     OW33499   3.398   2.087  17.127 -0.6468  0.3522  0.0043
 7288SOL    HW133500   3.486   2.051  17.118 -0.6055  0.9012 -1.9049
 7288SOL    HW233501   3.356   2.044  17.052 -1.3219  0.5091  0.2897
 7289SOL     OW33502   0.543   3.511   4.936 -0.1739 -0.0360  0.0246
 7289SOL    HW133503   0.450   3.489   4.937 -0.1678 -0.0162  1.1998
 7289SOL    HW233504   0.561   3.520   4.842  0.5875 -0.5963  0.1132
 7290SOL     OW33505   4.365   1.830   4.021 -0.7191  0.2003  0.4768
 7290SOL    HW133506   4.304   1.831   4.095  0.0026 -1.7191  1.0876
 7290SOL    HW233507   4.339   1.916   3.986 -0.8477 -0.7592 -1.7705
 7291SOL     OW33508   3.816   2.336   0.220 -0.1748  0.1727  0.7827
 7291SOL    HW133509   3.888   2.370   0.272  4.5387 -2.8157 -3.8308
 7291SOL    HW233510   3.818   2.254   0.270 -0.9076 -0.2791  0.0675
 7292SOL     OW33511   3.272   4.325   3.712 -0.0920  0.1568 -0.7559
 7292SOL    HW133512   3.312   4.291   3.632  0.4531 -2.1060  0.4774
 7292SOL    HW233513   3.229   4.251   3.753  3.9505 -0.7523  1.8793
 7293SOL     OW33514   1.236   3.846   5.629  0.1450 -0.6119 -0.5252
 7293SOL    HW133515   1.303   3.910   5.606 -1.0599 -0.1635 -2.7205
 7293SOL    HW233516   1.282   3.766   5.602  1.1118 -0.0529 -0.5556
 7294SOL     OW33517   2.459   2.727   5.099  0.2739 -1.0344  0.4640
 7294SOL    HW133518   2.521   2.663   5.134  1.7310 -0.1465 -0.4741
 7294SOL    HW233519   2.403   2.731   5.176  1.7976  3.0837  1.3292
 7295SOL     OW33520   1.617   0.833   6.798 -0.4273  0.4060  0.4573
 7295SOL    HW133521   1.558   0.881   6.739  0.9009  1.0085 -0.3620
 7295SOL    HW233522   1.696   0.836   6.745 -0.0597 -4.4507  0.7685
 7296SOL     OW33523   0.023   2.112   4.550  0.0424 -0.1267  0.8203
 7296SOL    HW133524   0.099   2.168   4.534 -1.0662  1.5847  1.4989
 7296SOL    HW233525   4.734   2.136   4.639 -1.6904  0.8242  0.0930
 7297SOL     OW33526   2.502   0.027   5.512  0.0421 -0.7837  0.1391
 7297SOL    HW133527   2.470   0.117   5.519  1.0601 -0.2501 -1.9012
 7297SOL    HW233528   2.511   0.027   5.416 -0.6260  3.5561  0.0905
 7298SOL     OW33529   0.808   1.420  13.648 -0.3102  0.8416 -0.0857
 7298SOL    HW133530   0.902   1.408  13.658 -0.1200  3.4874  1.4354
 7298SOL    HW233531   0.782   1.329  13.633  1.6219 -0.0312  1.8571
 7299SOL     OW33532   4.386   2.124  14.000 -0.1448  0.2479  0.1611
 7299SOL    HW133533   4.449   2.052  13.998 -0.8291 -0.3720  1.4155
 7299SOL    HW233534   4.442   2.200  13.984 -0.6698  0.4605 -0.7013
 7300SOL     OW33535   2.027   2.857   4.835  0.0137 -0.0429  0.1898
 7300SOL    HW133536   2.007   2.941   4.877  1.5801  1.8689 -2.9419
 7300SOL    HW233537   2.023   2.884   4.743 -0.3589 -0.5974  0.0383
 7301SOL     OW33538   0.240   3.957   7.032  0.5438  0.5280  0.6482
 7301SOL    HW133539   0.297   4.017   7.080  3.1509  0.1999 -2.0186
 7301SOL    HW233540   0.243   3.995   6.944 -1.9780 -2.8873 -0.9332
 7302SOL     OW33541   1.462   3.133   7.930 -0.6276 -0.7912 -0.1901
 7302SOL    HW133542   1.480   3.056   7.877  0.0314  0.8964 -2.4454
 7302SOL    HW233543   1.369   3.146   7.912 -0.3989 -0.6773 -1.3095
 7303SOL     OW33544   2.123   3.041   7.444  0.6961  0.1977  0.2824
 7303SOL    HW133545   2.030   3.038   7.469  0.7897  2.9277  0.8878
 7303SOL    HW233546   2.157   2.962   7.487 -0.9293 -0.3936  0.4874
 7304SOL     OW33547   4.684   2.521   3.398 -0.5497  0.4504 -0.2702
 7304SOL    HW133548   4.695   2.615   3.385  2.0776  0.0150 -1.1545
 7304SOL    HW233549   0.035   2.487   3.374 -0.9471 -0.7562  0.0288
 7305SOL     OW33550   3.402   2.073   3.806  0.0246  0.0436 -0.0714
 7305SOL    HW133551   3.436   2.120   3.730 -2.8165  1.6451 -0.3567
 7305SOL    HW233552   3.445   1.987   3.800 -2.6665 -1.3010 -0.4014
 7306SOL     OW33553   1.794   2.317   2.380 -0.0779 -0.0539  0.2203
 7306SOL    HW133554   1.820   2.352   2.294 -0.5024  2.8098  1.2643
 7306SOL    HW233555   1.781   2.225   2.355 -1.5608  0.2376 -0.0923
 7307SOL     OW33556   1.646   1.602  15.361 -0.4112 -0.0636  0.0456
 7307SOL    HW133557   1.601   1.557  15.290 -2.3873  1.3145  0.4083
 7307SOL    HW233558   1.645   1.533  15.427  0.6522  0.5839  0.7359
 7308SOL     OW33559   2.079   1.712  12.700  0.6142 -0.4268 -0.3197
 7308SOL    HW133560   2.070   1.804  12.676 -0.1730  0.0055  1.6979
 7308SOL    HW233561   2.104   1.666  12.619 -0.3439 -0.7815 -0.4124
 7309SOL     OW33562   0.345   1.535   6.068 -0.2964  0.1308 -0.1408
 7309SOL    HW133563   0.330   1.524   5.974 -2.9471 -0.9513  0.4201
 7309SOL    HW233564   0.429   1.582   6.066 -0.2096  0.0966  2.7816
 7310SOL     OW33565   0.823   3.348  15.531 -0.6878  0.4477 -0.6522
 7310SOL    HW133566   0.914   3.319  15.520 -0.1666  2.3805 -1.5289
 7310SOL    HW233567   0.785   3.270  15.571  0.5784 -0.8324 -1.9103
 7311SOL     OW33568   3.469   3.170   5.169  0.1767  0.4599  0.0640
 7311SOL    HW133569   3.453   3.264   5.162  0.3294  0.6033  1.4885
 7311SOL    HW233570   3.378   3.140   5.163  0.2893  0.5029 -1.9122
 7312SOL     OW33571   2.502   4.100   7.467  0.6169 -0.2732 -0.0195
 7312SOL    HW133572   2.556   4.034   7.510 -0.1545 -1.4023 -0.7393
 7312SOL    HW233573   2.497   4.059   7.380 -0.8572  1.5889 -0.8037
 7313SOL     OW33574   4.196   3.819   4.250 -0.5066  0.0169 -0.0810
 7313SOL    HW133575   4.139   3.776   4.187 -0.7646 -0.4587  0.4703
 7313SOL    HW233576   4.139   3.813   4.327 -1.2833  1.1062 -0.5673
 7314SOL     OW33577   4.176   0.803   3.366 -0.5665 -0.2773  0.0780
 7314SOL    HW133578   4.201   0.892   3.342 -3.8128  0.8911  0.9136
 7314SOL    HW233579   4.092   0.821   3.409 -0.1834  1.8461 -0.0471
 7315SOL     OW33580   0.847   1.279   6.316 -0.1375 -0.2092  0.3151
 7315SOL    HW133581   0.928   1.321   6.344 -0.5254 -0.2351  1.4596
 7315SOL    HW233582   0.886   1.195   6.289  1.1351 -0.5108  3.0873
 7316SOL     OW33583   0.196   3.900   9.272 -0.6473  0.1663  0.0179
 7316SOL    HW133584   0.187   3.824   9.330 -0.4649 -2.5034 -3.4402
 7316SOL    HW233585   0.165   3.969   9.330 -1.7696 -0.8526  0.6178
 7317SOL     OW33586   2.822   0.324   2.537  0.5326  0.2633  0.2344
 7317SOL    HW133587   2.856   0.411   2.515 -1.9954  0.8314 -1.3510
 7317SOL    HW233588   2.865   0.262   2.478 -2.5031 -0.8129 -0.7982
 7318SOL     OW33589   1.788   1.929   4.862 -0.1355 -0.3394 -0.2383
 7318SOL    HW133590   1.871   1.966   4.891 -1.0622  1.5404  0.0199
 7318SOL    HW233591   1.762   1.874   4.936  0.4362 -0.6585 -0.2742
 7319SOL     OW33592   0.509   1.632   5.099  0.0354 -0.6157  0.6801
 7319SOL    HW133593   0.601   1.638   5.074 -0.0844 -1.1757  0.1089
 7319SOL    HW233594   0.485   1.565   5.034 -0.2124  0.0968  0.0432
 7320SOL     OW33595   3.035   4.428   6.800 -0.0392 -0.5925  0.5891
 7320SOL    HW133596   2.966   4.415   6.865  0.9420  0.5484  1.8316
 7320SOL    HW233597   2.990   4.421   6.716  1.8019 -0.7930 -0.3805
 7321SOL     OW33598   3.365   0.584   4.089  0.0685  0.7153  0.2068
 7321SOL    HW133599   3.339   0.496   4.062 -1.1029  1.1345 -0.0664
 7321SOL    HW233600   3.324   0.639   4.022  1.1208 -1.3094 -2.0848
 7322SOL     OW33601   1.022   4.442   9.526 -0.4224  0.0727  0.2577
 7322SOL    HW133602   1.086   4.418   9.460 -1.0017  1.3719 -0.7693
 7322SOL    HW233603   1.066   4.496   9.592  2.5125 -0.8459 -0.9662
 7323SOL     OW33604   1.276   2.946  12.982 -0.0978  0.3434 -0.2295
 7323SOL    HW133605   1.258   2.930  12.889 -0.6165 -2.1260  0.2989
 7323SOL    HW233606   1.361   2.904  12.992 -1.1273 -1.3987  1.2399
 7324SOL     OW33607   3.262   1.185   7.112  0.5048  0.1684 -0.5005
 7324SOL    HW133608   3.296   1.256   7.057  0.1010  1.5211  0.9882
 7324SOL    HW233609   3.167   1.189   7.100  0.0194 -2.7627  2.3454
 7325SOL     OW33610   4.404   3.426   9.766  0.7135 -0.2418 -0.0655
 7325SOL    HW133611   4.319   3.416   9.722 -0.8519 -0.3284  2.9938
 7325SOL    HW233612   4.401   3.509   9.815  1.0047 -0.5803  0.5234
 7326SOL     OW33613   1.133   0.171   3.873 -0.3401  0.4293 -0.2961
 7326SOL    HW133614   1.079   0.158   3.952  0.0951  1.0002  0.1018
 7326SOL    HW233615   1.090   0.253   3.847 -0.2391  0.1971 -1.1774
 7327SOL     OW33616   1.483   0.955   1.717  0.6162 -0.2237  0.1302
 7327SOL    HW133617   1.534   1.030   1.747 -1.5552  1.0629  0.6486
 7327SOL    HW233618   1.397   0.979   1.752  0.5326  1.0615 -0.9307
 7328SOL     OW33619   3.503   2.224   6.333 -1.1572 -0.2091  0.3434
 7328SOL    HW133620   3.556   2.293   6.371  0.5344 -1.0747 -0.4268
 7328SOL    HW233621   3.528   2.146   6.384 -0.1548  0.1892  0.4605
 7329SOL     OW33622   3.768   2.692   0.400 -0.4971  0.1221 -0.2467
 7329SOL    HW133623   3.751   2.614   0.453 -0.0645  1.2044  1.4905
 7329SOL    HW233624   3.705   2.752   0.440  0.1113  2.8319 -3.3734
 7330SOL     OW33625   3.384   1.270   9.218  0.2780  0.0326 -0.1895
 7330SOL    HW133626   3.315   1.318   9.172 -0.4451  0.4688  1.3501
 7330SOL    HW233627   3.463   1.275   9.164  1.4089 -1.8928  1.2927
 7331SOL     OW33628   2.456   1.189   2.890  0.3205  0.2824 -0.4538
 7331SOL    HW133629   2.533   1.160   2.939 -0.4355  1.4087  1.3710
 7331SOL    HW233630   2.390   1.189   2.959 -0.3882 -2.9708 -1.1452
 7332SOL     OW33631   3.609   3.424   9.895 -0.0193 -0.1337  0.3404
 7332SOL    HW133632   3.538   3.485   9.874  0.1561 -0.1782 -0.3953
 7332SOL    HW233633   3.676   3.480   9.935 -2.0063  0.9306  2.1979
 7333SOL     OW33634   0.755   0.028  11.361 -0.3655 -0.4363 -0.0774
 7333SOL    HW133635   0.692   0.016  11.290  0.2430 -1.7908 -0.3946
 7333SOL    HW233636   0.806   4.682  11.355  1.0805  0.5740 -1.2314
 7334SOL     OW33637   4.092   0.894   0.459  0.6911 -0.1388 -0.0153
 7334SOL    HW133638   4.004   0.923   0.482  0.1172 -1.2051 -0.8728
 7334SOL    HW233639   4.089   0.799   0.468 -0.8001 -0.4048 -3.3369
 7335SOL     OW33640   2.348   1.539   3.824 -0.1948  0.1209  0.0020
 7335SOL    HW133641   2.268   1.502   3.788  0.1830  0.5779 -1.3249
 7335SOL    HW233642   2.407   1.475   3.784 -0.0457 -0.3131  0.9381
 7336SOL     OW33643   3.700   1.490   7.479  0.2610  0.7594 -0.5669
 7336SOL    HW133644   3.765   1.429   7.445 -0.1226 -0.5402  1.0354
 7336SOL    HW233645   3.747   1.526   7.555  0.1430 -1.3946  0.5136
 7337SOL     OW33646   3.990   2.580   3.286 -0.5187 -0.2396 -0.0281
 7337SOL    HW133647   4.035   2.639   3.346 -2.1759  0.1962  0.7766
 7337SOL    HW233648   3.981   2.496   3.331  0.1006  0.5740  1.5917
 7338SOL     OW33649   4.092   4.532  10.294 -0.2509  0.2552 -0.4706
 7338SOL    HW133650   4.059   4.509  10.207 -1.5065 -3.8072  1.0756
 7338SOL    HW233651   4.068   4.624  10.300 -1.6749 -0.1736  0.2292
 7339SOL     OW33652   3.827   0.274   6.096  0.2675  0.0514  0.0057
 7339SOL    HW133653   3.805   0.289   6.188  0.2987  0.5939 -0.0753
 7339SOL    HW233654   3.918   0.241   6.097  0.2795  0.1869  2.2583
 7340SOL     OW33655   4.103   4.180   4.896 -0.2755 -0.0384 -0.4228
 7340SOL    HW133656   4.155   4.124   4.953 -1.0253  0.8140  1.0846
 7340SOL    HW233657   4.058   4.245   4.950  0.1301  0.7061 -0.9815
 7341SOL     OW33658   4.322   0.035   4.442  0.2615  0.2039  0.0521
 7341SOL    HW133659   4.330   4.684   4.401  2.2406  0.7650 -0.6973
 7341SOL    HW233660   4.337   0.022   4.536  1.9946 -0.7672 -0.3727
 7342SOL     OW33661   2.291   1.867   8.101  0.4043 -0.4698  0.2477
 7342SOL    HW133662   2.339   1.795   8.061 -0.8317 -1.2339  0.1262
 7342SOL    HW233663   2.212   1.822   8.132 -0.2424  0.9469  0.6420
 7343SOL     OW33664   4.284   0.226   5.434  0.4523  0.1195  0.2354
 7343SOL    HW133665   4.236   0.163   5.379  1.9261  0.4484 -1.4443
 7343SOL    HW233666   4.295   0.172   5.512 -1.8820  0.6196  0.8961
 7344SOL     OW33667   1.532   0.251   0.795  0.3000  0.1284 -0.6006
 7344SOL    HW133668   1.525   0.156   0.802 -2.2542  0.5212  2.2727
 7344SOL    HW233669   1.440   0.273   0.784 -0.3445 -1.7581  0.8607
 7345SOL     OW33670   2.164   4.725   6.400  0.2479 -0.1752  0.0063
 7345SOL    HW133671   2.212   4.646   6.425 -0.0155 -0.3460 -0.0305
 7345SOL    HW233672   2.231   0.058   6.402  0.9512 -0.8148 -1.1687
 7346SOL     OW33673   1.264   1.233   7.086  0.0891 -0.3686  0.6297
 7346SOL    HW133674   1.350   1.201   7.060  0.0861 -1.4727  1.9957
 7346SOL    HW233675   1.243   1.169   7.155 -0.0358  1.3386  2.1736
 7347SOL     OW33676   2.616   1.004   1.905  0.1713 -0.1801 -0.3170
 7347SOL    HW133677   2.561   1.083   1.896  1.8637  0.9791 -0.3769
 7347SOL    HW233678   2.687   1.029   1.964 -1.7141  2.6690  0.7541
 7348SOL     OW33679   4.719   4.253   8.386 -0.1743 -0.2226  0.1863
 7348SOL    HW133680   4.680   4.197   8.318  2.8067 -0.4735 -1.3096
 7348SOL    HW233681   4.701   4.202   8.464  0.7590 -1.0590 -0.1521
 7349SOL     OW33682   0.355   4.261   9.427 -0.2989  0.0538 -0.9925
 7349SOL    HW133683   0.272   4.214   9.432 -0.6481  0.7324 -0.4343
 7349SOL    HW233684   0.364   4.285   9.335  2.4742  2.4304 -0.0899
 7350SOL     OW33685   0.831   1.892  16.257  0.8037  0.0892 -0.0571
 7350SOL    HW133686   0.871   1.834  16.322  1.6276  0.2883 -0.3934
 7350SOL    HW233687   0.783   1.828  16.204  0.9132  1.2869 -1.5944
 7351SOL     OW33688   0.682   4.132  15.117  0.4202  0.0652  0.4182
 7351SOL    HW133689   0.750   4.193  15.145  1.0176  1.3552 -3.8673
 7351SOL    HW233690   0.663   4.170  15.031  0.7989 -1.7805 -0.4780
 7352SOL     OW33691   4.680   0.450   5.954  0.3148  0.2474  0.0112
 7352SOL    HW133692   4.679   0.475   6.046  1.0166  2.2595 -0.5304
 7352SOL    HW233693   0.034   0.478   5.932  0.5340  2.0706  3.2246
 7353SOL     OW33694   3.366   1.882   5.841 -0.1643 -0.3632  0.0830
 7353SOL    HW133695   3.281   1.927   5.839  1.2150  2.2690  0.6977
 7353SOL    HW233696   3.404   1.916   5.922 -1.8513  3.0713 -0.5493
 7354SOL     OW33697   0.944   1.181   8.145  0.2239  0.8173 -0.6128
 7354SOL    HW133698   0.983   1.104   8.187 -2.2315 -0.5799 -0.9316
 7354SOL    HW233699   0.931   1.141   8.059  0.4182 -0.3462 -0.1062
 7355SOL     OW33700   1.796   0.048   1.352 -0.1301 -0.0779 -0.0853
 7355SOL    HW133701   1.734   0.088   1.291  0.5697  3.1638  1.3864
 7355SOL    HW233702   1.752   0.054   1.437  2.5313 -0.9258  1.3720
 7356SOL     OW33703   4.670   0.390  13.871  0.3380 -0.4864  0.0415
 7356SOL    HW133704   4.617   0.460  13.832  2.4648  0.1070 -1.8035
 7356SOL    HW233705   4.709   0.430  13.949  1.8270  0.8001 -1.3582
 7357SOL     OW33706   3.473   0.150   6.251  0.0101 -0.2592 -0.6390
 7357SOL    HW133707   3.442   0.136   6.162  1.5670  0.2524 -1.2661
 7357SOL    HW233708   3.393   0.170   6.299  1.3144 -0.7476  1.7493
 7358SOL     OW33709   3.035   0.142  12.681  0.0604 -0.3500  0.4592
 7358SOL    HW133710   3.005   0.158  12.771  0.0754 -0.5750  0.5039
 7358SOL    HW233711   3.115   0.094  12.701 -0.9262 -1.2552  2.2213
 7359SOL     OW33712   2.991   3.897   8.317  0.1985 -0.4108  0.0727
 7359SOL    HW133713   2.900   3.867   8.317 -0.1449  0.6253 -0.4433
 7359SOL    HW233714   3.031   3.835   8.378  0.1257  2.5448  3.1417
 7360SOL     OW33715   4.553   0.672   7.974 -0.6214  0.0502 -0.2734
 7360SOL    HW133716   4.523   0.681   7.883 -0.4598  2.0248 -0.1185
 7360SOL    HW233717   4.474   0.670   8.028  0.1736  0.2475  0.8882
 7361SOL     OW33718   1.603   2.355   3.857  0.2653  0.3306 -0.6536
 7361SOL    HW133719   1.517   2.315   3.867  0.5786 -0.4144 -0.9092
 7361SOL    HW233720   1.657   2.276   3.850 -0.3266 -0.3247  2.5036
 7362SOL     OW33721   3.061   2.552   7.075  1.2325  0.2543  0.0895
 7362SOL    HW133722   3.021   2.620   7.020  3.2717  0.7719 -0.7678
 7362SOL    HW233723   3.023   2.472   7.040  0.0123  0.8065  0.1545
 7363SOL     OW33724   4.409   4.220   6.964 -0.1194 -0.1315 -0.2659
 7363SOL    HW133725   4.408   4.201   6.870  0.1884  0.0841 -0.3162
 7363SOL    HW233726   4.503   4.239   6.976 -0.1016 -0.8830  0.7240
 7364SOL     OW33727   3.559   1.025  15.358  0.0912 -0.1362 -0.4005
 7364SOL    HW133728   3.628   1.083  15.326 -0.1182  0.8136  0.8449
 7364SOL    HW233729   3.490   1.048  15.296 -0.9450  1.4058  1.3044
 7365SOL     OW33730   2.097   3.302   2.126  0.0621  0.9177  0.4434
 7365SOL    HW133731   2.142   3.320   2.043 -1.7482 -0.2059 -0.7875
 7365SOL    HW233732   2.170   3.260   2.171  0.5231  0.9750 -0.2478
 7366SOL     OW33733   1.268   1.498  10.428 -0.0692 -0.1409  0.0593
 7366SOL    HW133734   1.307   1.419  10.390  1.3749  0.0941  1.0483
 7366SOL    HW233735   1.317   1.560  10.373  1.0460 -0.7605  0.3685
 7367SOL     OW33736   0.098   3.917   5.771  0.0460  0.0150 -0.6885
 7367SOL    HW133737   0.042   3.849   5.807  0.0752  0.0400 -0.5975
 7367SOL    HW233738   0.170   3.856   5.752  1.0439  1.1624 -0.5696
 7368SOL     OW33739   1.957   1.669   4.167  0.0204  0.3342 -0.0188
 7368SOL    HW133740   2.014   1.728   4.117  0.2745 -1.0035 -1.3191
 7368SOL    HW233741   1.889   1.654   4.101 -0.7977  0.4247  0.8051
 7369SOL     OW33742   2.343   4.690   9.198 -0.1209 -0.5453  1.1071
 7369SOL    HW133743   2.250   4.707   9.186 -0.1372  0.8589  3.0988
 7369SOL    HW233744   2.379   0.010   9.128 -0.4509 -1.6672  0.0504
 7370SOL     OW33745   2.440   0.422   7.090 -0.2825  0.1282  0.0596
 7370SOL    HW133746   2.529   0.457   7.100 -0.4341  1.0776 -2.0156
 7370SOL    HW233747   2.454   0.329   7.109  0.8507  0.0441 -1.1771
 7371SOL     OW33748   1.396   1.792   7.839 -0.3408 -0.7528 -0.5484
 7371SOL    HW133749   1.330   1.775   7.905  1.0678 -0.1175  1.0307
 7371SOL    HW233750   1.471   1.737   7.864  1.3082  1.0113 -1.5781
 7372SOL     OW33751   1.424   4.725  10.424 -0.8103 -0.2176  0.4524
 7372SOL    HW133752   1.480   0.045  10.479  0.0887 -0.0368 -0.6487
 7372SOL    HW233753   1.455   0.011  10.335  0.3459 -0.7120  0.7396
 7373SOL     OW33754   3.220   4.655   5.536 -0.6894 -0.2600 -0.0226
 7373SOL    HW133755   3.293   4.691   5.486  1.2494 -1.6585  1.8100
 7373SOL    HW233756   3.235   4.562   5.521 -2.1747 -0.6356  0.7313
 7374SOL     OW33757   1.898   1.416   5.228 -0.7951  0.6675  0.4413
 7374SOL    HW133758   1.873   1.368   5.149 -0.3539  1.7868 -0.3765
 7374SOL    HW233759   1.826   1.396   5.288 -0.7785 -0.3038  0.1407
 7375SOL     OW33760   4.566   1.630   0.011 -0.1988  0.0560 -0.0161
 7375SOL    HW133761   4.586   1.692   0.081 -1.7063  1.1161 -0.5145
 7375SOL    HW233762   4.645   1.631  17.696  0.4651  0.4477  0.9598
 7376SOL     OW33763   1.678   3.849   2.996 -0.0631  0.3035 -0.0937
 7376SOL    HW133764   1.716   3.936   2.995 -2.8271  1.4898 -2.0597
 7376SOL    HW233765   1.583   3.865   2.998 -0.1647 -0.3738  0.3642
 7377SOL     OW33766   0.394   3.107  14.306  0.7922  0.6363 -0.5160
 7377SOL    HW133767   0.460   3.067  14.250  1.0504  2.1230 -1.2688
 7377SOL    HW233768   0.422   3.073  14.391  2.0288 -1.1385 -1.6180
 7378SOL     OW33769   3.176   0.855   4.723 -0.2458  0.4274  1.1852
 7378SOL    HW133770   3.206   0.924   4.783  0.1085 -1.1579  2.8569
 7378SOL    HW233771   3.097   0.828   4.769 -0.1433 -1.6593  0.1534
 7379SOL     OW33772   1.006   2.052  11.408 -0.4967 -0.7127 -0.0105
 7379SOL    HW133773   0.932   2.108  11.385  0.6969  0.3820 -1.2172
 7379SOL    HW233774   1.084   2.109  11.407 -1.2734  0.3623  0.7121
 7380SOL     OW33775   3.185   1.217   7.785 -0.1054 -0.1068  0.5095
 7380SOL    HW133776   3.129   1.291   7.758 -0.6335 -0.7409 -0.1328
 7380SOL    HW233777   3.244   1.259   7.847 -2.1773  3.2515  0.2382
 7381SOL     OW33778   3.480   4.161   7.809 -0.2273  0.0008  0.1428
 7381SOL    HW133779   3.535   4.083   7.807  0.6309  0.6146 -0.3585
 7381SOL    HW233780   3.494   4.181   7.902  1.9100  3.2535 -0.8888
 7382SOL     OW33781   0.690   3.284   9.915  0.5187 -0.1809  0.1934
 7382SOL    HW133782   0.616   3.241   9.959  0.0419  1.6556  1.1523
 7382SOL    HW233783   0.724   3.341   9.983 -2.7828  0.2913  1.4609
 7383SOL     OW33784   3.168   1.157  16.957  0.2569  0.0799  0.2884
 7383SOL    HW133785   3.159   1.105  16.876 -2.3640  1.8587 -0.5784
 7383SOL    HW233786   3.096   1.219  16.966 -0.0375 -0.4924  1.8836
 7384SOL     OW33787   0.677   3.282   3.080 -0.6725  0.0050 -0.1200
 7384SOL    HW133788   0.716   3.226   3.012 -1.5055  0.8204 -1.2820
 7384SOL    HW233789   0.592   3.301   3.040  0.4077  1.0457 -1.9078
 7385SOL     OW33790   3.424   2.531   7.663 -0.0549 -0.3632 -0.1726
 7385SOL    HW133791   3.509   2.520   7.620  0.8970 -1.1022  1.8702
 7385SOL    HW233792   3.366   2.485   7.603 -0.8048  0.2496  0.0876
 7386SOL     OW33793   1.106   0.463  15.292  0.1830 -0.0060 -0.0426
 7386SOL    HW133794   1.178   0.521  15.317  0.4581 -1.8050  3.2402
 7386SOL    HW233795   1.074   0.499  15.209 -0.8225  0.7147  0.6647
 7387SOL     OW33796   0.745   1.468  16.802 -0.3285 -0.8321  0.1287
 7387SOL    HW133797   0.743   1.380  16.839 -2.0924 -0.3207  1.2815
 7387SOL    HW233798   0.766   1.518  16.880 -2.1864  1.8630 -1.0935
 7388SOL     OW33799   4.158   1.587   4.841 -0.2717 -0.3932  0.1424
 7388SOL    HW133800   4.185   1.524   4.774  1.0550 -0.1829  0.4759
 7388SOL    HW233801   4.168   1.527   4.916 -1.0964 -0.2859  0.3359
 7389SOL     OW33802   4.005   4.317  12.030  0.1390  0.0429  0.3450
 7389SOL    HW133803   4.008   4.399  11.980 -0.0415  0.9560  1.8295
 7389SOL    HW233804   4.080   4.324  12.088  0.4365  1.1639 -0.1732
 7390SOL     OW33805   0.281   4.316   3.376  0.2920 -0.0355  0.3149
 7390SOL    HW133806   0.319   4.396   3.340 -0.2717 -0.8923 -2.1715
 7390SOL    HW233807   0.319   4.248   3.321 -0.9952 -1.5440  1.2797
 7391SOL     OW33808   3.460   2.225   2.663 -0.0409 -0.0020 -0.4262
 7391SOL    HW133809   3.550   2.255   2.672  0.4670 -1.1478 -1.9057
 7391SOL    HW233810   3.444   2.247   2.571 -1.9788  2.2733  0.4390
 7392SOL     OW33811   4.548   1.451   2.813 -0.4881  0.5307 -0.1389
 7392SOL    HW133812   4.531   1.524   2.872  2.6604  1.6653 -0.6284
 7392SOL    HW233813   4.557   1.502   2.733 -0.8441  0.2723 -0.3435
 7393SOL     OW33814   3.764   1.488   3.460 -0.3655 -0.7912  0.5580
 7393SOL    HW133815   3.824   1.549   3.417 -0.1859 -1.6786 -0.4443
 7393SOL    HW233816   3.822   1.452   3.528 -0.7854 -1.1007  0.7514
 7394SOL     OW33817   0.379   2.668   1.662  0.1992 -0.6871 -0.3467
 7394SOL    HW133818   0.342   2.628   1.741 -1.2266  1.1486 -0.0916
 7394SOL    HW233819   0.467   2.694   1.688  0.3015 -1.6043  0.2302
 7395SOL     OW33820   4.060   2.971   1.813  0.5304 -0.4430  0.4409
 7395SOL    HW133821   3.995   2.918   1.767 -0.1505 -1.9047  3.1528
 7395SOL    HW233822   4.137   2.919   1.791  1.1506  0.7672 -0.2833
 7396SOL     OW33823   2.309   0.928  11.835  0.5591  0.4554 -0.6245
 7396SOL    HW133824   2.283   0.997  11.773  1.5744  1.3858 -0.0078
 7396SOL    HW233825   2.299   0.853  11.775  0.6139  0.0807 -0.1600
 7397SOL     OW33826   0.485   2.144  16.386 -0.2193  0.1207 -0.0901
 7397SOL    HW133827   0.548   2.130  16.457 -0.9578  1.0896  0.7463
 7397SOL    HW233828   0.544   2.115  16.316 -0.1065  0.7208 -0.2407
 7398SOL     OW33829   1.847   1.562   6.834 -0.2265 -0.1628  0.6718
 7398SOL    HW133830   1.759   1.598   6.830  0.3516  1.1972  0.2651
 7398SOL    HW233831   1.899   1.637   6.805 -0.1244  0.4972  2.5490
 7399SOL     OW33832   3.097   3.401  15.557  0.0762  0.1874 -0.3725
 7399SOL    HW133833   3.034   3.432  15.622 -0.9338 -3.2009  0.3012
 7399SOL    HW233834   3.069   3.434  15.472  0.9838 -0.0677 -0.7745
 7400SOL     OW33835   3.050   0.832   1.526  0.0317  0.4223  0.0921
 7400SOL    HW133836   2.989   0.787   1.467  0.4766 -0.1673  0.0855
 7400SOL    HW233837   3.005   0.826   1.610  0.3035  0.4706  0.2394
 7401SOL     OW33838   1.717   1.723  11.774  0.0804 -0.7256  0.1869
 7401SOL    HW133839   1.677   1.648  11.731 -1.1308  0.2835 -0.4514
 7401SOL    HW233840   1.743   1.777  11.699 -0.5359 -1.0386 -0.2525
 7402SOL     OW33841   3.125   2.583   7.939 -0.5239 -0.1475  0.4215
 7402SOL    HW133842   3.133   2.592   8.034  0.6268 -0.0469  0.3177
 7402SOL    HW233843   3.114   2.489   7.932 -2.1657  0.0719 -0.0498
 7403SOL     OW33844   2.456   1.661  17.270 -0.4149 -0.1490  0.1459
 7403SOL    HW133845   2.456   1.576  17.226  1.7172 -1.4093  2.6001
 7403SOL    HW233846   2.476   1.730  17.206 -1.5856  1.3228  1.3748
 7404SOL     OW33847   4.353   1.877  10.643  0.1586  0.4631 -0.7237
 7404SOL    HW133848   4.355   1.961  10.688  1.1436 -0.0451  0.2063
 7404SOL    HW233849   4.434   1.877  10.592  0.8293  2.2349  0.3523
 7405SOL     OW33850   0.775   2.409   3.178  0.1796  0.3391 -0.0149
 7405SOL    HW133851   0.779   2.465   3.101  0.3678  2.0132  1.1980
 7405SOL    HW233852   0.806   2.473   3.242 -1.0096 -0.0785  0.9787
 7406SOL     OW33853   0.266   3.945  11.800 -0.0156 -0.2381 -0.0438
 7406SOL    HW133854   0.259   3.867  11.855 -1.5928  0.3834  0.6343
 7406SOL    HW233855   0.335   3.911  11.744 -0.4720  1.3690 -1.5874
 7407SOL     OW33856   1.843   2.875   5.579 -0.1182 -0.4615  0.2357
 7407SOL    HW133857   1.911   2.850   5.642 -0.9119  0.7553  1.5929
 7407SOL    HW233858   1.791   2.794   5.580 -0.5086 -0.2120  0.1167
 7408SOL     OW33859   0.819   1.195  12.357 -0.2806 -0.3424  0.2356
 7408SOL    HW133860   0.752   1.127  12.350 -0.5142 -0.0468 -0.4180
 7408SOL    HW233861   0.898   1.147  12.333  1.0474  2.1399 -0.4307
 7409SOL     OW33862   2.396   1.324  14.880  0.4515 -0.3615 -0.0094
 7409SOL    HW133863   2.477   1.294  14.839 -0.0781 -1.9050  0.0781
 7409SOL    HW233864   2.425   1.413  14.898 -0.2030  0.2088 -1.8459
 7410SOL     OW33865   2.382   4.024  13.864 -0.4475  0.3648 -0.2351
 7410SOL    HW133866   2.432   4.058  13.790 -1.1506  1.1807 -0.3304
 7410SOL    HW233867   2.296   4.016  13.823 -0.3131  3.1823 -1.0355
 7411SOL     OW33868   1.768   4.047   8.931  0.0239 -0.7690 -0.5127
 7411SOL    HW133869   1.707   4.104   8.978  0.6153 -0.9049  0.4158
 7411SOL    HW233870   1.735   4.050   8.841 -0.6451 -0.6113 -0.2647
 7412SOL     OW33871   0.429   3.316   9.746 -0.0948 -0.0186  0.5531
 7412SOL    HW133872   0.502   3.377   9.731 -0.7979 -0.0591 -2.8908
 7412SOL    HW233873   0.473   3.232   9.756  0.7836  0.4921  1.0444
 7413SOL     OW33874   4.673   3.849  10.939 -0.8438 -0.3730  0.0391
 7413SOL    HW133875   4.672   3.803  11.023 -0.9881  0.4945  0.5084
 7413SOL    HW233876   4.681   3.942  10.962  0.5506 -0.7481  1.1272
 7414SOL     OW33877   1.199   1.717   2.901 -0.4885 -0.5338 -0.2199
 7414SOL    HW133878   1.231   1.731   2.990  0.9115 -1.1447 -0.6328
 7414SOL    HW233879   1.118   1.767   2.903  0.2303  0.5657  1.6208
 7415SOL     OW33880   4.534   2.947   6.298 -0.2225 -0.1834 -0.7316
 7415SOL    HW133881   4.579   3.019   6.343 -1.2839  0.3942 -0.5834
 7415SOL    HW233882   4.457   2.935   6.354  1.3404 -0.5298  1.3315
 7416SOL     OW33883   3.754   0.203  15.725  0.3594 -0.0957  0.2720
 7416SOL    HW133884   3.729   0.237  15.639  1.4216  0.0240  0.0041
 7416SOL    HW233885   3.667   0.220  15.761  0.9901  1.5945  1.0324
 7417SOL     OW33886   3.419   3.898   4.221  0.1700  0.1455 -0.1979
 7417SOL    HW133887   3.328   3.914   4.195  0.1025  1.2207  0.6717
 7417SOL    HW233888   3.416   3.898   4.317  1.0298  1.1453 -0.1697
 7418SOL     OW33889   2.580   3.665   7.417  0.1220  0.6711  0.2232
 7418SOL    HW133890   2.553   3.617   7.339 -0.2677 -1.1422  1.4668
 7418SOL    HW233891   2.670   3.633   7.422 -0.1330 -0.3690 -1.7122
 7419SOL     OW33892   0.565   0.338   4.490  0.4934 -0.9403 -0.4642
 7419SOL    HW133893   0.615   0.377   4.561 -1.1033 -0.2610  0.3079
 7419SOL    HW233894   0.611   0.255   4.500 -0.8568 -1.7608 -1.1257
 7420SOL     OW33895   1.768   2.832   3.595 -0.2585 -0.0105 -0.2505
 7420SOL    HW133896   1.818   2.841   3.514  1.5806 -2.3305  0.6241
 7420SOL    HW233897   1.822   2.887   3.652  1.9764  0.3965 -2.7535
 7421SOL     OW33898   2.971   0.906   8.032  0.0675  0.0170  0.8130
 7421SOL    HW133899   2.920   0.959   7.972 -1.3315 -0.0546  1.9490
 7421SOL    HW233900   2.944   0.816   8.013  0.3107 -0.1150  1.0865
 7422SOL     OW33901   0.895   0.461   4.115  0.6749 -1.1152 -0.9089
 7422SOL    HW133902   0.805   0.434   4.132  0.6163 -1.6190 -2.0102
 7422SOL    HW233903   0.921   0.431   4.202  0.5291  0.2342 -0.4056
 7423SOL     OW33904   2.350   1.508   9.067 -0.1576  0.4046  0.1966
 7423SOL    HW133905   2.389   1.468   9.144 -0.1710 -0.2815 -0.1566
 7423SOL    HW233906   2.272   1.455   9.056 -0.5493  0.6536  1.8603
 7424SOL     OW33907   4.170   2.464   0.171  0.5158  0.0907 -0.1211
 7424SOL    HW133908   4.126   2.412   0.104  0.6203 -0.8879  0.5688
 7424SOL    HW233909   4.124   2.437   0.251 -0.7913 -2.5397 -1.7822
 7425SOL     OW33910   0.854   2.748   0.877  0.9601  0.4463 -0.8711
 7425SOL    HW133911   0.866   2.787   0.964 -2.0367  1.2177 -0.7970
 7425SOL    HW233912   0.785   2.799   0.834 -1.2353 -1.9191 -0.1193
 7426SOL     OW33913   1.378   1.763   6.067  0.6538 -0.6733 -0.3254
 7426SOL    HW133914   1.450   1.727   6.016 -0.1119 -1.4366 -0.8486
 7426SOL    HW233915   1.420   1.838   6.111 -0.3627 -0.3732  0.1364
 7427SOL     OW33916   1.512   1.358   6.794 -0.4479  0.2101  0.3203
 7427SOL    HW133917   1.509   1.324   6.884 -0.1214 -0.0720  0.2247
 7427SOL    HW233918   1.453   1.433   6.789  1.7366  2.1763  4.6758
 7428SOL     OW33919   0.541   3.267   3.701  0.4995 -0.4709 -0.1575
 7428SOL    HW133920   0.563   3.314   3.781 -3.2310  1.3432 -0.2042
 7428SOL    HW233921   0.604   3.303   3.638  1.2539 -1.8648 -0.1990
 7429SOL     OW33922   1.123   2.553   2.824 -0.4487 -0.0554  0.3233
 7429SOL    HW133923   1.095   2.637   2.861  0.9957  0.7812 -0.4698
 7429SOL    HW233924   1.180   2.523   2.895  1.9373  2.2895 -0.5998
 7430SOL     OW33925   3.176   2.089  12.378 -0.2873 -0.0744 -0.8916
 7430SOL    HW133926   3.248   2.117  12.435 -0.4010 -2.1818  0.2884
 7430SOL    HW233927   3.162   2.170  12.330 -0.5663  1.4634  1.7967
 7431SOL     OW33928   2.672   3.920   6.503  0.4288  0.6904 -0.0015
 7431SOL    HW133929   2.719   4.004   6.500  1.7021 -0.0461 -0.4360
 7431SOL    HW233930   2.687   3.891   6.593  1.5319  1.4181  0.0539
 7432SOL     OW33931   1.479   1.398  13.335 -0.0372 -0.2900 -0.1105
 7432SOL    HW133932   1.499   1.492  13.340 -0.6934 -0.1518 -0.0157
 7432SOL    HW233933   1.400   1.394  13.389 -0.5714 -0.5390 -0.8943
 7433SOL     OW33934   2.221   4.340   6.822  0.4945  0.3463 -0.3018
 7433SOL    HW133935   2.153   4.400   6.792  0.8042  0.0438 -1.6027
 7433SOL    HW233936   2.216   4.269   6.758 -0.6253 -0.3566  0.5752
 7434SOL     OW33937   3.247   2.188   7.953 -0.1952 -0.4485  0.3722
 7434SOL    HW133938   3.282   2.123   7.893  0.6917  2.5574 -2.3619
 7434SOL    HW233939   3.324   2.243   7.970  0.8991 -1.8598 -0.0640
 7435SOL     OW33940   2.570   1.699  17.517  0.5034  0.2827 -0.2460
 7435SOL    HW133941   2.520   1.694  17.436  0.1688  2.0032 -0.1348
 7435SOL    HW233942   2.630   1.772  17.502 -2.0224  2.6926  1.4502
 7436SOL     OW33943   0.851   3.954   4.839  0.7152  0.7149 -0.2118
 7436SOL    HW133944   0.765   3.963   4.879 -1.0453 -1.0130 -3.6001
 7436SOL    HW233945   0.835   3.941   4.746  1.6051 -0.0121 -0.2710
 7437SOL     OW33946   3.412   1.162  17.584  0.2657  0.4603 -0.7275
 7437SOL    HW133947   3.367   1.240  17.618  0.9443  0.6254 -0.1856
 7437SOL    HW233948   3.422   1.121  17.670 -0.2996 -1.5678 -1.6441
 7438SOL     OW33949   4.121   3.704   9.464 -0.3541  0.0861 -0.0019
 7438SOL    HW133950   4.143   3.749   9.382 -2.2988  0.3745 -0.3668
 7438SOL    HW233951   4.044   3.753   9.495 -0.8555 -0.5818 -0.1954
 7439SOL     OW33952   2.563   2.857   6.479  0.1823  0.1052  0.2329
 7439SOL    HW133953   2.625   2.785   6.480 -0.7657 -0.7266 -0.8825
 7439SOL    HW233954   2.619   2.918   6.527  1.6456 -0.3603 -0.8822
 7440SOL     OW33955   3.631   2.721   8.881  0.1473 -0.1769 -0.4787
 7440SOL    HW133956   3.583   2.746   8.802  1.4481 -0.7357 -1.4616
 7440SOL    HW233957   3.667   2.803   8.915  0.4081  0.0832 -1.3806
 7441SOL     OW33958   3.724   4.191   1.142  0.8032  0.3635 -0.3705
 7441SOL    HW133959   3.796   4.252   1.161  0.0925  0.2780  2.5436
 7441SOL    HW233960   3.773   4.113   1.116  1.4301 -0.0068  1.8689
 7442SOL     OW33961   0.516   3.571   9.116 -0.1292  0.6869  0.1636
 7442SOL    HW133962   0.550   3.647   9.070  0.6667  0.5215  0.4875
 7442SOL    HW233963   0.450   3.623   9.163 -0.4204  0.0121  0.5123
 7443SOL     OW33964   3.407   3.431   5.129 -0.3066 -0.0176 -0.3269
 7443SOL    HW133965   3.345   3.405   5.061 -1.4239 -0.6274  0.9352
 7443SOL    HW233966   3.464   3.485   5.073  0.3596 -0.5445 -0.1639
 7444SOL     OW33967   1.171   3.241   8.634  0.7964 -0.5454 -0.6808
 7444SOL    HW133968   1.161   3.195   8.717  0.6327  1.5006  0.4309
 7444SOL    HW233969   1.085   3.220   8.597 -0.7989  2.8497  1.1469
 7445SOL     OW33970   0.213   2.654  15.442  0.1263  0.1234 -0.3091
 7445SOL    HW133971   0.291   2.674  15.493  0.5569 -3.1469  0.3012
 7445SOL    HW233972   0.189   2.568  15.476 -4.3524  1.4447 -0.1119
 7446SOL     OW33973   4.724   0.489   6.239  0.2453 -0.0210 -0.3042
 7446SOL    HW133974   0.024   0.406   6.273 -1.5301 -1.2635 -1.4609
 7446SOL    HW233975   4.660   0.502   6.308  0.2054 -2.6640  0.1854
 7447SOL     OW33976   3.047   4.598   2.505  0.1377 -0.2268 -0.1073
 7447SOL    HW133977   3.076   4.556   2.424  0.3081  2.5436 -1.4817
 7447SOL    HW233978   3.122   4.580   2.562  0.4112  1.2407 -0.0033
 7448SOL     OW33979   0.988   0.784   8.177  0.2421  0.1690 -0.6958
 7448SOL    HW133980   0.998   0.730   8.098 -0.3253 -0.3800 -0.3919
 7448SOL    HW233981   1.028   0.720   8.235 -2.9983  1.4389  2.8843
 7449SOL     OW33982   2.642   4.318   4.994  0.0812  0.2557  0.5005
 7449SOL    HW133983   2.551   4.341   4.975  0.9690  1.8351 -1.7735
 7449SOL    HW233984   2.681   4.398   4.959 -0.2172 -0.1471 -0.7299
 7450SOL     OW33985   4.682   0.383   2.522  0.5285  0.1309 -0.1283
 7450SOL    HW133986   4.663   0.290   2.507 -2.0722  1.0808 -2.6130
 7450SOL    HW233987   4.712   0.413   2.437  0.4218  0.2900 -0.1099
 7451SOL     OW33988   3.687   4.013   6.078  0.3300  0.9958 -0.1328
 7451SOL    HW133989   3.761   3.972   6.032  0.7237 -0.4224  1.8007
 7451SOL    HW233990   3.686   4.095   6.029  0.9525  1.7373  1.1003
 7452SOL     OW33991   0.908   4.532  14.600  0.0984  0.2021  0.8108
 7452SOL    HW133992   0.958   4.610  14.625  0.1569 -0.2583  2.1636
 7452SOL    HW233993   0.837   4.527  14.664  0.9750 -2.6291  1.5430
 7453SOL     OW33994   3.693   0.058   5.116  0.2339  0.7962 -0.0917
 7453SOL    HW133995   3.728   0.086   5.031  0.0539  1.6503  0.1111
 7453SOL    HW233996   3.636   4.721   5.091  1.5439 -0.3940  0.3688
 7454SOL     OW33997   0.642   0.219   8.113 -0.4338  0.3818 -0.2419
 7454SOL    HW133998   0.552   0.233   8.084 -0.5903  0.0829  0.0930
 7454SOL    HW233999   0.632   0.124   8.116 -3.2027  0.6776 -0.6134
 7455SOL     OW34000   0.443   4.404   4.580  0.1376  0.2043 -0.0688
 7455SOL    HW134001   0.533   4.415   4.547  0.9881 -2.5929  1.3459
 7455SOL    HW234002   0.401   4.484   4.547  0.1870  1.4603  2.9410
 7456SOL     OW34003   4.329   3.259  16.964 -0.4988  0.5344 -0.3087
 7456SOL    HW134004   4.246   3.220  16.938 -0.3634  0.2991 -0.3872
 7456SOL    HW234005   4.383   3.180  16.965  0.1434  0.9843  1.0184
 7457SOL     OW34006   0.889   1.451   4.753  0.6152  0.1316  0.1554
 7457SOL    HW134007   0.829   1.422   4.821  1.3527 -0.1904  0.6736
 7457SOL    HW234008   0.955   1.486   4.813  1.7332 -0.3173 -0.7958
 7458SOL     OW34009   3.903   1.954   9.072  0.3686 -0.4814  0.0411
 7458SOL    HW134010   3.902   1.907   8.989 -1.7255 -0.4574  0.0619
 7458SOL    HW234011   3.986   1.916   9.102  2.4484  3.4339 -0.7400
 7459SOL     OW34012   0.894   3.090   8.244  0.0556  0.2594 -0.1179
 7459SOL    HW134013   0.819   3.100   8.186 -0.9280 -0.4989  1.0038
 7459SOL    HW234014   0.960   3.091   8.175 -0.0887  2.7050 -0.2076
 7460SOL     OW34015   2.546   0.299   4.129 -0.2209  0.6545 -0.0340
 7460SOL    HW134016   2.511   0.332   4.046  0.7252  1.1091 -0.2579
 7460SOL    HW234017   2.523   0.369   4.190 -2.2854  0.7099 -0.8829
 7461SOL     OW34018   1.144   4.452  13.248 -0.3252 -0.2111  0.5738
 7461SOL    HW134019   1.064   4.491  13.284 -0.8758 -1.0055  0.2241
 7461SOL    HW234020   1.113   4.408  13.169  0.9353 -2.7553  1.5099
 7462SOL     OW34021   4.637   3.705   8.253 -0.2505  0.3085  0.5113
 7462SOL    HW134022   4.546   3.696   8.225  0.6112 -1.3868 -1.7572
 7462SOL    HW234023   4.672   3.739   8.171 -0.1607 -1.0716 -0.0207
 7463SOL     OW34024   3.657   1.952  12.865  0.2429 -0.2704  0.4639
 7463SOL    HW134025   3.717   1.932  12.794 -1.4759 -2.1884 -0.4651
 7463SOL    HW234026   3.662   1.867  12.908 -3.1308  0.7533  2.9437
 7464SOL     OW34027   2.027   1.512   9.680  0.2213  0.1371 -0.5578
 7464SOL    HW134028   1.997   1.460   9.606  1.1091 -1.3620  0.1150
 7464SOL    HW234029   2.037   1.447   9.750 -3.5038 -0.6954 -0.8115
 7465SOL     OW34030   1.564   2.573   3.695 -0.0708  0.0557 -0.4328
 7465SOL    HW134031   1.637   2.630   3.719  1.9330 -2.9404  0.5929
 7465SOL    HW234032   1.585   2.510   3.765  1.2806  1.8695  0.7937
 7466SOL     OW34033   2.319   3.627   4.535 -0.3121 -0.4330  0.1115
 7466SOL    HW134034   2.291   3.610   4.625  0.9953 -1.2914  0.3546
 7466SOL    HW234035   2.337   3.721   4.535  3.2933 -1.1112 -1.3717
 7467SOL     OW34036   3.943   1.390   7.395 -0.1202 -0.6061 -1.1107
 7467SOL    HW134037   4.024   1.440   7.395 -1.1024  0.9453  2.7649
 7467SOL    HW234038   3.968   1.318   7.453 -1.4923  0.2758  0.5659
 7468SOL     OW34039   3.707   2.714   6.039 -0.1292  0.2991  0.2363
 7468SOL    HW134040   3.793   2.676   6.058 -1.1099 -1.3760  1.2912
 7468SOL    HW234041   3.723   2.807   6.057 -0.8138  0.4655 -0.0188
 7469SOL     OW34042   3.675   0.991   2.013  0.6233  0.1838  0.1069
 7469SOL    HW134043   3.713   0.990   1.925 -3.7779 -2.3897 -1.7552
 7469SOL    HW234044   3.747   1.001   2.075  1.6564  2.3338 -1.3936
 7470SOL     OW34045   2.862   0.547   8.333  0.0925  0.5689 -0.4602
 7470SOL    HW134046   2.842   0.589   8.417  0.3855  1.2429 -0.7250
 7470SOL    HW234047   2.796   0.583   8.274 -0.5561  2.3433  1.3166
 7471SOL     OW34048   1.706   1.230   8.679 -0.1369  0.5795 -0.2718
 7471SOL    HW134049   1.773   1.168   8.652 -1.0246 -1.1822  1.5982
 7471SOL    HW234050   1.755   1.311   8.662  1.3422 -0.9314 -3.2499
 7472SOL     OW34051   1.407   2.368   0.261 -0.0477  0.0647  0.0818
 7472SOL    HW134052   1.425   2.403   0.348 -1.9493 -0.9593  0.8844
 7472SOL    HW234053   1.314   2.369   0.238 -0.2589 -0.8497  0.8973
 7473SOL     OW34054   2.264   3.450   8.971  0.1004  0.1144  0.3421
 7473SOL    HW134055   2.273   3.406   8.887  2.3037 -0.2975  0.7933
 7473SOL    HW234056   2.179   3.410   8.992  0.9517 -1.3062  1.0919
 7474SOL     OW34057   0.803   1.497   5.287 -0.2903  0.4232 -0.8255
 7474SOL    HW134058   0.846   1.497   5.373  0.6488 -0.3919 -1.2944
 7474SOL    HW234059   0.724   1.449   5.312  0.7745 -1.6626 -1.3891
 7475SOL     OW34060   3.853   1.061   9.314  0.3087  0.1986 -0.7409
 7475SOL    HW134061   3.914   1.087   9.383  0.2500 -0.7619 -0.3243
 7475SOL    HW234062   3.841   0.971   9.345 -1.1806 -0.8559 -4.4577
 7476SOL     OW34063   0.219   3.587   3.334 -0.2689  0.1247 -0.0207
 7476SOL    HW134064   0.280   3.656   3.359  0.1780  0.1678 -1.2203
 7476SOL    HW234065   0.202   3.600   3.240 -2.9033  0.0474  0.4568
 7477SOL     OW34066   0.001   0.465  11.831 -0.6132 -0.2348 -0.0124
 7477SOL    HW134067   0.015   0.486  11.739 -0.6869 -0.1937 -0.0149
 7477SOL    HW234068   0.090   0.442  11.856 -0.2568  2.1919  0.9990
 7478SOL     OW34069   0.229   3.238  13.516 -0.0299 -0.2688  0.0871
 7478SOL    HW134070   0.306   3.262  13.465  0.6247 -0.3172  1.0321
 7478SOL    HW234071   0.253   3.229  13.609 -1.0229  1.5868  0.5233
 7479SOL     OW34072   1.284   3.108  13.184 -0.1430 -0.5867  0.3417
 7479SOL    HW134073   1.236   3.190  13.179 -0.0020 -0.5250  0.0013
 7479SOL    HW234074   1.273   3.062  13.101  1.5306 -0.2155 -0.0894
 7480SOL     OW34075   1.743   3.041   1.606 -0.2773 -0.5769  0.0071
 7480SOL    HW134076   1.764   3.117   1.551 -0.6722 -0.3051  0.2330
 7480SOL    HW234077   1.758   3.083   1.690 -1.3363  0.4840 -0.3319
 7481SOL     OW34078   2.800   1.475   8.202 -0.1418  0.0476  0.1743
 7481SOL    HW134079   2.830   1.395   8.245 -0.8378 -0.9856 -1.2390
 7481SOL    HW234080   2.770   1.439   8.118  0.1407  1.3695 -0.4882
 7482SOL     OW34081   0.246   2.394   6.524 -0.1216  0.4591  0.2046
 7482SOL    HW134082   0.282   2.325   6.468  3.1131  0.0503  2.7194
 7482SOL    HW234083   0.288   2.369   6.607 -1.8291 -0.8754  0.6688
 7483SOL     OW34084   4.228   3.783   5.397  0.1476 -0.1220 -0.4728
 7483SOL    HW134085   4.151   3.730   5.380 -0.4565  0.6494 -0.1226
 7483SOL    HW234086   4.290   3.763   5.327  1.4620  0.3371  0.5504
 7484SOL     OW34087   0.942   2.389   3.499 -0.1378  0.2222 -0.0799
 7484SOL    HW134088   0.879   2.320   3.481 -0.2732  0.4444 -0.4625
 7484SOL    HW234089   0.958   2.370   3.591 -0.8671  1.1865  0.2468
 7485SOL     OW34090   2.583   0.842   5.978  0.1038 -0.3282 -0.2443
 7485SOL    HW134091   2.548   0.891   5.903  0.5274 -0.2611 -0.3990
 7485SOL    HW234092   2.541   0.887   6.051 -1.2012  1.2366 -1.9490
 7486SOL     OW34093   3.933   2.497   5.396  0.1600 -0.0743  0.5687
 7486SOL    HW134094   3.949   2.590   5.413 -0.2020  0.1317 -0.2206
 7486SOL    HW234095   3.896   2.459   5.475 -1.1743  0.7225  0.3186
 7487SOL     OW34096   0.970   3.835   5.096  0.4640  0.3518  0.0382
 7487SOL    HW134097   0.896   3.776   5.114 -1.4064  2.2369 -1.4272
 7487SOL    HW234098   0.937   3.864   5.011 -1.1903 -0.0732  0.5231
 7488SOL     OW34099   2.069   0.345   3.527  0.3344  0.6696 -0.2726
 7488SOL    HW134100   1.989   0.294   3.515  0.3640  0.6885 -0.5633
 7488SOL    HW234101   2.134   0.275   3.528  1.5043  1.7704  2.0121
 7489SOL     OW34102   4.468   2.311   6.294  0.0461 -0.4422  0.5992
 7489SOL    HW134103   4.460   2.388   6.350  1.7498  1.7606 -2.2020
 7489SOL    HW234104   4.562   2.293   6.290  0.5020  2.6731 -2.4017
 7490SOL     OW34105   0.265   2.962   4.497 -0.1104  0.1236 -0.1919
 7490SOL    HW134106   0.306   2.912   4.427  0.3936  2.4132 -1.5315
 7490SOL    HW234107   0.204   3.018   4.449 -1.3186 -0.9913  0.0242
 7491SOL     OW34108   1.797   1.540   1.706 -0.0195  0.0953  0.0098
 7491SOL    HW134109   1.770   1.516   1.795 -0.0726 -2.2220 -0.6316
 7491SOL    HW234110   1.741   1.482   1.654  0.9237  0.2796 -1.2037
 7492SOL     OW34111   1.220   2.943   2.808  0.8762 -0.2488 -0.3403
 7492SOL    HW134112   1.182   3.005   2.746 -1.7210  0.6288  2.1099
 7492SOL    HW234113   1.143   2.904   2.848  0.8476  1.9040  1.7033
 7493SOL     OW34114   0.367   3.645  11.417  0.0949 -0.0441  0.1131
 7493SOL    HW134115   0.276   3.616  11.407 -0.3333  1.3523  0.0312
 7493SOL    HW234116   0.391   3.661  11.326 -1.5222 -1.1596 -0.5136
 7494SOL     OW34117   1.893   3.923   5.921  0.2103 -0.1881 -0.1154
 7494SOL    HW134118   1.908   3.984   5.993 -1.2501  1.8318 -1.5328
 7494SOL    HW234119   1.828   3.864   5.961  0.8508  0.2146  1.4999
 7495SOL     OW34120   3.499   0.627   1.905 -0.2609  0.0681 -0.4067
 7495SOL    HW134121   3.496   0.555   1.841  0.1598  0.4395 -0.8343
 7495SOL    HW234122   3.551   0.688   1.854  0.9908  0.1008  0.9222
 7496SOL     OW34123   0.714   0.898  14.816  0.1479  0.5363  0.1324
 7496SOL    HW134124   0.699   0.987  14.848  1.0654  0.3354  1.1032
 7496SOL    HW234125   0.664   0.913  14.736  0.8627  1.3481 -0.1659
 7497SOL     OW34126   2.032   3.641  11.351  0.5214 -0.0716  0.2509
 7497SOL    HW134127   2.095   3.709  11.378 -0.1133  1.1180 -1.2723
 7497SOL    HW234128   2.079   3.564  11.383  0.4658 -0.8264 -1.5016
 7498SOL     OW34129   4.438   2.537   6.448  0.6890  0.6156  0.3075
 7498SOL    HW134130   4.473   2.563   6.533  2.5585  1.3664 -0.6985
 7498SOL    HW234131   4.469   2.606   6.390  0.4060  0.4180 -0.0787
 7499SOL     OW34132   4.659   1.279   3.904 -0.1225  0.0096  0.6426
 7499SOL    HW134133   4.601   1.219   3.858  2.1847  0.2238 -2.5170
 7499SOL    HW234134   4.721   1.216   3.941  1.9324  2.1749  0.9414
 7500SOL     OW34135   3.737   1.812   1.066 -0.3821 -0.2689  0.3705
 7500SOL    HW134136   3.670   1.854   1.121  0.2293 -0.1828  1.0536
 7500SOL    HW234137   3.780   1.766   1.139 -0.7804 -1.8674 -0.4017
 7501SOL     OW34138   4.549   4.698  11.602 -0.4009  0.3013  0.0673
 7501SOL    HW134139   4.504   4.665  11.524 -0.0507  0.7243 -0.3130
 7501SOL    HW234140   4.633   4.720  11.562 -0.8808 -0.3050 -1.2827
 7502SOL     OW34141   0.108   4.599   7.775  0.2085  0.1962 -0.3182
 7502SOL    HW134142   0.039   4.553   7.823  0.9048 -2.0384 -1.4292
 7502SOL    HW234143   0.061   4.666   7.727 -0.5257  0.3394  0.6130
 7503SOL     OW34144   3.584   1.201  16.466 -0.4241  0.7159  0.5489
 7503SOL    HW134145   3.666   1.250  16.458  0.7695 -1.8627 -3.0692
 7503SOL    HW234146   3.604   1.129  16.406 -0.0272  0.6635  0.7441
 7504SOL     OW34147   2.324   2.681  13.485 -0.3792  0.1336 -0.4812
 7504SOL    HW134148   2.234   2.664  13.459 -0.7212 -0.2740  0.9843
 7504SOL    HW234149   2.318   2.643  13.572 -1.1786  0.7679 -0.2645
 7505SOL     OW34150   1.936   3.676   8.593  0.6885 -0.0122 -0.6935
 7505SOL    HW134151   1.949   3.735   8.668  1.1143  0.5224 -1.1896
 7505SOL    HW234152   1.980   3.723   8.522 -0.1273 -0.0578 -1.2240
 7506SOL     OW34153   0.394   0.391  16.759 -0.1665 -0.3755 -0.0069
 7506SOL    HW134154   0.358   0.406  16.846  1.3634  0.1200  0.5372
 7506SOL    HW234155   0.410   0.481  16.731 -1.0213 -0.7906 -1.8110
 7507SOL     OW34156   0.657   3.869   1.677  0.6489 -0.2377  0.2907
 7507SOL    HW134157   0.688   3.956   1.650  0.5089  0.1525  1.3862
 7507SOL    HW234158   0.713   3.814   1.623  0.5629  0.2618 -0.3102
 7508SOL     OW34159   4.468   0.892  12.032 -0.0151 -0.4870 -0.0676
 7508SOL    HW134160   4.526   0.953  11.986  1.8496 -1.6000  0.7924
 7508SOL    HW234161   4.487   0.812  11.982 -0.7424 -0.4907 -0.3390
 7509SOL     OW34162   1.751   3.369   6.961  0.8035  0.3852  0.2114
 7509SOL    HW134163   1.715   3.333   7.041  2.7827 -0.9621  0.4931
 7509SOL    HW234164   1.772   3.294   6.906  0.7355  0.0455  0.6540
 7510SOL     OW34165   0.297   0.276   6.677  0.6642 -0.0373 -0.3432
 7510SOL    HW134166   0.380   0.286   6.723 -0.0168  0.0524  0.8555
 7510SOL    HW234167   0.282   0.188   6.712  1.8775 -0.1466 -0.1022
 7511SOL     OW34168   1.428   2.963   6.652 -0.7709 -0.0667 -0.2105
 7511SOL    HW134169   1.388   2.954   6.565  2.3395 -1.8098 -1.4355
 7511SOL    HW234170   1.518   2.935   6.639 -1.1608 -0.5797 -1.7314
 7512SOL     OW34171   0.806   1.252   7.462 -0.0200  0.1727  0.2654
 7512SOL    HW134172   0.886   1.239   7.513  0.3630  0.6852 -0.2001
 7512SOL    HW234173   0.794   1.170   7.414  0.7358  1.3821 -2.0213
 7513SOL     OW34174   0.163   3.393   9.416  0.2850  0.9205 -0.3844
 7513SOL    HW134175   0.087   3.344   9.449 -1.7281  3.2596 -1.5350
 7513SOL    HW234176   0.221   3.332   9.370 -2.5607  0.5128 -3.4385
 7514SOL     OW34177   3.991   4.380   5.039 -0.1064  0.2740 -0.0193
 7514SOL    HW134178   3.904   4.383   5.080 -0.2181  0.0596 -0.2400
 7514SOL    HW234179   4.025   4.460   5.080  3.3387 -1.0484 -0.3435
 7515SOL     OW34180   1.346   4.358   2.453 -0.1416 -0.1864  0.5564
 7515SOL    HW134181   1.280   4.300   2.417 -0.9096  0.7090  0.5236
 7515SOL    HW234182   1.356   4.306   2.532  0.5517  0.1868  0.7194
 7516SOL     OW34183   1.473   2.272   0.761 -0.0818 -0.6468  0.2146
 7516SOL    HW134184   1.492   2.186   0.798 -0.4417 -1.7721 -2.1990
 7516SOL    HW234185   1.460   2.323   0.841 -1.5005 -2.0911  0.9074
 7517SOL     OW34186   1.972   4.126   9.448  0.5510  0.2701  0.2349
 7517SOL    HW134187   1.907   4.131   9.378  0.2296 -1.2749  0.4302
 7517SOL    HW234188   1.933   4.182   9.515 -0.0217  0.1499  0.0038
 7518SOL     OW34189   2.134   2.486  12.056  0.0562 -0.2451 -0.3147
 7518SOL    HW134190   2.124   2.461  12.147 -2.1776  0.6363 -0.3275
 7518SOL    HW234191   2.045   2.503  12.026  0.1333 -1.1824 -1.1197
 7519SOL     OW34192   1.509   0.720   5.130 -0.1048  0.0902 -0.1513
 7519SOL    HW134193   1.544   0.643   5.084  2.9518  1.7422 -0.5893
 7519SOL    HW234194   1.415   0.707   5.127 -0.2083  1.0673 -1.2121
 7520SOL     OW34195   1.833   1.414   8.527 -0.1551  0.0157 -0.4255
 7520SOL    HW134196   1.766   1.400   8.460 -0.2207  0.2999 -0.4176
 7520SOL    HW234197   1.913   1.391   8.479 -0.3954 -1.3278 -0.1804
 7521SOL     OW34198   0.602   0.994   3.192  0.2031  0.4135  0.0361
 7521SOL    HW134199   0.530   0.971   3.251 -0.2921  1.3075 -0.2176
 7521SOL    HW234200   0.555   1.020   3.113 -1.8268  2.1798  1.8237
 7522SOL     OW34201   4.552   3.928   6.577  0.1159  0.3439 -0.6580
 7522SOL    HW134202   4.495   3.884   6.514  1.8369  0.4874 -2.3111
 7522SOL    HW234203   4.498   3.930   6.657  0.6023  2.1989 -0.3602
 7523SOL     OW34204   0.110   3.800   3.857  0.3141 -0.8554 -0.1395
 7523SOL    HW134205   0.119   3.711   3.892  1.6711 -1.0253 -0.9303
 7523SOL    HW234206   0.018   3.788   3.832 -0.4855  0.0834  2.3665
 7524SOL     OW34207   4.040   3.244   6.372  0.0195 -0.1070 -0.4678
 7524SOL    HW134208   4.020   3.338   6.369 -2.5797 -0.6696 -0.7144
 7524SOL    HW234209   3.974   3.217   6.436 -2.2618 -2.6125 -3.9332
 7525SOL     OW34210   3.185   0.302  15.480  0.0558  0.2937  0.4770
 7525SOL    HW134211   3.238   0.310  15.400 -0.9044 -0.7443 -0.2491
 7525SOL    HW234212   3.101   0.345  15.466 -0.0107 -0.0650 -0.2261
 7526SOL     OW34213   0.557   1.071  11.420 -0.2107 -0.6617 -0.0620
 7526SOL    HW134214   0.565   0.984  11.460 -0.8636  0.1997  1.9052
 7526SOL    HW234215   0.613   1.121  11.480  2.1357 -1.6436 -1.4094
 7527SOL     OW34216   1.746   0.741   3.642  0.1977  0.0878 -0.2321
 7527SOL    HW134217   1.718   0.650   3.636 -1.1577  0.5304 -0.6728
 7527SOL    HW234218   1.841   0.732   3.652 -0.3587 -1.9939  2.7888
 7528SOL     OW34219   1.985   1.181   4.455  0.3398 -0.2473 -0.2764
 7528SOL    HW134220   2.034   1.101   4.473 -0.8070 -1.1779 -1.2196
 7528SOL    HW234221   2.060   1.240   4.440  0.1281  0.1804  0.3785
 7529SOL     OW34222   1.423   1.255   8.940 -0.0758 -0.4376  0.2726
 7529SOL    HW134223   1.370   1.331   8.916 -1.6839 -1.2996  1.0693
 7529SOL    HW234224   1.371   1.196   8.884 -1.8846  0.5797  0.8681
 7530SOL     OW34225   4.709   4.489  11.967 -0.8408  0.1064 -0.5198
 7530SOL    HW134226   0.031   4.487  11.891 -1.2484 -0.9996 -0.7945
 7530SOL    HW234227   4.658   4.411  11.944  0.6824 -0.7298 -1.0556
 7531SOL     OW34228   4.449   1.093   5.851  0.4641 -0.0670  0.0631
 7531SOL    HW134229   4.403   1.080   5.934 -0.1955  1.0057 -0.1341
 7531SOL    HW234230   4.390   1.062   5.782  0.6225  1.0672 -0.5827
 7532SOL     OW34231   4.037   1.735  11.961  0.1447  0.2223 -0.0117
 7532SOL    HW134232   4.103   1.778  12.015 -1.5576  0.7408  1.6526
 7532SOL    HW234233   3.990   1.686  12.028 -0.6523  0.1355 -0.6315
 7533SOL     OW34234   4.706   4.606   6.736  0.2315 -0.3667  0.3769
 7533SOL    HW134235   4.702   4.528   6.793 -3.8221  0.0628  0.6470
 7533SOL    HW234236   4.616   4.636   6.740 -0.0242 -1.2214  0.9885
 7534SOL     OW34237   0.719   1.009   7.345  0.0176  0.1102 -0.3607
 7534SOL    HW134238   0.652   0.945   7.369 -0.0052 -0.5023 -2.0504
 7534SOL    HW234239   0.677   1.061   7.276  0.0669 -0.5757 -0.9035
 7535SOL     OW34240   2.080   0.172   5.350 -0.0257  0.1952 -0.5516
 7535SOL    HW134241   2.128   0.163   5.432  0.5519 -2.2782 -1.1469
 7535SOL    HW234242   2.014   0.239   5.368  0.9933  0.3540  2.5392
 7536SOL     OW34243   1.054   3.887   3.583 -0.1554 -0.4446  1.0282
 7536SOL    HW134244   0.963   3.875   3.610 -0.1875  0.2782  1.2567
 7536SOL    HW234245   1.093   3.801   3.599 -1.2214 -1.2720 -0.8225
 7537SOL     OW34246   3.333   3.523   7.852  0.3331 -0.2205  0.3406
 7537SOL    HW134247   3.255   3.492   7.806  0.0260 -1.5820  1.7822
 7537SOL    HW234248   3.299   3.543   7.939  0.0205  1.2944 -0.1423
 7538SOL     OW34249   4.484   3.181   6.943  0.2048 -0.5436 -0.9278
 7538SOL    HW134250   4.539   3.254   6.971 -0.8855 -0.6023  1.3466
 7538SOL    HW234251   4.466   3.152   7.032 -0.1243  0.0431 -0.7998
 7539SOL     OW34252   2.215   2.707   4.352  1.0326  0.1902 -0.0970
 7539SOL    HW134253   2.132   2.661   4.362 -0.3611  2.5025 -1.2808
 7539SOL    HW234254   2.193   2.780   4.295  1.0562 -1.2501 -1.9600
 7540SOL     OW34255   1.733   1.952  16.366 -0.3612  0.0446 -0.0219
 7540SOL    HW134256   1.712   1.995  16.283  0.1790 -1.2895 -0.8496
 7540SOL    HW234257   1.692   2.013  16.428  0.4433  2.1951 -1.6161
 7541SOL     OW34258   0.816   4.728   9.146 -0.3828 -0.0511  0.6924
 7541SOL    HW134259   0.721   4.721   9.136 -0.0999 -0.4719 -1.6849
 7541SOL    HW234260   0.830   0.075   9.098  0.3635  0.1095  1.1855
 7542SOL     OW34261   3.459   1.535   0.763  0.0892 -0.0052 -0.4511
 7542SOL    HW134262   3.440   1.473   0.834 -2.5763 -0.4590 -1.5287
 7542SOL    HW234263   3.547   1.562   0.790  0.0011 -0.6709  0.5379
 7543SOL     OW34264   4.172   4.351   2.758  0.1998  0.0837 -0.0244
 7543SOL    HW134265   4.266   4.342   2.746  0.4717  0.6212  1.7154
 7543SOL    HW234266   4.172   4.358   2.854  2.0363  1.4259 -0.1379
 7544SOL     OW34267   1.745   0.451   5.301 -0.0199  0.1958  0.0083
 7544SOL    HW134268   1.705   0.440   5.387  0.9418 -0.7466  0.3282
 7544SOL    HW234269   1.741   0.358   5.279 -0.8333  0.6795 -1.9467
 7545SOL     OW34270   1.251   1.125  11.011 -0.5666  0.2021 -0.1843
 7545SOL    HW134271   1.226   1.136  10.919 -2.5923  0.8623  0.4593
 7545SOL    HW234272   1.320   1.192  11.020 -0.4283 -0.1355  1.2749
 7546SOL     OW34273   2.355   2.490   4.307  0.4743 -0.3997 -0.0392
 7546SOL    HW134274   2.272   2.442   4.304 -0.1676  0.5979  1.8237
 7546SOL    HW234275   2.321   2.578   4.324  0.8687 -0.3972  0.7345
 7547SOL     OW34276   3.509   0.301  17.632 -0.2326  0.4166  0.3511
 7547SOL    HW134277   3.479   0.222  17.676 -0.4311  0.1393 -0.2816
 7547SOL    HW234278   3.434   0.355  17.656 -1.7671 -0.8615 -1.5224
 7548SOL     OW34279   1.409   3.817   4.604  0.3033 -0.0771 -0.3468
 7548SOL    HW134280   1.360   3.752   4.654  0.3169  0.1898  0.0095
 7548SOL    HW234281   1.492   3.819   4.651  0.3019  1.7840 -0.4283
 7549SOL     OW34282   0.516   4.494   6.053  0.1096 -0.0955 -0.4812
 7549SOL    HW134283   0.481   4.449   5.976  0.9684  0.1583 -1.0174
 7549SOL    HW234284   0.608   4.470   6.056  0.5506  1.8399  1.5109
 7550SOL     OW34285   2.937   0.611  17.536  0.3949  0.4405 -0.1340
 7550SOL    HW134286   2.947   0.699  17.572  1.3131 -0.4935  1.8775
 7550SOL    HW234287   2.902   0.641  17.452  1.2306 -1.5984 -1.2312
 7551SOL     OW34288   3.654   2.406   3.582  0.7388 -0.2089 -0.2883
 7551SOL    HW134289   3.635   2.461   3.506 -1.5385 -2.2889 -1.2110
 7551SOL    HW234290   3.712   2.462   3.634  2.1649 -0.5712 -1.4993
 7552SOL     OW34291   1.503   1.868  11.203  0.0729 -0.2099 -0.1974
 7552SOL    HW134292   1.540   1.783  11.180  3.0075  0.9617  0.1803
 7552SOL    HW234293   1.565   1.931  11.168  0.2157 -1.0448 -1.4304
 7553SOL     OW34294   1.971   3.892   4.765 -0.5195  0.0819 -0.0903
 7553SOL    HW134295   1.932   3.888   4.852  1.0803 -0.8681  0.5874
 7553SOL    HW234296   2.060   3.856   4.772  0.2998  1.8660 -1.1847
 7554SOL     OW34297   4.319   1.505  16.593  0.1258 -0.1350 -0.6567
 7554SOL    HW134298   4.293   1.434  16.652 -0.7336 -0.0112 -0.8877
 7554SOL    HW234299   4.385   1.451  16.551  0.6729  1.6903 -2.1476
 7555SOL     OW34300   0.905   0.039   6.183 -0.6218 -0.7146  0.0513
 7555SOL    HW134301   0.902   4.727   6.266  1.3192 -1.0788 -0.0823
 7555SOL    HW234302   0.994   0.019   6.152 -1.1329 -1.5859 -0.8712
 7556SOL     OW34303   4.693   2.508  13.758  0.1854 -0.2291  0.1608
 7556SOL    HW134304   0.004   2.589  13.782  0.0906 -1.4394  4.2513
 7556SOL    HW234305   0.023   2.446  13.790  0.1640 -0.6470 -0.6076
 7557SOL     OW34306   1.612   3.275  13.020 -0.5207 -0.0647  0.1453
 7557SOL    HW134307   1.533   3.274  12.966 -1.6499 -2.5340  1.8648
 7557SOL    HW234308   1.597   3.198  13.075 -0.8551  0.3139  0.5879
 7558SOL     OW34309   1.004   0.415   3.864 -0.0449 -0.2322 -0.4141
 7558SOL    HW134310   0.966   0.499   3.836  0.1386 -0.7044 -2.0933
 7558SOL    HW234311   0.979   0.431   3.955 -1.5318 -0.9531 -0.7006
 7559SOL     OW34312   0.983   0.194  13.111  0.5551 -0.1229 -0.6342
 7559SOL    HW134313   0.914   0.140  13.149 -0.6007  1.6515 -0.2314
 7559SOL    HW234314   1.054   0.142  13.149 -0.5054  0.9490  2.8342
 7560SOL     OW34315   4.506   1.079   8.613 -0.0475  0.2693  0.0348
 7560SOL    HW134316   4.587   1.034   8.587  1.2821  1.6937  1.7353
 7560SOL    HW234317   4.543   1.163   8.639  1.9588 -0.5651 -0.1143
 7561SOL     OW34318   1.999   2.966  12.944 -0.1079  0.1563  0.3158
 7561SOL    HW134319   2.004   3.018  12.865 -0.8672  1.5539  1.1919
 7561SOL    HW234320   2.091   2.937  12.949  0.2084  1.1298  0.0124
 7562SOL     OW34321   3.303   3.380   4.288 -0.2427 -0.0191 -0.2424
 7562SOL    HW134322   3.346   3.432   4.356  1.1212 -3.0852  1.2570
 7562SOL    HW234323   3.352   3.408   4.211  1.3425 -1.3916  0.2591
 7563SOL     OW34324   0.506   2.501   5.453  0.7976  0.7229  0.4450
 7563SOL    HW134325   0.557   2.510   5.372  0.9438  1.2440  0.5965
 7563SOL    HW234326   0.430   2.458   5.414  0.2503  0.5799  1.6664
 7564SOL     OW34327   2.158   1.430  11.377 -0.5145  0.1809  0.4002
 7564SOL    HW134328   2.227   1.417  11.312 -1.2703 -1.9829  0.0636
 7564SOL    HW234329   2.209   1.413  11.457  0.0856  1.1395  0.2301
 7565SOL     OW34330   0.326   3.814   4.353 -0.0098  1.0109 -0.1511
 7565SOL    HW134331   0.254   3.789   4.411  1.7954  1.3904  2.2221
 7565SOL    HW234332   0.381   3.868   4.409  0.8677 -1.3899  1.3126
 7566SOL     OW34333   0.769   2.926  12.579  0.2025  0.8604 -0.5670
 7566SOL    HW134334   0.743   2.923  12.487  1.4995  1.0632 -0.9363
 7566SOL    HW234335   0.771   3.021  12.584 -0.3995  0.8621 -0.3055
 7567SOL     OW34336   1.390   3.549   2.444  0.2214 -0.3232  1.0612
 7567SOL    HW134337   1.355   3.462   2.461 -0.8898  0.4501  2.7312
 7567SOL    HW234338   1.416   3.581   2.531 -1.0528 -0.2890  1.4305
 7568SOL     OW34339   2.063   1.709   0.966 -0.3267 -0.1477 -0.1462
 7568SOL    HW134340   2.024   1.639   1.019  1.5076  0.0454  1.4797
 7568SOL    HW234341   2.086   1.775   1.030 -2.5893 -1.3106  1.8571
 7569SOL     OW34342   2.554   1.444   6.857  0.4429  0.2468  0.2510
 7569SOL    HW134343   2.628   1.457   6.798  1.1567 -0.8550  0.8895
 7569SOL    HW234344   2.583   1.362   6.898 -1.8507 -0.4710  0.4455
 7570SOL     OW34345   1.079   4.446  14.858 -0.3232  0.2624 -0.2783
 7570SOL    HW134346   1.015   4.384  14.823 -0.8182  0.0479  1.0193
 7570SOL    HW234347   1.138   4.456  14.783  0.8563 -0.0303  0.6044
 7571SOL     OW34348   3.082   1.421   3.495 -0.2558 -0.4579 -0.9418
 7571SOL    HW134349   3.115   1.466   3.417 -0.1118 -2.4994 -2.0361
 7571SOL    HW234350   3.154   1.432   3.558 -1.4699  0.2948  0.3107
 7572SOL     OW34351   4.372   0.646   9.697  0.6106 -0.7058 -0.4569
 7572SOL    HW134352   4.299   0.584   9.695  1.3359 -1.5980  0.5516
 7572SOL    HW234353   4.324   0.727   9.683  2.4696  0.1565 -1.8706
 7573SOL     OW34354   1.070   1.822   9.901  0.2899 -0.4079 -0.1102
 7573SOL    HW134355   1.060   1.899   9.957 -1.8363  0.1158 -1.2073
 7573SOL    HW234356   1.097   1.870   9.822 -0.3185  0.3739  0.1529
 7574SOL     OW34357   3.546   3.638   0.470  0.0956 -0.1267  0.0811
 7574SOL    HW134358   3.465   3.607   0.511 -0.4339  1.1237 -0.0249
 7574SOL    HW234359   3.519   3.630   0.378  1.8380 -1.1362 -0.3390
 7575SOL     OW34360   0.630   2.532  11.381 -0.0657  0.0001 -0.7372
 7575SOL    HW134361   0.691   2.465  11.412 -0.5841 -0.6428 -1.0965
 7575SOL    HW234362   0.694   2.574  11.325 -1.4668  0.8552 -1.6832
 7576SOL     OW34363   3.735   1.985   4.025  0.0528 -0.0345  0.7020
 7576SOL    HW134364   3.727   2.047   3.952  0.5847  0.4678  1.0743
 7576SOL    HW234365   3.697   2.030   4.101 -1.5021 -1.2473  0.6486
 7577SOL     OW34366   1.136   4.116  15.500 -0.4474  0.2724 -0.6165
 7577SOL    HW134367   1.042   4.108  15.488 -0.6974 -0.8720  2.1165
 7577SOL    HW234368   1.168   4.026  15.502 -1.2662 -0.0194 -0.8105
 7578SOL     OW34369   1.267   3.338  15.738 -0.6360  0.1016  0.4935
 7578SOL    HW134370   1.326   3.413  15.727 -0.2960 -0.4153 -1.2677
 7578SOL    HW234371   1.189   3.387  15.762 -0.4813  1.0437 -0.9191
 7579SOL     OW34372   3.524   3.600   2.058 -0.2657  0.1477  0.7645
 7579SOL    HW134373   3.442   3.601   2.007  0.6384  0.9517 -0.6880
 7579SOL    HW234374   3.586   3.624   1.988 -0.8489 -0.8978 -0.1097
 7580SOL     OW34375   0.286   0.980  16.118  0.0200 -0.4540 -0.0218
 7580SOL    HW134376   0.319   0.920  16.051  2.3747 -1.1356  1.7412
 7580SOL    HW234377   0.198   0.984  16.083 -0.7093 -0.2724  1.8423
 7581SOL     OW34378   2.148   0.042  11.839 -0.1009  0.2590 -0.2984
 7581SOL    HW134379   2.100   0.091  11.907  0.6865 -0.6376  0.8967
 7581SOL    HW234380   2.083   0.033  11.770 -0.7026 -0.4241  0.3554
 7582SOL     OW34381   2.526   4.685   7.817  0.6596  0.4669  0.0321
 7582SOL    HW134382   2.478   0.030   7.839  0.6636  0.1998  1.0195
 7582SOL    HW234383   2.618   4.705   7.829  0.8122 -0.2487  0.0733
 7583SOL     OW34384   1.445   4.516   4.830 -0.1798  0.0747  0.1589
 7583SOL    HW134385   1.404   4.527   4.916  0.5574 -0.1937  0.5399
 7583SOL    HW234386   1.471   4.425   4.845  1.1120 -0.3146 -4.4641
 7584SOL     OW34387   1.075   2.647   1.362  0.2446 -0.0804  0.1555
 7584SOL    HW134388   0.982   2.654   1.343  0.5995 -0.7855 -1.7932
 7584SOL    HW234389   1.070   2.689   1.449  0.4495 -0.7587  0.4917
 7585SOL     OW34390   0.833   3.912  13.105 -0.2600 -0.2038 -0.8195
 7585SOL    HW134391   0.832   3.972  13.031 -1.1995  2.8752  1.7119
 7585SOL    HW234392   0.903   3.948  13.160  1.1409 -2.8047 -0.9039
 7586SOL     OW34393   4.247   4.006   3.053 -0.3823 -0.2991  0.0152
 7586SOL    HW134394   4.238   4.096   3.022  2.0297  0.9389  2.9700
 7586SOL    HW234395   4.334   4.019   3.089 -0.1674  0.2815 -0.7464
 7587SOL     OW34396   3.082   2.559   2.562  0.2537 -0.6909  0.1240
 7587SOL    HW134397   3.154   2.519   2.611 -2.2427 -3.5829  1.4265
 7587SOL    HW234398   3.021   2.580   2.632 -0.3467 -1.2265 -0.2305
 7588SOL     OW34399   0.206   2.394   8.905 -0.2484 -0.4236 -0.2415
 7588SOL    HW134400   0.138   2.460   8.888  1.3507  0.8605 -1.7533
 7588SOL    HW234401   0.281   2.445   8.937  0.3948 -0.1413 -2.1751
 7589SOL     OW34402   2.903   2.283   2.001  0.5390  0.0001 -0.3924
 7589SOL    HW134403   2.881   2.235   1.922  0.8082 -0.4856 -0.1726
 7589SOL    HW234404   2.855   2.363   1.979 -1.4473 -0.6512  1.6584
 7590SOL     OW34405   3.799   4.685  15.591  0.2046  0.0009 -0.0662
 7590SOL    HW134406   3.790   4.620  15.662 -3.2386  0.9219  0.3340
 7590SOL    HW234407   3.785   0.034  15.634  0.3535  0.6983 -1.3941
 7591SOL     OW34408   4.506   3.663   3.485  0.2522  0.2822 -0.1259
 7591SOL    HW134409   4.553   3.684   3.405  1.4651 -0.7724  0.3172
 7591SOL    HW234410   4.460   3.584   3.456 -2.3911  1.0055  2.0790
 7592SOL     OW34411   1.308   2.844  12.723 -0.1533 -0.1124 -0.0563
 7592SOL    HW134412   1.382   2.820  12.668 -0.6248 -0.8011 -0.3995
 7592SOL    HW234413   1.299   2.768  12.780  1.8345  1.3567  2.1838
 7593SOL     OW34414   4.317   3.131  10.781  0.1423 -0.5535 -0.4339
 7593SOL    HW134415   4.357   3.165  10.701 -0.1379  1.0472  0.1066
 7593SOL    HW234416   4.262   3.207  10.796  0.6638 -0.2022 -0.3063
 7594SOL     OW34417   2.953   4.610   6.556 -0.4891 -0.4106 -1.0774
 7594SOL    HW134418   3.032   4.607   6.501  1.7017  2.0547  1.9446
 7594SOL    HW234419   2.930   4.517   6.558 -0.6313 -0.3986 -2.1339
 7595SOL     OW34420   1.670   1.169   1.816 -0.2787  0.1915  0.1544
 7595SOL    HW134421   1.723   1.236   1.859 -0.8011  1.1999 -0.7821
 7595SOL    HW234422   1.589   1.207   1.851  0.0790  2.6678 -1.7390
 7596SOL     OW34423   3.424   1.335   8.478  0.1180 -0.4053 -0.2456
 7596SOL    HW134424   3.514   1.363   8.462 -0.2017 -0.3833 -2.0241
 7596SOL    HW234425   3.402   1.295   8.394 -0.2785 -1.7553  0.5054
 7597SOL     OW34426   2.501   1.323   6.408  0.3593  0.5895 -0.3307
 7597SOL    HW134427   2.458   1.352   6.488 -0.1645  2.0730 -1.1363
 7597SOL    HW234428   2.560   1.256   6.441  2.3746  2.4448 -0.2033
 7598SOL     OW34429   4.222   4.394   3.990  0.3832  0.0063  0.1005
 7598SOL    HW134430   4.255   4.359   3.907 -0.1171 -1.8664  0.7026
 7598SOL    HW234431   4.296   4.375   4.048  0.3129  0.7154  0.4171
 7599SOL     OW34432   2.669   0.789   5.604 -0.8311 -0.0024 -0.1024
 7599SOL    HW134433   2.749   0.836   5.577  0.0443 -0.0448  2.4190
 7599SOL    HW234434   2.654   0.832   5.688 -1.0217  0.7428 -0.5118
 7600SOL     OW34435   3.661   1.855   5.038 -0.4754  0.3524  0.2242
 7600SOL    HW134436   3.742   1.835   4.991 -0.6273 -0.3198  0.2446
 7600SOL    HW234437   3.633   1.767   5.065  3.4636 -1.0186 -0.1670
 7601SOL     OW34438   3.453   4.079   2.798  0.1045  0.6526  0.0697
 7601SOL    HW134439   3.533   4.032   2.774  0.1108  0.3151  0.7736
 7601SOL    HW234440   3.453   4.077   2.893 -2.2139 -0.5161  0.0396
 7602SOL     OW34441   4.203   3.509   8.081 -0.3379 -0.1059 -0.1599
 7602SOL    HW134442   4.171   3.536   7.994 -0.1801  0.3050 -0.0875
 7602SOL    HW234443   4.283   3.559   8.095  0.5855 -0.2040 -5.0944
 7603SOL     OW34444   3.581   4.596   3.601  0.5232 -0.1064  0.3339
 7603SOL    HW134445   3.644   4.526   3.615  2.5267  1.6991  0.3681
 7603SOL    HW234446   3.595   4.611   3.507  1.5613  1.2020  0.6992
 7604SOL     OW34447   4.170   4.058   3.654 -0.0847  0.4124  0.3468
 7604SOL    HW134448   4.203   4.014   3.576  0.1518 -0.2916  0.8465
 7604SOL    HW234449   4.148   3.992   3.720 -1.6197  1.5890  1.0126
 7605SOL     OW34450   3.494   0.037   3.133  0.0056 -0.1071 -0.2601
 7605SOL    HW134451   3.514   0.008   3.045  2.9964  0.9082  0.1035
 7605SOL    HW234452   3.577   0.069   3.168  1.0603 -3.2536  0.0811
 7606SOL     OW34453   0.758   2.843   5.708 -0.4514  0.6845 -0.4589
 7606SOL    HW134454   0.758   2.751   5.681 -4.8799 -0.1502  2.2980
 7606SOL    HW234455   0.833   2.889   5.670 -0.4585  0.1479 -1.1316
 7607SOL     OW34456   2.231   2.567   6.818 -0.2176  0.1697  0.0237
 7607SOL    HW134457   2.150   2.613   6.840 -0.6185 -0.0796 -0.9607
 7607SOL    HW234458   2.254   2.530   6.904 -3.1526 -0.9792  0.3159
 7608SOL     OW34459   4.482   2.332   8.822 -0.3449  0.0363  0.7412
 7608SOL    HW134460   4.490   2.268   8.892 -3.0569  0.3290  1.3053
 7608SOL    HW234461   4.473   2.410   8.876 -2.1303 -0.7394  1.5703
 7609SOL     OW34462   1.164   0.884   3.465 -0.0160 -0.1552 -0.0170
 7609SOL    HW134463   1.146   0.926   3.549 -0.4122 -0.4381  0.0382
 7609SOL    HW234464   1.082   0.840   3.444  0.0716  0.3397 -1.3913
 7610SOL     OW34465   2.094   0.880   3.769 -0.3969 -0.9366 -0.1007
 7610SOL    HW134466   2.076   0.973   3.781  0.7327 -0.4085 -2.4240
 7610SOL    HW234467   2.161   0.869   3.837  0.2657 -4.0483 -1.2518
 7611SOL     OW34468   1.197   0.968  10.226 -0.3982 -0.0443  0.1217
 7611SOL    HW134469   1.237   1.050  10.196  0.3867 -0.4245  0.1110
 7611SOL    HW234470   1.105   0.993  10.221  0.0295  1.4539 -0.2792
 7612SOL     OW34471   1.051   0.243  17.002  0.1550  0.1343 -0.8522
 7612SOL    HW134472   1.001   0.229  17.083  0.4291 -0.9274 -0.8576
 7612SOL    HW234473   1.107   0.165  17.002 -0.8665 -0.6093 -1.8724
 7613SOL     OW34474   2.176   1.584   4.963 -0.6488 -0.0961  0.4124
 7613SOL    HW134475   2.100   1.605   4.908 -0.5390 -1.4860 -0.2650
 7613SOL    HW234476   2.249   1.642   4.937 -0.1266 -0.5194  0.9413
 7614SOL     OW34477   0.193   1.591  10.621 -0.4361 -0.6147 -0.6413
 7614SOL    HW134478   0.243   1.539  10.684 -0.2361  1.0249  0.5603
 7614SOL    HW234479   0.116   1.603  10.677  0.2866 -0.5035  0.3252
 7615SOL     OW34480   3.329   0.430  12.661 -0.0689  0.3785 -0.5743
 7615SOL    HW134481   3.251   0.466  12.704 -0.6476 -1.2567 -0.2276
 7615SOL    HW234482   3.280   0.382  12.594 -0.6703  0.2502 -0.0424
 7616SOL     OW34483   0.866   3.778  16.406 -0.2711  0.5871  0.2105
 7616SOL    HW134484   0.917   3.699  16.425 -2.9738 -0.8994  1.2169
 7616SOL    HW234485   0.781   3.748  16.374  0.5922 -0.8103 -0.7614
 7617SOL     OW34486   2.506   2.135   2.121 -0.3839  0.6818 -0.1044
 7617SOL    HW134487   2.572   2.198   2.152 -0.3917  0.4368  0.4270
 7617SOL    HW234488   2.433   2.141   2.183  0.1711  0.2982  0.5899
 7618SOL     OW34489   3.935   3.945   5.963 -0.3876  0.4830  0.1113
 7618SOL    HW134490   3.967   3.989   6.042  1.1939 -0.4448 -0.0143
 7618SOL    HW234491   3.997   3.979   5.899 -0.3363 -0.1761 -0.1937
 7619SOL     OW34492   1.749   3.468  15.731  0.3262 -0.6765  0.5027
 7619SOL    HW134493   1.764   3.421  15.649  0.9453  1.6326 -0.6915
 7619SOL    HW234494   1.790   3.551  15.707  0.3810 -1.7265 -2.9943
 7620SOL     OW34495   3.288   3.351   4.911 -0.0491 -0.0548  0.1358
 7620SOL    HW134496   3.216   3.403   4.876 -0.8611 -0.4856  1.1910
 7620SOL    HW234497   3.242   3.269   4.929 -0.8696 -0.2956 -3.0673
 7621SOL     OW34498   3.045   1.356  14.814  0.6129  0.8132 -0.2171
 7621SOL    HW134499   3.106   1.424  14.843  1.8957  0.3053 -1.7498
 7621SOL    HW234500   2.985   1.351  14.889 -0.7425 -0.2477 -1.3673
 7622SOL     OW34501   3.983   3.816   7.943 -0.2097  0.0174  0.3304
 7622SOL    HW134502   4.049   3.748   7.935  0.6620  1.0074 -0.8438
 7622SOL    HW234503   3.903   3.764   7.936 -0.0585 -0.0874 -0.5546
 7623SOL     OW34504   3.528   2.703  12.254  0.2539  0.1418  0.2791
 7623SOL    HW134505   3.597   2.679  12.192 -0.9596 -1.7970 -0.3326
 7623SOL    HW234506   3.537   2.798  12.265 -2.0207  0.4020 -0.1407
 7624SOL     OW34507   2.324   3.208   4.783 -0.4990  0.3192  0.0163
 7624SOL    HW134508   2.392   3.256   4.734  2.1926 -1.1668  2.2968
 7624SOL    HW234509   2.296   3.269   4.851  1.0755  0.8209  0.2334
 7625SOL     OW34510   1.959   0.463   9.663 -0.3477  0.5548  0.7137
 7625SOL    HW134511   1.909   0.404   9.719  1.0721 -0.1120  1.2768
 7625SOL    HW234512   1.921   0.445   9.577  0.8980 -0.7989  0.4522
 7626SOL     OW34513   4.159   2.735   6.571 -0.3665  0.5353  0.3497
 7626SOL    HW134514   4.122   2.775   6.650 -2.8235 -1.4740  0.1842
 7626SOL    HW234515   4.191   2.650   6.601  0.7153  1.2082  1.1415
 7627SOL     OW34516   0.442   3.344  13.387  0.3097  0.0506 -0.1473
 7627SOL    HW134517   0.507   3.404  13.424  0.2231  0.1529 -0.1620
 7627SOL    HW234518   0.504   3.299  13.330  2.0127  0.8625  1.0457
 7628SOL     OW34519   0.583   4.075  17.059 -0.3500  0.0689  0.0572
 7628SOL    HW134520   0.582   3.986  17.023 -0.7317 -1.2679  3.3538
 7628SOL    HW234521   0.529   4.050  17.135  0.3846 -1.5668  0.0430
 7629SOL     OW34522   4.554   2.090  17.279  0.4411 -0.4120 -0.1877
 7629SOL    HW134523   4.541   2.112  17.187 -0.7986  0.1679  0.1280
 7629SOL    HW234524   4.472   2.108  17.323 -0.0410  2.2083 -2.1581
 7630SOL     OW34525   0.235   3.980  14.787 -0.5968  0.2644  0.2450
 7630SOL    HW134526   0.229   4.052  14.850  0.0519  1.3311 -0.9154
 7630SOL    HW234527   0.228   3.907  14.848  1.4826  0.6736  0.9747
 7631SOL     OW34528   1.949   1.852   1.860 -0.2497  0.2215 -0.0426
 7631SOL    HW134529   1.945   1.917   1.929  1.3199 -1.9773  2.1106
 7631SOL    HW234530   1.855   1.857   1.839 -0.3907 -1.2068  0.2392
 7632SOL     OW34531   1.425   2.550   2.578 -0.4043  0.3164 -0.5887
 7632SOL    HW134532   1.450   2.610   2.508  2.6442  1.9574  1.9046
 7632SOL    HW234533   1.372   2.617   2.620 -2.0925 -0.4793 -1.4202
 7633SOL     OW34534   1.880   2.407  15.869  0.5094  0.0962 -0.1379
 7633SOL    HW134535   1.835   2.482  15.909 -0.2859 -1.0062  1.0387
 7633SOL    HW234536   1.863   2.420  15.776 -3.9297  2.3908  0.9613
 7634SOL     OW34537   1.074   2.565   7.548  0.6518  0.2427  0.2878
 7634SOL    HW134538   1.047   2.523   7.466  0.0172 -0.1292  0.6782
 7634SOL    HW234539   1.169   2.568   7.538  0.4479 -0.8840 -2.0259
 7635SOL     OW34540   3.120   0.126   8.031 -0.1385  0.1362 -0.5722
 7635SOL    HW134541   3.058   0.087   8.093 -1.8194  0.8599 -1.8035
 7635SOL    HW234542   3.207   0.101   8.062 -1.3327 -1.5951  1.3780
 7636SOL     OW34543   4.383   0.650  15.170 -0.2923  0.4475  0.3504
 7636SOL    HW134544   4.350   0.683  15.087 -0.2085  1.8122  0.8563
 7636SOL    HW234545   4.319   0.579  15.175  0.3134 -0.2174 -1.6436
 7637SOL     OW34546   1.931   0.477   1.851 -0.0877 -0.4879  0.1126
 7637SOL    HW134547   1.951   0.559   1.896  0.6166 -1.4347  1.5359
 7637SOL    HW234548   1.837   0.466   1.862  0.1032 -0.7617  1.5553
 7638SOL     OW34549   0.386   1.077   5.690  0.1298  0.9787 -0.2872
 7638SOL    HW134550   0.428   1.131   5.757 -0.4602  0.6681  0.3203
 7638SOL    HW234551   0.348   1.142   5.631  2.9815  1.0756 -2.0238
 7639SOL     OW34552   3.094   0.570  14.542 -0.0446 -0.5053  0.0992
 7639SOL    HW134553   3.023   0.533  14.491 -0.5604  1.4566 -0.5721
 7639SOL    HW234554   3.066   0.661  14.536 -1.9168 -1.1224 -0.3471
 7640SOL     OW34555   2.531   4.158  16.179 -0.0366 -0.5998 -0.1772
 7640SOL    HW134556   2.516   4.064  16.186 -1.5786 -0.1602  2.2273
 7640SOL    HW234557   2.453   4.187  16.227 -0.9067 -2.2058 -0.6080
 7641SOL     OW34558   0.443   3.044   5.818  0.1556  0.0191 -0.3073
 7641SOL    HW134559   0.525   3.092   5.830  0.0182 -0.1737  1.4499
 7641SOL    HW234560   0.383   3.063   5.891 -0.1817 -0.5161 -0.4424
 7642SOL     OW34561   2.821   0.631   7.971  0.4522  0.1060 -0.4627
 7642SOL    HW134562   2.781   0.551   7.935 -0.5829  0.7649 -0.7714
 7642SOL    HW234563   2.776   0.654   8.052 -1.2590 -2.2526 -0.7490
 7643SOL     OW34564   0.386   0.286   2.994 -0.0586 -0.1526 -0.3978
 7643SOL    HW134565   0.308   0.280   2.939 -0.0555  3.9345 -0.8293
 7643SOL    HW234566   0.366   0.368   3.039  2.1711  0.9431 -1.4630
 7644SOL     OW34567   2.298   2.200   0.656 -0.3478 -0.1953  0.5059
 7644SOL    HW134568   2.290   2.291   0.629 -1.0154 -0.6021 -0.6753
 7644SOL    HW234569   2.341   2.159   0.582 -3.0601 -1.2113 -0.5182
 7645SOL     OW34570   1.570   4.245  14.803 -0.6738  0.3067  0.6869
 7645SOL    HW134571   1.606   4.174  14.858 -1.2102  0.1616  0.8500
 7645SOL    HW234572   1.556   4.203  14.718 -1.2320 -0.1894  1.0219
 7646SOL     OW34573   2.091   1.257   2.652 -0.3150 -0.0090  0.5385
 7646SOL    HW134574   2.089   1.190   2.721 -0.1053 -1.7351 -1.1467
 7646SOL    HW234575   2.043   1.217   2.580  4.6940 -1.2086 -2.0765
 7647SOL     OW34576   3.267   0.873   1.084  0.1522 -0.0199 -0.6495
 7647SOL    HW134577   3.351   0.828   1.095 -0.1803 -0.2916  0.8998
 7647SOL    HW234578   3.284   0.891   0.992 -0.0974 -1.1162 -0.9062
 7648SOL     OW34579   2.168   0.862   5.156  0.0414 -0.3907 -0.0570
 7648SOL    HW134580   2.108   0.923   5.113 -0.6351 -1.0068  0.0108
 7648SOL    HW234581   2.222   0.840   5.081  0.2892 -1.5281  0.4636
 7649SOL     OW34582   2.595   2.028   8.142 -0.2328  0.1410  0.3136
 7649SOL    HW134583   2.623   2.070   8.061 -2.1493 -1.7774 -1.3362
 7649SOL    HW234584   2.618   1.935   8.135 -0.8465  0.0937 -0.9558
 7650SOL     OW34585   4.426   4.509   9.738 -0.0733  0.4308  0.1222
 7650SOL    HW134586   4.521   4.500   9.742 -0.1014 -0.0824 -0.3340
 7650SOL    HW234587   4.407   4.483   9.648  1.9348  0.3298 -0.2760
 7651SOL     OW34588   0.065   3.974   7.559 -0.2033 -0.3530  0.3092
 7651SOL    HW134589   0.025   3.948   7.476  0.2427 -1.3386  0.4121
 7651SOL    HW234590   0.036   3.906   7.620  0.0431 -0.8466 -0.1225
 7652SOL     OW34591   1.892   1.150   2.473  0.1416  0.0588  0.3244
 7652SOL    HW134592   1.895   1.192   2.387  0.5305 -0.2731  0.1740
 7652SOL    HW234593   1.811   1.191   2.504  0.4529  1.5757 -0.8800
 7653SOL     OW34594   2.242   1.334   4.525 -0.5706  0.4092 -0.6128
 7653SOL    HW134595   2.256   1.337   4.619 -0.6835  1.4828 -0.6279
 7653SOL    HW234596   2.183   1.409   4.523 -0.1398  0.7777  1.3136
 7654SOL     OW34597   4.669   1.517   3.111  0.3186  0.0630  0.0876
 7654SOL    HW134598   4.628   1.592   3.067  0.1350 -0.9550 -1.4820
 7654SOL    HW234599   4.711   1.464   3.043 -1.1654  0.7299 -1.3419
 7655SOL     OW34600   1.143   3.705   6.541  0.4403 -0.5323  0.0917
 7655SOL    HW134601   1.088   3.784   6.542  0.2512 -0.6755  0.8211
 7655SOL    HW234602   1.092   3.641   6.589 -0.7443 -0.8062 -1.5215
 7656SOL     OW34603   1.884   3.838   2.570  0.5870  0.1314 -0.7386
 7656SOL    HW134604   1.793   3.843   2.598  1.3729  1.0575  1.6555
 7656SOL    HW234605   1.894   3.748   2.540  1.7280  0.3848 -1.1187
 7657SOL     OW34606   4.042   3.804   4.473  0.2858 -0.1515  0.4140
 7657SOL    HW134607   4.024   3.888   4.515  1.8085  0.5054 -0.2606
 7657SOL    HW234608   4.107   3.763   4.529  0.9449 -1.4165 -1.2593
 7658SOL     OW34609   3.928   2.790   2.313  0.0001  0.2253  0.7793
 7658SOL    HW134610   3.934   2.824   2.223  0.3428  0.2308  0.8057
 7658SOL    HW234611   4.001   2.729   2.320  1.2214  1.4157 -1.6318
 7659SOL     OW34612   1.520   0.771   2.242  0.8180  0.9743  0.1168
 7659SOL    HW134613   1.565   0.814   2.315  0.3945 -0.4445  1.2222
 7659SOL    HW234614   1.539   0.830   2.169  2.5715 -1.0687 -1.0794
 7660SOL     OW34615   3.656   1.691   6.149  0.2024 -0.0016 -0.5899
 7660SOL    HW134616   3.729   1.672   6.207 -0.2815 -1.3545 -0.4259
 7660SOL    HW234617   3.592   1.712   6.217 -0.2208  0.1157 -1.0189
 7661SOL     OW34618   4.142   4.082   9.342 -0.7193  0.3580 -0.1464
 7661SOL    HW134619   4.059   4.088   9.390 -1.2048  0.5040 -1.0094
 7661SOL    HW234620   4.107   4.022   9.276 -3.5143  0.9445  0.8125
 7662SOL     OW34621   3.847   0.856   9.943 -0.2166  0.4835 -0.4417
 7662SOL    HW134622   3.826   0.899  10.025  0.0297  0.1574 -0.2090
 7662SOL    HW234623   3.767   0.807   9.925 -0.2380 -0.5690  2.5481
 7663SOL     OW34624   4.686   1.487   0.344  0.2425  0.1275  0.3950
 7663SOL    HW134625   4.728   1.555   0.398  0.4078 -0.8334  1.4659
 7663SOL    HW234626   0.026   1.460   0.290  0.1578 -1.4071  1.0560
 7664SOL     OW34627   0.747   2.604   5.584 -0.3679  0.0769 -0.5494
 7664SOL    HW134628   0.656   2.579   5.568 -0.4293  0.2984 -0.5348
 7664SOL    HW234629   0.765   2.541   5.654 -0.0276 -1.4779 -2.0383
 7665SOL     OW34630   1.284   2.610  10.181 -0.2296 -0.1199 -0.1823
 7665SOL    HW134631   1.208   2.618  10.123 -0.7057  1.6180  0.6759
 7665SOL    HW234632   1.350   2.662  10.135  1.1521 -1.5048  0.2437
 7666SOL     OW34633   1.139   2.993   3.844  0.0988  0.0199 -0.3787
 7666SOL    HW134634   1.055   3.016   3.884  0.1189  0.8359 -0.8004
 7666SOL    HW234635   1.200   3.058   3.878 -0.2103 -1.4470  2.9667
 7667SOL     OW34636   1.331   3.871  15.447  0.2990 -0.2710  0.6748
 7667SOL    HW134637   1.357   3.800  15.389 -0.9380 -0.8914  0.8803
 7667SOL    HW234638   1.241   3.877  15.415  1.1792  0.1155 -1.7104
 7668SOL     OW34639   0.944   3.821   2.841  0.1454 -0.7707  0.5831
 7668SOL    HW134640   0.891   3.857   2.912 -0.1748 -3.3886  1.6786
 7668SOL    HW234641   0.968   3.732   2.868 -1.1282 -1.0521  0.8211
 7669SOL     OW34642   4.646   1.597   2.374  0.2160 -0.4818  0.1606
 7669SOL    HW134643   4.617   1.639   2.292  2.7226  2.7700  0.9634
 7669SOL    HW234644   0.001   1.626   2.385  0.0699  0.3753 -0.8815
 7670SOL     OW34645   3.603   3.785   8.261  0.0697  0.2408  0.1792
 7670SOL    HW134646   3.551   3.860   8.233 -1.5124 -0.5440  0.9972
 7670SOL    HW234647   3.628   3.824   8.344  1.7470  2.2705 -1.2722
 7671SOL     OW34648   3.519   0.741   1.084  0.0229  0.0631 -0.0813
 7671SOL    HW134649   3.577   0.666   1.096  1.2992  1.0694  0.0179
 7671SOL    HW234650   3.587   0.801   1.052  1.1637 -0.5566  1.1836
 7672SOL     OW34651   1.824   1.787  15.285  0.1477  0.3108 -0.5749
 7672SOL    HW134652   1.865   1.732  15.218 -0.2585  0.0261 -0.5908
 7672SOL    HW234653   1.753   1.732  15.318  1.3349 -0.2281  1.1219
 7673SOL     OW34654   3.276   2.657  15.656  0.1142 -0.5911  0.2012
 7673SOL    HW134655   3.205   2.647  15.592  0.7989 -0.5373 -0.5621
 7673SOL    HW234656   3.326   2.577  15.649  2.4339  0.7198  1.8889
 7674SOL     OW34657   3.796   3.183   8.745  0.0624  0.0488  0.0328
 7674SOL    HW134658   3.758   3.270   8.732  0.1920  0.2069  0.7257
 7674SOL    HW234659   3.727   3.156   8.806  1.7002 -0.5074  1.6237
 7675SOL     OW34660   1.370   0.339   9.537  0.1456  0.3133 -0.3421
 7675SOL    HW134661   1.360   0.429   9.507 -0.8590  0.0079 -0.9180
 7675SOL    HW234662   1.281   0.307   9.549  0.5915 -0.1977  1.7470
 7676SOL     OW34663   0.290   4.283   8.546 -0.3101 -0.3506 -0.1328
 7676SOL    HW134664   0.227   4.336   8.594  2.3554  3.2188 -0.4690
 7676SOL    HW234665   0.235   4.262   8.471  0.1847  2.3458 -1.2748
 7677SOL     OW34666   2.342   0.041   2.718  0.1180 -0.1126  0.8994
 7677SOL    HW134667   2.409   4.722   2.759  2.1635  0.8887 -1.0994
 7677SOL    HW234668   2.344   4.728   2.635  1.2708  1.3383  0.0756
 7678SOL     OW34669   0.648   2.072  16.175  0.2395 -0.2871  0.4078
 7678SOL    HW134670   0.676   2.108  16.090 -0.0129 -0.1949  0.3633
 7678SOL    HW234671   0.712   2.006  16.201 -0.5090 -0.7908  0.9684
 7679SOL     OW34672   1.664   2.510   8.274 -0.2283  0.0086  0.4096
 7679SOL    HW134673   1.695   2.584   8.222 -2.1497  0.3046 -0.3013
 7679SOL    HW234674   1.743   2.497   8.327 -0.0895 -1.7693 -0.2263
 7680SOL     OW34675   1.639   0.204   7.299 -0.1908  0.0895  0.1710
 7680SOL    HW134676   1.705   0.207   7.369  1.1104 -0.6083 -1.0188
 7680SOL    HW234677   1.684   0.138   7.246 -1.2187  1.7664 -2.7747
 7681SOL     OW34678   2.031   3.467   7.249 -0.1442 -0.5530 -0.3215
 7681SOL    HW134679   2.062   3.380   7.226  3.2170  0.6115 -0.1003
 7681SOL    HW234680   1.981   3.456   7.330 -1.1435  0.9587 -0.7226
 7682SOL     OW34681   0.151   4.284   8.094  0.1073 -0.3068 -0.0739
 7682SOL    HW134682   0.166   4.203   8.046  1.4270 -0.8793  1.2828
 7682SOL    HW234683   0.132   4.246   8.180  0.2852 -1.8673 -0.7243
 7683SOL     OW34684   1.055   4.003   9.161  0.4704 -0.4954 -0.0698
 7683SOL    HW134685   1.064   4.044   9.247  1.1586  0.5060 -0.6149
 7683SOL    HW234686   0.993   4.063   9.119 -0.4965 -0.6450  1.1652
 7684SOL     OW34687   4.559   4.073   2.312 -0.2575 -0.2643  0.2304
 7684SOL    HW134688   4.475   4.053   2.353  0.6917 -2.9883  0.8848
 7684SOL    HW234689   4.538   4.138   2.245 -0.5795 -0.0073  0.5833
 7685SOL     OW34690   1.830   1.668   8.644  0.2920 -0.5585 -0.6940
 7685SOL    HW134691   1.878   1.637   8.721 -1.1516 -1.1271 -0.0143
 7685SOL    HW234692   1.833   1.583   8.599 -1.5058  0.0526 -1.9762
 7686SOL     OW34693   4.139   4.400   7.692 -0.2305 -0.7067  0.0408
 7686SOL    HW134694   4.129   4.494   7.700 -0.7271 -0.6628 -1.1600
 7686SOL    HW234695   4.062   4.373   7.744 -0.0611 -0.6959  0.2976
 7687SOL     OW34696   3.526   0.235   8.206 -0.3549  0.4577  0.1114
 7687SOL    HW134697   3.463   0.236   8.279 -0.6764  0.7805 -0.1737
 7687SOL    HW234698   3.478   0.183   8.142 -0.6209  0.8142  0.0203
 7688SOL     OW34699   1.929   4.517   6.429 -0.3356 -0.1688  0.1657
 7688SOL    HW134700   1.974   4.587   6.381 -1.4243 -0.2733 -0.9919
 7688SOL    HW234701   1.839   4.517   6.397 -0.4593  1.3836  0.5079
 7689SOL     OW34702   1.600   0.341   7.678  0.5785 -0.2690 -0.4840
 7689SOL    HW134703   1.668   0.317   7.741  0.8697  0.5393 -0.4898
 7689SOL    HW234704   1.641   0.407   7.624  0.8289  1.0048  1.2551
 7690SOL     OW34705   0.799   3.329   6.695 -0.1480 -0.1218  0.2646
 7690SOL    HW134706   0.784   3.293   6.783 -1.2123 -1.1920 -0.3534
 7690SOL    HW234707   0.846   3.261   6.647  2.8182  1.8763  0.3736
 7691SOL     OW34708   0.354   4.623   1.652 -0.0761  0.0782 -0.1611
 7691SOL    HW134709   0.352   4.587   1.563 -0.2327 -1.6297  0.5243
 7691SOL    HW234710   0.372   4.547   1.708 -1.2324 -0.1962 -0.1769
 7692SOL     OW34711   3.273   4.535  16.876  0.4246  0.0650  0.1536
 7692SOL    HW134712   3.288   4.441  16.881 -0.6145 -0.1593 -0.7813
 7692SOL    HW234713   3.329   4.563  16.948  0.1432 -0.1433  0.4518
 7693SOL     OW34714   4.356   0.522   7.312  0.3972  0.4145 -0.4121
 7693SOL    HW134715   4.451   0.533   7.319  0.6623 -1.2755 -1.1724
 7693SOL    HW234716   4.311   0.605   7.327 -0.2651 -0.0371  0.1064
 7694SOL     OW34717   1.188   2.124   5.602 -0.2395  0.4559 -0.0445
 7694SOL    HW134718   1.219   2.206   5.641 -1.1106  0.7642  0.0145
 7694SOL    HW234719   1.146   2.084   5.679  0.7737  0.1091  0.3307
 7695SOL     OW34720   3.552   1.005   8.701  0.2525  0.2703  0.0074
 7695SOL    HW134721   3.611   0.930   8.705  2.0794  1.8695  2.7518
 7695SOL    HW234722   3.521   1.020   8.612  0.9605  1.1609 -0.0954
 7696SOL     OW34723   2.663   0.786   2.988  0.0760  0.4784  0.5936
 7696SOL    HW134724   2.629   0.840   2.917 -1.3757 -2.0960 -0.6743
 7696SOL    HW234725   2.627   0.830   3.065  0.6222  0.5793  0.7955
 7697SOL     OW34726   3.487   3.700   5.304 -0.4268  0.6113  0.0261
 7697SOL    HW134727   3.582   3.706   5.315 -0.7268  2.0989  1.9600
 7697SOL    HW234728   3.482   3.792   5.277  1.0287  0.4322 -0.8825
 7698SOL     OW34729   1.221   2.431   5.102 -0.0966 -0.0874  0.1344
 7698SOL    HW134730   1.217   2.438   5.198  1.6444  0.6624  0.1469
 7698SOL    HW234731   1.186   2.343   5.089  0.1345  0.0514 -1.4372
 7699SOL     OW34732   2.614   0.410   2.835  0.2312  0.2895 -0.3483
 7699SOL    HW134733   2.547   0.380   2.897  1.2287  1.3875  1.2601
 7699SOL    HW234734   2.646   0.326   2.804  0.6577  1.0890 -2.0873
 7700SOL     OW34735   3.633   3.483   3.902 -0.4297  0.6422 -0.2180
 7700SOL    HW134736   3.658   3.396   3.933  1.5034  1.7404  1.3264
 7700SOL    HW234737   3.630   3.456   3.810 -1.4312 -0.8464  0.2484
 7701SOL     OW34738   3.714   3.961   2.080 -0.1412 -0.5877  0.1534
 7701SOL    HW134739   3.727   4.052   2.108 -2.0620 -0.0206 -0.8102
 7701SOL    HW234740   3.801   3.929   2.106 -0.2556  0.0310  1.3108
 7702SOL     OW34741   2.330   3.860   8.934 -0.4921 -0.5779  0.1332
 7702SOL    HW134742   2.348   3.773   8.971  1.1362 -0.2388  0.1556
 7702SOL    HW234743   2.243   3.882   8.966 -1.0704 -0.7065 -1.3436
 7703SOL     OW34744   0.769   1.669  16.119 -0.0748 -0.4476  0.2556
 7703SOL    HW134745   0.716   1.593  16.144 -1.0709  0.3539  0.6180
 7703SOL    HW234746   0.709   1.717  16.062  0.1990 -0.4608 -0.0406
 7704SOL     OW34747   2.160   0.143  13.697 -1.1466  0.2015  0.3904
 7704SOL    HW134748   2.135   0.213  13.757 -0.9595  0.0942  0.5901
 7704SOL    HW234749   2.220   0.092  13.751 -1.9769 -1.2245 -0.0187
 7705SOL     OW34750   2.460   1.301   2.425 -0.2687 -0.0019  0.0281
 7705SOL    HW134751   2.543   1.323   2.468 -0.2266 -0.2958  0.1000
 7705SOL    HW234752   2.414   1.313   2.508  0.2494  2.6514 -0.0591
 7706SOL     OW34753   3.900   3.168  17.074 -0.2419  0.0615 -0.8168
 7706SOL    HW134754   3.839   3.179  17.147  2.4258  0.9916  1.2510
 7706SOL    HW234755   3.946   3.252  17.083 -1.4651  0.6466  0.0645
 7707SOL     OW34756   2.337   0.704   4.655 -0.5174  0.1347  0.4006
 7707SOL    HW134757   2.367   0.754   4.579  0.0181  1.7842  1.7239
 7707SOL    HW234758   2.395   0.628   4.655  0.8598  1.1820  1.2816
 7708SOL     OW34759   2.257   3.664   9.606  0.4688 -0.5485  1.0089
 7708SOL    HW134760   2.164   3.648   9.617  0.3397  0.1794  1.0239
 7708SOL    HW234761   2.263   3.690   9.514  2.7565 -0.4544  1.1696
 7709SOL     OW34762   1.452   0.082   8.236 -0.4057  0.4552 -0.8510
 7709SOL    HW134763   1.547   0.076   8.248 -0.1315  3.6195 -1.3369
 7709SOL    HW234764   1.449   0.178   8.233  1.5308  0.5274 -0.2869
 7710SOL     OW34765   3.197   4.153   3.305 -0.4397 -0.5346  0.2026
 7710SOL    HW134766   3.150   4.090   3.252 -0.4397 -0.4201  0.0657
 7710SOL    HW234767   3.201   4.106   3.389 -0.3790  0.9342  1.0319
 7711SOL     OW34768   0.489   2.343   3.520  0.2634  0.7667  0.0239
 7711SOL    HW134769   0.543   2.357   3.597 -1.7349  0.3497  1.4950
 7711SOL    HW234770   0.407   2.361   3.566 -0.8443 -0.0524 -1.6418
 7712SOL     OW34771   0.310   4.341   9.167 -0.4864  0.3073  0.6826
 7712SOL    HW134772   0.313   4.424   9.120  1.3016 -0.1923 -0.0773
 7712SOL    HW234773   0.216   4.323   9.170 -0.7156  1.7016  1.6646
 7713SOL     OW34774   0.260   1.025   5.975  0.0446 -0.2702 -0.0629
 7713SOL    HW134775   0.166   1.042   5.963 -0.0684 -1.7944 -1.2659
 7713SOL    HW234776   0.299   1.107   5.945 -0.9570 -0.2543 -1.3235
 7714SOL     OW34777   3.677   2.656   6.616 -0.1681 -0.1594 -0.0952
 7714SOL    HW134778   3.602   2.597   6.626  1.5793 -2.0080  2.0712
 7714SOL    HW234779   3.740   2.613   6.558 -3.1999 -1.2976 -2.5562
 7715SOL     OW34780   0.996   2.375  12.295  0.2743 -0.5491  0.5582
 7715SOL    HW134781   0.901   2.370  12.306  0.2585 -0.4967  0.4494
 7715SOL    HW234782   1.012   2.361  12.202  1.0111 -1.9479  0.8957
 7716SOL     OW34783   0.916   3.246   4.582 -0.0143 -0.3085 -0.0252
 7716SOL    HW134784   0.851   3.241   4.512 -0.5330 -0.8165  0.4970
 7716SOL    HW234785   0.985   3.286   4.529  0.4284 -1.0190  0.0096
 7717SOL     OW34786   1.760   1.459  15.003  0.5395 -0.1467 -0.3747
 7717SOL    HW134787   1.812   1.454  15.083  2.7393 -0.4300 -1.8023
 7717SOL    HW234788   1.768   1.369  14.974  0.2243  0.1029 -1.2390
 7718SOL     OW34789   2.199   4.715   6.781  0.1333  0.0094  0.1165
 7718SOL    HW134790   2.141   4.648   6.744  4.1964 -3.8477  0.6642
 7718SOL    HW234791   2.182   0.049   6.717 -2.3288 -0.3211  0.4044
 7719SOL     OW34792   4.640   3.122  12.852  0.8478 -0.5163 -0.4603
 7719SOL    HW134793   4.610   3.060  12.919 -1.0907  0.3883 -0.4989
 7719SOL    HW234794   4.557   3.115  12.806 -0.1018 -0.5243  1.2352
 7720SOL     OW34795   3.040   2.723  15.205  0.1669  0.6163 -0.4054
 7720SOL    HW134796   3.073   2.653  15.149  0.6360  0.4649  0.0651
 7720SOL    HW234797   2.946   2.706  15.205  0.0263  1.3981 -1.6623
 7721SOL     OW34798   1.674   1.093   7.622 -0.3875 -0.2941 -0.0605
 7721SOL    HW134799   1.638   1.144   7.550  0.8058  2.1522  1.1087
 7721SOL    HW234800   1.595   1.055   7.661  0.5582 -0.4864  1.6450
 7722SOL     OW34801   0.074   1.302   1.638 -0.2580  0.0329 -0.4641
 7722SOL    HW134802   0.076   1.275   1.546 -1.3550  1.2851 -0.8454
 7722SOL    HW234803   0.076   1.212   1.672 -0.9439  0.1716 -0.0439
 7723SOL     OW34804   0.389   1.937   1.417  0.4003  0.4575 -0.0203
 7723SOL    HW134805   0.298   1.930   1.388 -0.1917 -0.0479  1.9436
 7723SOL    HW234806   0.385   1.865   1.481 -1.2004 -0.2892 -0.9575
 7724SOL     OW34807   1.651   4.052   4.741  0.3255 -0.7684 -0.4447
 7724SOL    HW134808   1.734   4.080   4.778  0.2656 -0.9138 -0.1989
 7724SOL    HW234809   1.604   4.022   4.819  3.6467 -1.3142  1.3217
 7725SOL     OW34810   1.260   3.516   5.852 -0.1915  0.2940 -0.6004
 7725SOL    HW134811   1.267   3.607   5.881 -1.0804  0.1392  0.1140
 7725SOL    HW234812   1.344   3.472   5.863 -0.4720 -0.1833 -0.3634
 7726SOL     OW34813   3.219   3.971   5.425  0.3581 -0.0658 -0.0563
 7726SOL    HW134814   3.275   3.904   5.384  1.1808  1.0675 -0.8178
 7726SOL    HW234815   3.201   4.026   5.348 -0.1624  0.1154  0.1973
 7727SOL     OW34816   3.619   0.783  16.117 -0.6246  0.3270  0.2597
 7727SOL    HW134817   3.681   0.739  16.175 -0.1784 -0.2823 -0.6840
 7727SOL    HW234818   3.594   0.710  16.061 -1.1289  0.9841 -0.3753
 7728SOL     OW34819   0.306   0.024  10.795 -0.2502  0.1123 -0.0078
 7728SOL    HW134820   0.377   4.735  10.736  0.2296  2.9310 -0.5732
 7728SOL    HW234821   0.308   0.119  10.790  1.8919 -0.0463 -1.9005
 7729SOL     OW34822   3.034   3.336  16.599 -0.2231 -0.2374 -0.4828
 7729SOL    HW134823   3.030   3.263  16.660 -1.1897  0.1886 -0.0441
 7729SOL    HW234824   3.130   3.342  16.592 -0.1814 -2.1691 -1.5097
 7730SOL     OW34825   4.538   2.115  17.003 -0.1513  0.1106 -0.3656
 7730SOL    HW134826   4.619   2.074  16.971 -2.1896 -2.0048 -2.8570
 7730SOL    HW234827   4.475   2.068  16.948 -0.1958 -0.8008  0.4863
 7731SOL     OW34828   3.074   0.233   7.586 -0.2273 -0.4656 -0.5161
 7731SOL    HW134829   3.104   0.145   7.608 -1.4677 -0.9356 -0.7088
 7731SOL    HW234830   3.089   0.239   7.491  1.4829 -1.0764 -0.2843
 7732SOL     OW34831   1.803   2.057   3.401  0.1046  0.1552 -0.6688
 7732SOL    HW134832   1.762   1.982   3.359  0.6838  0.4090 -1.6931
 7732SOL    HW234833   1.742   2.125   3.374 -1.3776 -0.1574  1.8742
 7733SOL     OW34834   4.514   3.260   6.635  0.3442 -0.5444  0.5905
 7733SOL    HW134835   4.461   3.301   6.703 -1.1372  0.2619 -1.0574
 7733SOL    HW234836   4.588   3.231   6.689  1.0924 -0.9991 -0.6710
 7734SOL     OW34837   4.489   2.425   8.406  0.7378 -1.1162  0.5920
 7734SOL    HW134838   4.526   2.390   8.488 -1.2920 -0.6597  1.6928
 7734SOL    HW234839   4.559   2.484   8.377  0.2432 -0.2884  1.0768
 7735SOL     OW34840   2.821   2.631   7.297  0.7821 -0.2162  0.2728
 7735SOL    HW134841   2.899   2.650   7.245 -0.3837 -0.9479 -1.7648
 7735SOL    HW234842   2.779   2.560   7.249 -0.1145  0.8584 -0.5264
 7736SOL     OW34843   4.342   0.380   4.591  0.0904  0.1667 -0.1302
 7736SOL    HW134844   4.261   0.393   4.542 -1.5445  0.9253  2.7474
 7736SOL    HW234845   4.402   0.424   4.531 -0.8503 -0.0039 -1.2135
 7737SOL     OW34846   4.406   4.160   2.710  0.1612  0.2833  0.0580
 7737SOL    HW134847   4.379   4.185   2.622  0.5665  1.4481  0.2541
 7737SOL    HW234848   4.410   4.067   2.690 -0.8711  0.5627 -1.4128
 7738SOL     OW34849   4.115   3.952   3.947  0.0490 -0.6308  0.2100
 7738SOL    HW134850   4.080   4.041   3.955 -0.2393 -0.7203 -0.0174
 7738SOL    HW234851   4.083   3.903   4.023 -0.0316 -1.1396 -0.1489
 7739SOL     OW34852   3.969   2.870   4.442  0.1325  0.5091 -0.1120
 7739SOL    HW134853   3.978   2.881   4.347 -2.2780  0.4696 -0.3351
 7739SOL    HW234854   3.937   2.780   4.438 -0.4029  0.6796  0.3314
 7740SOL     OW34855   1.737   0.702   7.698  0.6987 -0.2798  0.0948
 7740SOL    HW134856   1.661   0.702   7.755 -1.2106  0.7048 -2.4560
 7740SOL    HW234857   1.808   0.709   7.763 -0.8337  0.0051  1.7280
 7741SOL     OW34858   0.672   3.099   4.083  0.7224  0.2831  0.1504
 7741SOL    HW134859   0.695   3.097   4.176  0.4195  1.2195  0.2396
 7741SOL    HW234860   0.625   3.016   4.074  0.3033  0.3941  1.2741
 7742SOL     OW34861   3.650   4.088   5.098 -0.5075  0.1928  0.1006
 7742SOL    HW134862   3.697   4.171   5.106 -1.1395  0.4626  1.0083
 7742SOL    HW234863   3.676   4.065   5.009  1.4543 -0.5381  0.8445
 7743SOL     OW34864   3.775   4.587   4.833  0.2655  0.3186  0.3771
 7743SOL    HW134865   3.727   4.616   4.755 -1.0463 -0.4263  0.9024
 7743SOL    HW234866   3.821   4.667   4.858 -0.1354 -0.2750  3.0258
 7744SOL     OW34867   3.545   0.850  11.809 -0.2159  0.1250  0.0213
 7744SOL    HW134868   3.595   0.768  11.814 -1.2416 -0.6629 -2.1431
 7744SOL    HW234869   3.557   0.879  11.899 -0.8145 -2.2457  0.8612
 7745SOL     OW34870   4.256   3.034   7.082  0.3993  0.0585 -0.0768
 7745SOL    HW134871   4.242   3.040   6.988  0.1775  1.4577  0.0507
 7745SOL    HW234872   4.176   2.989   7.108  1.7880 -1.4793  1.5694
 7746SOL     OW34873   3.562   1.653   8.613 -0.2509 -0.0572  0.6824
 7746SOL    HW134874   3.486   1.634   8.558 -0.4573  3.1989 -0.1275
 7746SOL    HW234875   3.536   1.726   8.669 -1.3391 -0.0404  0.1336
 7747SOL     OW34876   2.535   1.202  14.549 -0.2476  0.1011 -0.3155
 7747SOL    HW134877   2.470   1.272  14.560 -2.1727 -1.5693 -1.0497
 7747SOL    HW234878   2.592   1.223  14.623  0.0740  1.4328 -0.9552
 7748SOL     OW34879   0.375   4.643   1.166 -0.0309  0.3518 -0.1781
 7748SOL    HW134880   0.431   4.670   1.093  0.6296 -2.1035 -0.5881
 7748SOL    HW234881   0.298   4.617   1.116  0.3281  0.8058 -0.9647
 7749SOL     OW34882   3.166   3.875   6.807  0.1349  0.0135 -0.3545
 7749SOL    HW134883   3.196   3.910   6.891 -0.9357  3.0575 -1.2351
 7749SOL    HW234884   3.135   3.959   6.772 -0.2568 -0.9079 -2.2449
 7750SOL     OW34885   1.189   3.988   7.074  0.2204  0.1045  0.0114
 7750SOL    HW134886   1.258   3.991   7.008 -1.1836  0.4840 -1.4197
 7750SOL    HW234887   1.139   3.913   7.041 -0.3743  1.2941 -1.8077
 7751SOL     OW34888   4.147   2.790   1.455  0.0282 -0.2724 -0.5232
 7751SOL    HW134889   4.165   2.837   1.536 -1.4137  0.4568 -0.6427
 7751SOL    HW234890   4.147   2.698   1.483 -1.9733  0.2704  1.2649
 7752SOL     OW34891   4.591   3.002   4.304  0.5436 -0.4549  0.0374
 7752SOL    HW134892   4.685   3.011   4.289  1.0759 -3.0621  1.8126
 7752SOL    HW234893   4.560   3.092   4.320 -1.5103 -1.3861  1.3258
 7753SOL     OW34894   0.932   4.513   8.318  0.0535  0.4055 -0.9270
 7753SOL    HW134895   0.870   4.504   8.246 -1.3049 -0.1772  0.3076
 7753SOL    HW234896   1.006   4.456   8.298  0.4245  1.0228 -1.3153
 7754SOL     OW34897   2.080   0.019  11.053 -0.7274  0.0791  0.4587
 7754SOL    HW134898   2.062   0.087  11.118  1.4494  2.2316 -1.1780
 7754SOL    HW234899   2.041   0.061  10.976 -1.6073 -0.4416  0.6231
 7755SOL     OW34900   3.830   1.949   6.362 -0.1396 -0.2080  0.1684
 7755SOL    HW134901   3.923   1.937   6.382  0.5478  2.7382 -1.3068
 7755SOL    HW234902   3.803   1.870   6.314  1.3702  0.0889 -1.1385
 7756SOL     OW34903   1.742   3.621   4.232  0.1307 -0.0829  0.0186
 7756SOL    HW134904   1.833   3.646   4.245 -1.1388  2.7929  3.3968
 7756SOL    HW234905   1.712   3.712   4.220 -3.5580 -1.2494  0.5085
 7757SOL     OW34906   0.118   4.352  12.196 -0.1131 -0.0466 -0.2317
 7757SOL    HW134907   0.055   4.347  12.269  1.1636  2.0664  1.0103
 7757SOL    HW234908   0.053   4.392  12.137  0.6655  0.4827 -0.7213
 7758SOL     OW34909   0.588   3.946   7.508  0.0357  0.1473 -0.2683
 7758SOL    HW134910   0.499   3.915   7.522  0.7835 -2.9270 -2.3384
 7758SOL    HW234911   0.641   3.882   7.555  1.5278  0.7015 -1.1956
 7759SOL     OW34912   2.540   4.210  16.684  0.2352  0.0734  0.0701
 7759SOL    HW134913   2.525   4.273  16.755  0.5901  1.1305 -0.7920
 7759SOL    HW234914   2.618   4.166  16.717 -0.5338 -0.9433  0.5493
 7760SOL     OW34915   4.035   2.464   1.285  0.0129  0.1464  0.0366
 7760SOL    HW134916   4.089   2.508   1.351 -0.7984 -0.4615  1.1017
 7760SOL    HW234917   4.046   2.526   1.213 -0.5828 -0.2421 -0.3891
 7761SOL     OW34918   3.585   0.856   7.169 -0.0267  0.2261 -0.3767
 7761SOL    HW134919   3.552   0.929   7.221  0.7497 -0.6975  1.4013
 7761SOL    HW234920   3.533   0.860   7.089 -0.5755  0.0648 -0.0316
 7762SOL     OW34921   3.757   3.826   0.253  1.0549  0.2782 -0.1319
 7762SOL    HW134922   3.793   3.899   0.304 -1.4326 -0.4837  2.7215
 7762SOL    HW234923   3.805   3.754   0.294  0.6532 -0.2343 -0.5580
 7763SOL     OW34924   3.506   2.311   9.982  0.5365 -0.0697 -0.4608
 7763SOL    HW134925   3.415   2.310  10.011  0.7584  1.0758  0.3008
 7763SOL    HW234926   3.536   2.402   9.990  1.5366 -0.7047  3.0849
 7764SOL     OW34927   3.545   1.574  17.434  0.0111 -0.2862  0.1721
 7764SOL    HW134928   3.468   1.631  17.426  1.1076  1.3697  1.4285
 7764SOL    HW234929   3.519   1.520  17.508 -2.3812 -0.4755 -0.7808
 7765SOL     OW34930   3.615   1.548   6.767  0.2537 -0.3206 -0.8448
 7765SOL    HW134931   3.549   1.487   6.734  0.3124 -1.1030  0.4948
 7765SOL    HW234932   3.606   1.547   6.862  3.4888 -2.2560 -0.5341
 7766SOL     OW34933   3.674   2.005   6.914 -0.6389 -0.4046  0.2931
 7766SOL    HW134934   3.629   1.922   6.901 -0.1774 -0.8482  1.4583
 7766SOL    HW234935   3.764   1.979   6.893 -0.8998 -0.4458 -0.7618
 7767SOL     OW34936   3.096   1.107   0.059  0.6283 -0.2478  0.1617
 7767SOL    HW134937   3.101   1.195   0.020 -0.7086 -1.1966 -2.1153
 7767SOL    HW234938   3.157   1.111   0.133 -0.4366 -1.6725  1.1158
 7768SOL     OW34939   0.308   4.338   7.286  0.9606  0.2696 -0.3445
 7768SOL    HW134940   0.352   4.419   7.263  2.7817 -0.2665  1.2576
 7768SOL    HW234941   0.287   4.342   7.380 -3.1024 -0.7310 -1.1900
 7769SOL     OW34942   2.309   3.375   5.007 -0.3204 -0.2962 -0.1403
 7769SOL    HW134943   2.326   3.368   5.101 -3.8412 -1.2486  0.3882
 7769SOL    HW234944   2.382   3.428   4.974 -0.0321 -0.9515 -0.5625
 7770SOL     OW34945   2.087   0.824   4.149 -0.2262  0.1045 -1.2171
 7770SOL    HW134946   2.137   0.823   4.068  1.4501  2.5237 -0.2306
 7770SOL    HW234947   2.062   0.917   4.152 -2.3753 -0.5561  1.4864
 7771SOL     OW34948   2.632   4.118   1.567  0.5342 -0.0707 -0.0132
 7771SOL    HW134949   2.619   4.038   1.516  1.7604 -0.3907  0.1669
 7771SOL    HW234950   2.695   4.160   1.508  1.7176 -0.6961  0.7911
 7772SOL     OW34951   3.569   2.589   4.185  0.0838 -0.1676  0.0054
 7772SOL    HW134952   3.592   2.579   4.092 -0.5938  0.2076 -0.2081
 7772SOL    HW234953   3.568   2.494   4.198 -1.8988 -0.2998 -1.0299
 7773SOL     OW34954   0.084   3.747   7.040  0.0861  0.3129  0.1671
 7773SOL    HW134955   0.145   3.681   7.007 -0.2253  0.0741  0.0678
 7773SOL    HW234956   0.141   3.824   7.029  0.8904  0.0022  2.2706
 7774SOL     OW34957   1.254   2.285   6.152  0.1264  0.6959  0.7599
 7774SOL    HW134958   1.266   2.334   6.071  0.4759  0.8066  0.8820
 7774SOL    HW234959   1.247   2.197   6.114  0.3459  1.5392 -1.1880
 7775SOL     OW34960   0.991   4.330  11.596  0.4199 -0.1690 -0.2329
 7775SOL    HW134961   1.055   4.362  11.533  0.0967  1.7401  0.4297
 7775SOL    HW234962   1.010   4.237  11.609  2.9224  0.0223 -2.5383
 7776SOL     OW34963   3.618   4.575   3.331  0.4627 -0.5524 -0.4459
 7776SOL    HW134964   3.708   4.548   3.312  0.9138  0.3111  0.4414
 7776SOL    HW234965   3.580   4.513   3.269  1.0425  0.6174 -2.0049
 7777SOL     OW34966   0.840   3.405   8.504  0.8514  0.3979 -0.4269
 7777SOL    HW134967   0.839   3.447   8.590  0.7344 -0.4545 -0.0194
 7777SOL    HW234968   0.826   3.312   8.518 -1.0791  0.9705  1.3905
 7778SOL     OW34969   2.939   3.452   9.700  0.7222  0.0670  0.5412
 7778SOL    HW134970   2.937   3.444   9.795 -2.7763 -0.3287  0.4095
 7778SOL    HW234971   2.846   3.440   9.684  0.9057 -0.9127  0.2065
 7779SOL     OW34972   3.365   2.626   0.085 -0.1780  0.7100  0.3407
 7779SOL    HW134973   3.313   2.599   0.160  1.2462  2.0129  1.8064
 7779SOL    HW234974   3.450   2.588   0.109 -0.5568  0.8488  1.8961
 7780SOL     OW34975   1.487   2.907   4.008  0.4703  0.3195  0.1469
 7780SOL    HW134976   1.410   2.858   3.979 -0.2810  1.3475  0.3864
 7780SOL    HW234977   1.483   2.896   4.103  0.6571  0.1827  0.1395
 7781SOL     OW34978   4.455   1.245  12.861 -0.1685  0.2568 -1.0035
 7781SOL    HW134979   4.430   1.214  12.948 -0.7218  0.5782 -1.0534
 7781SOL    HW234980   4.498   1.327  12.886  0.3827 -1.0242  2.1878
 7782SOL     OW34981   0.883   0.912   4.970  0.4170  0.2040 -0.4616
 7782SOL    HW134982   0.800   0.872   4.995  0.5459 -0.6701 -1.4479
 7782SOL    HW234983   0.852   0.942   4.885  1.9702  1.3545 -0.6081
 7783SOL     OW34984   4.399   2.807  13.778 -0.8302  0.2760 -0.2883
 7783SOL    HW134985   4.452   2.887  13.775 -0.1783 -0.2570 -2.4033
 7783SOL    HW234986   4.366   2.797  13.689 -2.7293 -0.5527  0.4978
 7784SOL     OW34987   0.000   3.833   8.457  0.1832  0.3143 -0.0546
 7784SOL    HW134988   0.093   3.846   8.438  0.3022  0.1716  0.4513
 7784SOL    HW234989   4.709   3.772   8.388 -0.9760  0.8817 -0.1183
 7785SOL     OW34990   4.003   2.658   6.039 -0.5444 -0.1747  0.2339
 7785SOL    HW134991   4.066   2.596   6.077  0.1321  0.5246  0.2588
 7785SOL    HW234992   4.006   2.646   5.944 -2.8685 -0.0602  0.1476
 7786SOL     OW34993   3.402   0.381   7.698 -0.2530  0.3612  0.2007
 7786SOL    HW134994   3.327   0.363   7.755 -0.6378 -0.7594 -0.6739
 7786SOL    HW234995   3.384   0.336   7.616 -0.1054 -0.0116  0.3701
 7787SOL     OW34996   2.442   1.530   6.135  0.0338  0.2720  0.3377
 7787SOL    HW134997   2.393   1.545   6.054 -0.7585 -0.3039  0.7030
 7787SOL    HW234998   2.384   1.473   6.186 -2.1729  0.6661 -1.7581
 7788SOL     OW34999   4.505   1.980   5.907  1.0939  0.4330 -0.2574
 7788SOL    HW135000   4.592   1.973   5.947  1.7481  0.9214 -1.6275
 7788SOL    HW235001   4.510   1.993   5.813  1.3081  1.0248 -0.1651
 7789SOL     OW35002   4.609   4.252   3.714  0.3701 -0.3858 -0.5863
 7789SOL    HW135003   4.627   4.320   3.649  1.4148 -0.9718 -0.9155
 7789SOL    HW235004   4.664   4.281   3.787  2.6951 -2.7992 -1.3667
 7790SOL     OW35005   1.793   0.496  15.475 -0.3622 -0.2666  0.5661
 7790SOL    HW135006   1.824   0.457  15.556  2.1924  1.0361  0.2042
 7790SOL    HW235007   1.871   0.541  15.444  0.0502 -1.1897  0.2596
 7791SOL     OW35008   0.895   1.161   2.239  0.7071  0.2159  0.2389
 7791SOL    HW135009   0.910   1.252   2.214  0.8089  0.5088  1.3366
 7791SOL    HW235010   0.985   1.130   2.242 -0.0336 -2.0304 -1.4194
 7792SOL     OW35011   1.544   4.686   6.794 -0.3256 -0.3219 -0.1000
 7792SOL    HW135012   1.563   0.008   6.868 -0.1484 -0.4250 -0.0668
 7792SOL    HW235013   1.535   4.602   6.839  1.3253 -0.2174  0.4410
 7793SOL     OW35014   1.470   2.092   7.471 -0.0598  0.6671 -0.2063
 7793SOL    HW135015   1.383   2.107   7.435  0.2863  0.4327 -1.1534
 7793SOL    HW235016   1.510   2.118   7.388  1.2946 -0.1402  0.1796
 7794SOL     OW35017   3.399   1.573   8.125  0.1896  0.3471  0.1732
 7794SOL    HW135018   3.409   1.659   8.083 -1.2772  0.1515 -0.5757
 7794SOL    HW235019   3.471   1.574   8.187  0.1619 -1.0817  0.2152
 7795SOL     OW35020   0.687   2.994  11.975 -0.0894 -0.0088  0.5469
 7795SOL    HW135021   0.594   3.014  11.965  0.2500  0.9023 -0.7391
 7795SOL    HW235022   0.722   3.064  12.031  0.3431 -1.2144  1.7846
 7796SOL     OW35023   1.546   4.154   1.812 -0.3966  0.1855 -0.3299
 7796SOL    HW135024   1.610   4.107   1.759  0.6267  0.3840  0.7283
 7796SOL    HW235025   1.520   4.216   1.745 -1.3438  0.2513  0.0883
 7797SOL     OW35026   1.307   3.887   8.454  0.1280  0.4963 -0.1000
 7797SOL    HW135027   1.236   3.829   8.482  1.4961 -0.0455  2.2901
 7797SOL    HW235028   1.364   3.816   8.426 -0.5748  0.2751 -0.9582
 7798SOL     OW35029   1.195   2.184   3.573 -0.4386  0.5365 -0.3443
 7798SOL    HW135030   1.118   2.140   3.536  0.8761 -1.7733 -0.3442
 7798SOL    HW235031   1.156   2.268   3.595 -0.4549  0.0999  1.3051
 7799SOL     OW35032   3.657   0.241   3.655  0.3816 -0.4448 -0.0059
 7799SOL    HW135033   3.717   0.314   3.641 -0.9597  0.5313 -0.6134
 7799SOL    HW235034   3.675   0.200   3.570  1.1583 -1.3279  0.5764
 7800SOL     OW35035   3.365   1.205   8.251 -0.8143 -0.6612 -0.1073
 7800SOL    HW135036   3.289   1.150   8.231  0.7598 -2.4735 -1.1518
 7800SOL    HW235037   3.431   1.189   8.184  0.8418 -3.5154  2.1713
 7801SOL     OW35038   1.663   3.990   0.696  0.5917  0.5430  0.3169
 7801SOL    HW135039   1.748   4.016   0.731  1.3411  0.7619 -1.6526
 7801SOL    HW235040   1.623   4.076   0.710  0.1258  0.9789 -3.5374
 7802SOL     OW35041   4.454   2.195   2.848 -0.1150  0.1168 -0.0034
 7802SOL    HW135042   4.511   2.258   2.804  1.6351 -0.2727  1.7207
 7802SOL    HW235043   4.387   2.191   2.779 -1.5889  0.5884  1.4168
 7803SOL     OW35044   2.114   4.544   1.571  0.3821  0.2070 -0.2305
 7803SOL    HW135045   2.196   4.571   1.530 -0.3115  1.0177 -1.0745
 7803SOL    HW235046   2.067   4.541   1.488 -1.0540 -1.8529  0.6591
 7804SOL     OW35047   2.879   0.550   3.376 -0.1375  0.0263 -0.2937
 7804SOL    HW135048   2.900   0.560   3.469 -2.9068 -0.6864  0.3949
 7804SOL    HW235049   2.784   0.551   3.381 -0.1043  1.6253 -0.1864
 7805SOL     OW35050   2.129   1.671   8.261  0.3443 -0.5718 -0.1971
 7805SOL    HW135051   2.141   1.713   8.346  1.4397 -0.4222 -0.4373
 7805SOL    HW235052   2.181   1.591   8.271  1.2193  0.2785  1.9156
 7806SOL     OW35053   1.946   4.142   1.825 -0.0908  0.2650  0.4151
 7806SOL    HW135054   1.961   4.048   1.840  0.4447  0.2621 -0.1229
 7806SOL    HW235055   2.033   4.173   1.798  0.1201 -0.1365  0.6257
 7807SOL     OW35056   2.186   2.989   6.905  0.1525 -0.6877 -0.2000
 7807SOL    HW135057   2.220   3.075   6.881  1.1762 -0.9299  0.3735
 7807SOL    HW235058   2.255   2.938   6.863 -0.0979 -1.8545  0.7787
 7808SOL     OW35059   1.178   3.487   9.904 -0.3355  0.4338 -0.8625
 7808SOL    HW135060   1.131   3.549   9.848  1.8545  1.6701 -1.3472
 7808SOL    HW235061   1.225   3.547   9.961 -2.5526 -0.3856  1.7974
 7809SOL     OW35062   1.521   0.869   3.694 -0.1513 -0.3265 -0.1668
 7809SOL    HW135063   1.612   0.843   3.704 -0.5212 -2.4933 -2.6260
 7809SOL    HW235064   1.486   0.837   3.611 -0.1988  5.6587 -2.4618
 7810SOL     OW35065   3.748   3.714   2.651 -0.2255  0.1932  0.3438
 7810SOL    HW135066   3.750   3.756   2.565  4.5213  0.2806  0.4844
 7810SOL    HW235067   3.813   3.645   2.643 -2.6798 -2.1210  0.4378
 7811SOL     OW35068   3.379   2.892   6.980 -0.1716  0.1804  0.3743
 7811SOL    HW135069   3.284   2.904   6.977 -0.1823 -0.1026 -0.3761
 7811SOL    HW235070   3.394   2.929   7.067  0.8216 -0.3696  0.4337
 7812SOL     OW35071   0.827   1.036   4.218 -0.5251 -1.0486 -0.2744
 7812SOL    HW135072   0.800   1.122   4.250 -1.7490 -2.0128  1.3248
 7812SOL    HW235073   0.905   1.052   4.165  0.3480 -1.5046  0.8675
 7813SOL     OW35074   2.858   2.165   4.907 -0.5593 -0.0738 -0.3188
 7813SOL    HW135075   2.952   2.148   4.913 -0.4293  0.5802 -0.4607
 7813SOL    HW235076   2.823   2.089   4.860 -2.4798  0.9450 -0.5366
 7814SOL     OW35077   2.705   0.492   7.088 -0.4884 -0.2163  0.0256
 7814SOL    HW135078   2.764   0.495   7.013 -2.1290 -0.9930 -1.2744
 7814SOL    HW235079   2.773   0.511   7.153  0.8124  0.3880 -1.5222
 7815SOL     OW35080   1.057   3.252  16.981  0.0576  0.3319  0.6525
 7815SOL    HW135081   1.105   3.196  16.920 -1.0940  1.4367 -1.2691
 7815SOL    HW235082   0.972   3.254  16.938 -0.6153  1.1695  2.0620
 7816SOL     OW35083   3.761   1.861   5.714  0.1712  0.2007  0.0362
 7816SOL    HW135084   3.693   1.802   5.682  1.2014 -0.9583  0.0137
 7816SOL    HW235085   3.739   1.856   5.808  0.3814  0.0683  0.0764
 7817SOL     OW35086   3.523   1.483  11.003 -0.3339  0.2973 -0.5619
 7817SOL    HW135087   3.588   1.502  10.936 -0.1636  0.6099 -0.3096
 7817SOL    HW235088   3.500   1.573  11.024  2.8882  0.3126  2.9743
 7818SOL     OW35089   2.033   0.259   2.757  0.5803  0.2194  0.1410
 7818SOL    HW135090   1.941   0.249   2.734  0.2556  2.2495  0.6117
 7818SOL    HW235091   2.064   0.248   2.667 -1.3136  0.7244 -0.5688
 7819SOL     OW35092   1.438   2.056   7.850  0.1324  1.0771 -0.0371
 7819SOL    HW135093   1.343   2.052   7.839  0.1029  2.4231 -0.3058
 7819SOL    HW235094   1.456   1.966   7.824 -2.0309 -0.3141  3.3253
 7820SOL     OW35095   2.710   3.693   6.173  0.3533  0.1291 -0.0995
 7820SOL    HW135096   2.737   3.771   6.124 -2.0847  0.3409 -1.1095
 7820SOL    HW235097   2.771   3.699   6.246 -0.8907 -2.0589  1.1309
 7821SOL     OW35098   2.154   0.741  11.278 -0.3324 -0.1499  0.0154
 7821SOL    HW135099   2.153   0.645  11.278 -0.6426 -0.1582  2.0066
 7821SOL    HW235100   2.191   0.772  11.196 -0.4923  1.3378  0.5128
 7822SOL     OW35101   1.648   3.164   5.085  0.1803 -0.0669  0.1128
 7822SOL    HW135102   1.624   3.164   5.177 -1.0858 -0.9000 -0.2145
 7822SOL    HW235103   1.587   3.094   5.062 -0.3059  0.8799 -1.4710
 7823SOL     OW35104   0.414   3.541  12.224 -0.2388 -0.6525  0.4781
 7823SOL    HW135105   0.347   3.473  12.221 -1.0031  0.2159 -2.9261
 7823SOL    HW235106   0.406   3.568  12.315  0.7614  0.0160  0.3688
 7824SOL     OW35107   0.806   3.983   7.077  0.2181  0.0868  0.0993
 7824SOL    HW135108   0.747   4.036   7.022 -0.8247 -1.3990 -0.2024
 7824SOL    HW235109   0.771   4.012   7.161 -0.7290  0.0861 -0.2829
 7825SOL     OW35110   2.323   4.702   8.058 -0.3025 -0.6046  0.1740
 7825SOL    HW135111   2.253   0.011   8.010 -1.4102 -3.1232 -0.5395
 7825SOL    HW235112   2.332   0.025   8.133 -3.1023  1.0314 -0.7681
 7826SOL     OW35113   3.724   4.008  14.606 -0.1814  0.3188 -0.2096
 7826SOL    HW135114   3.763   4.087  14.569 -0.8317  0.7287 -0.0173
 7826SOL    HW235115   3.775   3.989  14.685 -0.0944 -2.6710 -0.9687
 7827SOL     OW35116   1.257   1.842  11.165  0.5134 -0.3668 -0.0547
 7827SOL    HW135117   1.346   1.856  11.195  0.3850 -3.3137  1.7010
 7827SOL    HW235118   1.252   1.911  11.098  0.1997  0.9031  1.2856
 7828SOL     OW35119   1.812   3.851   7.671 -0.0053 -0.6728  0.6179
 7828SOL    HW135120   1.885   3.908   7.645 -0.2613 -0.7719 -0.3176
 7828SOL    HW235121   1.853   3.802   7.742  3.0202 -0.3891 -0.9719
 7829SOL     OW35122   2.174   4.276   2.170 -0.5739  0.3732 -0.0152
 7829SOL    HW135123   2.096   4.277   2.114 -2.2521  3.1619  2.4138
 7829SOL    HW235124   2.139   4.318   2.248  0.5115  2.7881 -0.7975
 7830SOL     OW35125   3.858   1.219   9.966 -0.2105 -0.1622 -0.2065
 7830SOL    HW135126   3.841   1.297   9.913 -0.1055  0.1521  0.2281
 7830SOL    HW235127   3.861   1.247  10.057 -2.1652 -2.9664  0.7200
 7831SOL     OW35128   0.053   0.817  12.544 -0.4662 -0.6142  0.1013
 7831SOL    HW135129   4.695   0.798  12.559  0.1883 -3.2574  0.7838
 7831SOL    HW235130   0.049   0.859  12.458  0.1877 -1.8188 -0.5208
 7832SOL     OW35131   1.830   3.156   2.242 -0.3912  0.2314  0.0203
 7832SOL    HW135132   1.869   3.233   2.200  0.9854  0.2375  1.3431
 7832SOL    HW235133   1.739   3.178   2.225 -0.1930  0.6932 -0.4461
 7833SOL     OW35134   3.592   1.071   1.229  0.5572  0.5798 -0.2612
 7833SOL    HW135135   3.685   1.087   1.213  0.4070  1.5208 -0.1529
 7833SOL    HW235136   3.592   0.978   1.253  0.8975  0.4480 -0.7568
 7834SOL     OW35137   1.565   1.727   1.679  0.2054  0.2147  0.2160
 7834SOL    HW135138   1.631   1.658   1.674 -1.6119 -1.3388 -2.5725
 7834SOL    HW235139   1.619   1.791   1.725  1.5529 -0.9475  0.2452
 7835SOL     OW35140   3.047   2.575   3.282  0.1058 -0.0771 -0.4522
 7835SOL    HW135141   2.982   2.635   3.318 -0.2043 -0.2092 -0.7935
 7835SOL    HW235142   3.045   2.598   3.190  2.1801 -1.2052 -0.7836
 7836SOL     OW35143   4.572   2.422   7.152 -0.1344  0.1968 -0.3557
 7836SOL    HW135144   4.625   2.411   7.073 -1.8336  0.3989 -1.5140
 7836SOL    HW235145   4.545   2.331   7.164 -0.6940  0.2399 -1.2991
 7837SOL     OW35146   0.398   4.173   4.402 -0.5770 -0.5153 -0.5226
 7837SOL    HW135147   0.431   4.245   4.455 -0.5577 -2.0221  1.5034
 7837SOL    HW235148   0.350   4.226   4.338  1.6401  2.6360  0.4559
 7838SOL     OW35149   1.991   1.108  11.949 -1.2341  0.4322 -0.0957
 7838SOL    HW135150   2.013   1.136  11.860 -0.0553 -2.7191 -0.8162
 7838SOL    HW235151   2.067   1.108  12.007 -1.2808  0.1170 -0.0349
 7839SOL     OW35152   1.542   4.446  15.580 -0.8392 -0.1054 -0.2340
 7839SOL    HW135153   1.496   4.497  15.514 -2.4408 -0.9407  0.2208
 7839SOL    HW235154   1.534   4.507  15.653 -0.0324  0.0059 -0.2484
 7840SOL     OW35155   4.158   4.722   8.256 -0.4423 -0.0315 -0.5196
 7840SOL    HW135156   4.238   4.670   8.251 -0.3883  0.2596 -2.4614
 7840SOL    HW235157   4.110   4.677   8.327 -0.3869  1.8406  0.6968
 7841SOL     OW35158   2.774   2.403   2.699  0.1249 -0.7767  0.5784
 7841SOL    HW135159   2.781   2.400   2.795  2.7820 -0.3377  0.4227
 7841SOL    HW235160   2.802   2.492   2.675 -1.1252 -0.8153 -0.9524
 7842SOL     OW35161   4.246   2.098   3.999  0.0746 -0.1000 -0.2790
 7842SOL    HW135162   4.250   2.124   3.907 -2.8865  0.2085 -0.3172
 7842SOL    HW235163   4.234   2.182   4.042  2.2122  0.1560 -0.2064
 7843SOL     OW35164   0.143   3.470   3.816  0.0773 -0.0791 -0.3460
 7843SOL    HW135165   0.116   3.489   3.906 -0.4812 -2.7676  0.0511
 7843SOL    HW235166   0.072   3.516   3.773 -0.8592 -1.1453  0.0575
 7844SOL     OW35167   3.399   2.664  15.045 -0.8362 -0.8025  0.1679
 7844SOL    HW135168   3.386   2.737  15.105 -1.0651  0.6095 -1.5880
 7844SOL    HW235169   3.310   2.646  15.015 -0.7364 -1.3721  0.2095
 7845SOL     OW35170   1.091   2.004   7.614  0.3115  0.2276  0.1364
 7845SOL    HW135171   1.137   2.022   7.696  0.7195 -0.8553  0.1426
 7845SOL    HW235172   1.138   2.059   7.551 -1.9175  2.8278  0.7344
 7846SOL     OW35173   4.109   4.234  11.182  0.1135  0.2536 -0.0561
 7846SOL    HW135174   4.054   4.278  11.117  2.5055 -0.7776 -2.7716
 7846SOL    HW235175   4.130   4.157  11.129 -1.7335 -0.4526  0.2179
 7847SOL     OW35176   4.626   4.231   2.889  0.1583  0.0354  0.5269
 7847SOL    HW135177   4.654   4.165   2.825  1.0458  0.0825  0.8533
 7847SOL    HW235178   4.550   4.264   2.842  0.2208  0.2685  0.5888
 7848SOL     OW35179   4.024   3.645  12.596 -0.2676 -0.6587 -0.1091
 7848SOL    HW135180   3.973   3.686  12.666  0.2016  0.0943 -0.2204
 7848SOL    HW235181   4.082   3.584  12.642  0.9515  0.6841  0.1458
 7849SOL     OW35182   0.796   2.278   8.077 -0.3946  1.0535  0.1571
 7849SOL    HW135183   0.770   2.297   8.167  0.5611  0.2930  0.5954
 7849SOL    HW235184   0.874   2.332   8.059  0.5150 -0.9227 -1.8341
 7850SOL     OW35185   1.524   2.459   1.247 -0.6022 -0.5307 -0.1252
 7850SOL    HW135186   1.456   2.438   1.312 -2.1899 -3.1832 -2.6191
 7850SOL    HW235187   1.570   2.539   1.270 -0.1505 -1.2021  1.3040
 7851SOL     OW35188   3.761   1.174   4.959 -0.5997  0.3104  0.1825
 7851SOL    HW135189   3.736   1.247   4.902  0.8872  1.0477  0.4688
 7851SOL    HW235190   3.836   1.220   4.998 -1.6629  0.9231  1.5025
 7852SOL     OW35191   4.400   1.914   3.697  0.2366 -0.1318 -0.1710
 7852SOL    HW135192   4.386   1.819   3.699 -0.8959  0.0828  2.0177
 7852SOL    HW235193   4.467   1.924   3.766 -0.8475 -0.1664  0.8859
 7853SOL     OW35194   4.295   3.520   6.060  0.0539 -0.6013  0.1814
 7853SOL    HW135195   4.268   3.478   6.142  0.4496 -0.9574  0.1322
 7853SOL    HW235196   4.214   3.565   6.038  1.0436  0.8664 -0.4278
 7854SOL     OW35197   4.101   1.190   7.917 -0.3470  0.5768  0.2997
 7854SOL    HW135198   4.054   1.123   7.967 -0.0915  1.5899  1.8836
 7854SOL    HW235199   4.178   1.198   7.974 -0.3457  0.5822  0.2972
 7855SOL     OW35200   0.976   1.574   4.379 -0.2001  0.0476  0.2698
 7855SOL    HW135201   1.066   1.581   4.346 -0.5860  2.4053 -0.3274
 7855SOL    HW235202   0.939   1.659   4.353  0.7455  0.8121  1.4133
 7856SOL     OW35203   1.295   3.108   5.613  0.7195  0.1517  0.3150
 7856SOL    HW135204   1.337   3.027   5.642  0.4188 -0.8439 -2.0052
 7856SOL    HW235205   1.354   3.145   5.548  0.7724 -2.1658 -0.9434
 7857SOL     OW35206   1.997   4.562   1.813 -0.6382 -0.0901  0.0280
 7857SOL    HW135207   2.037   4.552   1.726  0.6266 -0.0016  0.5891
 7857SOL    HW235208   1.964   4.651   1.799 -1.6022 -0.6402 -1.1966
 7858SOL     OW35209   3.479   4.472  15.778  0.0198  0.2847 -0.1590
 7858SOL    HW135210   3.405   4.412  15.768 -0.0355  0.7732 -2.6006
 7858SOL    HW235211   3.501   4.499  15.689  2.4684 -2.5451 -0.4139
 7859SOL     OW35212   4.326   1.756   8.446 -0.3978  0.3224  0.1221
 7859SOL    HW135213   4.298   1.847   8.440  0.2001  0.3692 -2.1370
 7859SOL    HW235214   4.303   1.720   8.360  0.2289  0.1995  0.0041
 7860SOL     OW35215   2.897   1.363   8.617 -0.6657  0.1331  0.1785
 7860SOL    HW135216   2.924   1.451   8.641 -0.8925  0.0435  0.7460
 7860SOL    HW235217   2.817   1.351   8.668  0.5201  2.2423  2.5142
 7861SOL     OW35218   4.722   1.570   3.381 -0.7411  0.4810  0.1285
 7861SOL    HW135219   4.676   1.507   3.437  1.5618 -2.5964 -1.4653
 7861SOL    HW235220   4.699   1.544   3.292 -0.4928  0.5216  0.0522
 7862SOL     OW35221   4.197   4.048   5.462  0.1720  0.2871  0.1269
 7862SOL    HW135222   4.260   4.093   5.518  1.9955 -1.8477 -0.1987
 7862SOL    HW235223   4.239   3.963   5.453 -1.0833 -0.1317 -1.6989
 7863SOL     OW35224   0.749   2.483   7.746  0.3443  0.2220 -0.4449
 7863SOL    HW135225   0.698   2.407   7.717 -1.8794  1.2879  0.7266
 7863SOL    HW235226   0.750   2.525   7.660  0.0728  1.5069  0.1886
 7864SOL     OW35227   2.425   2.213   8.264  0.1829 -0.0947 -0.3951
 7864SOL    HW135228   2.444   2.137   8.209  1.3305 -0.0724 -0.0211
 7864SOL    HW235229   2.456   2.286   8.210 -0.4288 -1.1400 -2.1490
 7865SOL     OW35230   0.312   1.382   6.857  0.3228 -0.0870  0.3742
 7865SOL    HW135231   0.225   1.379   6.818  0.6784  0.0264 -0.4208
 7865SOL    HW235232   0.302   1.310   6.920  0.5891 -0.4745 -0.0309
 7866SOL     OW35233   2.687   1.503   2.080 -0.6428 -0.6673  0.2427
 7866SOL    HW135234   2.707   1.559   2.005  0.6935 -1.6280 -0.1253
 7866SOL    HW235235   2.749   1.532   2.147 -0.5156 -1.1936  0.3515
 7867SOL     OW35236   3.872   3.811   9.490 -0.0258  0.5885  0.5018
 7867SOL    HW135237   3.778   3.801   9.475  0.3141  0.1623 -1.3417
 7867SOL    HW235238   3.873   3.874   9.561  1.4572 -1.0306  1.9278
 7868SOL     OW35239   4.138   1.374   6.966 -0.4923 -0.1069 -0.1956
 7868SOL    HW135240   4.093   1.335   6.892 -1.0910 -2.7442  1.5735
 7868SOL    HW235241   4.110   1.315   7.036 -0.2883  1.0421  0.8561
 7869SOL     OW35242   1.295   4.208   8.762  0.0686 -0.5713  0.5188
 7869SOL    HW135243   1.319   4.185   8.672  0.9337 -0.0136  0.6091
 7869SOL    HW235244   1.350   4.144   8.807 -1.0287 -0.1527  2.4660
 7870SOL     OW35245   1.457   1.633   5.011  0.7132  0.6499  0.0238
 7870SOL    HW135246   1.465   1.716   4.963 -3.9325  0.9997 -0.0854
 7870SOL    HW235247   1.384   1.655   5.068 -0.7626  0.6388 -1.8881
 7871SOL     OW35248   2.872   0.047  14.693 -0.1095  0.2872  0.0771
 7871SOL    HW135249   2.958   0.040  14.734 -0.9103  0.6573  1.7938
 7871SOL    HW235250   2.856   0.139  14.716 -0.3945  0.3317 -0.2804
 7872SOL     OW35251   1.653   1.465   4.863 -0.2868  0.2314 -0.1794
 7872SOL    HW135252   1.597   1.508   4.927 -0.1566  1.4959 -0.9121
 7872SOL    HW235253   1.655   1.535   4.798  0.7369 -0.2728 -0.6946
 7873SOL     OW35254   1.462   1.852  14.556 -0.5993 -0.0826 -0.0210
 7873SOL    HW135255   1.413   1.811  14.628  1.1662 -1.0157  0.6494
 7873SOL    HW235256   1.392   1.889  14.503  1.8449  2.4110 -1.4634
 7874SOL     OW35257   3.446   4.696   5.355 -0.3729  0.0206  0.1042
 7874SOL    HW135258   3.487   4.611   5.369  0.4188  0.3199 -0.4213
 7874SOL    HW235259   3.523   0.016   5.347 -0.3531  0.1236  0.9704
 7875SOL     OW35260   0.333   1.113  16.355  0.1964  0.4235  0.1202
 7875SOL    HW135261   0.345   1.207  16.344 -3.0539  0.8588  0.3010
 7875SOL    HW235262   0.350   1.077  16.268  0.4681  0.5172  0.1339
 7876SOL     OW35263   1.481   0.624   4.679 -0.2192 -0.0857  0.3598
 7876SOL    HW135264   1.415   0.674   4.727  1.9919  1.3118  1.9595
 7876SOL    HW235265   1.554   0.683   4.698  0.0750  0.0852 -1.2498
 7877SOL     OW35266   3.395   0.019   8.438 -0.2726 -0.8191 -0.0806
 7877SOL    HW135267   3.309   0.059   8.444  0.0967  0.1008 -0.9861
 7877SOL    HW235268   3.370   4.664   8.459 -0.8322 -0.4556  0.8012
 7878SOL     OW35269   0.108   2.531   6.873  0.1892  0.2508  0.3352
 7878SOL    HW135270   0.087   2.546   6.780 -1.6192  2.9301  1.1649
 7878SOL    HW235271   0.072   2.444   6.890  1.1682 -0.4277 -1.0509
 7879SOL     OW35272   0.917   4.703   9.802 -0.1741 -0.0945  0.4440
 7879SOL    HW135273   0.918   4.615   9.840 -1.5121 -0.7812 -1.0943
 7879SOL    HW235274   1.004   4.728   9.833 -0.8290  2.2383  0.3769
 7880SOL     OW35275   3.173   1.068   1.812  0.2798 -0.6517 -0.3030
 7880SOL    HW135276   3.203   1.047   1.900  2.4774  1.1133 -0.6269
 7880SOL    HW235277   3.132   0.986   1.785 -0.8772 -0.3764  0.5931
 7881SOL     OW35278   3.448   0.852   5.659  0.3149 -0.1432 -0.1353
 7881SOL    HW135279   3.529   0.895   5.632 -0.7564  2.0372  0.1290
 7881SOL    HW235280   3.461   0.844   5.753  0.1877 -2.0943 -0.2705
 7882SOL     OW35281   1.374   0.855   9.036 -0.2413 -0.4123 -0.8593
 7882SOL    HW135282   1.333   0.938   9.059  0.0564 -0.3570 -0.5331
 7882SOL    HW235283   1.398   0.820   9.122 -1.3868 -1.1089 -0.8349
 7883SOL     OW35284   2.222   0.695   4.897 -0.3101 -0.3339  0.0271
 7883SOL    HW135285   2.154   0.628   4.894  2.1660 -2.8073 -0.5226
 7883SOL    HW235286   2.247   0.706   4.806  1.1467 -2.1325  0.2175
 7884SOL     OW35287   0.810   4.619   1.579  0.4691  0.0029  0.1092
 7884SOL    HW135288   0.890   4.663   1.607 -0.5539  1.9724 -0.0897
 7884SOL    HW235289   0.757   4.632   1.658 -0.5997  0.7471 -0.7357
 7885SOL     OW35290   0.681   2.238  10.276  0.2847 -0.2414 -0.6742
 7885SOL    HW135291   0.719   2.157  10.245  0.4811 -0.0622 -0.8998
 7885SOL    HW235292   0.625   2.265  10.204  2.6498 -0.0857 -2.4416
 7886SOL     OW35293   2.445   2.153   4.635  0.0749 -0.0730 -0.0381
 7886SOL    HW135294   2.372   2.212   4.620  1.2561  1.4194  0.1234
 7886SOL    HW235295   2.515   2.218   4.643  0.5815 -0.6315  0.1042
 7887SOL     OW35296   2.539   3.400   8.469  0.4186  0.4319  0.0053
 7887SOL    HW135297   2.455   3.446   8.480 -0.3415 -0.3962 -2.2412
 7887SOL    HW235298   2.520   3.328   8.529 -2.6017  0.3818 -1.0092
 7888SOL     OW35299   4.704   1.078   5.567 -0.6553  0.1955 -0.5300
 7888SOL    HW135300   0.043   1.139   5.573 -0.5677  0.1670 -1.2408
 7888SOL    HW235301   4.687   1.075   5.473 -1.3724 -0.7309 -0.3657
 7889SOL     OW35302   4.569   2.977  17.573  0.4026 -0.0426  1.0123
 7889SOL    HW135303   4.628   2.942  17.506  1.6775  2.0023  1.0544
 7889SOL    HW235304   4.511   3.024  17.513  0.9830 -1.1138 -0.3919
 7890SOL     OW35305   2.290   4.267   9.829  0.2412 -0.0738  0.2911
 7890SOL    HW135306   2.328   4.189   9.789 -0.3144 -0.4703  0.5288
 7890SOL    HW235307   2.340   4.286   9.908  0.6969 -1.3230  0.3069
 7891SOL     OW35308   0.880   3.580   5.744 -0.0092  0.0718  0.3390
 7891SOL    HW135309   0.937   3.508   5.716  2.1095  2.3882 -1.3031
 7891SOL    HW235310   0.927   3.649   5.699  2.6296 -0.3365  2.5020
 7892SOL     OW35311   4.694   0.160   7.069  0.0592 -0.5298 -0.6899
 7892SOL    HW135312   4.670   0.192   6.982 -3.0800  1.1777  0.7735
 7892SOL    HW235313   4.702   0.066   7.052 -0.4875 -1.1620  2.6361
 7893SOL     OW35314   3.403   0.701   4.655 -0.4157 -0.7541  0.4220
 7893SOL    HW135315   3.328   0.754   4.683  0.3952  0.7400 -0.2421
 7893SOL    HW235316   3.433   0.658   4.735  3.8513  0.8638 -0.3065
 7894SOL     OW35317   4.205   0.484   7.627  0.3478  0.3946  0.4399
 7894SOL    HW135318   4.112   0.461   7.635  0.2928  0.2096 -0.7975
 7894SOL    HW235319   4.224   0.452   7.539 -0.9892  1.6886 -0.3261
 7895SOL     OW35320   0.879   2.107   3.792  0.2008 -0.2920 -0.6950
 7895SOL    HW135321   0.939   2.076   3.860  4.0572 -0.7149 -4.3440
 7895SOL    HW235322   0.932   2.184   3.769  0.3862  0.0394  0.8083
 7896SOL     OW35323   2.478   4.470   9.267  0.2858  0.1143  0.2098
 7896SOL    HW135324   2.414   4.539   9.247  0.9695  0.7711  0.3088
 7896SOL    HW235325   2.469   4.424   9.184  0.5492 -0.7824  0.6779
 7897SOL     OW35326   3.192   2.591   6.817 -0.6782 -0.0063  0.2773
 7897SOL    HW135327   3.270   2.643   6.833 -0.8785  0.2440  0.4377
 7897SOL    HW235328   3.214   2.502   6.845  0.5228 -0.0221 -0.7303
 7898SOL     OW35329   2.605   0.374   2.285 -0.0911 -0.2673  0.0521
 7898SOL    HW135330   2.600   0.280   2.270 -1.6346 -0.4581  1.8040
 7898SOL    HW235331   2.616   0.384   2.380 -2.2484 -1.4466  0.4284
 7899SOL     OW35332   1.762   0.140  12.104  0.3052  0.3365 -0.0584
 7899SOL    HW135333   1.688   0.080  12.108  1.4134 -1.0759 -1.0441
 7899SOL    HW235334   1.794   0.131  12.194  0.4595 -1.4186 -0.2943
 7900SOL     OW35335   3.028   1.111   8.728  0.2577  0.7677  0.3733
 7900SOL    HW135336   3.112   1.076   8.698 -0.3146  1.8791 -2.5354
 7900SOL    HW235337   3.028   1.191   8.675 -0.3570 -1.1045 -2.4633
 7901SOL     OW35338   3.826   3.693   8.454  0.3791  0.4210  0.5802
 7901SOL    HW135339   3.801   3.612   8.410  2.1937  0.8389 -1.1978
 7901SOL    HW235340   3.892   3.663   8.517  0.9931 -0.6851 -0.5971
 7902SOL     OW35341   1.995   4.546   7.174 -0.5567 -0.0964 -0.1996
 7902SOL    HW135342   1.962   4.552   7.085  0.0807  2.1533 -0.2870
 7902SOL    HW235343   2.042   4.463   7.163 -0.1292  0.0859  0.2448
 7903SOL     OW35344   0.483   2.883   8.993 -0.1606  0.0150  0.3838
 7903SOL    HW135345   0.522   2.855   8.909  1.9739  1.6797  0.8264
 7903SOL    HW235346   0.460   2.975   8.985  1.3697  0.6197  3.2643
 7904SOL     OW35347   3.892   0.612   9.532 -0.3140 -0.3203 -0.1697
 7904SOL    HW135348   3.970   0.607   9.477  0.0400  1.6502  0.1375
 7904SOL    HW235349   3.895   0.705   9.554  1.9460 -0.5967  0.7272
 7905SOL     OW35350   0.639   4.703   2.879  0.6704  1.1357  0.2436
 7905SOL    HW135351   0.587   4.679   2.956 -0.0036 -1.2575 -0.9822
 7905SOL    HW235352   0.689   0.045   2.907  3.0353 -0.7268  1.1014
 7906SOL     OW35353   4.680   3.777   4.188  0.6390 -0.1757  0.0873
 7906SOL    HW135354   4.584   3.770   4.187  0.7579 -1.6376 -2.0536
 7906SOL    HW235355   4.691   3.786   4.282 -1.3416 -0.3703  0.3311
 7907SOL     OW35356   3.065   2.633   5.646  0.2139 -0.1044 -0.6037
 7907SOL    HW135357   3.132   2.648   5.579 -0.0963  0.4993 -0.7739
 7907SOL    HW235358   3.038   2.544   5.624  0.6240 -1.3103  3.7337
 7908SOL     OW35359   0.032   4.106   6.549 -0.1267 -0.2703 -0.8977
 7908SOL    HW135360   0.010   4.116   6.456 -1.6957  2.0765 -0.2770
 7908SOL    HW235361   4.686   4.070   6.585 -0.4564 -0.7724 -2.1244
 7909SOL     OW35362   4.406   1.205   3.480  0.5131 -0.4240  0.1868
 7909SOL    HW135363   4.342   1.170   3.418 -0.3507  0.9361  0.3110
 7909SOL    HW235364   4.480   1.231   3.425  0.2803 -0.3722 -0.1013
 7910SOL     OW35365   0.051   4.677   3.508  0.5401  0.4121  0.2986
 7910SOL    HW135366   0.098   4.725   3.440 -0.9976 -3.8903 -3.7382
 7910SOL    HW235367   4.728   0.006   3.549 -0.3023  0.6102 -1.2305
 7911SOL     OW35368   1.987   0.212   9.222  0.0113  0.7891  0.0831
 7911SOL    HW135369   1.961   0.241   9.309  1.6846  2.5876  0.0105
 7911SOL    HW235370   2.005   0.296   9.179 -1.2173 -0.2848 -2.5015
 7912SOL     OW35371   0.677   2.327  14.568 -0.1299 -0.1659 -0.5781
 7912SOL    HW135372   0.636   2.319  14.482 -2.0959 -0.1840  0.3611
 7912SOL    HW235373   0.763   2.291  14.547  1.0166  2.2331 -0.0268
 7913SOL     OW35374   4.039   2.415  12.386 -0.0465 -0.0032 -0.8595
 7913SOL    HW135375   4.115   2.362  12.364 -0.2181 -1.1625  1.3648
 7913SOL    HW235376   4.074   2.496  12.347  1.6565 -0.2077  0.2433
 7914SOL     OW35377   3.799   3.356  12.522 -0.1936  0.7692 -0.0273
 7914SOL    HW135378   3.766   3.318  12.440  1.8234 -0.2222 -0.3748
 7914SOL    HW235379   3.872   3.297  12.541  0.0856  0.2230 -2.8348
 7915SOL     OW35380   4.335   0.757   8.541  0.3182 -0.1405 -0.1779
 7915SOL    HW135381   4.357   0.760   8.634  0.2089 -1.1128 -0.1250
 7915SOL    HW235382   4.243   0.735   8.547  0.8991 -2.1594  1.2974
 7916SOL     OW35383   3.557   3.642   9.094  0.5684  0.1081  0.1654
 7916SOL    HW135384   3.558   3.681   9.182  0.4224 -1.3949  0.8311
 7916SOL    HW235385   3.536   3.725   9.052  2.1516  0.0942 -0.6472
 7917SOL     OW35386   0.415   3.747  11.177 -0.0830  0.2320  0.3972
 7917SOL    HW135387   0.355   3.782  11.111  1.0811 -1.1189 -1.4023
 7917SOL    HW235388   0.499   3.788  11.157  0.1344  0.2664  1.3983
 7918SOL     OW35389   4.139   3.321   2.197 -0.3856 -0.5354 -0.0961
 7918SOL    HW135390   4.116   3.324   2.104  1.7887  2.5174 -0.5239
 7918SOL    HW235391   4.227   3.284   2.198 -0.3266 -0.2964  3.0203
 7919SOL     OW35392   1.952   1.550   7.225  0.4831 -0.0408 -0.3689
 7919SOL    HW135393   1.908   1.629   7.257  0.6700 -1.3462  3.1855
 7919SOL    HW235394   1.881   1.510   7.174 -0.2204  0.2533  0.3772
 7920SOL     OW35395   3.527   4.432   6.963  0.1455  0.2460  0.0365
 7920SOL    HW135396   3.565   4.493   6.899  0.3574 -0.1008 -0.1716
 7920SOL    HW235397   3.581   4.353   6.957  0.6262  0.5502  0.3885
 7921SOL     OW35398   3.852   4.274   9.208 -0.5702 -0.4237 -0.1927
 7921SOL    HW135399   3.827   4.213   9.138  0.0038 -1.5509  0.5833
 7921SOL    HW235400   3.944   4.278   9.183  0.4143 -1.6040  3.2448
 7922SOL     OW35401   1.901   0.597   7.982  0.7685  0.1799  0.3203
 7922SOL    HW135402   1.974   0.615   8.041  1.5939  1.1673 -1.0083
 7922SOL    HW235403   1.842   0.668   8.008 -1.3393 -1.4045 -0.1496
 7923SOL     OW35404   1.435   3.732   4.953 -0.3220 -0.3684  0.2206
 7923SOL    HW135405   1.382   3.736   5.033  0.4210  2.3926  0.5708
 7923SOL    HW235406   1.523   3.743   4.991 -0.2477 -1.4580  0.3780
 7924SOL     OW35407   4.646   1.258   5.098  0.1793 -0.4868  0.3787
 7924SOL    HW135408   4.650   1.166   5.121 -0.7202 -0.4685  0.6346
 7924SOL    HW235409   4.662   1.263   5.004 -2.0462 -0.8767 -0.0229
 7925SOL     OW35410   0.646   0.676   3.940  0.3373 -0.0710  0.7239
 7925SOL    HW135411   0.589   0.599   3.933 -0.6594  0.9067 -1.9742
 7925SOL    HW235412   0.601   0.743   3.888  1.0575 -0.5837 -0.5724
 7926SOL     OW35413   3.969   0.315  15.086  0.8051 -0.1786  0.2878
 7926SOL    HW135414   3.914   0.337  15.011 -0.1815 -0.9078  0.7979
 7926SOL    HW235415   3.918   0.337  15.163  1.0998  0.8985  0.1710
 7927SOL     OW35416   3.925   3.874   2.424  0.0833  0.2405  0.0019
 7927SOL    HW135417   3.914   3.856   2.330  2.3893 -3.7559  0.4870
 7927SOL    HW235418   3.981   3.798   2.437  1.7197  1.4392 -0.1607
 7928SOL     OW35419   4.610   3.870   8.699 -0.2294  0.8754 -0.3010
 7928SOL    HW135420   4.593   3.786   8.740 -0.7751 -1.0949 -4.6110
 7928SOL    HW235421   4.649   3.849   8.615 -0.6906  1.2207 -0.6016
 7929SOL     OW35422   1.715   4.083   9.321 -0.3951 -0.1243  0.3026
 7929SOL    HW135423   1.752   4.001   9.290  0.4918  0.1711  0.6002
 7929SOL    HW235424   1.678   4.113   9.237 -0.8106 -2.4988 -0.3706
 7930SOL     OW35425   1.648   2.558  12.739  0.7139 -0.2004 -0.2407
 7930SOL    HW135426   1.602   2.481  12.773 -0.4238  0.7490  0.3794
 7930SOL    HW235427   1.719   2.519  12.687  0.4066 -0.5124 -0.4284
 7931SOL     OW35428   2.724   2.331  11.013  0.3024  0.5012  0.7591
 7931SOL    HW135429   2.723   2.420  11.051  2.2902  0.7655  0.1949
 7931SOL    HW235430   2.804   2.293  11.049  0.9839 -0.4205 -1.7459
 7932SOL     OW35431   4.704   1.888  12.067  0.2849 -0.6148  0.4811
 7932SOL    HW135432   4.635   1.821  12.070  0.6283 -0.9312  1.3411
 7932SOL    HW235433   4.671   1.958  12.010 -0.6283 -0.0981  1.6527
 7933SOL     OW35434   1.818   1.782  17.206 -0.2245 -0.2065  0.8589
 7933SOL    HW135435   1.759   1.853  17.232 -0.0704  0.3205 -0.2333
 7933SOL    HW235436   1.830   1.783  17.111 -0.2873  0.5016  0.8600
 7934SOL     OW35437   1.250   0.891  13.300 -0.3374 -0.3039 -0.6815
 7934SOL    HW135438   1.281   0.936  13.222 -1.7543 -0.2400 -1.1991
 7934SOL    HW235439   1.326   0.838  13.326  0.5394  2.2282  1.9605
 7935SOL     OW35440   1.419   3.875   2.420  0.0404  0.1346  0.1548
 7935SOL    HW135441   1.417   3.834   2.506 -1.8285 -0.3810 -0.1468
 7935SOL    HW235442   1.501   3.923   2.434  0.8025 -1.0174 -0.3339
 7936SOL     OW35443   4.307   3.313   5.302 -0.0630 -0.1509  0.8091
 7936SOL    HW135444   4.260   3.352   5.375 -0.0477 -0.9524  1.2476
 7936SOL    HW235445   4.233   3.260   5.272 -0.0747  0.9781 -1.1335
 7937SOL     OW35446   3.733   0.267   2.884 -0.2434 -0.3304 -0.1389
 7937SOL    HW135447   3.658   0.209   2.874  0.4803 -1.0933 -1.2566
 7937SOL    HW235448   3.703   0.341   2.832 -0.9679 -0.2767  0.3633
 7938SOL     OW35449   2.101   3.828   1.633 -0.3554 -0.3105 -0.1550
 7938SOL    HW135450   2.063   3.872   1.557  1.3948 -0.3456 -1.0531
 7938SOL    HW235451   2.151   3.903   1.665  0.6294 -1.2777  0.5476
 7939SOL     OW35452   3.553   0.298  13.331  0.0736  0.7715 -0.3322
 7939SOL    HW135453   3.605   0.221  13.308  2.4034  2.7486 -1.5588
 7939SOL    HW235454   3.466   0.257  13.338 -0.3477  1.4963 -1.3424
 7940SOL     OW35455   0.407   4.106   7.187 -0.4539 -0.7543  0.8526
 7940SOL    HW135456   0.482   4.155   7.154  0.4193 -0.9320  2.5465
 7940SOL    HW235457   0.361   4.180   7.226 -0.9029 -0.6304  0.0732
 7941SOL     OW35458   3.427   3.200  10.235  0.0159  0.0812 -0.7560
 7941SOL    HW135459   3.357   3.230  10.292  1.3011  0.3988  0.6514
 7941SOL    HW235460   3.455   3.114  10.267  1.3617  1.3605  1.4892
 7942SOL     OW35461   1.083   0.755   0.378 -0.0805 -0.4838 -0.1463
 7942SOL    HW135462   1.008   0.695   0.376 -0.5342  0.1214 -1.2490
 7942SOL    HW235463   1.064   0.785   0.467  2.5043  2.2784 -0.5300
 7943SOL     OW35464   4.407   3.289   3.102  0.0141 -0.3181 -0.6250
 7943SOL    HW135465   4.370   3.361   3.050 -0.9833  0.8117  1.6159
 7943SOL    HW235466   4.430   3.218   3.041  0.6291 -1.8125  1.3554
 7944SOL     OW35467   2.026   3.362   5.469 -0.1822 -0.0376 -0.2518
 7944SOL    HW135468   2.023   3.337   5.562  0.4607  0.7901 -0.0001
 7944SOL    HW235469   2.068   3.448   5.473  3.9664 -2.1419  1.5231
 7945SOL     OW35470   4.436   2.589   7.521 -0.0276 -0.1989 -0.4844
 7945SOL    HW135471   4.439   2.675   7.563 -1.7448  0.1253 -1.0581
 7945SOL    HW235472   4.341   2.579   7.527 -0.1476  2.0558  1.4702
 7946SOL     OW35473   2.983   1.565  16.881  0.2490 -0.0635 -0.2879
 7946SOL    HW135474   2.969   1.548  16.788  4.3101 -0.7856 -0.7726
 7946SOL    HW235475   2.986   1.477  16.919 -0.9553  1.2925  2.9339
 7947SOL     OW35476   2.183   4.077   4.187  0.6910 -0.0664  0.0301
 7947SOL    HW135477   2.090   4.098   4.178  0.5031 -0.1277  1.6489
 7947SOL    HW235478   2.185   3.994   4.140 -0.7729  0.2983 -0.6676
 7948SOL     OW35479   3.098   2.780   2.122 -0.4316  0.4044 -0.2257
 7948SOL    HW135480   3.074   2.784   2.215 -1.1644 -1.3840 -0.3537
 7948SOL    HW235481   3.108   2.686   2.109  1.1130  0.3316  1.4792
 7949SOL     OW35482   2.343   2.035  13.078  0.2259  0.0373 -0.1962
 7949SOL    HW135483   2.276   2.102  13.091  0.4062  0.5157 -1.6905
 7949SOL    HW235484   2.309   1.975  13.012  1.3474  0.3667 -1.0788
 7950SOL     OW35485   2.944   1.332  17.014  0.0242  0.0300  0.2094
 7950SOL    HW135486   2.953   1.285  17.097 -0.6056  0.3764  0.4766
 7950SOL    HW235487   2.850   1.351  17.012  0.0669  0.1597 -0.8225
 7951SOL     OW35488   3.855   0.815   0.995 -0.1201 -0.0883 -0.1081
 7951SOL    HW135489   3.849   0.850   0.906 -0.9243  0.9787  0.3650
 7951SOL    HW235490   3.935   0.855   1.027 -2.6987  2.3507  3.3130
 7952SOL     OW35491   2.640   4.590   1.840  0.5625  0.1220  0.8131
 7952SOL    HW135492   2.654   4.510   1.788  0.9680  0.5842  0.2128
 7952SOL    HW235493   2.643   4.556   1.929  0.8191 -0.9988  0.3818
 7953SOL     OW35494   0.372   4.592   4.874 -0.0619  0.0878 -0.3268
 7953SOL    HW135495   0.412   4.629   4.953  0.0091 -0.7427  0.0312
 7953SOL    HW235496   0.283   4.608   4.905 -0.3185  1.3125 -1.7276
 7954SOL     OW35497   1.543   1.116   8.322  0.2483  0.6550  0.5278
 7954SOL    HW135498   1.452   1.102   8.347  0.4990  1.5866  1.9488
 7954SOL    HW235499   1.589   1.039   8.358 -0.9992  1.4415  3.7480
 7955SOL     OW35500   4.017   4.666  15.888 -0.6188 -0.1209  0.2620
 7955SOL    HW135501   4.005   0.024  15.869  2.2603 -0.1095 -1.5283
 7955SOL    HW235502   3.936   4.631  15.849 -2.3996  1.6097  2.4344
 7956SOL     OW35503   3.076   2.453  15.122  0.2041 -0.1305  0.4389
 7956SOL    HW135504   3.030   2.444  15.206  1.0534 -0.8083  0.8266
 7956SOL    HW235505   3.101   2.362  15.107 -0.1876 -0.0828 -0.5404
 7957SOL     OW35506   0.474   3.418   0.419  0.0656  0.3448  0.7983
 7957SOL    HW135507   0.540   3.482   0.394  0.6766  0.2998  2.2990
 7957SOL    HW235508   0.470   3.435   0.513  0.4212 -1.0435  1.0693
 7958SOL     OW35509   3.572   4.513   2.299 -0.2558 -0.7253 -0.5030
 7958SOL    HW135510   3.519   4.467   2.234 -0.8815  0.0996 -0.5874
 7958SOL    HW235511   3.582   4.448   2.368 -0.3245 -1.2541 -0.9988
 7959SOL     OW35512   3.769   4.522   2.094  0.0356  0.0597  0.5467
 7959SOL    HW135513   3.824   4.579   2.146  0.1291 -0.0828  0.6045
 7959SOL    HW235514   3.689   4.537   2.144 -0.6391 -0.3302 -0.4076
 7960SOL     OW35515   0.103   0.013   8.014 -0.5895 -0.7200 -0.5292
 7960SOL    HW135516   0.175   4.702   7.970 -0.7848 -2.0054  0.5119
 7960SOL    HW235517   0.070   4.679   8.072  0.4740 -0.6117  0.2061
 7961SOL     OW35518   2.765   1.341   5.304  0.1336 -0.5190 -0.2034
 7961SOL    HW135519   2.845   1.339   5.252  0.3663  1.5277  0.0729
 7961SOL    HW235520   2.806   1.296   5.377  0.0256 -1.2129 -0.5700
 7962SOL     OW35521   0.219   0.314   7.108  0.0166 -0.0424 -0.0578
 7962SOL    HW135522   0.134   0.332   7.068 -0.1946  0.6890  0.7176
 7962SOL    HW235523   0.197   0.299   7.200  0.0131  0.6581  0.0513
 7963SOL     OW35524   0.390   3.407  12.812 -0.1316 -0.0845 -0.6910
 7963SOL    HW135525   0.318   3.461  12.845  0.8812  0.7864  0.1143
 7963SOL    HW235526   0.352   3.408  12.724  0.9864  3.9679 -1.1286
 7964SOL     OW35527   1.352   2.902  12.198  0.3529 -0.2787  0.4280
 7964SOL    HW135528   1.288   2.869  12.261  0.7695 -0.8913  0.5307
 7964SOL    HW235529   1.408   2.825  12.185 -1.2379 -1.6850  1.9680
 7965SOL     OW35530   2.672   1.101   3.047 -0.0338 -0.0546 -0.0016
 7965SOL    HW135531   2.694   1.097   3.140  1.7231  0.3371 -0.3888
 7965SOL    HW235532   2.732   1.164   3.006  0.3882  0.6895  1.7253
 7966SOL     OW35533   2.263   4.087   4.776 -0.0928 -0.3515 -0.3052
 7966SOL    HW135534   2.298   4.009   4.819  0.7064  0.1914  0.0269
 7966SOL    HW235535   2.302   4.151   4.835  1.2415 -1.3277 -0.1341
 7967SOL     OW35536   1.172   3.094  17.205  0.4390  0.2033 -0.4145
 7967SOL    HW135537   1.187   3.169  17.263  1.3700 -0.1486 -0.1887
 7967SOL    HW235538   1.115   3.135  17.141 -0.9416  0.2966  0.8789
 7968SOL     OW35539   3.302   3.213   8.284  0.9457 -0.5161  0.5943
 7968SOL    HW135540   3.300   3.122   8.315  0.8152 -0.0344  1.9793
 7968SOL    HW235541   3.240   3.210   8.211  2.0584 -1.0001 -0.3177
 7969SOL     OW35542   1.030   3.138   2.355  0.1330 -0.2656  0.3080
 7969SOL    HW135543   1.064   3.145   2.266  0.4610 -0.5981  0.4074
 7969SOL    HW235544   0.979   3.057   2.363 -3.2801  1.8632  0.3046
 7970SOL     OW35545   3.333   4.087  15.430 -0.4140 -0.0336 -0.5530
 7970SOL    HW135546   3.358   4.004  15.472 -0.2507  0.7608  0.9063
 7970SOL    HW235547   3.409   4.124  15.385 -0.2961 -0.4602 -0.7111
 7971SOL     OW35548   1.477   3.325  13.579  0.0813 -0.1050  0.4337
 7971SOL    HW135549   1.553   3.310  13.522  0.6901 -0.0750  1.2267
 7971SOL    HW235550   1.442   3.236  13.583  1.0175 -0.5666 -1.3588
 7972SOL     OW35551   1.804   3.467   8.291  0.0404 -0.2907 -0.1082
 7972SOL    HW135552   1.769   3.486   8.379  1.9760  0.3294  0.5284
 7972SOL    HW235553   1.729   3.413   8.266  0.0263 -0.3260  0.0107
 7973SOL     OW35554   3.142   1.719   2.500  0.0257 -0.2372 -0.5075
 7973SOL    HW135555   3.100   1.775   2.565  0.0449 -1.6902  0.7685
 7973SOL    HW235556   3.072   1.656   2.480  1.0581 -1.4330 -0.3258
 7974SOL     OW35557   3.932   0.238  12.084 -0.5357  0.6468 -0.4868
 7974SOL    HW135558   4.016   0.262  12.044  1.6321 -4.6723  0.9723
 7974SOL    HW235559   3.873   0.303  12.046 -1.8770  0.5972  1.5106
 7975SOL     OW35560   4.109   2.364   0.895  0.0607  0.6499 -0.6257
 7975SOL    HW135561   4.059   2.421   0.954 -1.5071 -2.0117  0.6240
 7975SOL    HW235562   4.173   2.330   0.957 -1.2039  4.1990  2.6918
 7976SOL     OW35563   4.303   0.907   7.678  0.3459 -0.5948  0.2533
 7976SOL    HW135564   4.324   0.971   7.746 -0.8872  0.4481 -0.3553
 7976SOL    HW235565   4.234   0.865   7.729  1.1161 -2.5584 -0.3531
 7977SOL     OW35566   0.618   2.266   5.874  0.5599 -0.0318  0.3786
 7977SOL    HW135567   0.580   2.228   5.794  3.3373 -2.7461  0.3385
 7977SOL    HW235568   0.553   2.332   5.899 -1.4689 -1.2601 -1.5269
 7978SOL     OW35569   0.699   2.975  12.333  0.3632 -0.2769 -0.0158
 7978SOL    HW135570   0.651   2.929  12.264  0.4547  0.1693 -0.3784
 7978SOL    HW235571   0.788   2.953  12.304  0.0878 -2.5404  0.9143
 7979SOL     OW35572   1.120   1.350   7.797 -0.3455  0.4230  0.0614
 7979SOL    HW135573   1.078   1.404   7.730  2.8742 -0.9761 -3.1004
 7979SOL    HW235574   1.196   1.330   7.742  0.3475 -0.5032  1.3648
 7980SOL     OW35575   0.358   4.714   4.601  0.1051  0.6035 -0.4888
 7980SOL    HW135576   0.264   4.717   4.583  0.1491  1.2401 -0.6098
 7980SOL    HW235577   0.367   4.656   4.678  1.0058 -0.9048 -1.7223
 7981SOL     OW35578   0.435   1.761  12.594 -0.1580  0.0603 -0.5296
 7981SOL    HW135579   0.446   1.696  12.525  0.0684 -1.6120  1.0923
 7981SOL    HW235580   0.462   1.712  12.671  0.1602 -1.7993 -1.8120
 7982SOL     OW35581   1.992   2.051  17.318 -0.0763  0.0562  0.1689
 7982SOL    HW135582   2.030   1.971  17.283 -1.7001 -0.0407 -1.3078
 7982SOL    HW235583   1.990   2.032  17.412  0.8818 -0.7030  0.0370
 7983SOL     OW35584   0.894   0.234   9.796 -0.7202  0.0261 -0.3214
 7983SOL    HW135585   0.893   0.139   9.783 -1.0017  0.1638 -1.3257
 7983SOL    HW235586   0.880   0.243   9.890  2.1075  2.3191 -0.0985
 7984SOL     OW35587   1.603   3.346  12.349  0.3940  0.1322 -0.4097
 7984SOL    HW135588   1.543   3.273  12.348  0.7944 -0.1446 -3.3061
 7984SOL    HW235589   1.569   3.400  12.278  1.4907  0.3017 -0.8116
 7985SOL     OW35590   0.043   1.109   8.719 -0.3070 -0.5701 -0.2709
 7985SOL    HW135591   0.131   1.142   8.702 -1.3144  4.1082  3.5706
 7985SOL    HW235592   4.730   1.188   8.695  0.1196 -0.6987 -1.5199
 7986SOL     OW35593   1.440   4.091   8.548 -0.3535 -0.4806 -0.1111
 7986SOL    HW135594   1.515   4.053   8.595 -1.1234 -3.0325 -0.9782
 7986SOL    HW235595   1.403   4.011   8.511  0.1056 -0.0360 -1.5190
 7987SOL     OW35596   4.018   1.267   6.760 -0.0973  1.0618  0.7446
 7987SOL    HW135597   4.058   1.222   6.685 -0.8385  0.5142  0.6758
 7987SOL    HW235598   3.968   1.198   6.805 -0.1762  0.1900 -0.6421
 7988SOL     OW35599   4.530   0.653  11.923  0.6704 -0.0243 -0.3333
 7988SOL    HW135600   4.582   0.578  11.950  0.1237 -0.3226 -0.1110
 7988SOL    HW235601   4.445   0.609  11.932  0.4272  0.5565  0.2320
 7989SOL     OW35602   3.253   2.394   2.766 -0.6446 -0.1217 -0.0466
 7989SOL    HW135603   3.336   2.352   2.743 -0.0394  0.5352  0.9634
 7989SOL    HW235604   3.185   2.325   2.761  0.4869 -1.1590 -1.2022
 7990SOL     OW35605   2.414   3.577  13.114  0.3657  0.0648  0.5004
 7990SOL    HW135606   2.432   3.671  13.122  1.8061 -0.4175  2.8177
 7990SOL    HW235607   2.427   3.562  13.021 -0.4429  1.1702  0.2074
 7991SOL     OW35608   3.329   0.553   9.015 -0.7200 -0.2143 -0.0535
 7991SOL    HW135609   3.340   0.639   8.975  0.3336  0.0141  0.7443
 7991SOL    HW235610   3.251   0.568   9.068 -0.9129 -1.0162 -0.1125
 7992SOL     OW35611   2.916   2.322   6.541 -0.2036 -0.0463  0.3941
 7992SOL    HW135612   2.899   2.243   6.491  1.9171 -1.2345  1.5920
 7992SOL    HW235613   2.974   2.359   6.475 -1.1986  2.0215  0.6643
 7993SOL     OW35614   2.330   2.711   7.914  0.1620 -0.0710  0.0819
 7993SOL    HW135615   2.381   2.735   7.836 -1.5638 -0.7431 -1.2488
 7993SOL    HW235616   2.347   2.788   7.968  0.5806  0.3565 -0.6543
 7994SOL     OW35617   4.179   1.884   5.103  0.0394  0.4868  0.4330
 7994SOL    HW135618   4.124   1.927   5.037 -0.4579 -1.0113 -0.1365
 7994SOL    HW235619   4.132   1.919   5.179  0.1838  0.0707  0.7131
 7995SOL     OW35620   3.510   2.915   8.646  0.1631 -0.3939 -0.2847
 7995SOL    HW135621   3.425   2.893   8.608 -0.3478 -1.9629  1.7356
 7995SOL    HW235622   3.514   3.009   8.629 -3.4305  0.2961  2.6495
 7996SOL     OW35623   1.904   1.373  15.229  0.4023  0.0043 -0.6364
 7996SOL    HW135624   1.896   1.432  15.303  0.0049  0.4332 -1.0228
 7996SOL    HW235625   1.948   1.297  15.268  3.0656  0.2209 -3.2154
 7997SOL     OW35626   0.808   2.279   9.761 -0.0038  0.0879  0.0466
 7997SOL    HW135627   0.900   2.305   9.760  0.1938 -0.5991  0.6868
 7997SOL    HW235628   0.814   2.210   9.827 -2.9558 -0.9227 -0.7614
 7998SOL     OW35629   1.158   2.574   1.743 -0.1817  0.4428  0.3928
 7998SOL    HW135630   1.175   2.665   1.765  1.0368  0.4502 -0.5563
 7998SOL    HW235631   1.065   2.566   1.762 -0.3057  0.6616 -0.1416
 7999SOL     OW35632   4.261   1.386   5.607  0.6256  0.3380 -0.4909
 7999SOL    HW135633   4.263   1.439   5.527  0.8938 -0.0553 -0.7490
 7999SOL    HW235634   4.261   1.457   5.671 -0.9894 -0.8171  0.7947
 8000SOL     OW35635   4.164   0.058   7.893 -0.4287  0.0223 -0.3614
 8000SOL    HW135636   4.160   0.015   7.808 -0.8498 -0.8347  0.0942
 8000SOL    HW235637   4.081   0.040   7.937 -0.7594  1.9326 -0.1951
 8001SOL     OW35638   3.301   1.357   4.519  0.3402 -0.2749  0.4285
 8001SOL    HW135639   3.233   1.348   4.453  2.2681 -0.2847 -1.5604
 8001SOL    HW235640   3.367   1.398   4.463  0.7331 -0.4339  0.7746
 8002SOL     OW35641   2.214   3.687   2.714  0.0494 -0.1904  0.6569
 8002SOL    HW135642   2.150   3.618   2.699  0.2459 -0.1003 -0.5249
 8002SOL    HW235643   2.169   3.750   2.771 -2.3065  1.4489 -3.0851
 8003SOL     OW35644   3.317   0.474   0.013  0.1328 -0.4374 -0.2983
 8003SOL    HW135645   3.366   0.545   0.056 -0.2710 -0.4769  0.2307
 8003SOL    HW235646   3.231   0.498   0.047  1.3455  1.5878  1.3447
 8004SOL     OW35647   0.029   3.408   5.069  0.1887  0.1619  0.4231
 8004SOL    HW135648   4.672   3.433   5.082  0.8701  3.4326 -1.1392
 8004SOL    HW235649   0.041   3.351   5.146  0.1402  0.5092  0.6874
 8005SOL     OW35650   3.156   4.434   6.391  0.4537  0.0671  0.6510
 8005SOL    HW135651   3.148   4.342   6.415 -0.4044 -0.0969 -0.2349
 8005SOL    HW235652   3.235   4.455   6.441  0.7850 -3.2859  1.5151
 8006SOL     OW35653   3.119   3.585  16.084 -0.2976  0.2529  0.2192
 8006SOL    HW135654   3.160   3.632  16.156  0.5910  1.5002 -1.1074
 8006SOL    HW235655   3.051   3.539  16.134 -0.1607 -0.3856 -0.1865
 8007SOL     OW35656   1.906   2.039   2.041 -0.2129  0.0973  0.1357
 8007SOL    HW135657   1.878   2.115   1.990 -2.2501 -0.4829  0.3785
 8007SOL    HW235658   1.848   2.046   2.117 -1.1746  0.3995 -0.6183
 8008SOL     OW35659   2.013   4.352  13.252  0.4212 -0.1218 -0.2592
 8008SOL    HW135660   2.089   4.311  13.211  0.7002  2.1755 -1.9997
 8008SOL    HW235661   1.975   4.268  13.280 -0.1337 -0.3174 -1.6049
 8009SOL     OW35662   1.795   3.612   5.831  0.5023  0.1968 -0.0856
 8009SOL    HW135663   1.765   3.535   5.783 -0.1693 -0.0288  0.6864
 8009SOL    HW235664   1.890   3.601   5.829  0.5129  0.3396 -0.4599
 8010SOL     OW35665   3.466   1.155   4.737 -0.2004  0.0906 -0.4605
 8010SOL    HW135666   3.508   1.076   4.772  0.8416 -0.2790 -2.5595
 8010SOL    HW235667   3.534   1.222   4.743  0.1691 -0.4489  1.4903
 8011SOL     OW35668   1.180   3.832   8.865  0.1348  0.2924 -0.9001
 8011SOL    HW135669   1.264   3.865   8.894  0.2101  2.3035 -3.3612
 8011SOL    HW235670   1.205   3.748   8.826  1.3928  0.2142  0.1058
 8012SOL     OW35671   1.982   0.185   6.898  0.3932  0.0879 -0.0404
 8012SOL    HW135672   1.927   0.108   6.916  2.2668 -0.7800  2.0165
 8012SOL    HW235673   1.944   0.241   6.965  0.0109  1.6076 -1.5333
 8013SOL     OW35674   4.307   0.199   8.449  0.2287 -0.1468  0.1171
 8013SOL    HW135675   4.313   0.289   8.418 -3.0065 -0.0708 -0.2185
 8013SOL    HW235676   4.240   0.161   8.392 -0.8187  0.5855  0.8576
 8014SOL     OW35677   0.043   1.163  15.449 -0.6220  0.1784 -0.1245
 8014SOL    HW135678   4.694   1.125  15.426  0.1765 -1.2113 -0.7710
 8014SOL    HW235679   0.076   1.209  15.372 -0.6994 -0.8723 -0.7918
 8015SOL     OW35680   4.528   1.541   6.171  0.2339 -0.4707 -0.3133
 8015SOL    HW135681   4.475   1.580   6.241  0.4589  0.2080 -0.5240
 8015SOL    HW235682   4.613   1.536   6.215  0.4638  0.4579 -0.6425
 8016SOL     OW35683   3.687   2.229   8.200  0.4152  0.0918 -0.0657
 8016SOL    HW135684   3.682   2.173   8.277  2.3591  1.0012  0.7305
 8016SOL    HW235685   3.758   2.289   8.224  1.6124 -0.7235 -1.5315
 8017SOL     OW35686   2.822   3.932   9.098  0.2841 -0.0984 -0.0795
 8017SOL    HW135687   2.743   3.947   9.150 -0.5461  1.5773 -1.8270
 8017SOL    HW235688   2.869   3.872   9.156  0.6480  0.7863  0.5558
 8018SOL     OW35689   3.361   1.756  17.462  0.4372 -0.0457  0.2462
 8018SOL    HW135690   3.301   1.760  17.537 -0.4718 -1.2722 -0.4234
 8018SOL    HW235691   3.425   1.816  17.501 -2.5168  3.5112 -0.4331
 8019SOL     OW35692   4.191   4.485   3.334 -0.3216  0.6575 -0.3247
 8019SOL    HW135693   4.228   4.400   3.359 -1.1689  0.1808 -0.7067
 8019SOL    HW235694   4.259   4.544   3.367  1.7603 -1.2670 -1.1035
 8020SOL     OW35695   2.833   2.574  15.064 -0.5849  0.5756 -0.0859
 8020SOL    HW135696   2.760   2.515  15.045 -1.3502  1.2304  0.8090
 8020SOL    HW235697   2.892   2.504  15.092 -1.6355 -0.5124 -0.5719
 8021SOL     OW35698   2.769   4.422   4.250 -0.1677  0.4239  0.1583
 8021SOL    HW135699   2.838   4.414   4.184 -1.5954  2.2723 -1.5311
 8021SOL    HW235700   2.737   4.503   4.210 -1.0406 -0.6421 -1.2652
 8022SOL     OW35701   1.148   3.547  10.358  0.0811  0.7745 -0.3274
 8022SOL    HW135702   1.173   3.558  10.450 -2.0919  0.4872  0.2910
 8022SOL    HW235703   1.058   3.577  10.371  0.5988  2.0289  0.3304
 8023SOL     OW35704   0.693   2.676   6.322 -0.3013 -0.1020  0.2009
 8023SOL    HW135705   0.746   2.658   6.244  0.3201  0.8349  0.4168
 8023SOL    HW235706   0.609   2.638   6.295  0.6096 -2.5096  0.7921
 8024SOL     OW35707   1.319   2.927  11.921  0.4675 -0.1087  0.1554
 8024SOL    HW135708   1.349   2.922  12.011  1.0585  3.4653  0.1788
 8024SOL    HW235709   1.335   2.838  11.891 -1.0491 -0.6000  0.7808
 8025SOL     OW35710   2.824   3.020   5.364 -0.0209 -0.3377  0.0351
 8025SOL    HW135711   2.838   2.961   5.438  3.4507  0.8171  0.2968
 8025SOL    HW235712   2.845   2.959   5.294 -1.0986  1.0307 -1.4904
 8026SOL     OW35713   2.354   4.139   8.055  0.4395 -0.0458  0.0471
 8026SOL    HW135714   2.277   4.183   8.089 -1.2737 -1.0583 -2.5280
 8026SOL    HW235715   2.418   4.210   8.058  2.2323 -1.5722 -1.8980
 8027SOL     OW35716   4.377   3.934   7.628 -0.1212 -0.5953  0.3190
 8027SOL    HW135717   4.411   3.846   7.643  1.6543  0.3248  1.6879
 8027SOL    HW235718   4.366   3.944   7.534 -2.4494  2.6183  0.9188
 8028SOL     OW35719   3.411   3.300  13.897  0.7699  0.1364 -0.6631
 8028SOL    HW135720   3.475   3.232  13.876 -0.3015 -0.2716 -2.5122
 8028SOL    HW235721   3.331   3.251  13.880  0.7222  0.1949 -0.6072
 8029SOL     OW35722   3.929   4.051  11.952  0.3223 -0.4042  0.2955
 8029SOL    HW135723   3.964   4.136  11.980  0.9255 -1.3749  2.5410
 8029SOL    HW235724   3.950   4.064  11.860 -1.1807  0.1586  0.0240
 8030SOL     OW35725   2.932   4.675   5.515  0.1586 -0.9688  0.0916
 8030SOL    HW135726   2.932   4.664   5.420 -1.1144  0.5320 -0.0697
 8030SOL    HW235727   3.024   4.659   5.537 -0.0371  0.6712  2.0748
 8031SOL     OW35728   0.694   1.044  16.670 -0.2224  0.0853 -0.0275
 8031SOL    HW135729   0.730   1.101  16.602  0.0820  0.4973  0.4871
 8031SOL    HW235730   0.643   0.979  16.620  1.8412  0.0396 -2.0655
 8032SOL     OW35731   4.178   3.464   8.549  0.1348 -0.2891  0.2227
 8032SOL    HW135732   4.210   3.447   8.637 -1.9075  1.5247  1.3231
 8032SOL    HW235733   4.262   3.469   8.503 -1.1538 -2.4443 -2.3448
 8033SOL     OW35734   1.775   4.453   4.960  0.2445 -0.5239 -0.4684
 8033SOL    HW135735   1.791   4.532   5.011 -2.3866  1.3167 -2.4978
 8033SOL    HW235736   1.791   4.389   5.030 -0.6876  0.4183  0.6002
 8034SOL     OW35737   3.052   0.572   0.474  0.1328  0.4151  0.1103
 8034SOL    HW135738   3.017   0.550   0.561 -1.1366  0.0735 -0.4905
 8034SOL    HW235739   3.055   0.484   0.436  0.3228  0.5382 -0.1535
 8035SOL     OW35740   3.704   2.742  14.216  0.5124  0.1059 -0.5159
 8035SOL    HW135741   3.627   2.783  14.178  1.7980  3.4681  0.5083
 8035SOL    HW235742   3.657   2.698  14.287 -0.7115 -0.9473 -1.9844
 8036SOL     OW35743   2.269   0.985  16.928 -0.3459  0.0992 -0.3285
 8036SOL    HW135744   2.196   0.943  16.973 -0.8441  2.3053  0.9409
 8036SOL    HW235745   2.239   1.005  16.840 -0.6747 -0.7021 -0.3971
 8037SOL     OW35746   1.602   1.258   5.670  0.0065 -0.3274  0.4867
 8037SOL    HW135747   1.544   1.181   5.667 -0.8104  0.2911  0.3374
 8037SOL    HW235748   1.589   1.284   5.761 -0.0296 -0.9781  0.6690
 8038SOL     OW35749   1.738   2.318   6.300 -0.0823 -0.0494  0.1135
 8038SOL    HW135750   1.643   2.332   6.302 -0.5433 -3.0049 -1.0140
 8038SOL    HW235751   1.761   2.320   6.393  1.1786  2.2857 -0.2511
 8039SOL     OW35752   3.576   3.253  14.859  0.1030  0.2702 -0.2280
 8039SOL    HW135753   3.626   3.256  14.777  1.2390  2.1042  0.5284
 8039SOL    HW235754   3.644   3.236  14.923 -0.0561 -1.1643 -0.4402
 8040SOL     OW35755   0.771   3.666   4.486  0.0829  0.2804  0.8196
 8040SOL    HW135756   0.694   3.680   4.431 -0.2611 -0.2627  1.1565
 8040SOL    HW235757   0.799   3.756   4.497  0.0331  0.8180 -3.4287
 8041SOL     OW35758   1.140   4.688   0.180  0.6696  0.4614  0.2036
 8041SOL    HW135759   1.140   4.732   0.265  0.8283 -0.7601  0.8257
 8041SOL    HW235760   1.073   4.621   0.190  1.3008 -0.8562 -4.2153
 8042SOL     OW35761   4.243   3.153  14.084  0.3508 -0.2428 -0.1114
 8042SOL    HW135762   4.150   3.151  14.061  0.5565  1.2631 -1.0625
 8042SOL    HW235763   4.266   3.074  14.035  0.1584 -1.4201  1.7038
 8043SOL     OW35764   3.664   4.189  13.437  0.2563 -0.8195  0.1135
 8043SOL    HW135765   3.748   4.233  13.431 -1.0459  1.4583 -1.6288
 8043SOL    HW235766   3.602   4.255  13.405  0.3897 -0.7780 -0.0527
 8044SOL     OW35767   3.223   2.982   6.739  0.3088  0.2685 -0.3204
 8044SOL    HW135768   3.270   2.955   6.660  0.6912  0.3372 -0.1179
 8044SOL    HW235769   3.295   2.979   6.803 -0.4862  1.5398  0.6396
 8045SOL     OW35770   1.118   3.040   4.952  0.3557  0.3374  0.4821
 8045SOL    HW135771   1.046   3.073   4.898  1.1950  1.0842 -0.1739
 8045SOL    HW235772   1.183   3.104   4.923 -0.8752  2.2974  2.0753
 8046SOL     OW35773   2.357   0.806   6.321 -0.3559  0.4389  0.5400
 8046SOL    HW135774   2.270   0.771   6.339 -0.9501  0.1667 -2.8096
 8046SOL    HW235775   2.404   0.738   6.369  0.7410  0.1762 -0.8826
 8047SOL     OW35776   3.641   2.046  16.787  0.5425 -0.4754  0.2959
 8047SOL    HW135777   3.709   2.113  16.787 -0.4297  0.4988 -1.6220
 8047SOL    HW235778   3.633   2.032  16.882 -1.4582  0.6423  0.2912
 8048SOL     OW35779   2.774   2.152   3.979 -0.3611 -0.1382  0.0660
 8048SOL    HW135780   2.692   2.200   3.991 -1.0918 -1.5879  0.8536
 8048SOL    HW235781   2.818   2.196   3.907  0.6246 -0.3882  0.5035
 8049SOL     OW35782   3.935   3.675  17.736 -0.1221  0.8904  0.3053
 8049SOL    HW135783   3.913   3.657  17.645  0.2732 -0.5722  0.5067
 8049SOL    HW235784   3.956   3.589   0.034  3.4188  1.4492 -0.4147
 8050SOL     OW35785   0.748   3.343   4.975 -0.0748  0.1062 -0.2184
 8050SOL    HW135786   0.763   3.359   5.068 -1.6511 -2.0417  0.4074
 8050SOL    HW235787   0.675   3.404   4.963 -0.1189  0.2571  0.8700
 8051SOL     OW35788   1.811   2.840   1.453 -0.2065 -0.2331 -0.1276
 8051SOL    HW135789   1.791   2.922   1.499  0.1169  0.0887 -0.5607
 8051SOL    HW235790   1.877   2.868   1.390  0.6364 -0.3903  0.6923
 8052SOL     OW35791   0.143   3.470   4.510  0.1575 -0.3072  0.2403
 8052SOL    HW135792   0.230   3.442   4.479 -0.3804  0.1623 -1.7010
 8052SOL    HW235793   0.134   3.438   4.600 -1.9542 -0.2839  0.0360
 8053SOL     OW35794   4.436   0.227  11.021  0.3021  0.0567 -0.0898
 8053SOL    HW135795   4.405   0.164  10.957  1.0451  0.6757 -1.0505
 8053SOL    HW235796   4.407   0.181  11.100  0.3722  1.8160  0.9680
 8054SOL     OW35797   2.725   1.323   8.832 -0.3393 -0.2633 -0.1835
 8054SOL    HW135798   2.732   1.233   8.863  0.9015 -0.3747 -0.7827
 8054SOL    HW235799   2.638   1.339   8.869  1.2071 -0.4616  3.5523
 8055SOL     OW35800   1.736   4.355   3.420  0.0742 -0.2042 -0.5424
 8055SOL    HW135801   1.794   4.424   3.450 -0.0680  0.0147 -0.7718
 8055SOL    HW235802   1.715   4.315   3.505 -2.1635  1.2267 -0.4146
 8056SOL     OW35803   4.576   3.571  17.253 -0.0865  0.0734 -0.4179
 8056SOL    HW135804   4.570   3.600  17.162  0.8721 -0.2761 -0.5821
 8056SOL    HW235805   4.644   3.634  17.277  1.7478 -1.0232 -2.7947
 8057SOL     OW35806   4.706   0.676   7.405  0.1653  0.1501  0.4684
 8057SOL    HW135807   4.703   0.718   7.491  1.3242  0.6224  0.2841
 8057SOL    HW235808   0.037   0.729   7.360 -0.7151  0.3185 -0.6248
 8058SOL     OW35809   1.880   4.370   6.741  0.2713  0.5517 -0.0852
 8058SOL    HW135810   1.957   4.408   6.698 -0.5721 -0.2398 -2.3205
 8058SOL    HW235811   1.916   4.285   6.764 -1.3912 -0.3635 -0.8180
 8059SOL     OW35812   4.495   0.397   5.339  0.3027  0.3565  0.2272
 8059SOL    HW135813   4.418   0.340   5.347  0.7518 -0.3934 -0.7751
 8059SOL    HW235814   4.489   0.411   5.245 -0.0620  0.2322  0.2280
 8060SOL     OW35815   3.567   1.652  12.954  0.2103  0.1861 -0.0085
 8060SOL    HW135816   3.498   1.611  13.007 -2.0147  2.0837 -1.4313
 8060SOL    HW235817   3.633   1.583  12.964 -1.0071 -0.6935  1.9414
 8061SOL     OW35818   4.220   0.793   4.927 -0.1683  0.0068 -0.3653
 8061SOL    HW135819   4.165   0.859   4.884 -0.7932  0.5335  1.2707
 8061SOL    HW235820   4.193   0.712   4.883  0.0225 -0.2972  0.0838
 8062SOL     OW35821   3.031   0.540   7.758 -0.0027  0.3282  0.5452
 8062SOL    HW135822   3.090   0.469   7.781 -2.6366 -2.3003 -0.8473
 8062SOL    HW235823   3.091   0.581   7.694 -0.4795 -0.1164 -0.1878
 8063SOL     OW35824   4.696   2.510   7.706 -0.5430 -0.0429 -0.0366
 8063SOL    HW135825   4.661   2.437   7.654  0.5362  1.2890 -2.6724
 8063SOL    HW235826   4.678   2.479   7.794 -2.2780 -0.4206 -0.5193
 8064SOL     OW35827   3.180   0.029   5.797 -0.1406  0.0356 -0.2274
 8064SOL    HW135828   3.130   0.100   5.759  0.0364  0.7615  0.8930
 8064SOL    HW235829   3.225   4.732   5.719  0.6650  1.0181 -0.1701
 8065SOL     OW35830   1.838   3.250   5.275 -0.4826  0.5902  0.9992
 8065SOL    HW135831   1.889   3.284   5.348  1.6343 -1.1971  0.3566
 8065SOL    HW235832   1.864   3.158   5.272 -3.1887 -0.1337 -0.2310
 8066SOL     OW35833   1.068   3.104  12.688  0.5028 -0.4535  0.0410
 8066SOL    HW135834   1.089   3.117  12.596 -0.5271 -0.1668 -0.1561
 8066SOL    HW235835   1.108   3.178  12.734  1.5097 -2.1327  1.8269
 8067SOL     OW35836   2.842   1.345  14.999 -0.3559 -0.3465  0.1791
 8067SOL    HW135837   2.801   1.428  15.026  0.4968  0.7763 -1.9964
 8067SOL    HW235838   2.839   1.308  15.088  0.1582 -3.7134 -1.2116
 8068SOL     OW35839   3.655   2.529   2.077  0.2267 -0.7270  0.0417
 8068SOL    HW135840   3.605   2.507   1.998  1.1374  0.5209 -0.8735
 8068SOL    HW235841   3.683   2.440   2.099 -0.7803 -1.7153 -2.6343
 8069SOL     OW35842   2.117   2.840  10.228  0.4856  0.2962  0.3965
 8069SOL    HW135843   2.085   2.925  10.198  0.5585  0.4654  0.7959
 8069SOL    HW235844   2.037   2.788  10.215  0.2748  0.3454  1.5282
 8070SOL     OW35845   2.040   3.380   9.264  0.3032 -0.6924 -0.4571
 8070SOL    HW135846   2.031   3.434   9.185  2.3521 -0.3991 -0.4873
 8070SOL    HW235847   2.008   3.296   9.231  0.6303 -0.3286 -1.6861
 8071SOL     OW35848   4.725   1.253  12.579 -0.0232  0.5556 -0.4120
 8071SOL    HW135849   4.722   1.246  12.483 -0.3513 -0.4946 -0.3264
 8071SOL    HW235850   0.080   1.232  12.602  0.0202  1.0947 -0.0853
 8072SOL     OW35851   1.776   0.010   7.150 -0.2164 -0.1628  0.1483
 8072SOL    HW135852   1.870   4.733   7.165 -0.4728 -1.3395  0.8462
 8072SOL    HW235853   1.747   4.655   7.165 -0.7435  0.1235  0.8181
 8073SOL     OW35854   2.477   1.542   5.483  0.2681  0.2181 -0.2906
 8073SOL    HW135855   2.394   1.549   5.437  0.2678 -3.4758 -0.8361
 8073SOL    HW235856   2.480   1.447   5.486 -2.6729  0.0797 -1.8667
 8074SOL     OW35857   2.332   3.528  15.671 -0.5264 -0.1901  0.0314
 8074SOL    HW135858   2.354   3.437  15.653  2.5202  0.5965 -0.2839
 8074SOL    HW235859   2.398   3.573  15.618  1.8489 -0.5217  2.6818
 8075SOL     OW35860   3.087   1.163  15.580  0.2958 -0.0329  0.2792
 8075SOL    HW135861   3.090   1.067  15.574 -2.6465 -0.1016  0.0411
 8075SOL    HW235862   3.144   1.191  15.509 -0.4076  3.0542  0.9292
 8076SOL     OW35863   4.716   4.383   7.919  0.1046  0.1251  0.4845
 8076SOL    HW135864   0.036   4.317   7.960  0.0880  1.4003  2.5498
 8076SOL    HW235865   4.690   4.428   7.999 -3.0849  3.8141 -2.5733
 8077SOL     OW35866   2.478   3.968   3.488 -0.6648  0.0762  0.4013
 8077SOL    HW135867   2.421   3.923   3.426 -0.5037 -1.1097  1.1097
 8077SOL    HW235868   2.553   3.968   3.429  0.1970  1.3062  1.4980
 8078SOL     OW35869   1.333   2.231  17.042 -0.3771  0.5707  0.3141
 8078SOL    HW135870   1.299   2.243  17.131  1.7906 -1.6633  1.4304
 8078SOL    HW235871   1.258   2.240  16.983 -0.5287 -1.4316  0.1964
 8079SOL     OW35872   1.207   2.309   8.029 -0.2935  0.8179 -0.6011
 8079SOL    HW135873   1.195   2.216   8.007 -1.1165  0.6471  0.5863
 8079SOL    HW235874   1.155   2.347   7.958 -0.7866  0.1936 -0.5732
 8080SOL     OW35875   4.656   3.387  12.863 -0.0195 -0.2835  0.5611
 8080SOL    HW135876   4.617   3.400  12.949 -0.7784  0.2537  0.1400
 8080SOL    HW235877   4.662   3.292  12.858 -1.5494 -0.2261 -2.4041
 8081SOL     OW35878   1.769   2.314   0.510  0.3284  0.4341 -0.4861
 8081SOL    HW135879   1.826   2.301   0.586 -0.4440 -2.6444 -0.4270
 8081SOL    HW235880   1.787   2.223   0.488 -0.8207  0.3989 -1.2674
 8082SOL     OW35881   4.550   4.593  15.349  0.2036 -0.1333  0.1014
 8082SOL    HW135882   4.483   4.541  15.394  0.7953  0.5745  1.7945
 8082SOL    HW235883   4.514   4.598  15.261  2.7078 -0.2218 -0.9121
 8083SOL     OW35884   1.414   0.212  16.267 -0.4681 -0.0081  0.3526
 8083SOL    HW135885   1.494   0.208  16.215  0.3758  0.2082  1.6214
 8083SOL    HW235886   1.350   0.244  16.204  0.1839  1.3821  0.4106
 8084SOL     OW35887   4.103   2.631   4.648  0.2531  0.1367 -0.5076
 8084SOL    HW135888   4.040   2.615   4.578  0.2043  2.4427 -0.9921
 8084SOL    HW235889   4.163   2.692   4.605  0.2698 -0.4719 -1.3557
 8085SOL     OW35890   1.034   2.092   6.468  0.2883 -0.5669 -0.2795
 8085SOL    HW135891   0.999   2.015   6.512 -0.2266 -0.6981 -0.9237
 8085SOL    HW235892   1.100   2.120   6.531  0.9328 -0.3707 -1.0333
 8086SOL     OW35893   4.599   1.952   0.483  0.0386  0.0429 -0.1640
 8086SOL    HW135894   4.648   1.987   0.557  0.9580 -1.3681 -0.0903
 8086SOL    HW235895   4.586   2.030   0.430 -0.2401  0.0975 -0.0101
 8087SOL     OW35896   0.875   2.695   7.204  0.0258 -0.5225  0.0131
 8087SOL    HW135897   0.845   2.776   7.246  1.0243  0.6344 -1.5058
 8087SOL    HW235898   0.814   2.630   7.239 -0.0998 -1.3520 -1.7697
 8088SOL     OW35899   3.068   0.196  10.600 -0.5122  0.5703 -0.1257
 8088SOL    HW135900   3.083   0.259  10.530  3.1647 -0.1502  0.0305
 8088SOL    HW235901   3.153   0.151  10.600 -1.3725 -1.0807  0.8704
 8089SOL     OW35902   3.708   0.532   3.794  0.4249 -0.0271  0.1484
 8089SOL    HW135903   3.783   0.571   3.748  1.2853  0.6753  2.1355
 8089SOL    HW235904   3.747   0.489   3.870 -0.0730 -0.9120 -0.1017
 8090SOL     OW35905   2.965   3.493   1.604  0.0476 -0.4069  0.8487
 8090SOL    HW135906   2.916   3.521   1.527 -0.5901 -0.9011  1.0795
 8090SOL    HW235907   3.014   3.572   1.626  1.3068 -0.6097 -1.2707
 8091SOL     OW35908   1.096   2.060  14.778  0.4551 -0.1057  0.1302
 8091SOL    HW135909   1.058   2.072  14.691 -0.0967 -0.6037  0.3011
 8091SOL    HW235910   1.020   2.071  14.835  1.1498 -0.0740  1.0540
 8092SOL     OW35911   3.940   0.915   6.381 -0.6967 -0.3730 -0.3193
 8092SOL    HW135912   3.918   0.833   6.338 -0.8969 -1.2900  1.5678
 8092SOL    HW235913   3.864   0.933   6.437 -0.7109 -2.0569  0.1759
 8093SOL     OW35914   2.015   0.604   1.495  0.0228 -0.6755  0.5198
 8093SOL    HW135915   2.055   0.646   1.418  0.6463 -0.0457  1.1858
 8093SOL    HW235916   2.087   0.608   1.558  0.8553  2.4231 -0.6068
 8094SOL     OW35917   0.883   3.622   5.413  0.7153 -0.6760 -0.3634
 8094SOL    HW135918   0.789   3.604   5.414  0.2611  1.6613 -0.0265
 8094SOL    HW235919   0.888   3.698   5.470 -0.4497 -0.6210 -0.3219
 8095SOL     OW35920   3.716   0.457  16.776 -0.2394  0.6820  0.1398
 8095SOL    HW135921   3.649   0.495  16.833  1.5144  1.0105  2.0144
 8095SOL    HW235922   3.783   0.446  16.844  1.8761 -0.0983 -2.0791
 8096SOL     OW35923   0.414   0.225   4.040  0.1904 -0.2250 -0.0659
 8096SOL    HW135924   0.351   0.201   3.972 -0.2122  0.4399  0.0747
 8096SOL    HW235925   0.449   0.142   4.071 -2.3755 -1.1740  0.2965
 8097SOL     OW35926   2.028   3.236   8.965 -0.1073  0.3919  0.2831
 8097SOL    HW135927   1.985   3.242   8.880 -2.4552  2.9280  1.6650
 8097SOL    HW235928   1.957   3.223   9.027 -1.4922  0.7275 -1.2233
 8098SOL     OW35929   0.875   0.687   9.306  0.6502 -0.1403 -0.4881
 8098SOL    HW135930   0.843   0.748   9.239  3.0228 -0.4202 -1.8766
 8098SOL    HW235931   0.904   0.748   9.374 -2.0205  0.1229  0.3909
 8099SOL     OW35932   3.557   1.031  12.753  0.8973  0.1440 -0.2603
 8099SOL    HW135933   3.557   1.125  12.775  1.8202  0.2455 -0.6745
 8099SOL    HW235934   3.534   1.040  12.661  0.0502  0.1941 -0.0445
 8100SOL     OW35935   0.382   3.240   5.187  0.2242  0.1026  0.0998
 8100SOL    HW135936   0.304   3.213   5.236  0.9291  0.8213  1.5812
 8100SOL    HW235937   0.356   3.207   5.100 -0.5138  0.5822  0.1318
 8101SOL     OW35938   2.940   1.781   9.585  0.3915  0.0392 -0.3379
 8101SOL    HW135939   2.990   1.702   9.566 -0.1763 -0.4516  0.2244
 8101SOL    HW235940   2.967   1.825   9.665 -0.9214  0.1565  0.0363
 8102SOL     OW35941   1.726   0.758   1.999  0.4393 -0.2696 -0.0138
 8102SOL    HW135942   1.713   0.664   1.987 -1.2533  0.2925 -2.5750
 8102SOL    HW235943   1.765   0.752   2.086  1.8423  1.5352 -0.5157
 8103SOL     OW35944   2.589   1.979  13.175  0.4205  0.0365  0.3183
 8103SOL    HW135945   2.516   2.024  13.132 -1.0338 -1.6119  1.0180
 8103SOL    HW235946   2.535   1.901  13.191  1.0471 -1.0708 -2.9172
 8104SOL     OW35947   4.165   3.653   2.812 -0.1603  0.1840  0.4547
 8104SOL    HW135948   4.236   3.701   2.767 -0.0350  0.6973  1.2020
 8104SOL    HW235949   4.143   3.719   2.878  2.0369  0.0127  1.3511
 8105SOL     OW35950   2.778   3.276   7.715 -0.2103  0.1947 -0.4878
 8105SOL    HW135951   2.730   3.351   7.749  1.5644  1.1843 -0.1437
 8105SOL    HW235952   2.830   3.258   7.794 -0.5718  3.3981  0.4880
 8106SOL     OW35953   0.548   3.389   8.678  0.0764  0.2989 -0.5022
 8106SOL    HW135954   0.531   3.476   8.642 -2.7677 -0.3001 -0.5478
 8106SOL    HW235955   0.496   3.391   8.758 -0.0834  1.1372 -0.6175
 8107SOL     OW35956   0.823   0.173   2.948 -0.0364  0.0196  0.2043
 8107SOL    HW135957   0.795   0.253   2.994  2.2495  0.6445  0.4802
 8107SOL    HW235958   0.857   0.123   3.021  0.0344  1.3921  1.1146
 8108SOL     OW35959   1.699   2.541  12.365  0.4947  0.5006 -0.1731
 8108SOL    HW135960   1.734   2.476  12.426 -0.5553  0.9408  0.8889
 8108SOL    HW235961   1.742   2.621  12.396  1.2403 -0.3506  1.0040
 8109SOL     OW35962   2.537   0.844   7.501 -0.0057  0.4999 -0.1947
 8109SOL    HW135963   2.545   0.904   7.428 -1.6824  1.5261  0.4569
 8109SOL    HW235964   2.476   0.776   7.472 -0.1780  0.2197  0.8054
 8110SOL     OW35965   3.905   0.468   3.268 -0.0521 -0.4198  0.0013
 8110SOL    HW135966   3.817   0.437   3.248 -1.1238  2.7505 -0.2796
 8110SOL    HW235967   3.923   0.527   3.195 -0.1604 -0.8801 -0.3896
 8111SOL     OW35968   1.590   4.034   9.690 -0.8568 -0.1759  0.0034
 8111SOL    HW135969   1.496   4.050   9.695 -0.4155  1.4902  2.8520
 8111SOL    HW235970   1.620   4.027   9.780 -2.6551  0.4130  0.6467
 8112SOL     OW35971   3.088   1.263  13.965 -0.4482 -0.0168  0.3304
 8112SOL    HW135972   3.170   1.226  13.933 -1.2043 -0.7968 -0.7034
 8112SOL    HW235973   3.104   1.252  14.059 -1.2383 -0.1218  0.4566
 8113SOL     OW35974   4.033   0.036   5.617  1.0275 -0.0823 -0.1429
 8113SOL    HW135975   4.126   0.021   5.633  0.9692 -1.7739 -1.5111
 8113SOL    HW235976   4.007   0.095   5.688 -1.2093 -1.5111  0.2148
 8114SOL     OW35977   3.641   2.868   6.796 -0.7184 -0.5672 -0.2875
 8114SOL    HW135978   3.547   2.851   6.808 -1.0877  1.3296 -0.5280
 8114SOL    HW235979   3.681   2.796   6.748  2.0285  1.0584 -0.4161
 8115SOL     OW35980   0.765   1.174   5.932 -0.5749  0.3381 -0.2185
 8115SOL    HW135981   0.705   1.100   5.940 -0.3361 -0.1416 -2.6706
 8115SOL    HW235982   0.761   1.195   5.838 -0.1166  2.4581  0.2484
 8116SOL     OW35983   4.409   0.889   1.095  0.2109  0.0354 -0.3518
 8116SOL    HW135984   4.477   0.823   1.109 -3.0284 -2.8002  1.9772
 8116SOL    HW235985   4.426   0.953   1.165 -0.6051  1.1910 -1.2133
 8117SOL     OW35986   0.274   1.923  17.498  0.4786 -0.2070  0.4222
 8117SOL    HW135987   0.287   1.874  17.580  1.8755 -1.9362 -0.8417
 8117SOL    HW235988   0.237   2.009  17.516 -0.7580 -0.7950  0.6528
 8118SOL     OW35989   2.308   3.521   7.422  0.3679  0.0093  0.1105
 8118SOL    HW135990   2.272   3.553   7.339 -1.8610  2.2974  1.9536
 8118SOL    HW235991   2.398   3.553   7.429  0.7854 -0.9176 -1.0942
 8119SOL     OW35992   2.386   1.886   7.077 -0.4305  0.2959 -0.1876
 8119SOL    HW135993   2.435   1.805   7.061  1.3070  1.1985  0.5855
 8119SOL    HW235994   2.298   1.850   7.090  1.2620 -3.5629  0.6986
 8120SOL     OW35995   0.404   1.936   1.778 -0.3161 -0.1136  0.2472
 8120SOL    HW135996   0.338   2.003   1.794 -0.3595 -0.1548  0.2397
 8120SOL    HW235997   0.476   1.995   1.755  0.6380 -1.0155  0.8921
 8121SOL     OW35998   0.532   4.700  12.499 -0.5120 -0.6249  0.4991
 8121SOL    HW135999   0.566   4.730  12.583  1.4614 -1.1001 -0.1247
 8121SOL    HW236000   0.555   0.039  12.444  0.1647  0.1906  1.8821
 8122SOL     OW36001   3.271   2.955  16.662  0.2670 -0.3339  0.0363
 8122SOL    HW136002   3.337   2.887  16.676  1.2813  0.6285 -0.1554
 8122SOL    HW236003   3.306   3.009  16.591 -1.0602  1.2670  0.5945
 8123SOL     OW36004   4.399   1.365   1.363 -1.0192 -0.1901  0.0741
 8123SOL    HW136005   4.448   1.306   1.420  1.0497 -0.4360 -1.9414
 8123SOL    HW236006   4.353   1.417   1.430 -0.8446 -0.8891  0.7367
 8124SOL     OW36007   2.544   3.192   7.453 -0.1832  0.2340  0.1171
 8124SOL    HW136008   2.631   3.158   7.433 -0.5927 -0.6082 -0.2156
 8124SOL    HW236009   2.532   3.140   7.533  0.5524 -0.5162 -0.2599
 8125SOL     OW36010   3.013   3.838   4.176  0.0307 -0.9940 -0.1850
 8125SOL    HW136011   3.010   3.848   4.272 -1.8688  1.3747 -0.4896
 8125SOL    HW236012   2.981   3.924   4.149 -1.8631 -0.8463  2.4883
 8126SOL     OW36013   2.753   0.787   2.105 -0.0079  0.1552  0.2101
 8126SOL    HW136014   2.695   0.715   2.128 -0.7520  1.0489  1.1161
 8126SOL    HW236015   2.715   0.824   2.025 -0.1314  0.6879  0.5163
 8127SOL     OW36016   0.244   4.576   7.122 -0.4526 -0.5009  0.3764
 8127SOL    HW136017   0.336   4.562   7.143  0.9103 -0.0473 -5.2357
 8127SOL    HW236018   0.244   4.533   7.036 -0.6087 -0.1779  0.2155
 8128SOL     OW36019   3.347   0.506  15.581 -0.2990  0.9524 -0.0471
 8128SOL    HW136020   3.270   0.478  15.630  1.4653 -3.7552  0.0943
 8128SOL    HW236021   3.331   0.462  15.497 -1.8816  0.5245  0.4938
 8129SOL     OW36022   3.660   1.497   7.927  0.3750 -0.4919 -0.1490
 8129SOL    HW136023   3.572   1.492   7.964  1.4475 -1.3618  2.2891
 8129SOL    HW236024   3.708   1.553   7.988  0.6724  0.4742 -1.2923
 8130SOL     OW36025   2.658   3.634   6.579 -0.3015  0.5249 -0.2225
 8130SOL    HW136026   2.667   3.700   6.648  3.6156 -0.2952  0.0461
 8130SOL    HW236027   2.689   3.561   6.632  2.3721  1.1511 -0.8856
 8131SOL     OW36028   4.119   0.874   6.925 -0.3075 -0.0392 -0.5218
 8131SOL    HW136029   4.189   0.933   6.898  0.8846 -0.8056  0.8503
 8131SOL    HW236030   4.045   0.935   6.935 -1.6453 -1.1760 -3.4535
 8132SOL     OW36031   3.165   1.380   5.987  0.1739  0.0713 -0.5344
 8132SOL    HW136032   3.092   1.340   6.034 -0.6436  2.3005  0.0875
 8132SOL    HW236033   3.115   1.457   5.958 -0.4305  0.6490  2.0851
 8133SOL     OW36034   0.187   0.554   8.406  0.2069  0.0579 -0.0358
 8133SOL    HW136035   0.093   0.565   8.395  0.5226  1.1206 -1.6725
 8133SOL    HW236036   0.193   0.514   8.493  1.8284 -2.4501 -1.2952
 8134SOL     OW36037   0.072   1.711  17.626  0.2705  0.4784 -0.0238
 8134SOL    HW136038   0.062   1.709  17.530  2.4379  1.2384 -0.2565
 8134SOL    HW236039   0.163   1.731  17.645  0.7856 -1.9678  0.0114
 8135SOL     OW36040   0.605   0.390   7.107 -0.0862  0.3276 -0.0751
 8135SOL    HW136041   0.602   0.303   7.148 -2.9362 -0.2314 -1.4358
 8135SOL    HW236042   0.628   0.436   7.188  0.8650 -0.0481 -0.1242
 8136SOL     OW36043   0.923   4.681   4.363  0.1607 -0.6916 -0.4195
 8136SOL    HW136044   0.890   4.609   4.311  0.8669 -0.2740 -1.4511
 8136SOL    HW236045   1.018   4.671   4.374  0.4061  1.5321 -0.4530
 8137SOL     OW36046   2.903   1.145   6.682  0.4671  0.3581 -0.0222
 8137SOL    HW136047   2.809   1.138   6.663  0.1863  1.6101  0.8891
 8137SOL    HW236048   2.937   1.181   6.601 -0.9998 -0.1774 -0.8820
 8138SOL     OW36049   3.829   2.499  13.722 -0.3875 -0.0842  0.4423
 8138SOL    HW136050   3.817   2.464  13.634  1.3245  0.2119  0.0860
 8138SOL    HW236051   3.870   2.425  13.767 -0.6303  2.3027  4.5916
 8139SOL     OW36052   1.709   0.061   8.348 -0.3604  0.5351 -0.3079
 8139SOL    HW136053   1.761   4.716   8.347 -0.1996  0.6231  1.5552
 8139SOL    HW236054   1.744   0.113   8.420  0.4344 -2.3824  1.4143
 8140SOL     OW36055   1.025   3.865   7.983  0.2571 -0.7054  0.3569
 8140SOL    HW136056   1.029   3.871   8.079 -1.7588  0.8269  0.3356
 8140SOL    HW236057   1.048   3.953   7.952 -0.9928  0.0982  1.6719
 8141SOL     OW36058   3.658   0.882   6.789 -0.2258 -0.1213 -0.8786
 8141SOL    HW136059   3.711   0.811   6.825  0.5746 -0.5265 -2.8935
 8141SOL    HW236060   3.595   0.892   6.860  0.7399 -0.3551  0.0111
 8142SOL     OW36061   2.943   3.316   0.986  0.1346  0.1669 -0.5082
 8142SOL    HW136062   2.944   3.265   0.906  0.1972  1.1518 -1.1370
 8142SOL    HW236063   2.894   3.263   1.049  1.9849 -2.3466 -1.1935
 8143SOL     OW36064   1.216   1.956   8.782  0.2939 -0.1117 -0.0842
 8143SOL    HW136065   1.131   1.958   8.739  2.2111  0.8512 -3.8456
 8143SOL    HW236066   1.272   1.956   8.704 -0.3954  0.1525 -0.5719
 8144SOL     OW36067   3.450   1.079   6.567 -0.2209 -0.5699  0.1129
 8144SOL    HW136068   3.409   1.078   6.480  2.2075 -0.6912 -1.0513
 8144SOL    HW236069   3.444   1.172   6.588 -2.4790 -0.7577  0.2567
 8145SOL     OW36070   0.608   1.793   8.886 -0.4057  0.1293  0.4570
 8145SOL    HW136071   0.631   1.752   8.802 -0.7499  0.7763  0.0391
 8145SOL    HW236072   0.657   1.875   8.877  0.4552 -0.3287  0.9874
 8146SOL     OW36073   0.611   3.264  13.889 -0.6422 -0.0772 -0.2129
 8146SOL    HW136074   0.580   3.233  13.804 -1.4103 -0.3997  0.1961
 8146SOL    HW236075   0.681   3.316  13.849  1.5362 -3.3838 -0.7193
 8147SOL     OW36076   3.138   3.866   7.127 -0.2317 -0.9849  0.5822
 8147SOL    HW136077   3.053   3.885   7.166  0.2446 -0.8577  1.5559
 8147SOL    HW236078   3.169   3.955   7.112  0.2149 -1.4399 -1.1902
 8148SOL     OW36079   3.501   1.226  14.980 -0.4419 -0.2050  0.2756
 8148SOL    HW136080   3.569   1.173  14.939  2.7834  1.1621  3.8005
 8148SOL    HW236081   3.442   1.248  14.907  0.4658 -0.8972 -0.6687
 8149SOL     OW36082   0.348   2.417   8.176  0.2562 -0.3260  0.1578
 8149SOL    HW136083   0.406   2.454   8.241  3.6500 -1.1368 -2.4301
 8149SOL    HW236084   0.322   2.493   8.124  0.4916 -2.7000 -3.4883
 8150SOL     OW36085   4.377   3.226   8.170  0.3303  0.1998 -0.5443
 8150SOL    HW136086   4.338   3.206   8.085  3.1002  0.7226 -1.9460
 8150SOL    HW236087   4.309   3.268   8.222  0.6921  0.2046 -0.0708
 8151SOL     OW36088   1.280   2.617   4.186 -0.3229 -1.0597  0.0064
 8151SOL    HW136089   1.347   2.657   4.242  1.3914 -1.8017 -1.4964
 8151SOL    HW236090   1.254   2.539   4.236 -2.8034  0.4202  1.0147
 8152SOL     OW36091   1.171   0.810   6.225 -0.2206 -0.5399 -0.2939
 8152SOL    HW136092   1.264   0.795   6.242  0.2218 -0.0514 -2.2559
 8152SOL    HW236093   1.163   0.894   6.180 -1.1129  0.9428  2.6300
 8153SOL     OW36094   0.436   4.490   2.069 -0.6346 -0.1904  0.3232
 8153SOL    HW136095   0.470   4.402   2.057 -1.4664 -0.5188  0.4024
 8153SOL    HW236096   0.507   4.547   2.101 -0.9154  0.7465 -0.7222
 8154SOL     OW36097   0.658   0.907   4.387 -0.1633  0.1205  0.4240
 8154SOL    HW136098   0.711   0.974   4.343 -0.6927  0.2058 -0.0957
 8154SOL    HW236099   0.608   0.868   4.315  1.3939 -0.2995 -0.4336
 8155SOL     OW36100   1.350   1.277   0.953  0.4749 -0.0779  0.3546
 8155SOL    HW136101   1.401   1.267   0.872 -1.2588 -0.3486 -0.7012
 8155SOL    HW236102   1.293   1.350   0.928  1.0724  0.0841 -0.5324
 8156SOL     OW36103   0.187   2.166  17.638 -0.2513 -0.0597  0.4313
 8156SOL    HW136104   0.097   2.138  17.620  0.6204 -1.7674 -1.2725
 8156SOL    HW236105   0.191   2.156  17.733 -1.4998 -2.7095  0.1966
 8157SOL     OW36106   4.461   2.375  14.069  0.4231 -0.0507 -0.1316
 8157SOL    HW136107   4.505   2.433  14.006  0.6031  0.5722  0.5724
 8157SOL    HW236108   4.370   2.402  14.055  0.2774 -0.9430 -0.9344
 8158SOL     OW36109   3.090   1.748   5.779  0.5500  0.2542  0.0029
 8158SOL    HW136110   3.173   1.727   5.737 -0.3309 -0.7385 -1.2245
 8158SOL    HW236111   3.088   1.844   5.778 -2.6803  0.1481 -0.9376
 8159SOL     OW36112   2.780   2.519   2.019  0.0190 -0.1925 -0.2381
 8159SOL    HW136113   2.817   2.537   1.932  0.6617 -1.2797 -0.1868
 8159SOL    HW236114   2.774   2.604   2.063  0.6068 -0.1854 -0.1711
 8160SOL     OW36115   0.474   4.099  11.198  0.6845  0.4816 -0.1512
 8160SOL    HW136116   0.495   4.115  11.106 -0.7491  1.6683 -0.2779
 8160SOL    HW236117   0.388   4.057  11.204  0.2335  1.3055 -0.7867
 8161SOL     OW36118   0.588   0.263  17.515  0.3133 -0.0664  0.0101
 8161SOL    HW136119   0.537   0.327  17.565  0.7201  0.9696 -0.9137
 8161SOL    HW236120   0.532   0.256  17.437  0.4969 -1.3653 -0.0158
 8162SOL     OW36121   1.815   2.579   2.128  0.5162 -0.1059 -0.2786
 8162SOL    HW136122   1.889   2.559   2.186  0.8094  1.7670  0.0048
 8162SOL    HW236123   1.867   2.602   2.051  1.7495 -2.6850 -0.2280
 8163SOL     OW36124   4.106   1.319   6.207  0.2614 -0.3708 -0.2691
 8163SOL    HW136125   4.164   1.321   6.130  0.0855  1.1363 -0.3648
 8163SOL    HW236126   4.073   1.232   6.187  2.1734 -0.6630 -2.1588
 8164SOL     OW36127   1.730   1.314   4.050 -0.1532 -0.1535  0.4337
 8164SOL    HW136128   1.674   1.252   4.097 -3.1963  2.0784 -0.2937
 8164SOL    HW236129   1.688   1.311   3.964  0.7807 -1.1986  0.0146
 8165SOL     OW36130   1.069   2.873   6.947 -0.3672  0.0035 -0.0392
 8165SOL    HW136131   1.063   2.877   7.043 -1.0102 -1.2427 -0.0327
 8165SOL    HW236132   0.998   2.931   6.920  0.2920 -0.0624 -1.8737
 8166SOL     OW36133   2.790   1.420   7.543  0.2843  0.7151 -0.0786
 8166SOL    HW136134   2.845   1.389   7.472  0.1815  0.6994 -0.1519
 8166SOL    HW236135   2.756   1.503   7.509  0.1412  1.6202  2.2225
 8167SOL     OW36136   3.868   4.626   4.256  0.3565 -0.6757  0.1494
 8167SOL    HW136137   3.914   4.543   4.265  0.2636 -0.9476 -1.9293
 8167SOL    HW236138   3.916   4.670   4.186  2.0821 -2.0639  0.4759
 8168SOL     OW36139   2.150   2.305   4.324 -0.6757 -0.0881  0.5355
 8168SOL    HW136140   2.096   2.344   4.393 -0.2788  2.3601 -0.5422
 8168SOL    HW236141   2.118   2.215   4.317 -3.1097  0.8402 -0.0457
 8169SOL     OW36142   3.997   1.304   8.217 -0.4123  0.2520 -0.2921
 8169SOL    HW136143   4.075   1.261   8.182 -0.0169 -0.3380  1.3529
 8169SOL    HW236144   4.010   1.396   8.194  0.2357  0.2977  0.2812
 8170SOL     OW36145   3.687   0.082   1.975 -0.0326  0.5877  0.3667
 8170SOL    HW136146   3.768   0.093   2.025  0.9457 -1.1080 -0.8796
 8170SOL    HW236147   3.633   0.154   2.009 -0.7571 -0.0216  0.5183
 8171SOL     OW36148   4.495   1.580   4.018 -0.1688 -0.4026  0.3151
 8171SOL    HW136149   4.446   1.661   4.027  1.6539  0.6762  0.6696
 8171SOL    HW236150   4.537   1.558   4.102 -0.7645  1.7741  1.1729
 8172SOL     OW36151   2.199   4.350   9.370 -0.1435 -0.1808  0.3513
 8172SOL    HW136152   2.182   4.328   9.461  0.2969 -1.9633 -0.0081
 8172SOL    HW236153   2.273   4.410   9.386  0.5405 -1.1565  0.8383
 8173SOL     OW36154   3.696   4.605   1.815  0.5352  0.3940  0.1254
 8173SOL    HW136155   3.701   4.557   1.898  1.9288 -0.2622 -0.3363
 8173SOL    HW236156   3.708   4.692   1.853  1.6559  0.2517  0.1055
 8174SOL     OW36157   3.236   4.371   1.247  0.0419  0.3529 -0.2178
 8174SOL    HW136158   3.321   4.359   1.289  0.6826 -0.9573 -1.8772
 8174SOL    HW236159   3.255   4.345   1.156 -1.1037 -0.6530 -0.1702
 8175SOL     OW36160   2.167   3.479   6.564 -0.0920 -0.0647 -0.0024
 8175SOL    HW136161   2.084   3.438   6.538  0.1862 -0.6594  0.0539
 8175SOL    HW236162   2.154   3.569   6.535  0.7935 -0.4943 -1.6850
 8176SOL     OW36163   0.098   0.448  16.321 -0.3040 -0.2859 -0.3049
 8176SOL    HW136164   0.171   0.471  16.379  0.1737  1.1683 -1.4746
 8176SOL    HW236165   0.089   0.535  16.282  1.4571 -0.6544 -1.5606
 8177SOL     OW36166   1.337   2.450   7.545  0.2201  0.0519 -0.5248
 8177SOL    HW136167   1.409   2.510   7.567 -0.3518 -0.2296  2.1564
 8177SOL    HW236168   1.373   2.374   7.590  1.9135  1.5031  0.5894
 8178SOL     OW36169   2.065   4.339  15.438 -0.0805  0.0140 -0.3135
 8178SOL    HW136170   2.074   4.281  15.514 -1.0779  2.5158  1.7134
 8178SOL    HW236171   1.976   4.366  15.458  0.0118 -0.4025  0.6956
 8179SOL     OW36172   1.485   0.122  15.367  0.1743  0.4980 -0.2630
 8179SOL    HW136173   1.574   0.097  15.391  0.7404  1.3997 -1.3993
 8179SOL    HW236174   1.504   0.213  15.342  0.2818 -0.0975 -2.3534
 8180SOL     OW36175   2.565   2.875   4.157 -0.2782 -0.8837  0.2976
 8180SOL    HW136176   2.659   2.866   4.173 -0.1777 -0.9493 -0.3651
 8180SOL    HW236177   2.544   2.851   4.248  0.1033  2.1342  1.1869
 8181SOL     OW36178   0.434   3.828  11.607  0.3711 -0.0506 -0.5925
 8181SOL    HW136179   0.412   3.756  11.548  1.7698  0.2893 -1.5457
 8181SOL    HW236180   0.483   3.887  11.550  1.6999  0.5669  1.1604
 8182SOL     OW36181   3.553   4.514  10.137  0.3156  0.1549  0.2944
 8182SOL    HW136182   3.562   4.590  10.194  0.0014  1.3430 -1.2585
 8182SOL    HW236183   3.643   4.507  10.105 -0.3149  5.0781 -2.4771
 8183SOL     OW36184   2.302   1.466   6.690  0.0414 -0.2323  0.8498
 8183SOL    HW136185   2.377   1.438   6.742  0.3509 -1.7243 -0.4003
 8183SOL    HW236186   2.258   1.526   6.751  1.9353  1.1363  0.8839
 8184SOL     OW36187   0.061   0.975   3.544  0.6810  0.4713  0.3126
 8184SOL    HW136188   0.080   0.882   3.530 -0.2134  0.2795  0.3397
 8184SOL    HW236189   0.004   0.993   3.470 -0.3643 -1.9707  0.4924
 8185SOL     OW36190   2.010   1.125   5.079  0.4926 -0.1520  0.6834
 8185SOL    HW136191   1.922   1.088   5.071  1.1994 -2.4164  3.5621
 8185SOL    HW236192   2.015   1.179   5.000 -0.2851 -1.7073 -0.4293
 8186SOL     OW36193   1.672   0.501   1.969  0.4759  0.5173  0.0362
 8186SOL    HW136194   1.614   0.505   1.893 -2.2727 -0.1045  2.1380
 8186SOL    HW236195   1.609   0.465   2.030 -1.3281  1.1887 -1.4387
 8187SOL     OW36196   3.457   1.016   8.432  0.4853 -0.1106  0.3772
 8187SOL    HW136197   3.430   1.084   8.371  0.0030  1.4266  2.2882
 8187SOL    HW236198   3.486   0.940   8.381 -2.2107 -1.0986  0.3145
 8188SOL     OW36199   1.542   3.888   7.204 -0.0302  0.0204  0.1640
 8188SOL    HW136200   1.514   3.977   7.182  0.0774  0.4006  1.5897
 8188SOL    HW236201   1.583   3.901   7.290 -0.5923 -0.6967  0.5408
 8189SOL     OW36202   1.145   1.169  16.148 -0.0172  0.6368 -0.1062
 8189SOL    HW136203   1.083   1.217  16.094 -0.0402 -0.2494 -0.8645
 8189SOL    HW236204   1.133   1.212  16.233  3.0463 -2.7256  2.0185
 8190SOL     OW36205   0.753   2.949   9.084 -0.4411  0.0743 -0.1001
 8190SOL    HW136206   0.736   2.996   9.002 -0.8830 -2.7422 -1.6302
 8190SOL    HW236207   0.678   2.894   9.108 -0.9297  0.2904 -1.1460
 8191SOL     OW36208   3.605   0.174   6.506  0.4225 -0.1025 -0.2141
 8191SOL    HW136209   3.557   0.158   6.425  0.3005 -0.4175 -0.0790
 8191SOL    HW236210   3.673   0.107   6.503  1.6237  1.0698  0.8301
 8192SOL     OW36211   4.565   2.276  10.568 -0.8937 -0.2531 -0.4745
 8192SOL    HW136212   4.630   2.208  10.586 -2.5481 -1.3869  1.2641
 8192SOL    HW236213   4.514   2.265  10.649 -0.0009 -2.4139 -0.1887
 8193SOL     OW36214   0.120   2.184   7.690 -0.1063 -0.6687 -0.0081
 8193SOL    HW136215   0.173   2.217   7.618 -0.7113 -0.6448 -0.4439
 8193SOL    HW236216   0.155   2.227   7.768  0.1852 -1.9617  0.5703
 8194SOL     OW36217   0.623   0.254   6.222  0.1469 -0.4204  0.4185
 8194SOL    HW136218   0.600   0.178   6.276 -2.0334 -0.9170 -1.1963
 8194SOL    HW236219   0.623   0.232   6.129  0.8396  2.3899 -0.2317
 8195SOL     OW36220   3.381   1.483   3.099  0.0563 -0.2336  0.1053
 8195SOL    HW136221   3.363   1.458   3.189  2.9909 -1.3308  0.3602
 8195SOL    HW236222   3.316   1.552   3.083  0.1746 -0.4380 -1.2744
 8196SOL     OW36223   0.149   3.925   2.041  0.3086 -0.2234  0.8195
 8196SOL    HW136224   0.212   3.994   2.061 -2.3444  2.3398  0.2262
 8196SOL    HW236225   0.065   3.969   2.054  2.1323  2.7508  2.4769
 8197SOL     OW36226   4.710   0.919   4.195 -0.3483  0.3645  0.6570
 8197SOL    HW136227   0.041   0.974   4.153 -0.6690 -1.8008 -2.6350
 8197SOL    HW236228   0.025   0.877   4.265 -0.4043 -0.3247  0.2861
 8198SOL     OW36229   2.494   4.675   3.126 -0.0985 -0.6203 -0.0881
 8198SOL    HW136230   2.452   4.719   3.200  2.6532  1.1492  0.4353
 8198SOL    HW236231   2.418   4.641   3.080 -0.4525 -0.3806  0.3170
 8199SOL     OW36232   0.637   2.176  17.685  0.3163 -0.3965  0.1047
 8199SOL    HW136233   0.662   2.268  17.696  0.9649 -0.6309  0.5882
 8199SOL    HW236234   0.587   2.164   0.027 -0.6386  1.2559 -0.2466
 8200SOL     OW36235   4.354   3.964  13.723  0.5515 -0.1903  0.2222
 8200SOL    HW136236   4.400   3.882  13.743  1.4817 -0.0442 -1.2638
 8200SOL    HW236237   4.264   3.933  13.727  0.3984 -0.1195 -2.3508
 8201SOL     OW36238   0.091   1.548   2.855 -0.0639  0.1693  0.1503
 8201SOL    HW136239   0.109   1.454   2.853  0.3920  0.2291  1.7575
 8201SOL    HW236240   0.085   1.568   2.762  2.5434 -0.3788 -0.1614
 8202SOL     OW36241   1.669   2.949   2.546 -0.3027  0.4096  0.2782
 8202SOL    HW136242   1.764   2.961   2.537 -0.8823  3.3254 -2.0416
 8202SOL    HW236243   1.655   2.889   2.619  0.4425 -2.0403 -1.5774
 8203SOL     OW36244   4.521   3.162   1.302 -0.3977  0.3753 -0.6372
 8203SOL    HW136245   4.431   3.138   1.277 -0.2550  1.0493 -1.8008
 8203SOL    HW236246   4.578   3.102   1.254  1.3923  3.0228 -1.8316
 8204SOL     OW36247   2.091   0.776   6.627 -0.0567 -0.0055  0.1110
 8204SOL    HW136248   2.158   0.710   6.644  1.1906  0.7312 -1.9125
 8204SOL    HW236249   2.059   0.761   6.537  1.7596  0.0764 -0.5425
 8205SOL     OW36250   3.332   0.686   8.102 -0.0930  0.2567 -0.4519
 8205SOL    HW136251   3.323   0.710   8.010 -0.5422  0.5720 -0.3275
 8205SOL    HW236252   3.238   0.673   8.120 -1.1759  5.4843 -2.3986
 8206SOL     OW36253   2.180   0.586   3.481 -0.3931  0.0446 -0.0527
 8206SOL    HW136254   2.149   0.497   3.501  2.0849 -0.7365  0.3146
 8206SOL    HW236255   2.123   0.600   3.405 -0.8794 -0.6304  0.1814
 8207SOL     OW36256   0.558   1.257  15.819 -0.2343  0.0692  0.5397
 8207SOL    HW136257   0.473   1.226  15.788  0.6940  0.0240 -1.9729
 8207SOL    HW236258   0.605   1.174  15.824 -0.7977 -0.2774  0.0997
 8208SOL     OW36259   1.392   3.532   3.209  0.2006  0.1077 -0.1173
 8208SOL    HW136260   1.317   3.472   3.214  0.5364 -0.0962  2.5198
 8208SOL    HW236261   1.358   3.619   3.191 -0.4528  0.1021  1.0514
 8209SOL     OW36262   1.590   2.112   6.024  0.0284 -0.1791 -0.1605
 8209SOL    HW136263   1.580   2.018   6.010 -0.7073 -0.4241  2.0398
 8209SOL    HW236264   1.572   2.147   5.937 -2.9322 -0.8501  0.1864
 8210SOL     OW36265   4.602   0.262  13.576 -0.5253 -0.5690  0.7768
 8210SOL    HW136266   4.528   0.275  13.636 -0.6606 -2.7424  1.0763
 8210SOL    HW236267   4.668   0.305  13.630 -1.2764 -1.1500  2.1523
 8211SOL     OW36268   0.338   4.003   8.592 -0.3044  0.1749  0.3596
 8211SOL    HW136269   0.277   3.969   8.658  0.8028 -1.2410  0.6484
 8211SOL    HW236270   0.324   4.098   8.596 -0.4263  0.0661  2.4751
 8212SOL     OW36271   0.622   1.949   7.295  0.1102  0.0510 -0.3727
 8212SOL    HW136272   0.629   2.013   7.224  1.4027  0.3638  0.0378
 8212SOL    HW236273   0.572   2.005   7.354  1.9284  0.1047  1.1117
 8213SOL     OW36274   3.940   4.087   4.247 -0.0593 -0.1486  0.1489
 8213SOL    HW136275   3.962   3.994   4.237 -1.9003 -0.2728 -2.6698
 8213SOL    HW236276   4.026   4.122   4.274  2.0771 -2.5737 -3.4841
 8214SOL     OW36277   1.153   1.147   8.825  0.4810 -0.1769 -0.1757
 8214SOL    HW136278   1.130   1.097   8.903  2.1110 -1.0183 -0.2332
 8214SOL    HW236279   1.096   1.121   8.753 -1.8271  1.9201  0.8967
 8215SOL     OW36280   4.501   4.246   2.112  1.2605  0.2032  0.0738
 8215SOL    HW136281   4.527   4.190   2.039  0.9579 -1.2055  1.0474
 8215SOL    HW236282   4.416   4.278   2.081 -0.1541 -1.3703  2.3358
 8216SOL     OW36283   4.132   4.691   8.956  0.4266  0.2993 -0.0916
 8216SOL    HW136284   4.201   4.689   9.023  0.5980 -3.5400 -0.3948
 8216SOL    HW236285   4.059   4.666   9.012  0.7296  1.9859  1.0484
 8217SOL     OW36286   1.299   2.134  10.267  0.0095 -0.5192  0.1920
 8217SOL    HW136287   1.237   2.180  10.211  0.6559  1.2445  0.9113
 8217SOL    HW236288   1.267   2.143  10.357 -1.1214 -0.8404 -0.1879
 8218SOL     OW36289   3.341   3.914  12.593  0.2870 -0.0528  0.0494
 8218SOL    HW136290   3.249   3.891  12.603  0.2631 -0.6118 -1.4455
 8218SOL    HW236291   3.356   3.976  12.664 -1.9336  0.3445  0.1536
 8219SOL     OW36292   1.351   0.552   8.317 -0.2207 -0.1005 -0.0506
 8219SOL    HW136293   1.344   0.542   8.412  0.3256  1.2300  0.1254
 8219SOL    HW236294   1.260   0.535   8.294 -0.2019 -0.9179  0.4693
 8220SOL     OW36295   2.580   0.096   6.071 -0.3369  0.0333  0.0966
 8220SOL    HW136296   2.545   0.182   6.048 -1.1877  0.0835  1.5855
 8220SOL    HW236297   2.573   0.054   5.985  0.6193 -1.0895  0.5783
 8221SOL     OW36298   1.814   1.308   4.989  0.2717 -0.1054 -0.2147
 8221SOL    HW136299   1.728   1.337   4.959  0.0392  0.3365  0.8957
 8221SOL    HW236300   1.835   1.249   4.916 -0.6270  0.0877 -0.6303
 8222SOL     OW36301   0.218   3.666   2.120 -0.2211 -0.5875  0.0041
 8222SOL    HW136302   0.180   3.615   2.048 -1.4170  0.9446 -0.4517
 8222SOL    HW236303   0.183   3.750   2.088 -0.9611  0.2964  3.1681
 8223SOL     OW36304   3.375   2.275   4.975 -0.4218 -0.0193  0.0282
 8223SOL    HW136305   3.322   2.309   4.902  0.0191  0.4681 -0.0609
 8223SOL    HW236306   3.409   2.200   4.926  1.1844  0.7319 -0.0000
 8224SOL     OW36307   3.466   4.637  13.362  0.2897  0.2420 -0.2056
 8224SOL    HW136308   3.433   4.694  13.431 -0.3803 -1.7508  1.0964
 8224SOL    HW236309   3.551   4.676  13.340 -0.2767  1.1722 -0.7895
 8225SOL     OW36310   1.871   3.786   8.840 -0.2602 -0.2284  0.4245
 8225SOL    HW136311   1.798   3.822   8.892  2.1698  1.4154  2.7388
 8225SOL    HW236312   1.953   3.822   8.875 -0.6969 -0.6363  1.8815
 8226SOL     OW36313   4.681   2.894  11.408 -0.2459 -0.3212  0.4029
 8226SOL    HW136314   4.702   2.948  11.332 -1.9257 -0.6287 -0.2665
 8226SOL    HW236315   4.636   2.815  11.378 -0.1512 -0.2489  0.0721
 8227SOL     OW36316   2.472   0.583   9.557 -0.1094  0.7259 -0.1214
 8227SOL    HW136317   2.456   0.659   9.502  0.5613  0.5171 -0.6034
 8227SOL    HW236318   2.567   0.580   9.564 -0.1403  1.4073  0.5890
 8228SOL     OW36319   4.172   1.697   0.263  0.5413  0.0590 -0.0287
 8228SOL    HW136320   4.171   1.664   0.174  0.5997  0.0443 -0.0236
 8228SOL    HW236321   4.241   1.648   0.307 -1.3062 -1.1701  1.4953
 8229SOL     OW36322   2.498   4.084   8.450  0.1077 -0.1898 -0.1192
 8229SOL    HW136323   2.573   4.096   8.392 -0.6790  1.6238 -0.7649
 8229SOL    HW236324   2.450   4.017   8.401 -0.4902 -0.2717  0.5724
 8230SOL     OW36325   3.095   4.188  13.159  0.2632  0.4630 -0.9786
 8230SOL    HW136326   3.190   4.198  13.156  0.3934 -0.4435  0.1889
 8230SOL    HW236327   3.097   4.116  13.095 -0.9910  0.3508 -0.8779
 8231SOL     OW36328   2.523   0.642  17.650 -0.3780 -0.2524 -0.7477
 8231SOL    HW136329   2.457   0.632  17.718 -0.0274  1.1780 -0.2028
 8231SOL    HW236330   2.465   0.644  17.574 -1.1323  1.4937 -0.1222
 8232SOL     OW36331   0.285   2.850   7.381 -0.0310  0.6202 -0.1307
 8232SOL    HW136332   0.220   2.781   7.391 -0.7021  1.4185  0.9180
 8232SOL    HW236333   0.356   2.801   7.340  1.6481  4.7947 -2.2369
 8233SOL     OW36334   3.986   3.313   3.467  0.6493  0.0355 -0.1054
 8233SOL    HW136335   4.075   3.281   3.450  0.3051 -0.4720 -0.9852
 8233SOL    HW236336   3.952   3.242   3.521  2.4839  0.4728  1.6430
 8234SOL     OW36337   1.408   0.236  13.345 -0.4638 -0.4980 -0.1593
 8234SOL    HW136338   1.500   0.212  13.335 -0.2516 -0.8501  2.9396
 8234SOL    HW236339   1.411   0.321  13.389  1.2495  0.0482 -1.3094
 8235SOL     OW36340   0.464   2.700   4.640  0.5437  0.7548  0.1709
 8235SOL    HW136341   0.507   2.618   4.664  0.7446  0.8099 -0.0047
 8235SOL    HW236342   0.533   2.765   4.647  0.4277  0.9194 -0.2195
 8236SOL     OW36343   3.360   2.278   3.480  0.3032 -0.1484 -0.4790
 8236SOL    HW136344   3.453   2.267   3.497  0.5679 -0.3494 -2.0908
 8236SOL    HW236345   3.334   2.330   3.556  1.3999  2.5608 -1.9430
 8237SOL     OW36346   2.798   4.493   2.790  0.5336 -0.2398 -0.6446
 8237SOL    HW136347   2.892   4.478   2.782  0.7563  1.4254 -1.1667
 8237SOL    HW236348   2.793   4.492   2.886  1.1294  1.4078 -0.5953
 8238SOL     OW36349   3.471   1.084   0.122  0.1259  0.4030 -0.1214
 8238SOL    HW136350   3.508   1.171   0.133  3.0399 -0.2454 -4.7819
 8238SOL    HW236351   3.410   1.081   0.196 -0.1599  1.3150 -0.3241
 8239SOL     OW36352   1.109   0.482   8.200  0.2712  0.3838  0.1823
 8239SOL    HW136353   1.024   0.448   8.226  2.2869 -3.3108  1.8910
 8239SOL    HW236354   1.139   0.430   8.125  0.3116  0.9538 -0.2050
 8240SOL     OW36355   1.445   4.276   4.983 -0.6986  0.1346 -0.0646
 8240SOL    HW136356   1.512   4.302   5.046 -0.3885 -0.9951  0.0774
 8240SOL    HW236357   1.478   4.188   4.964  1.3285  0.8889 -0.0659
 8241SOL     OW36358   3.926   3.000   4.954  0.0473  0.2362  0.3908
 8241SOL    HW136359   3.946   3.004   4.861  1.0928  1.0507  0.6495
 8241SOL    HW236360   3.945   2.908   4.973  1.6850  0.5613  0.3657
 8242SOL     OW36361   2.869   3.339   3.164 -0.1617 -0.1250 -0.1185
 8242SOL    HW136362   2.937   3.406   3.158  0.3451 -0.6911 -0.6158
 8242SOL    HW236363   2.792   3.395   3.176  0.4853  0.3888  1.6351
 8243SOL     OW36364   3.087   0.483   3.196 -0.1807  0.4148  0.0641
 8243SOL    HW136365   3.139   0.423   3.249 -1.1479 -1.5178 -1.1792
 8243SOL    HW236366   3.018   0.508   3.258 -2.8835 -3.8056 -1.2792
 8244SOL     OW36367   2.287   0.755   6.976 -0.1528  0.4079  0.1528
 8244SOL    HW136368   2.338   0.754   6.894 -0.5611 -0.5482 -0.0851
 8244SOL    HW236369   2.267   0.661   6.977 -0.5077  0.5199  2.5806
 8245SOL     OW36370   3.082   0.595  14.845 -0.0807  0.0022 -0.0944
 8245SOL    HW136371   3.083   0.541  14.766  2.0158  0.1851 -0.1743
 8245SOL    HW236372   3.097   0.534  14.917 -0.4452  2.6216  2.2069
 8246SOL     OW36373   2.728   0.100   1.522  0.0922  0.1414  0.0815
 8246SOL    HW136374   2.680   0.179   1.544 -0.7473 -0.3722  0.0832
 8246SOL    HW236375   2.814   0.137   1.499  0.6580 -0.3146  1.4694
 8247SOL     OW36376   0.940   2.604   2.234  0.1737 -0.8891  0.8355
 8247SOL    HW136377   0.881   2.559   2.296 -2.3519  1.7773  0.3356
 8247SOL    HW236378   0.948   2.541   2.162  0.8396  0.2212 -0.0551
 8248SOL     OW36379   3.441   3.142   9.177  0.2816 -0.5801  0.3699
 8248SOL    HW136380   3.457   3.205   9.248  1.8144 -2.4064  1.6619
 8248SOL    HW236381   3.432   3.067   9.236  0.9269 -1.3656 -0.5454
 8249SOL     OW36382   4.042   4.508   9.949 -0.0413  0.3703  0.0005
 8249SOL    HW136383   4.135   4.510   9.970  0.4491 -1.6976 -2.0317
 8249SOL    HW236384   4.043   4.495   9.855  1.6641  0.3860  0.0249
 8250SOL     OW36385   0.345   2.979   9.641  0.3368  0.4377  0.1780
 8250SOL    HW136386   0.284   3.037   9.688  0.8134  0.9445  0.1706
 8250SOL    HW236387   0.429   3.008   9.677  1.7023 -0.9284 -1.9070
 8251SOL     OW36388   3.339   0.511   7.138 -0.1733  0.3744 -0.1658
 8251SOL    HW136389   3.407   0.554   7.191  1.0251 -0.6561 -0.8650
 8251SOL    HW236390   3.354   0.420   7.164  0.4040  0.1827 -1.1695
 8252SOL     OW36391   0.480   1.805   7.763 -0.4107 -0.1159 -0.6108
 8252SOL    HW136392   0.432   1.839   7.838  0.0637  1.2648 -0.9334
 8252SOL    HW236393   0.513   1.719   7.787 -0.2584 -0.5277 -2.2705
 8253SOL     OW36394   4.297   0.958   0.314  0.0586 -1.1570 -0.7540
 8253SOL    HW136395   4.212   0.938   0.353 -0.0702  2.6193  0.8721
 8253SOL    HW236396   4.316   0.892   0.247  0.7559 -0.1637 -1.5143
 8254SOL     OW36397   3.256   0.750  15.105  0.4227  0.5020 -0.2177
 8254SOL    HW136398   3.276   0.684  15.038  1.3429 -0.7433  1.3037
 8254SOL    HW236399   3.203   0.801  15.044 -1.4886 -1.4788 -0.1975
 8255SOL     OW36400   1.217   2.153   7.394 -0.1166  0.5867  0.0137
 8255SOL    HW136401   1.161   2.080   7.366 -0.2275  1.0170 -0.8930
 8255SOL    HW236402   1.232   2.201   7.313  2.8727  1.3697  1.0170
 8256SOL     OW36403   1.665   2.348   4.828  0.1895 -0.5769  0.2546
 8256SOL    HW136404   1.611   2.304   4.893 -0.0976 -0.6582 -0.0392
 8256SOL    HW236405   1.659   2.442   4.846 -2.4184 -0.9027  1.0748
 8257SOL     OW36406   2.478   2.118   3.357  0.4428 -0.1153  0.1879
 8257SOL    HW136407   2.572   2.125   3.375  0.6832  0.4524 -1.2824
 8257SOL    HW236408   2.441   2.181   3.419 -0.5911 -0.1191 -0.4170
 8258SOL     OW36409   1.546   0.678   4.076 -0.2775 -0.2518  0.2121
 8258SOL    HW136410   1.521   0.734   4.150  0.6619 -1.0069  1.0936
 8258SOL    HW236411   1.639   0.672   4.098  0.4449  0.6119 -2.7032
 8259SOL     OW36412   3.747   2.820   7.416  0.2337  0.6023 -0.1127
 8259SOL    HW136413   3.827   2.771   7.398  0.9154  1.8601 -0.5067
 8259SOL    HW236414   3.677   2.765   7.381 -0.0753  1.4634 -0.8438
 8260SOL     OW36415   4.065   3.672   9.137 -0.3945 -0.0089 -0.3676
 8260SOL    HW136416   4.014   3.592   9.144 -1.3293  0.8164  2.1804
 8260SOL    HW236417   4.142   3.652   9.083 -0.1636  1.4754 -0.6026
 8261SOL     OW36418   4.133   0.482   3.067  0.2473 -0.1702 -0.5021
 8261SOL    HW136419   4.158   0.442   3.149 -1.3864 -0.4256 -0.1172
 8261SOL    HW236420   4.100   0.404   3.022 -0.0748  0.2445 -0.9897
 8262SOL     OW36421   0.210   3.612  16.583 -0.5309  0.0570 -0.2922
 8262SOL    HW136422   0.213   3.676  16.512  0.5635 -0.2905 -0.5510
 8262SOL    HW236423   0.116   3.594  16.580 -0.2121 -1.5334 -0.4126
 8263SOL     OW36424   2.077   4.019   2.442  0.2312 -0.1431 -0.0804
 8263SOL    HW136425   1.996   3.992   2.487  1.4336 -1.4869  1.2832
 8263SOL    HW236426   2.043   4.027   2.353 -1.5164  3.0303  0.8972
 8264SOL     OW36427   2.756   3.313   2.244 -0.2486 -0.2925 -0.6772
 8264SOL    HW136428   2.749   3.240   2.306  1.1727  0.2090  0.0791
 8264SOL    HW236429   2.802   3.374   2.302  0.0671 -0.1636 -1.0604
 8265SOL     OW36430   1.682   2.111   8.353  0.0085 -0.8143  0.5023
 8265SOL    HW136431   1.773   2.080   8.349  0.4126  0.3292  0.8650
 8265SOL    HW236432   1.648   2.094   8.266 -2.0841  0.0237  1.1631
 8266SOL     OW36433   0.953   3.224   4.852  0.0978 -0.2680  0.6313
 8266SOL    HW136434   0.935   3.247   4.761  0.4896 -0.4650  0.5060
 8266SOL    HW236435   0.875   3.264   4.891  0.5527 -0.1157  1.3846
 8267SOL     OW36436   2.844   0.829  16.068 -0.5650  0.7076 -0.2707
 8267SOL    HW136437   2.926   0.821  16.116 -2.1180  0.5605  2.3217
 8267SOL    HW236438   2.801   0.745  16.081 -0.6214  1.1726  2.4174
 8268SOL     OW36439   2.055   3.264   4.598  0.2322  0.4328 -0.1675
 8268SOL    HW136440   2.124   3.296   4.540 -0.5052  2.5981  0.1571
 8268SOL    HW236441   2.073   3.322   4.672 -1.5995  1.5247 -0.5961
 8269SOL     OW36442   3.902   1.741   2.540  0.2586 -0.4798  0.0467
 8269SOL    HW136443   3.914   1.713   2.631 -3.0743 -0.8024  0.4004
 8269SOL    HW236444   3.813   1.711   2.523 -0.7577  3.5213 -1.7193
 8270SOL     OW36445   1.738   0.533   2.837  0.8584 -0.0234 -0.1277
 8270SOL    HW136446   1.722   0.459   2.895 -0.9582  1.7476  1.6343
 8270SOL    HW236447   1.653   0.577   2.828  0.2906 -1.1752 -0.3873
 8271SOL     OW36448   3.033   0.758   2.042 -0.4198 -0.1543  0.5320
 8271SOL    HW136449   3.017   0.772   1.949  0.6519  1.4122  0.5768
 8271SOL    HW236450   2.949   0.780   2.081 -0.1176  0.8842  0.6086
 8272SOL     OW36451   2.479   4.359   2.453  0.2021  0.3605 -0.3952
 8272SOL    HW136452   2.487   4.278   2.403  0.9972  0.7379 -0.8634
 8272SOL    HW236453   2.541   4.341   2.524  0.4847  1.8872 -0.2565
 8273SOL     OW36454   0.333   1.603   1.383 -0.2632  0.8516 -0.4979
 8273SOL    HW136455   0.363   1.626   1.471  0.7091  1.8618 -1.1105
 8273SOL    HW236456   0.242   1.630   1.394 -0.7566 -0.6071 -0.9735
 8274SOL     OW36457   4.392   4.548   8.313  0.2361  0.0126  0.5786
 8274SOL    HW136458   4.482   4.534   8.342  0.3127 -0.6612  0.0166
 8274SOL    HW236459   4.341   4.502   8.380 -0.6475  1.8805  1.1939
 8275SOL     OW36460   1.902   0.111   1.798  0.2136  0.2181 -0.2772
 8275SOL    HW136461   1.849   0.114   1.877  1.3200 -1.9881  0.5651
 8275SOL    HW236462   1.993   0.132   1.820  0.6578 -1.1950 -0.7697
 8276SOL     OW36463   0.329   3.813   7.535  0.3357  0.2068  0.2895
 8276SOL    HW136464   0.291   3.727   7.554  1.3112 -0.2644  0.0911
 8276SOL    HW236465   0.268   3.857   7.595  0.0815 -1.9692  1.6046
 8277SOL     OW36466   0.551   2.864   9.411  0.1568 -0.2794 -0.0917
 8277SOL    HW136467   0.625   2.861   9.470 -0.7074  1.0842  1.0581
 8277SOL    HW236468   0.536   2.770   9.399  0.0209 -0.2219 -0.3852
 8278SOL     OW36469   1.641   3.075  15.939 -0.1077 -0.4939 -0.4423
 8278SOL    HW136470   1.573   3.055  15.875 -2.4282 -1.0359  2.1851
 8278SOL    HW236471   1.596   3.065  16.023 -0.5772  0.2339 -0.6062
 8279SOL     OW36472   1.991   1.351   4.142  0.1403 -0.1911 -0.3648
 8279SOL    HW136473   1.902   1.327   4.113  0.3025 -0.4075 -0.6842
 8279SOL    HW236474   1.973   1.440   4.172 -0.2185  0.0549 -1.2923
 8280SOL     OW36475   2.740   2.716   2.407  0.5050 -0.1198 -0.0381
 8280SOL    HW136476   2.780   2.766   2.336 -3.6419  0.3253 -2.0160
 8280SOL    HW236477   2.818   2.664   2.427  1.8334  1.2832 -1.6007
 8281SOL     OW36478   0.695   0.175   5.523 -0.5661 -0.3137  0.6047
 8281SOL    HW136479   0.728   0.262   5.544  0.3910 -0.6327  0.3851
 8281SOL    HW236480   0.617   0.189   5.469  0.9766 -1.8352 -1.9801
 8282SOL     OW36481   4.172   2.380  13.747  0.1347 -0.5681  0.0292
 8282SOL    HW136482   4.141   2.442  13.814 -3.8392 -1.0070 -1.4335
 8282SOL    HW236483   4.098   2.319  13.744 -0.1824 -0.2609  1.2545
 8283SOL     OW36484   2.864   0.311   5.979 -0.1078 -0.5282 -0.0000
 8283SOL    HW136485   2.834   0.271   5.897  0.9242  1.3275 -1.2870
 8283SOL    HW236486   2.891   0.234   6.029  1.7289 -1.1378 -1.9345
 8284SOL     OW36487   4.563   4.017   1.169 -0.2470  0.9670  0.7633
 8284SOL    HW136488   4.601   3.946   1.117 -4.2312 -1.3704  1.0357
 8284SOL    HW236489   4.547   3.965   1.248  0.2959  0.2159  0.3787
 8285SOL     OW36490   0.126   2.376   6.036  0.1798  0.1077  0.4507
 8285SOL    HW136491   0.118   2.410   6.125  1.9837 -1.9006  1.3780
 8285SOL    HW236492   0.134   2.460   5.992  0.3565 -0.7557 -1.1706
 8286SOL     OW36493   0.639   2.695   3.566 -0.3212  0.2702  0.1258
 8286SOL    HW136494   0.608   2.682   3.655 -1.9015  1.5341 -0.2334
 8286SOL    HW236495   0.631   2.790   3.555  1.3050  0.1480 -2.1483
 8287SOL     OW36496   4.348   2.289  11.374 -0.3678  0.4692  0.0099
 8287SOL    HW136497   4.349   2.315  11.466  1.9921  0.6760 -0.0845
 8287SOL    HW236498   4.277   2.225  11.366 -0.0674  0.2890 -1.1362
 8288SOL     OW36499   4.093   4.372  13.355  0.3246 -0.2812 -0.4233
 8288SOL    HW136500   4.082   4.292  13.407  1.2326  0.9234  1.6251
 8288SOL    HW236501   4.174   4.354  13.306  0.3842 -1.6974  0.1916
 8289SOL     OW36502   3.415   1.386   0.550  0.3916  0.0620 -0.4331
 8289SOL    HW136503   3.432   1.432   0.632  0.0968  1.6751 -1.2903
 8289SOL    HW236504   3.330   1.420   0.524 -0.0729  0.3477  1.4764
 8290SOL     OW36505   2.302   0.891  12.524  0.2098  0.0788 -0.4062
 8290SOL    HW136506   2.320   0.819  12.585  0.3818 -1.3775 -2.1702
 8290SOL    HW236507   2.353   0.962  12.561 -0.4809  0.8464 -0.9392
 8291SOL     OW36508   0.948   3.457   7.385  0.1830  0.5353 -0.3049
 8291SOL    HW136509   0.933   3.509   7.306 -0.4092  0.9580  0.0883
 8291SOL    HW236510   0.966   3.524   7.451 -0.6417  0.7913 -0.3417
 8292SOL     OW36511   3.561   0.436   2.436  0.1936  0.6061  0.0365
 8292SOL    HW136512   3.497   0.473   2.498  0.3041  0.2228  0.3755
 8292SOL    HW236513   3.495   0.387   2.387 -0.3647  1.0343  0.3492
 8293SOL     OW36514   3.007   1.547  16.631 -0.3116 -0.1803  0.1669
 8293SOL    HW136515   3.027   1.454  16.624 -0.2201 -0.2712  1.7829
 8293SOL    HW236516   3.031   1.577  16.543 -0.7317 -1.4989 -0.3928
 8294SOL     OW36517   3.535   3.556   7.664  0.4170  0.1738  0.2381
 8294SOL    HW136518   3.497   3.491   7.606  0.8211 -0.7787  1.0475
 8294SOL    HW236519   3.462   3.576   7.723  0.9844 -1.1496  1.3796
 8295SOL     OW36520   0.952   1.871   1.849  0.8382  0.1194 -0.1313
 8295SOL    HW136521   0.886   1.807   1.824  0.6738  0.7415 -1.2793
 8295SOL    HW236522   0.901   1.929   1.905  2.7167  3.5883 -2.0359
 8296SOL     OW36523   3.630   0.898   3.944  0.0603 -0.1043 -0.4127
 8296SOL    HW136524   3.590   0.982   3.965  0.4449  0.3896 -1.7071
 8296SOL    HW236525   3.704   0.914   3.886  1.6981  2.6302  2.3954
 8297SOL     OW36526   0.587   3.040  14.126  0.3633 -0.5000 -0.0449
 8297SOL    HW136527   0.668   3.048  14.176 -0.4564 -0.6719  1.2974
 8297SOL    HW236528   0.614   2.969  14.067 -1.4268  0.8323 -2.4912
 8298SOL     OW36529   3.906   1.329   2.954  0.3553 -0.1867 -0.1228
 8298SOL    HW136530   3.931   1.275   3.030 -0.4188 -1.2230 -0.6078
 8298SOL    HW236531   3.927   1.412   2.997 -0.8547  0.7847 -1.4168
 8299SOL     OW36532   1.088   3.185   2.882  0.2522  0.0207 -0.6610
 8299SOL    HW136533   1.003   3.190   2.925  0.0583  0.2885 -1.0670
 8299SOL    HW236534   1.059   3.186   2.790 -1.0440 -0.0816 -0.2509
 8300SOL     OW36535   4.727   1.355  15.009  0.0894 -0.2781  0.5769
 8300SOL    HW136536   4.664   1.284  15.018 -0.0232 -0.0599  1.5148
 8300SOL    HW236537   0.034   1.361  15.094 -3.0534  0.1141  2.0982
 8301SOL     OW36538   3.398   1.905  13.708  0.3499 -0.6230 -0.4204
 8301SOL    HW136539   3.415   1.915  13.801 -1.8238  0.8285 -0.1805
 8301SOL    HW236540   3.336   1.977  13.695 -0.8669 -1.6097 -0.0726
 8302SOL     OW36541   1.683   4.487   5.965 -0.3578 -0.2690 -0.6914
 8302SOL    HW136542   1.620   4.502   5.895 -1.5961  4.8771  1.5279
 8302SOL    HW236543   1.663   4.560   6.023  2.3122 -0.4696  0.4764
 8303SOL     OW36544   0.916   0.067   2.709  0.1477 -0.3995  0.1205
 8303SOL    HW136545   0.995   0.017   2.729 -0.3264 -0.5447  1.5797
 8303SOL    HW236546   0.892   0.097   2.796 -1.4067 -1.7193  0.1346
 8304SOL     OW36547   2.508   2.992   6.864 -0.2047  0.5299  0.6973
 8304SOL    HW136548   2.584   2.948   6.904 -0.3190  0.5083  0.8902
 8304SOL    HW236549   2.473   2.919   6.812  0.6331 -0.3292  1.3232
 8305SOL     OW36550   2.010   4.077  17.417  0.0267  0.3504 -0.0738
 8305SOL    HW136551   2.048   4.158  17.451 -2.3789  2.0480 -1.4623
 8305SOL    HW236552   2.038   4.018  17.487 -1.7645 -0.5583 -0.1319
 8306SOL     OW36553   3.995   0.636   4.864  0.0788  0.3126  0.0547
 8306SOL    HW136554   3.950   0.720   4.869  0.5165  0.6071 -0.9123
 8306SOL    HW236555   3.925   0.570   4.862 -0.3407  0.8049 -1.6589
 8307SOL     OW36556   0.804   0.914   3.370  0.4465  0.6591  0.2758
 8307SOL    HW136557   0.807   0.989   3.429 -0.7706 -0.1996  1.4416
 8307SOL    HW236558   0.742   0.939   3.302  0.4893  1.2934  0.4751
 8308SOL     OW36559   2.906   4.126   6.427  0.4289  0.1576 -0.5679
 8308SOL    HW136560   2.861   4.136   6.343 -1.5438 -0.3086  0.4357
 8308SOL    HW236561   2.966   4.054   6.407  0.2504 -0.1276 -0.0779
 8309SOL     OW36562   2.327   1.957   3.521 -0.3280  0.0678  0.0724
 8309SOL    HW136563   2.384   1.896   3.568 -2.1573 -2.2231 -0.7215
 8309SOL    HW236564   2.381   2.002   3.455  0.7177 -0.0173  0.8625
 8310SOL     OW36565   3.975   1.093   6.160 -0.0557 -0.1632 -0.2317
 8310SOL    HW136566   3.965   1.051   6.246  0.6025 -0.1685 -0.1590
 8310SOL    HW236567   3.884   1.084   6.132  0.6045  1.0589 -2.7818
 8311SOL     OW36568   3.598   2.555   8.427 -0.4409 -0.5240  0.1208
 8311SOL    HW136569   3.664   2.510   8.479 -0.7820 -0.4698  0.5951
 8311SOL    HW236570   3.518   2.528   8.471 -2.7445  1.7665 -2.6995
 8312SOL     OW36571   0.935   2.468   5.199  0.7608  0.5771  0.3700
 8312SOL    HW136572   1.021   2.485   5.162  0.3527 -0.1769 -0.9304
 8312SOL    HW236573   0.944   2.512   5.283  0.7261  0.7400  0.2887
 8313SOL     OW36574   2.145   4.524   8.637 -0.1752 -0.6996 -0.5026
 8313SOL    HW136575   2.155   4.619   8.645  0.6850 -0.7619 -0.9110
 8313SOL    HW236576   2.121   4.506   8.728  0.5585 -0.4820 -0.2744
 8314SOL     OW36577   0.592   3.706  11.763  0.4396  0.3811 -0.0850
 8314SOL    HW136578   0.522   3.738  11.707  0.3674 -0.7910 -0.6649
 8314SOL    HW236579   0.540   3.632  11.793  0.8477 -0.2085 -0.8463
 8315SOL     OW36580   2.974   1.039   3.316  0.7844  0.4374 -0.2785
 8315SOL    HW136581   3.021   1.001   3.390  0.5032  1.8139  0.6008
 8315SOL    HW236582   2.949   0.964   3.262 -0.2532  0.2232  0.4996
 8316SOL     OW36583   0.667   1.044   9.450 -0.4909  0.1298 -0.0307
 8316SOL    HW136584   0.654   1.063   9.357  4.2098  0.6339 -0.5748
 8316SOL    HW236585   0.576   1.048   9.481 -0.2017  0.5710  0.7713
 8317SOL     OW36586   4.356   3.680  11.875 -0.0836 -0.3883 -0.3311
 8317SOL    HW136587   4.345   3.593  11.914  1.4312 -0.5133 -0.1828
 8317SOL    HW236588   4.451   3.680  11.877 -0.0160  3.1520 -4.5141
 8318SOL     OW36589   4.348   0.958   2.786 -0.1254 -0.0752 -0.2124
 8318SOL    HW136590   4.331   0.903   2.710  1.6052  0.0234 -0.6793
 8318SOL    HW236591   4.394   1.027   2.738  0.5779 -1.6752 -1.8340
 8319SOL     OW36592   4.510   2.515  11.789 -0.1049  0.6173  0.6794
 8319SOL    HW136593   4.464   2.595  11.764 -2.1295 -0.2309  1.7593
 8319SOL    HW236594   4.550   2.527  11.875 -2.2267  0.5548  1.6735
 8320SOL     OW36595   3.441   1.427  14.736  0.0132  0.3695 -0.3437
 8320SOL    HW136596   3.525   1.454  14.699 -0.2247 -0.9971 -1.8633
 8320SOL    HW236597   3.399   1.361  14.681 -0.0766 -0.9524  1.2743
 8321SOL     OW36598   3.448   3.748   3.729  0.0363 -0.0033 -0.7236
 8321SOL    HW136599   3.518   3.696   3.690 -1.0179 -1.1584 -1.0606
 8321SOL    HW236600   3.488   3.797   3.801 -1.1146 -0.0953 -0.0295
 8322SOL     OW36601   0.029   2.536   8.268 -0.0718 -0.4853  0.2785
 8322SOL    HW136602   0.056   2.612   8.320  0.8683 -0.2200 -0.5901
 8322SOL    HW236603   0.111   2.489   8.255  0.9287  1.1502  0.6299
 8323SOL     OW36604   1.665   2.276   7.292  0.3219 -0.2105 -0.2067
 8323SOL    HW136605   1.616   2.199   7.265  1.5809 -1.2800  0.5982
 8323SOL    HW236606   1.603   2.344   7.266  0.0003  0.5928  2.5684
 8324SOL     OW36607   0.238   1.485   5.826 -0.3406  0.0530 -0.5165
 8324SOL    HW136608   0.190   1.566   5.840 -1.9392 -1.6839  4.1817
 8324SOL    HW236609   0.167   1.422   5.815  1.5479 -2.2060  0.1124
 8325SOL     OW36610   0.986   0.633  15.964 -0.3379 -0.3602 -0.1669
 8325SOL    HW136611   1.057   0.571  15.980 -0.5109 -0.4607  0.2139
 8325SOL    HW236612   0.981   0.645  15.869 -0.4850 -3.0727 -0.4862
 8326SOL     OW36613   0.855   3.977  14.344 -0.2609 -0.5153 -0.2442
 8326SOL    HW136614   0.793   3.995  14.415  1.3466 -0.4907  1.1628
 8326SOL    HW236615   0.929   3.945  14.396  1.5427  1.7742 -1.4467
 8327SOL     OW36616   0.713   2.593   8.873  0.3513  0.0745  0.8566
 8327SOL    HW136617   0.749   2.526   8.816 -0.5852 -0.3388  0.7491
 8327SOL    HW236618   0.793   2.639   8.897  2.1144 -2.2380 -0.5775
 8328SOL     OW36619   2.144   1.548   7.928 -0.9132  0.3705  0.1967
 8328SOL    HW136620   2.203   1.514   7.861 -2.5800  1.2908 -1.7619
 8328SOL    HW236621   2.194   1.620   7.965 -0.1771 -0.9176  1.6953
 8329SOL     OW36622   3.792   0.722  15.430  0.1818 -0.5045  0.1525
 8329SOL    HW136623   3.732   0.666  15.479 -0.0833  0.4265  0.8736
 8329SOL    HW236624   3.844   0.654  15.386  2.5872  0.5459  1.3994
 8330SOL     OW36625   1.915   0.209   4.253  0.3406 -0.8541 -0.1050
 8330SOL    HW136626   1.907   0.186   4.345 -0.2413  1.5931  0.4693
 8330SOL    HW236627   1.890   0.127   4.212 -0.0129 -0.2193 -1.1689
 8331SOL     OW36628   3.072   0.415   4.002 -0.4704  0.1683  0.6190
 8331SOL    HW136629   3.122   0.352   4.054  0.2881 -0.4964 -0.8916
 8331SOL    HW236630   2.990   0.373   3.978 -0.2983  0.5981 -0.7424
 8332SOL     OW36631   4.077   0.278   3.439  0.2736  0.3278  0.0434
 8332SOL    HW136632   4.026   0.313   3.366 -0.0549 -1.8216 -0.7633
 8332SOL    HW236633   4.027   0.198   3.455  0.9696 -0.3634 -1.2097
 8333SOL     OW36634   0.640   0.132  12.714  0.1431  0.5794  0.0462
 8333SOL    HW136635   0.732   0.159  12.709 -1.1041  4.7836 -0.6535
 8333SOL    HW236636   0.627   0.135  12.808  0.8725 -0.2422  0.1778
 8334SOL     OW36637   3.317   3.954   6.458 -0.1215  0.1950  0.2561
 8334SOL    HW136638   3.250   3.932   6.393  3.2296 -0.4495 -2.9996
 8334SOL    HW236639   3.355   4.033   6.417  1.0279  0.6944  2.3059
 8335SOL     OW36640   1.282   4.295   4.153  0.1035 -0.6843 -0.0479
 8335SOL    HW136641   1.343   4.360   4.188  0.4724 -1.9246  1.5645
 8335SOL    HW236642   1.247   4.258   4.234 -1.8884 -1.3756 -1.2194
 8336SOL     OW36643   1.233   1.228   1.602 -0.7857 -0.4925 -0.4583
 8336SOL    HW136644   1.315   1.212   1.557  0.2405  0.7031  0.9677
 8336SOL    HW236645   1.268   1.248   1.689  3.3823  0.2160 -2.3287
 8337SOL     OW36646   1.061   0.701   8.425 -0.1363 -0.2742  0.2490
 8337SOL    HW136647   1.069   0.795   8.409 -1.5835 -0.3119 -0.7327
 8337SOL    HW236648   1.039   0.709   8.518 -1.9483  0.0825 -0.2143
 8338SOL     OW36649   2.702   3.279   0.685 -0.0870  0.0889 -0.0765
 8338SOL    HW136650   2.607   3.293   0.680  0.3261  2.1503 -2.0759
 8338SOL    HW236651   2.742   3.340   0.624  0.3550  0.1325  0.2563
 8339SOL     OW36652   4.256   4.573  15.968 -0.1852 -0.3698 -0.2676
 8339SOL    HW136653   4.182   4.605  15.916  1.1667  2.2403 -0.5791
 8339SOL    HW236654   4.327   4.627  15.934  0.1657 -0.3275  0.5284
 8340SOL     OW36655   0.116   4.243   7.085 -0.5525  0.5586  0.0530
 8340SOL    HW136656   0.049   4.199   7.138 -1.8998 -0.1683 -2.2690
 8340SOL    HW236657   0.175   4.280   7.150  0.5089  0.3314 -0.7935
 8341SOL     OW36658   2.546   2.146   8.493 -0.1079  0.1194  0.4333
 8341SOL    HW136659   2.538   2.052   8.479  0.9349  0.2813 -1.3122
 8341SOL    HW236660   2.497   2.176   8.417 -1.2870 -1.0119  0.7477
 8342SOL     OW36661   4.140   2.054  12.213 -0.5943  0.2609 -0.0631
 8342SOL    HW136662   4.052   2.018  12.224 -0.5631 -0.0603 -0.8670
 8342SOL    HW236663   4.148   2.051  12.118 -0.5535 -1.4653 -0.0031
 8343SOL     OW36664   4.273   2.271  12.321 -0.2465 -0.4444 -0.0291
 8343SOL    HW136665   4.337   2.287  12.250  1.6269 -1.1085  1.5023
 8343SOL    HW236666   4.260   2.179  12.297  3.2210 -0.7698 -0.6886
 8344SOL     OW36667   0.265   3.508   0.837 -0.0786 -0.6989  0.2362
 8344SOL    HW136668   0.296   3.419   0.822 -0.6251 -0.8904  0.2220
 8344SOL    HW236669   0.234   3.499   0.927  1.1003  0.6752  0.7748
 8345SOL     OW36670   3.733   0.796   8.502 -0.0310  0.2698 -0.3729
 8345SOL    HW136671   3.751   0.873   8.449 -1.7560  2.1676  1.8161
 8345SOL    HW236672   3.652   0.758   8.467  1.3660 -1.6712 -1.5095
 8346SOL     OW36673   4.061   0.518   8.358 -0.0618  0.1464 -0.1725
 8346SOL    HW136674   4.049   0.568   8.438 -0.3713  2.1688 -1.4957
 8346SOL    HW236675   4.156   0.506   8.367 -0.3160 -0.9950  0.9453
 8347SOL     OW36676   3.590   0.481  15.158 -0.3364  0.3833  0.2876
 8347SOL    HW136677   3.671   0.466  15.110 -0.4207  1.2308 -0.1133
 8347SOL    HW236678   3.590   0.576  15.172 -0.7586  0.3250  0.6958
 8348SOL     OW36679   4.139   1.876  17.298 -0.0081  0.1008  0.1224
 8348SOL    HW136680   4.208   1.838  17.244  2.0791  1.9856  1.4793
 8348SOL    HW236681   4.078   1.804  17.285 -0.5208  0.6329 -0.3867
 8349SOL     OW36682   3.788   2.338   9.276  0.3541 -0.0892  0.0892
 8349SOL    HW136683   3.704   2.346   9.322  1.4919  0.8948  2.0394
 8349SOL    HW236684   3.779   2.246   9.254  1.2901 -0.0644 -0.3946
 8350SOL     OW36685   2.616   4.205   6.616 -0.1846 -0.1419  1.1543
 8350SOL    HW136686   2.563   4.167   6.686 -0.2400 -0.9070  0.6969
 8350SOL    HW236687   2.549   4.223   6.549  1.6842  1.1497 -0.3711
 8351SOL     OW36688   4.390   4.161   0.602 -0.0577 -0.8080 -0.4566
 8351SOL    HW136689   4.430   4.221   0.540 -0.4589 -1.2489 -1.1399
 8351SOL    HW236690   4.468   4.145   0.655 -1.6526  0.9707  2.4238
 8352SOL     OW36691   0.157   1.974  15.553  0.5662  0.0512  0.3156
 8352SOL    HW136692   0.158   2.060  15.594 -0.0954 -0.2443  0.9826
 8352SOL    HW236693   0.204   1.918  15.616 -1.4400 -0.7146  1.1610
 8353SOL     OW36694   3.511   1.487  14.404  0.1758 -0.3057  0.5192
 8353SOL    HW136695   3.515   1.544  14.328 -0.7142  0.9739  1.4445
 8353SOL    HW236696   3.418   1.479  14.426 -0.2342  1.2569 -0.6923
 8354SOL     OW36697   3.050   4.364   4.360 -0.1757 -0.2154  0.3346
 8354SOL    HW136698   3.072   4.347   4.269  0.1683  0.3461  0.3175
 8354SOL    HW236699   2.959   4.336   4.371  0.1523 -1.9032 -1.2049
 8355SOL     OW36700   3.280   1.059   0.295 -0.2676 -0.6235 -0.2587
 8355SOL    HW136701   3.320   1.140   0.328  1.0131 -0.7497 -1.4645
 8355SOL    HW236702   3.196   1.065   0.340 -0.0639  2.2167 -0.2476
 8356SOL     OW36703   3.379   0.058   5.997  0.1436  0.1418 -0.4401
 8356SOL    HW136704   3.409   4.703   5.986  3.2062  1.3262 -1.8123
 8356SOL    HW236705   3.316   0.062   5.924  0.4554  1.6993 -0.6272
 8357SOL     OW36706   3.055   1.278  15.834  0.0349 -0.4286 -0.1312
 8357SOL    HW136707   3.106   1.348  15.795 -0.6083  0.0600 -0.0855
 8357SOL    HW236708   3.048   1.216  15.761 -1.1948 -1.7735  1.1297
 8358SOL     OW36709   0.887   0.231   8.585 -0.0164  0.3146 -0.3123
 8358SOL    HW136710   0.982   0.220   8.594 -0.2384  0.3490  2.1119
 8358SOL    HW236711   0.863   0.143   8.555  0.4041  0.3842 -0.8388
 8359SOL     OW36712   1.951   2.320   3.559 -0.3435  0.0154  0.0910
 8359SOL    HW136713   2.022   2.272   3.601 -0.5088  0.4133  0.8106
 8359SOL    HW236714   1.935   2.276   3.475  1.3318  1.3231 -0.9137
 8360SOL     OW36715   3.085   3.104   8.534 -0.2851  0.2426  0.3026
 8360SOL    HW136716   3.077   3.075   8.624  0.6310 -1.0620 -0.0376
 8360SOL    HW236717   2.995   3.126   8.510 -1.4541 -0.5191  4.0876
 8361SOL     OW36718   0.242   3.096   3.954 -0.4480 -0.6392 -0.0630
 8361SOL    HW136719   0.222   3.011   3.915 -0.4888 -0.7036  0.0944
 8361SOL    HW236720   0.175   3.155   3.920  1.0599 -0.3296 -2.4567
 8362SOL     OW36721   1.081   2.960   6.430 -0.2858 -0.3648  0.5437
 8362SOL    HW136722   1.069   2.957   6.335 -0.3413  1.8636  0.4754
 8362SOL    HW236723   1.002   2.909   6.449  0.2536 -0.7299  1.7739
 8363SOL     OW36724   2.845   1.056   8.918  0.5039 -0.4871 -0.3125
 8363SOL    HW136725   2.920   1.065   8.860 -0.9038 -2.8195 -2.4693
 8363SOL    HW236726   2.878   1.070   9.007 -0.0326  1.6243 -0.4515
 8364SOL     OW36727   4.598   3.437  12.600 -0.6510  1.0760 -0.0649
 8364SOL    HW136728   4.593   3.438  12.695  0.2636 -0.9472  0.0129
 8364SOL    HW236729   4.571   3.527  12.583  1.3708  1.7728  0.4969
 8365SOL     OW36730   4.468   3.656  10.481  0.4583  0.0054  0.1628
 8365SOL    HW136731   4.435   3.724  10.423  0.1224 -0.8544 -0.6572
 8365SOL    HW236732   4.388   3.644  10.532  0.2520  0.6729 -0.0060
 8366SOL     OW36733   2.614   3.064   5.694  0.4638 -0.0203  0.7857
 8366SOL    HW136734   2.592   3.033   5.782 -0.1832  0.9513  0.9615
 8366SOL    HW236735   2.619   2.982   5.644 -0.6604  0.1288  0.4279
 8367SOL     OW36736   2.788   2.385   6.822  0.4278 -0.2192  0.3487
 8367SOL    HW136737   2.838   2.303   6.832  1.7282  0.8697  2.6577
 8367SOL    HW236738   2.805   2.403   6.729 -0.7718 -1.5842 -0.1419
 8368SOL     OW36739   0.597   3.565  10.116 -0.2321  0.0281 -0.1945
 8368SOL    HW136740   0.579   3.650  10.076 -1.1028 -0.1659 -0.2119
 8368SOL    HW236741   0.506   3.537  10.105 -0.0296  0.3082 -2.6271
 8369SOL     OW36742   3.761   1.828  13.839  0.0936  0.3658  0.1858
 8369SOL    HW136743   3.760   1.923  13.827 -1.6741  0.4152  0.7683
 8369SOL    HW236744   3.853   1.808  13.858 -1.1157 -2.1572  3.4020
 8370SOL     OW36745   4.630   2.280  13.313 -0.2321 -0.3167 -0.0784
 8370SOL    HW136746   4.633   2.314  13.402  0.1386  0.3861 -0.3591
 8370SOL    HW236747   4.649   2.188  13.332  0.0274 -0.3089 -0.2908
 8371SOL     OW36748   0.207   0.928   6.369  0.1366 -0.0266  0.2512
 8371SOL    HW136749   0.148   0.856   6.348  2.0689 -2.1396  2.0011
 8371SOL    HW236750   0.176   0.995   6.309 -0.5051 -0.8002 -0.2788
 8372SOL     OW36751   4.543   4.621   3.899  0.3874  0.3072  0.0774
 8372SOL    HW136752   4.573   4.531   3.888 -0.3726 -0.3092  3.1399
 8372SOL    HW236753   4.579   4.639   3.986  1.3449 -0.1460 -0.2159
 8373SOL     OW36754   1.945   3.998   0.745  0.3413  0.0051 -0.0438
 8373SOL    HW136755   1.986   4.032   0.665  0.6205  1.6172  0.7848
 8373SOL    HW236756   1.921   4.080   0.788 -0.7751 -0.6767  0.6227
 8374SOL     OW36757   0.858   2.160   3.232  0.5856 -0.1565 -0.6485
 8374SOL    HW136758   0.945   2.173   3.193  0.0812  1.7970 -1.1328
 8374SOL    HW236759   0.830   2.249   3.210  2.0885  0.5046  0.0587
 8375SOL     OW36760   3.409   4.262   9.654  0.0459 -0.1878  0.0324
 8375SOL    HW136761   3.349   4.215   9.596 -0.0783 -1.7130  1.4118
 8375SOL    HW236762   3.494   4.260   9.612 -0.1134  2.0562 -0.4340
 8376SOL     OW36763   3.566   4.476   5.003  0.0732  0.2076 -0.6992
 8376SOL    HW136764   3.635   4.469   4.937  0.4183  0.9962 -0.4378
 8376SOL    HW236765   3.507   4.537   4.959 -0.4302 -0.2905 -0.7136
 8377SOL     OW36766   3.598   0.635  12.995 -0.3531  0.2169 -0.2395
 8377SOL    HW136767   3.655   0.683  13.055 -1.3056  2.4075 -1.1217
 8377SOL    HW236768   3.634   0.674  12.916 -0.0830  1.2809  0.4169
 8378SOL     OW36769   2.754   1.570   7.170 -0.2200  0.7916 -0.1943
 8378SOL    HW136770   2.839   1.603   7.199  0.9049 -2.0292 -0.3029
 8378SOL    HW236771   2.753   1.486   7.216  1.0644  1.1743  0.5300
 8379SOL     OW36772   4.220   3.886  12.904 -0.5074  0.2080 -0.5470
 8379SOL    HW136773   4.270   3.923  12.977  0.6243 -2.9950  0.2803
 8379SOL    HW236774   4.281   3.821  12.870 -0.2789  1.6505 -2.9091
 8380SOL     OW36775   3.561   2.159   1.823  0.1266 -0.1816 -0.1899
 8380SOL    HW136776   3.540   2.251   1.834 -0.3939 -0.2592 -0.5807
 8380SOL    HW236777   3.473   2.122   1.829  1.0171 -2.1073  1.1703
 8381SOL     OW36778   4.391   0.395   2.611 -0.1643  0.0225  0.4178
 8381SOL    HW136779   4.432   0.397   2.697 -0.1867  0.6634  0.4154
 8381SOL    HW236780   4.465   0.397   2.551 -0.7248  1.7096 -0.2214
 8382SOL     OW36781   4.308   0.796   7.395  0.2712 -0.3068  0.3682
 8382SOL    HW136782   4.218   0.768   7.411  0.3819 -1.1933 -0.5662
 8382SOL    HW236783   4.327   0.839   7.478  1.4260 -2.9461  1.4844
 8383SOL     OW36784   0.384   4.445  11.065  0.4670  0.1022 -0.0952
 8383SOL    HW136785   0.479   4.438  11.068  0.5513  1.4456  0.2791
 8383SOL    HW236786   0.366   4.538  11.079  1.2297 -0.1641  2.7282
 8384SOL     OW36787   4.061   1.244   0.943 -0.5991 -0.5100  0.2294
 8384SOL    HW136788   4.146   1.237   0.985 -1.3482 -3.2879  1.2726
 8384SOL    HW236789   4.087   1.240   0.851  0.0851 -1.7527  0.4858
 8385SOL     OW36790   0.476   1.390   1.103  0.0861 -0.1859 -1.2399
 8385SOL    HW136791   0.410   1.399   1.033  1.7562  0.0033 -2.7837
 8385SOL    HW236792   0.486   1.296   1.118 -0.3535 -0.1049 -0.4266
 8386SOL     OW36793   1.630   3.677   9.237  0.3187  0.3131 -0.2753
 8386SOL    HW136794   1.704   3.736   9.222  0.6230  0.1219  0.5186
 8386SOL    HW236795   1.597   3.705   9.322  0.9680  3.7250 -1.1636
 8387SOL     OW36796   2.143   3.025   8.248  0.0585  0.1318 -0.5054
 8387SOL    HW136797   2.056   3.043   8.213 -0.5398 -0.7002  0.5640
 8387SOL    HW236798   2.148   3.105   8.301 -0.3694  0.3764 -0.8332
 8388SOL     OW36799   1.642   0.051   3.025 -0.7809 -0.3117 -0.5656
 8388SOL    HW136800   1.668   4.696   3.006  1.9142 -0.1071  2.1319
 8388SOL    HW236801   1.654   0.047   3.120  4.7049 -0.0821 -1.2603
 8389SOL     OW36802   2.066   1.790  15.438 -0.3101  0.4709 -0.1462
 8389SOL    HW136803   1.977   1.795  15.403 -0.1382 -1.6637 -0.8525
 8389SOL    HW236804   2.106   1.721  15.384 -0.2628  1.4504 -1.3663
 8390SOL     OW36805   3.031   3.734   6.596 -0.2942 -0.0495 -0.1349
 8390SOL    HW136806   3.024   3.644   6.627 -2.2351  0.4924  1.0513
 8390SOL    HW236807   3.094   3.774   6.657 -1.0157  1.0061 -0.0721
 8391SOL     OW36808   3.577   3.334   2.653 -0.5443 -0.2229 -0.2326
 8391SOL    HW136809   3.518   3.307   2.582  1.0641 -0.1920 -1.5778
 8391SOL    HW236810   3.559   3.428   2.659  0.4024 -0.1925  2.2587
 8392SOL     OW36811   1.814   0.613   5.807 -0.6904 -0.0882  0.2550
 8392SOL    HW136812   1.842   0.691   5.854  2.0377 -0.2810 -1.0539
 8392SOL    HW236813   1.827   0.638   5.716  1.8783  1.8450  1.1452
 8393SOL     OW36814   3.919   2.395   4.151  0.0536 -0.3639 -0.0399
 8393SOL    HW136815   3.924   2.479   4.106  1.6052  0.7802  2.2310
 8393SOL    HW236816   4.013   2.380   4.164 -0.3178 -1.0002  1.8795
 8394SOL     OW36817   0.532   1.766   9.169 -0.1878  0.2846  0.2055
 8394SOL    HW136818   0.442   1.744   9.193  0.8893 -3.8027  0.6195
 8394SOL    HW236819   0.522   1.792   9.078  0.8191  1.4278  0.4279
 8395SOL     OW36820   4.054   0.753   7.756 -0.0113  0.4339 -0.7289
 8395SOL    HW136821   4.045   0.739   7.662  3.3476  2.0230 -1.3170
 8395SOL    HW236822   4.030   0.664   7.782  2.2265  0.2503  0.7505
 8396SOL     OW36823   3.662   2.848   4.175  0.1089 -0.9416  0.0983
 8396SOL    HW136824   3.654   2.830   4.081 -0.2462 -1.5746  0.2463
 8396SOL    HW236825   3.641   2.760   4.207 -1.0601 -0.7640 -0.1814
 8397SOL     OW36826   3.305   4.518   6.080  0.0924 -0.2433 -0.2639
 8397SOL    HW136827   3.227   4.529   6.026 -0.5277 -0.2096  0.6283
 8397SOL    HW236828   3.271   4.547   6.165  3.4324 -1.6306  1.5376
 8398SOL     OW36829   0.658   3.896  12.837  0.0218  0.2384  0.2598
 8398SOL    HW136830   0.694   3.962  12.897  2.7651 -3.0813  2.2442
 8398SOL    HW236831   0.727   3.903  12.770  2.0980  0.3807  2.3984
 8399SOL     OW36832   0.611   0.897   4.671 -0.5234 -0.7510  0.1553
 8399SOL    HW136833   0.656   0.890   4.587 -2.2651  1.9626 -0.9871
 8399SOL    HW236834   0.602   0.803   4.685 -2.2356 -0.7012 -0.5789
 8400SOL     OW36835   1.461   2.321   6.334  0.5926  0.7410  0.4106
 8400SOL    HW136836   1.423   2.291   6.416 -0.7608 -0.0245 -0.5076
 8400SOL    HW236837   1.386   2.313   6.275  2.1028  2.2513 -1.7176
 8401SOL     OW36838   3.022   1.813  17.305 -0.2991  0.0904 -0.0871
 8401SOL    HW136839   3.089   1.866  17.346 -0.7815  2.9188 -2.9452
 8401SOL    HW236840   2.993   1.754  17.374  1.1074  1.4530  1.6465
 8402SOL     OW36841   4.708   0.055   2.974  0.6583 -0.7308 -0.3502
 8402SOL    HW136842   4.717   0.067   2.880 -2.7964 -0.1015 -0.6166
 8402SOL    HW236843   4.622   0.014   2.984  0.1799 -0.0373 -1.6311
 8403SOL     OW36844   0.815   3.943   4.459  0.0153  0.4715  0.5888
 8403SOL    HW136845   0.902   3.904   4.472 -0.9175 -2.0770 -0.8320
 8403SOL    HW236846   0.838   4.017   4.403 -0.9390  0.7119  0.5110
 8404SOL     OW36847   4.293   0.309   7.885  0.2839  0.1493 -0.1808
 8404SOL    HW136848   4.254   0.223   7.903 -0.1899  0.2461 -0.7339
 8404SOL    HW236849   4.231   0.344   7.821 -0.1844  0.4897  0.4607
 8405SOL     OW36850   3.875   3.071  13.827  0.3199 -0.0909 -0.4922
 8405SOL    HW136851   3.923   3.118  13.759 -1.4495  1.7517 -0.4801
 8405SOL    HW236852   3.937   3.000  13.839 -0.6322 -0.8609 -0.1442
 8406SOL     OW36853   0.308   4.560  14.337  0.4213 -0.2584 -0.0188
 8406SOL    HW136854   0.243   4.629  14.329 -0.3844 -1.3605 -3.0865
 8406SOL    HW236855   0.287   4.507  14.260  1.3755 -0.8685  0.1449
 8407SOL     OW36856   3.999   2.269   0.042 -0.1442  0.3110  0.1020
 8407SOL    HW136857   3.980   2.345  17.725 -0.1429  0.4904  0.3419
 8407SOL    HW236858   3.923   2.277   0.100  1.0585  2.6084  1.3577
 8408SOL     OW36859   0.542   2.001   1.191 -0.1082  0.8510  0.1185
 8408SOL    HW136860   0.626   2.010   1.235 -0.8846 -0.2531  1.8518
 8408SOL    HW236861   0.490   1.978   1.268 -0.6821 -0.6287 -0.7146
 8409SOL     OW36862   3.402   4.541   7.496  0.0181 -0.4065  0.1053
 8409SOL    HW136863   3.397   4.451   7.527 -0.0263  0.1811  1.7857
 8409SOL    HW236864   3.442   4.529   7.409 -1.9966 -0.8103 -0.7711
 8410SOL     OW36865   3.796   4.084   7.591 -0.1641  0.1067 -0.1381
 8410SOL    HW136866   3.742   4.021   7.638  0.9569 -2.4963 -2.3262
 8410SOL    HW236867   3.853   4.111   7.664 -0.0976 -0.0062 -0.1469
 8411SOL     OW36868   1.409   2.148  14.762  0.2995  0.8420  0.0174
 8411SOL    HW136869   1.421   2.056  14.739  0.0989  0.7244  0.3782
 8411SOL    HW236870   1.320   2.137  14.797  1.6117 -0.9015  2.7659
 8412SOL     OW36871   2.453   0.508   3.531 -0.2056  0.0132 -0.5241
 8412SOL    HW136872   2.485   0.524   3.442  0.4706 -1.1386 -0.4819
 8412SOL    HW236873   2.370   0.556   3.536 -1.3506 -2.0970  0.7917
 8413SOL     OW36874   0.860   4.241   7.979 -0.1115 -0.5151  0.1171
 8413SOL    HW136875   0.949   4.211   7.993  0.0628 -0.5773 -1.0610
 8413SOL    HW236876   0.806   4.177   8.025  0.4304 -2.6830 -2.2665
 8414SOL     OW36877   0.327   4.581  12.852 -0.0765 -0.0911  0.1688
 8414SOL    HW136878   0.342   4.495  12.890 -0.0455 -0.5458 -0.8802
 8414SOL    HW236879   0.324   4.562  12.758 -1.0540 -1.6854  0.5366
 8415SOL     OW36880   3.529   3.285   4.522 -0.0664 -0.5724  0.5474
 8415SOL    HW136881   3.534   3.317   4.612  0.6273  0.0613  0.2819
 8415SOL    HW236882   3.494   3.365   4.483  3.1026 -0.8602 -2.8056
 8416SOL     OW36883   1.681   4.616   7.621 -0.6000  0.1161  0.8449
 8416SOL    HW136884   1.587   4.605   7.603 -0.0324 -1.3744 -1.1853
 8416SOL    HW236885   1.714   4.529   7.645  0.5289 -0.8858 -4.4876
 8417SOL     OW36886   3.232   3.681  15.852  0.1675 -0.5047  0.3387
 8417SOL    HW136887   3.197   3.657  15.938  0.2048  1.8233  0.9922
 8417SOL    HW236888   3.184   3.763  15.838 -0.4302 -1.2319 -1.9133
 8418SOL     OW36889   1.824   3.533  12.411 -0.3596  0.5309  0.3287
 8418SOL    HW136890   1.732   3.513  12.425 -1.1051  3.1195 -1.0205
 8418SOL    HW236891   1.849   3.495  12.327 -2.6750  0.4125 -0.2959
 8419SOL     OW36892   1.920   2.849   3.376  0.0668 -0.1407  0.1134
 8419SOL    HW136893   1.923   2.792   3.299 -0.5880  1.5569 -1.1684
 8419SOL    HW236894   1.894   2.933   3.339 -2.3177 -1.0214 -0.2191
 8420SOL     OW36895   3.764   3.926   8.579  0.1334 -0.1711  0.7214
 8420SOL    HW136896   3.803   3.840   8.564  2.5257  1.4558 -2.5145
 8420SOL    HW236897   3.812   3.960   8.655  1.0803  1.8682 -0.7617
 8421SOL     OW36898   4.503   4.513   3.172  0.2156 -0.1192 -0.0941
 8421SOL    HW136899   4.501   4.575   3.244  0.4685  0.5006 -0.6248
 8421SOL    HW236900   4.425   4.536   3.121  0.1109 -0.9980 -0.3357
 8422SOL     OW36901   1.101   1.602   2.244  0.1264 -0.0062  0.1815
 8422SOL    HW136902   1.196   1.605   2.256  0.3136 -4.2071 -0.4382
 8422SOL    HW236903   1.080   1.696   2.237 -0.5729 -0.0262  1.9809
 8423SOL     OW36904   1.348   0.398   5.735 -0.1654  0.7167 -0.0063
 8423SOL    HW136905   1.256   0.422   5.745 -0.1977 -0.4465  2.4503
 8423SOL    HW236906   1.390   0.484   5.731 -1.6721  1.4976  0.9708
 8424SOL     OW36907   1.867   1.703   8.138 -0.7911 -0.0267  0.0621
 8424SOL    HW136908   1.932   1.668   8.198  1.4786 -0.6099 -2.7124
 8424SOL    HW236909   1.921   1.731   8.064  1.0223 -3.4014  0.1447
 8425SOL     OW36910   0.264   0.784   7.331  0.0156  0.3298  0.1943
 8425SOL    HW136911   0.253   0.770   7.237  1.8767  1.6010 -0.1913
 8425SOL    HW236912   0.318   0.709   7.356 -1.3564 -0.3825  1.0265
 8426SOL     OW36913   4.060   2.547   2.312 -0.3228  0.5415  0.4564
 8426SOL    HW136914   4.065   2.451   2.315 -0.0911  0.4949 -1.3564
 8426SOL    HW236915   3.969   2.553   2.342 -0.3435  0.9573  0.3115
 8427SOL     OW36916   1.767   2.564   4.310  0.0775  0.1591 -0.0897
 8427SOL    HW136917   1.748   2.546   4.217 -0.2487  0.4455 -0.0764
 8427SOL    HW236918   1.740   2.652   4.333  0.9836 -0.0042  1.5892
 8428SOL     OW36919   0.157   1.275   3.627 -0.4571 -0.1187  0.4179
 8428SOL    HW136920   0.099   1.200   3.616 -1.5290  1.3085 -3.4794
 8428SOL    HW236921   0.213   1.256   3.552  1.1987 -1.0875  1.8705
 8429SOL     OW36922   3.130   3.435   3.164  0.0754  0.0116 -0.0880
 8429SOL    HW136923   3.189   3.446   3.239 -0.5836 -0.0543  0.4384
 8429SOL    HW236924   3.132   3.340   3.156  1.5866 -0.0827  1.3517
 8430SOL     OW36925   4.453   0.085   8.652 -0.7415 -0.2670 -0.0806
 8430SOL    HW136926   4.436   0.141   8.727  0.2299  1.1402 -0.9027
 8430SOL    HW236927   4.424   0.139   8.578  1.6196  3.0201  1.4458
 8431SOL     OW36928   3.019   3.604  14.613  0.9379 -0.0342 -0.5515
 8431SOL    HW136929   3.060   3.519  14.628 -1.5711 -0.8875  1.4388
 8431SOL    HW236930   2.932   3.587  14.575  2.5507 -0.4282 -4.0972
 8432SOL     OW36931   0.654   2.042   7.702 -0.4274 -0.4197 -0.1043
 8432SOL    HW136932   0.615   2.043   7.614 -0.1852  0.7515 -0.1991
 8432SOL    HW236933   0.607   1.969   7.744 -3.4486  1.7329  0.2359
 8433SOL     OW36934   0.324   2.008   6.747 -0.4441  0.2994 -0.3875
 8433SOL    HW136935   0.277   1.928   6.770 -0.0252 -0.1399 -1.0706
 8433SOL    HW236936   0.393   2.006   6.814  0.6962 -0.6479 -1.6010
 8434SOL     OW36937   2.158   3.389  10.560  0.0837  0.0924  0.1512
 8434SOL    HW136938   2.062   3.394  10.557  0.0541  0.4721  1.5655
 8434SOL    HW236939   2.186   3.474  10.526  1.7438 -0.7853 -0.6793
 8435SOL     OW36940   2.105   2.253   8.577 -0.4153  0.4379 -0.2239
 8435SOL    HW136941   2.022   2.254   8.529  0.3497 -1.4953 -1.5306
 8435SOL    HW236942   2.152   2.185   8.529 -0.5714 -0.4801  0.9254
 8436SOL     OW36943   0.462   1.631   8.183  0.5209 -0.3806  0.3666
 8436SOL    HW136944   0.423   1.688   8.250 -1.0140  0.3313 -1.1482
 8436SOL    HW236945   0.508   1.561   8.229  0.1617 -0.7351  0.1792
 8437SOL     OW36946   0.160   0.830   1.960 -0.1099 -0.2327 -0.4880
 8437SOL    HW136947   0.083   0.880   1.987  1.1195  2.1667 -1.4416
 8437SOL    HW236948   0.188   0.794   2.044  0.8021  0.2745 -0.5751
 8438SOL     OW36949   0.211   2.270   1.085 -0.4755  0.1524 -0.2902
 8438SOL    HW136950   0.199   2.347   1.029  1.9880 -0.4417 -1.6651
 8438SOL    HW236951   0.117   2.260   1.093 -0.7072  1.5568 -1.1268
 8439SOL     OW36952   0.036   1.192   1.382  0.0716 -0.3190  0.2695
 8439SOL    HW136953   4.709   1.263   1.363  1.3415  0.6506 -0.2704
 8439SOL    HW236954   0.111   1.227   1.333 -0.0076 -0.8655 -0.2394
 8440SOL     OW36955   3.713   2.901   9.063 -0.4125 -1.1270  0.0560
 8440SOL    HW136956   3.732   2.991   9.090 -0.0649 -1.6014  1.3783
 8440SOL    HW236957   3.792   2.852   9.086  1.2528  0.4368 -2.3864
 8441SOL     OW36958   1.196   0.099  13.230 -0.2673 -0.2814  0.4181
 8441SOL    HW136959   1.253   0.174  13.244  0.4359 -0.3881 -1.8114
 8441SOL    HW236960   1.259   0.027  13.239 -1.9701 -1.9067 -0.4700
 8442SOL     OW36961   1.247   4.601   5.213 -0.2840 -0.3904  0.2534
 8442SOL    HW136962   1.339   4.576   5.226 -1.0280 -1.0838  4.0998
 8442SOL    HW236963   1.202   4.519   5.196 -0.6248  0.0431 -0.9313
 8443SOL     OW36964   3.841   4.544   7.846 -0.3171 -0.0329 -0.3977
 8443SOL    HW136965   3.764   4.487   7.837 -0.0404 -0.5652  0.5287
 8443SOL    HW236966   3.858   4.513   7.935  1.8925 -1.5555 -1.3484
 8444SOL     OW36967   2.607   1.268   1.818 -0.3978 -0.1357 -0.5222
 8444SOL    HW136968   2.662   1.339   1.851  1.3998 -0.2987 -3.1341
 8444SOL    HW236969   2.638   1.271   1.727 -0.5631  1.1587 -0.5394
 8445SOL     OW36970   0.252   3.060  16.673 -0.5549  0.1456  0.3035
 8445SOL    HW136971   0.268   3.033  16.583 -2.5999  2.8905 -0.8877
 8445SOL    HW236972   0.276   2.976  16.712 -1.7003 -1.1604 -1.7821
 8446SOL     OW36973   0.291   2.987   7.121 -0.4391  0.0682 -0.8942
 8446SOL    HW136974   0.208   2.979   7.169  0.4797  0.4921  0.7352
 8446SOL    HW236975   0.355   2.999   7.190  0.1672 -2.4377 -1.0122
 8447SOL     OW36976   2.064   3.958   8.983 -0.1507  0.1564 -0.8975
 8447SOL    HW136977   1.978   3.998   8.968  0.3461  2.7053  3.0490
 8447SOL    HW236978   2.078   3.998   9.069 -0.1918  0.1658 -0.8950
 8448SOL     OW36979   0.422   0.488   6.939  0.4203  0.1335  0.2774
 8448SOL    HW136980   0.425   0.441   7.023 -1.3529 -0.1444  0.1835
 8448SOL    HW236981   0.475   0.436   6.879 -0.8715 -0.6551 -0.1818
 8449SOL     OW36982   2.591   3.698   9.502  1.0390  0.6279  0.0206
 8449SOL    HW136983   2.580   3.748   9.584  0.9406 -1.2499  1.1427
 8449SOL    HW236984   2.618   3.758   9.432  0.1746  3.9584  2.5473
 8450SOL     OW36985   4.694   4.032   6.270 -0.0020  0.0278 -0.2250
 8450SOL    HW136986   4.610   4.034   6.225 -0.3479  0.3640  0.4391
 8450SOL    HW236987   4.726   3.952   6.229  0.5929  1.2190 -2.1285
 8451SOL     OW36988   0.829   1.838   5.862  0.1580  0.0610  0.1086
 8451SOL    HW136989   0.772   1.841   5.786 -1.1311 -0.7073  1.0528
 8451SOL    HW236990   0.794   1.917   5.904 -0.5529 -0.2433  0.0731
 8452SOL     OW36991   0.731   0.752   8.352  0.7773 -0.0539 -0.2794
 8452SOL    HW136992   0.822   0.754   8.321  0.0806  1.9144 -2.1738
 8452SOL    HW236993   0.694   0.736   8.265  1.1515 -1.0824 -0.2514
 8453SOL     OW36994   4.511   3.743  13.835 -0.2104  0.2140  0.0743
 8453SOL    HW136995   4.465   3.704  13.908 -0.9882  4.0918  1.6785
 8453SOL    HW236996   4.604   3.732  13.856 -0.1178 -0.8183 -0.8696
 8454SOL     OW36997   4.406   4.466   5.284  0.3707  0.4282 -0.1558
 8454SOL    HW136998   4.355   4.516   5.219 -1.1583 -3.0927 -1.6643
 8454SOL    HW236999   4.459   4.405   5.233  0.4676 -0.3969  0.9198
 8455SOL     OW37000   2.598   1.346  11.158 -0.2784 -0.3561 -0.3829
 8455SOL    HW137001   2.659   1.331  11.230  1.4025 -1.5387 -2.0704
 8455SOL    HW237002   2.558   1.262  11.138  3.2400 -1.7125 -1.6390
 8456SOL     OW37003   3.588   4.409   2.878  0.2650 -0.1272 -0.5150
 8456SOL    HW137004   3.562   4.456   2.799 -1.2666 -1.5945 -0.8885
 8456SOL    HW237005   3.643   4.336   2.850  0.4154 -0.6385  1.1165
 8457SOL     OW37006   0.908   2.217   1.133 -0.6367  0.0205  0.1629
 8457SOL    HW137007   0.914   2.208   1.038 -0.4692 -2.3618  0.3970
 8457SOL    HW237008   0.976   2.283   1.142 -1.2949  0.8658 -1.0729
 8458SOL     OW37009   3.687   4.709   6.897 -0.3957  0.3781 -0.3384
 8458SOL    HW137010   3.603   0.013   6.871 -0.4393  1.7618  1.9493
 8458SOL    HW237011   3.743   0.052   6.892  0.0220  0.1875  1.5710
 8459SOL     OW37012   0.574   4.386  17.252 -0.1606 -0.0079 -0.4512
 8459SOL    HW137013   0.510   4.431  17.306  0.8947 -1.1966  1.7620
 8459SOL    HW237014   0.617   4.464  17.215 -0.5846  0.2186 -0.4645
 8460SOL     OW37015   3.450   3.551   4.442  0.1602 -0.2559 -0.5840
 8460SOL    HW137016   3.512   3.604   4.393 -0.0428 -0.2785 -0.8676
 8460SOL    HW237017   3.401   3.616   4.492 -0.5762 -1.2449 -0.0194
 8461SOL     OW37018   0.018   1.306   4.532  0.7076  0.2514  0.1006
 8461SOL    HW137019   4.704   1.257   4.467  0.8688 -0.1238  0.2639
 8461SOL    HW237020   0.050   1.372   4.470  0.7551 -0.8358 -1.0303
 8462SOL     OW37021   2.497   2.111   4.345  0.0901  0.0354 -0.2216
 8462SOL    HW137022   2.505   2.022   4.313 -0.8682  0.2773 -1.0920
 8462SOL    HW237023   2.496   2.094   4.440 -2.5705  2.8694  0.2792
 8463SOL     OW37024   2.920   2.887  16.860 -0.1386  0.6559  0.0335
 8463SOL    HW137025   2.897   2.913  16.949  3.6144  1.0062  0.9060
 8463SOL    HW237026   2.834   2.855  16.832  0.3174 -0.6255  0.0815
 8464SOL     OW37027   1.319   3.410  13.922  0.1442  0.2145 -0.1824
 8464SOL    HW137028   1.383   3.353  13.965  0.4225 -0.7299 -1.8831
 8464SOL    HW237029   1.371   3.469  13.867  0.0799 -0.2258 -0.7095
 8465SOL     OW37030   0.447   1.548   6.469 -0.2083 -0.3905  0.3382
 8465SOL    HW137031   0.538   1.575   6.460 -0.0526 -0.8410  0.5619
 8465SOL    HW237032   0.445   1.463   6.424  0.9183 -0.9756  1.3880
 8466SOL     OW37033   4.581   2.393   4.503  0.1496  0.3163 -0.0941
 8466SOL    HW137034   4.673   2.393   4.529  0.6976  1.0558 -1.9870
 8466SOL    HW237035   4.556   2.474   4.546  0.4800 -0.1003  0.8676
 8467SOL     OW37036   0.745   0.408   0.064 -0.6822 -0.3250 -0.0751
 8467SOL    HW137037   0.751   0.463  17.726 -1.2385 -0.1522  0.0090
 8467SOL    HW237038   0.730   0.319   0.032  1.1692 -0.7019  0.0840
 8468SOL     OW37039   0.909   0.379  14.837  0.3295 -0.6104  0.2955
 8468SOL    HW137040   0.880   0.470  14.846 -0.6258 -0.8597 -0.1875
 8468SOL    HW237041   0.983   0.391  14.778 -0.6624 -2.3442 -1.2900
 8469SOL     OW37042   3.206   1.616  17.191  0.0248  0.3953 -0.4035
 8469SOL    HW137043   3.280   1.676  17.186  0.6826 -0.2708  1.1932
 8469SOL    HW237044   3.138   1.678  17.215  1.6595  0.6183  3.6277
 8470SOL     OW37045   2.542   4.583   6.160 -0.3560  0.5253  0.1191
 8470SOL    HW137046   2.489   4.554   6.087  1.7966  0.0583 -1.2661
 8470SOL    HW237047   2.573   4.672   6.141  2.0379 -0.6033 -1.2499
 8471SOL     OW37048   1.389   3.406   8.198 -0.3809  0.4970 -0.3794
 8471SOL    HW137049   1.395   3.466   8.272 -0.6514  0.1751 -0.1038
 8471SOL    HW237050   1.338   3.332   8.231  0.5408 -0.2106 -0.5354
 8472SOL     OW37051   4.090   0.606   9.335  0.3793 -0.2420  0.0291
 8472SOL    HW137052   4.155   0.569   9.276  0.0459 -2.7003  1.2000
 8472SOL    HW237053   4.030   0.532   9.340  0.1629  0.1217  3.1363
 8473SOL     OW37054   3.524   1.593   5.580  0.5561  0.1274 -0.0610
 8473SOL    HW137055   3.476   1.589   5.497 -0.0300  1.5648  0.2002
 8473SOL    HW237056   3.602   1.637   5.547  0.4452  1.1784  1.0936
 8474SOL     OW37057   3.922   1.631   7.022 -0.2428 -0.1611  0.1836
 8474SOL    HW137058   3.920   1.609   6.929  0.4543 -0.6137  0.2703
 8474SOL    HW237059   3.903   1.550   7.070 -0.7885 -0.0393  0.1696
 8475SOL     OW37060   1.201   3.171  15.952  0.1451  0.1811 -0.6249
 8475SOL    HW137061   1.241   3.220  15.880 -0.0200 -0.2775 -1.0313
 8475SOL    HW237062   1.106   3.183  15.946  0.2263  1.8124  1.4949
 8476SOL     OW37063   1.609   3.165   2.752 -0.4385 -0.2674 -0.8722
 8476SOL    HW137064   1.609   3.086   2.696  0.5730  0.1832 -1.5266
 8476SOL    HW237065   1.580   3.126   2.834  0.3347 -1.4146 -1.1403
 8477SOL     OW37066   1.842   3.293   1.436  0.1100  0.1061  0.3144
 8477SOL    HW137067   1.872   3.265   1.349 -0.0941 -0.2959  0.3720
 8477SOL    HW237068   1.898   3.370   1.436  0.5537 -0.2128 -0.4988
 8478SOL     OW37069   1.305   4.011   9.622  0.4890 -0.0269 -0.6939
 8478SOL    HW137070   1.263   4.049   9.700  0.7844  0.9194 -0.9999
 8478SOL    HW237071   1.245   3.939   9.603  0.8671 -0.4573 -0.2581
 8479SOL     OW37072   4.047   0.843   4.160  0.0981 -0.8208 -0.5499
 8479SOL    HW137073   4.008   0.769   4.207 -0.5411  0.6922  1.3048
 8479SOL    HW237074   3.987   0.841   4.086  0.0329  0.6118 -0.5305
 8480SOL     OW37075   1.180   2.429  11.195 -0.5359 -0.4300 -0.2500
 8480SOL    HW137076   1.254   2.436  11.135 -0.6385 -2.3118 -0.6122
 8480SOL    HW237077   1.165   2.336  11.215  2.4902 -1.3320 -2.1776
 8481SOL     OW37078   4.527   4.296  13.043 -0.2671  0.2116 -0.4468
 8481SOL    HW137079   4.603   4.351  13.065 -1.1978  0.6377  1.6975
 8481SOL    HW237080   4.524   4.297  12.948  0.5534  1.1409 -0.4629
 8482SOL     OW37081   0.536   0.471   9.014 -0.1036 -0.2302  0.0312
 8482SOL    HW137082   0.513   0.409   9.084 -0.4388 -1.2635 -0.9876
 8482SOL    HW237083   0.625   0.441   8.995 -0.6061  0.5451 -3.5929
 8483SOL     OW37084   2.282   2.641   2.078  0.1798  0.4514 -0.0768
 8483SOL    HW137085   2.269   2.716   2.137 -0.8605  1.2000 -1.2723
 8483SOL    HW237086   2.346   2.586   2.122  0.5824  0.7803 -0.2504
 8484SOL     OW37087   1.299   3.754   7.232 -0.1135  0.0962  0.0963
 8484SOL    HW137088   1.293   3.728   7.141  1.0367 -2.7426  0.8266
 8484SOL    HW237089   1.383   3.800   7.234  0.1233 -0.3631  1.0032
 8485SOL     OW37090   0.360   3.508   6.663  0.1629 -0.1086  0.7422
 8485SOL    HW137091   0.329   3.564   6.592  0.8933  0.3454  0.7838
 8485SOL    HW237092   0.326   3.430   6.619 -1.3751  0.5126  0.8366
 8486SOL     OW37093   3.751   3.695   7.551  0.1546  0.5045 -0.1239
 8486SOL    HW137094   3.826   3.639   7.569 -0.1756 -0.1067 -0.6680
 8486SOL    HW237095   3.676   3.648   7.587 -0.9197  0.5139 -2.4158
 8487SOL     OW37096   3.940   2.324  13.876  0.1100  0.2184  0.1879
 8487SOL    HW137097   3.980   2.237  13.874  0.3669  0.3607 -0.8146
 8487SOL    HW237098   3.937   2.339  13.971 -0.9864  1.6630 -0.0784
 8488SOL     OW37099   2.488   1.556  10.975  0.3265  0.0037 -0.3117
 8488SOL    HW137100   2.526   1.537  11.061 -0.9713 -0.5805  0.1496
 8488SOL    HW237101   2.498   1.651  10.967  1.3609 -0.2120 -1.5058
 8489SOL     OW37102   3.343   1.544   2.556  0.2495  0.2650 -0.3020
 8489SOL    HW137103   3.253   1.577   2.556  0.5658  1.1747  1.2667
 8489SOL    HW237104   3.347   1.468   2.614 -0.8716  0.0733 -0.4807
 8490SOL     OW37105   4.344   2.681   5.716 -0.5088 -0.2727 -0.3545
 8490SOL    HW137106   4.388   2.596   5.713 -1.3529 -0.7439  0.4528
 8490SOL    HW237107   4.265   2.659   5.668 -0.3050 -0.2214 -0.7075
 8491SOL     OW37108   2.938   1.749   5.508  0.0277 -0.2314 -0.6755
 8491SOL    HW137109   3.003   1.766   5.576  2.8344  0.2334 -3.4578
 8491SOL    HW237110   2.901   1.832   5.481 -0.0039  0.3139  1.0464
 8492SOL     OW37111   4.346   1.066  15.207  0.3635  0.2365 -0.3945
 8492SOL    HW137112   4.280   1.136  15.213  0.4659  0.3764 -0.8934
 8492SOL    HW237113   4.290   0.989  15.215 -1.6616  1.9852  2.3565
 8493SOL     OW37114   1.118   0.449   8.804 -0.4453  0.5160 -0.0530
 8493SOL    HW137115   1.082   0.367   8.838 -1.9082  1.0417 -0.3423
 8493SOL    HW237116   1.141   0.490   8.888 -0.1325  0.5105 -0.1360
 8494SOL     OW37117   0.086   4.643  15.090 -0.0289  0.0228  0.0235
 8494SOL    HW137118   4.733   4.637  15.053 -0.0183 -1.3163  0.2114
 8494SOL    HW237119   0.100   4.556  15.127 -0.9298 -0.3223 -0.4412
 8495SOL     OW37120   1.792   1.598   3.486  0.3900 -0.1540  0.3652
 8495SOL    HW137121   1.777   1.557   3.401 -2.6935  0.8356  0.4245
 8495SOL    HW237122   1.708   1.595   3.531  1.3960  0.8132  2.3292
 8496SOL     OW37123   3.949   1.807   3.976 -0.0161 -0.2540  0.5662
 8496SOL    HW137124   3.854   1.823   3.979  0.1448  0.4526  1.8190
 8496SOL    HW237125   3.981   1.897   3.976  0.1539 -0.3110 -1.0812
 8497SOL     OW37126   0.094   2.363  13.513  0.1201  0.2428 -0.7120
 8497SOL    HW137127   0.157   2.378  13.582 -0.1587 -1.2455 -0.1433
 8497SOL    HW237128   0.050   2.284  13.543 -0.6471  0.8710 -0.1672
 8498SOL     OW37129   4.389   1.060   6.123  0.6921  0.1328  0.0074
 8498SOL    HW137130   4.456   1.126   6.106 -0.3362  0.4757 -2.5883
 8498SOL    HW237131   4.447   0.992   6.158 -1.6451 -0.5944  2.4592
 8499SOL     OW37132   0.889   4.630  13.311 -0.6329  0.4371 -0.0814
 8499SOL    HW137133   0.824   4.679  13.260  0.5225  1.3275 -0.6989
 8499SOL    HW237134   0.853   4.545  13.337 -0.3474  0.5889  0.8070
 8500SOL     OW37135   4.208   0.784   8.116 -0.0312 -0.3439 -0.8821
 8500SOL    HW137136   4.294   0.810   8.148 -0.2883 -0.8966  0.2635
 8500SOL    HW237137   4.214   0.690   8.102 -0.1737  0.1797 -4.3514
 8501SOL     OW37138   4.333   0.008   6.289  0.1678  0.4627 -0.3034
 8501SOL    HW137139   4.309   4.653   6.269 -2.2184  0.8459  0.7192
 8501SOL    HW237140   4.311   0.004   6.383  1.9037 -0.1383  0.0702
 8502SOL     OW37141   3.609   0.026  10.564 -0.1794 -0.2248  0.1536
 8502SOL    HW137142   3.619   4.711  10.646  0.3898  0.6094  0.5980
 8502SOL    HW237143   3.694   0.070  10.557 -0.0901 -0.8723 -2.6050
 8503SOL     OW37144   1.373   0.469   4.489  0.4022 -0.3766  0.0966
 8503SOL    HW137145   1.458   0.472   4.445 -0.2006 -2.1284 -1.1533
 8503SOL    HW237146   1.394   0.518   4.568  1.0068  0.0281 -0.3124
 8504SOL     OW37147   3.125   3.699   2.316  0.5701 -0.1053 -0.2961
 8504SOL    HW137148   3.076   3.736   2.243 -0.3979 -0.0021  0.3970
 8504SOL    HW237149   3.196   3.763   2.319  1.4058 -1.1634  3.1994
 8505SOL     OW37150   1.018   0.363   2.703 -0.3696 -0.1492  0.0121
 8505SOL    HW137151   1.058   0.292   2.653 -1.3293 -1.1950  0.7420
 8505SOL    HW237152   0.923   0.362   2.693 -0.3624  0.6945 -0.2101
 8506SOL     OW37153   1.539   1.540   1.899  0.4609 -0.2521 -0.2403
 8506SOL    HW137154   1.519   1.632   1.881 -0.3730 -1.0124 -3.1842
 8506SOL    HW237155   1.594   1.551   1.977 -0.8053  0.2747  0.5844
 8507SOL     OW37156   0.117   2.840   8.185 -0.4762  0.4239 -0.2381
 8507SOL    HW137157   0.134   2.821   8.277  0.4792 -1.5076 -0.8261
 8507SOL    HW237158   0.195   2.815   8.137 -0.0125  0.8274  0.3121
 8508SOL     OW37159   1.806   1.017   4.280  0.4388  0.8235 -0.6576
 8508SOL    HW137160   1.899   1.038   4.266  0.5134  0.5941 -0.5019
 8508SOL    HW237161   1.760   1.051   4.203  0.3141  1.3709 -0.3403
 8509SOL     OW37162   3.670   1.164  14.728  0.4684 -0.0868 -0.5518
 8509SOL    HW137163   3.742   1.107  14.702 -0.0436 -0.4466 -1.1667
 8509SOL    HW237164   3.690   1.252  14.696 -0.6909  0.3287 -0.1311
 8510SOL     OW37165   2.137   4.255  13.974 -0.2863 -0.0804  0.0489
 8510SOL    HW137166   2.232   4.243  13.983 -0.1579  1.9798  1.3437
 8510SOL    HW237167   2.103   4.176  14.017  1.9530 -2.2645 -2.1856
 8511SOL     OW37168   0.610   3.983   8.649  0.1231 -0.0303  0.4225
 8511SOL    HW137169   0.515   3.981   8.634  0.1606 -0.3290  0.2313
 8511SOL    HW237170   0.599   3.989   8.744  0.3141 -0.2897  0.4581
 8512SOL     OW37171   4.199   1.418   9.682 -0.4838  0.1448  0.1635
 8512SOL    HW137172   4.114   1.377   9.698  0.0083 -0.6323  0.7562
 8512SOL    HW237173   4.182   1.510   9.701 -4.3219 -0.3735 -0.8599
 8513SOL     OW37174   2.244   0.346  16.358  0.1470  0.1527  0.2567
 8513SOL    HW137175   2.203   0.291  16.291  1.1648 -0.6628  0.3036
 8513SOL    HW237176   2.266   0.427  16.312 -0.0222  0.5458  0.8673
 8514SOL     OW37177   0.076   0.391   4.018  0.0692 -0.3280 -0.6310
 8514SOL    HW137178   0.141   0.349   3.961  0.1239 -1.1575  0.0356
 8514SOL    HW237179   0.001   0.333   4.006 -1.4127  0.9892  2.4451
 8515SOL     OW37180   0.173   1.635   1.693 -0.1035 -0.0840 -0.1919
 8515SOL    HW137181   0.265   1.624   1.670  0.4894  1.2749  1.5309
 8515SOL    HW237182   0.135   1.645   1.606  0.2648 -0.0983 -0.3563
 8516SOL     OW37183   3.437   4.273   9.026  0.1054  0.3984 -0.5079
 8516SOL    HW137184   3.366   4.282   8.963  0.4265  1.2518 -0.7398
 8516SOL    HW237185   3.450   4.367   9.026 -0.3396  0.4554 -1.3906
 8517SOL     OW37186   0.587   3.898   3.299 -0.4598 -0.1508 -0.1581
 8517SOL    HW137187   0.532   3.850   3.236  0.2677 -1.2660  0.0480
 8517SOL    HW237188   0.671   3.853   3.291 -0.6673 -0.9081  1.8845
 8518SOL     OW37189   3.361   3.472  17.018  0.4533 -0.0547 -0.1881
 8518SOL    HW137190   3.274   3.434  17.035 -1.0715  3.0068 -1.1817
 8518SOL    HW237191   3.337   3.526  16.942 -0.3106 -2.1340 -1.4316
 8519SOL     OW37192   3.758   0.812   9.144 -0.0905  0.1328 -0.0099
 8519SOL    HW137193   3.736   0.818   9.237 -0.5198  1.4905 -0.2058
 8519SOL    HW237194   3.692   0.755   9.103 -1.3004  2.9010 -1.8665
 8520SOL     OW37195   2.515   2.299  17.069 -0.0355  0.2762 -0.6409
 8520SOL    HW137196   2.524   2.294  16.973 -0.4061 -1.6011 -0.5754
 8520SOL    HW237197   2.607   2.281  17.088 -0.3120 -2.1903 -1.5812
 8521SOL     OW37198   3.358   3.310   6.079  0.4509 -0.0253 -0.2962
 8521SOL    HW137199   3.325   3.393   6.044  0.3740 -0.5032 -1.3588
 8521SOL    HW237200   3.325   3.242   6.020  0.5223 -0.3123 -0.0078
 8522SOL     OW37201   3.014   0.173   6.287  0.1211  0.4344 -0.0906
 8522SOL    HW137202   3.107   0.183   6.310 -0.1287  0.7944  0.7545
 8522SOL    HW237203   3.009   0.078   6.299 -0.7497  0.8009  2.3969
 8523SOL     OW37204   1.483   2.736   9.678 -0.0540 -0.7778  0.3982
 8523SOL    HW137205   1.427   2.751   9.755 -1.1960  0.5451 -0.6946
 8523SOL    HW237206   1.510   2.824   9.650 -1.8114 -0.1481  0.6930
 8524SOL     OW37207   0.107   0.334  11.575 -0.3356  0.0073  0.2738
 8524SOL    HW137208   0.179   0.276  11.551 -0.7864  0.5940 -2.5709
 8524SOL    HW237209   0.081   0.293  11.657 -0.2113 -0.5628  0.0276
 8525SOL     OW37210   0.125   3.497  13.640 -0.1527 -0.5321  0.0684
 8525SOL    HW137211   0.164   3.420  13.682 -1.0952 -0.2859  1.3978
 8525SOL    HW237212   0.163   3.482  13.553 -0.1834  0.2102 -0.0691
 8526SOL     OW37213   4.317   2.758   3.178 -0.5137 -0.1041  0.1735
 8526SOL    HW137214   4.406   2.759   3.141  0.0174 -0.0756  1.4626
 8526SOL    HW237215   4.328   2.697   3.250  2.6435 -0.7516 -0.8730
 8527SOL     OW37216   1.721   2.051  14.843 -0.3980  0.3642  0.2812
 8527SOL    HW137217   1.812   2.068  14.867 -0.2672 -0.3254  0.2673
 8527SOL    HW237218   1.681   2.136  14.862  1.0924  1.0826  0.2198
 8528SOL     OW37219   2.687   1.680   6.499  0.0592  0.3977  0.4522
 8528SOL    HW137220   2.628   1.725   6.439  0.3074 -0.1727 -0.2135
 8528SOL    HW237221   2.699   1.737   6.576  2.6240  1.2972 -0.6162
 8529SOL     OW37222   4.092   4.045   7.511 -0.2090 -0.1090  0.3116
 8529SOL    HW137223   4.091   4.115   7.445 -0.7919  0.2460  0.6925
 8529SOL    HW237224   4.162   4.081   7.566  0.4486 -0.8682 -0.0402
 8530SOL     OW37225   0.019   1.945   1.393 -0.0176  0.5585 -0.7888
 8530SOL    HW137226   0.059   2.004   1.329  0.8578  1.0765  0.2418
 8530SOL    HW237227   4.674   1.995   1.409 -0.3947  0.2653 -1.7444
 8531SOL     OW37228   1.516   0.357   8.265 -0.0512  0.5430  0.5405
 8531SOL    HW137229   1.573   0.350   8.342 -1.0436  0.4613  1.2735
 8531SOL    HW237230   1.474   0.442   8.277 -0.0103  0.4776  1.1759
 8532SOL     OW37231   0.996   1.848   2.235 -0.1841 -0.4091 -0.2736
 8532SOL    HW137232   1.033   1.929   2.201 -1.2997  0.3754  0.3932
 8532SOL    HW237233   0.903   1.861   2.217 -0.5471  1.3901  2.8881
 8533SOL     OW37234   3.977   0.930  14.838 -0.4053  0.3744 -0.1747
 8533SOL    HW137235   3.945   0.956  14.751  0.5389  1.7217 -0.1124
 8533SOL    HW237236   4.061   0.889  14.816  0.1362  1.4361 -0.0666
 8534SOL     OW37237   3.932   4.591   8.563 -0.4276  0.5389 -0.3048
 8534SOL    HW137238   3.902   4.534   8.492  2.7110  0.5672 -1.6354
 8534SOL    HW237239   3.883   4.672   8.550 -0.7113 -0.1169 -3.4431
 8535SOL     OW37240   2.470   0.724   4.138  0.0696 -0.1332  0.6171
 8535SOL    HW137241   2.482   0.666   4.062  1.3769 -0.6163  1.1834
 8535SOL    HW237242   2.457   0.660   4.207 -0.2005 -2.7393 -1.8430
 8536SOL     OW37243   4.673   3.931   0.848 -0.2542  0.4638  0.5133
 8536SOL    HW137244   4.578   3.919   0.847  0.0731 -1.7513 -4.5754
 8536SOL    HW237245   4.690   3.879   0.926 -1.1729  1.3166  1.2912
 8537SOL     OW37246   4.629   0.106   4.356 -0.1474  0.6358  0.4554
 8537SOL    HW137247   4.577   0.185   4.369 -1.4244 -0.1926  0.3576
 8537SOL    HW237248   4.681   0.110   4.436 -0.4563 -0.4482  0.7204
 8538SOL     OW37249   2.641   2.351   8.711 -0.3448  0.3614  0.1542
 8538SOL    HW137250   2.667   2.280   8.653 -0.2557  0.8827 -0.4344
 8538SOL    HW237251   2.605   2.411   8.646  0.8542 -0.3928 -1.2075
 8539SOL     OW37252   3.190   3.804  14.667 -0.3953  0.3279 -1.0528
 8539SOL    HW137253   3.133   3.727  14.665 -0.2271  0.1297  1.3539
 8539SOL    HW237254   3.189   3.839  14.579 -1.1377 -0.6381 -1.4235
 8540SOL     OW37255   2.222   3.328  13.831  0.2014  0.1072 -0.8189
 8540SOL    HW137256   2.216   3.247  13.882 -1.6200  1.3646  0.9647
 8540SOL    HW237257   2.135   3.336  13.793  0.1321  2.0153 -0.2578
 8541SOL     OW37258   1.352   1.433   6.357  0.4579  0.5010  0.0459
 8541SOL    HW137259   1.427   1.449   6.415  1.5352 -1.0742 -0.9361
 8541SOL    HW237260   1.403   1.405   6.281  0.1852  2.4212 -0.8598
 8542SOL     OW37261   1.414   0.716   3.492  0.1378 -0.2723 -0.4050
 8542SOL    HW137262   1.342   0.770   3.459  1.6843  1.4906 -0.9154
 8542SOL    HW237263   1.431   0.656   3.419  0.1599  1.3083 -1.7212
 8543SOL     OW37264   0.369   4.617   8.608  0.0775 -0.3605 -0.1488
 8543SOL    HW137265   0.400   4.704   8.632  0.4475 -0.5111 -0.0841
 8543SOL    HW237266   0.450   4.565   8.611 -2.1022 -3.6712  1.1792
 8544SOL     OW37267   4.391   2.233  12.072 -0.1842  0.2406  0.2875
 8544SOL    HW137268   4.334   2.166  12.035 -0.0434 -1.0251  2.3500
 8544SOL    HW237269   4.476   2.215  12.032 -0.1441 -0.2251  0.5768
 8545SOL     OW37270   0.176   0.913  13.387 -0.3151 -0.1258  0.0933
 8545SOL    HW137271   0.151   0.997  13.347  1.2937 -0.8665 -2.4590
 8545SOL    HW237272   0.250   0.888  13.331  0.3418  0.7924  0.5370
 8546SOL     OW37273   1.426   1.294   4.846  0.2410 -0.5672 -0.2487
 8546SOL    HW137274   1.389   1.308   4.934 -1.0608  1.9051 -1.2075
 8546SOL    HW237275   1.511   1.335   4.864 -0.3586 -0.3451  2.1416
 8547SOL     OW37276   4.579   4.350  16.076  0.4934  0.3641  0.4046
 8547SOL    HW137277   4.524   4.410  16.127  0.7957  1.9455 -1.1430
 8547SOL    HW237278   4.617   4.287  16.138 -0.4456 -0.6894 -0.0845
 8548SOL     OW37279   0.552   0.330   9.235 -0.3042 -0.4936 -0.0021
 8548SOL    HW137280   0.540   0.248   9.283 -0.1516  0.2026  1.2332
 8548SOL    HW237281   0.597   0.383   9.301  0.2008  0.5945 -1.2162
 8549SOL     OW37282   2.721   0.130   3.396  0.4991  0.2660 -0.5622
 8549SOL    HW137283   2.705   0.138   3.302  1.8475 -1.5101 -0.9514
 8549SOL    HW237284   2.796   0.189   3.405 -0.7781  1.4442  2.2362
 8550SOL     OW37285   0.202   0.639   1.752 -0.0458  0.3419 -0.0956
 8550SOL    HW137286   0.136   0.659   1.686 -2.6768 -1.5592  1.9463
 8550SOL    HW237287   0.189   0.705   1.821  0.1298  1.4164 -1.0936
 8551SOL     OW37288   2.905   0.313   6.769 -0.6229 -0.4092 -0.0503
 8551SOL    HW137289   2.852   0.235   6.787 -2.5148  1.1016  0.7924
 8551SOL    HW237290   2.923   0.303   6.675 -1.4190 -1.0237 -0.1402
 8552SOL     OW37291   0.850   3.167   1.547  0.1009  0.2601 -1.0477
 8552SOL    HW137292   0.819   3.154   1.637  1.3868  0.4255 -0.5846
 8552SOL    HW237293   0.939   3.194   1.567  0.7344 -2.0548 -0.6957
 8553SOL     OW37294   0.103   3.338   8.888 -0.0404  0.1659 -0.1659
 8553SOL    HW137295   0.008   3.336   8.883  0.1019 -0.5465 -2.6583
 8553SOL    HW237296   0.121   3.245   8.873 -1.3559 -0.8779  4.5618
 8554SOL     OW37297   1.636   1.396   8.330 -0.3106 -0.1799 -0.1152
 8554SOL    HW137298   1.595   1.312   8.350 -0.2785  0.4814  2.7017
 8554SOL    HW237299   1.563   1.433   8.280  0.5898  0.5474 -0.9105
 8555SOL     OW37300   1.903   2.976   3.776  0.5326 -0.7762 -0.1425
 8555SOL    HW137301   1.863   2.966   3.862 -0.6374  3.4002 -0.1922
 8555SOL    HW237302   1.963   2.903   3.769  0.8602 -0.4792 -0.4378
 8556SOL     OW37303   3.196   2.185  15.429 -0.0755 -0.2638 -1.0671
 8556SOL    HW137304   3.213   2.276  15.405  1.9471 -0.2807  0.3686
 8556SOL    HW237305   3.281   2.152  15.457 -0.1389  0.7943  0.3715
 8557SOL     OW37306   4.123   0.870  15.201  0.1834  0.2694 -0.2340
 8557SOL    HW137307   4.031   0.896  15.198  0.1904  0.3092 -0.0705
 8557SOL    HW237308   4.130   0.830  15.114 -1.0177 -0.9730  0.2349
 8558SOL     OW37309   2.671   0.496   6.194  1.2725 -0.4347 -0.0917
 8558SOL    HW137310   2.684   0.505   6.289  0.9024 -2.6872  0.1651
 8558SOL    HW237311   2.680   0.401   6.187  0.2201 -0.6441  1.4311
 8559SOL     OW37312   3.507   3.592   2.696 -0.0810 -0.0127  0.4015
 8559SOL    HW137313   3.439   3.641   2.650 -0.5519  0.2719  1.4064
 8559SOL    HW237314   3.582   3.645   2.668  0.8275  0.5457  3.9575
 8560SOL     OW37315   2.942   4.507   8.539  0.1562 -0.1585  0.2232
 8560SOL    HW137316   2.879   4.438   8.517 -1.3025  1.6403 -1.3103
 8560SOL    HW237317   2.969   4.532   8.450 -1.0511  0.5751  0.0686
 8561SOL     OW37318   2.425   3.320  12.950  0.1761  0.2209 -0.2225
 8561SOL    HW137319   2.417   3.288  13.040  2.6939 -0.3393 -0.1909
 8561SOL    HW237320   2.361   3.266  12.904  1.2364  0.2921 -1.7848
 8562SOL     OW37321   0.712   3.877  16.619 -0.1926 -0.5053  0.2398
 8562SOL    HW137322   0.806   3.890  16.635 -0.6924 -0.2417  2.9567
 8562SOL    HW237323   0.706   3.872  16.523  0.4371 -1.5516  0.2521
 8563SOL     OW37324   1.455   4.410   5.266 -0.0603  0.1566 -0.3924
 8563SOL    HW137325   1.534   4.363   5.240 -0.6749 -0.5699 -0.9191
 8563SOL    HW237326   1.489   4.472   5.331  1.7305 -0.7672 -0.4656
 8564SOL     OW37327   2.378   0.101   3.318 -0.0790  0.0625 -0.0601
 8564SOL    HW137328   2.313   0.041   3.354  0.4311 -0.8232 -0.6316
 8564SOL    HW237329   2.427   0.117   3.399 -0.0482 -0.0861 -0.0488
 8565SOL     OW37330   0.905   1.639   9.740 -0.1449 -0.5968  0.6397
 8565SOL    HW137331   0.876   1.730   9.746  0.0327 -0.5694  1.0536
 8565SOL    HW237332   0.985   1.637   9.792  1.2374  2.1158 -1.4166
 8566SOL     OW37333   0.603   2.103   8.832 -0.2686 -0.3374 -0.0367
 8566SOL    HW137334   0.605   2.073   8.741 -0.2176  0.2901 -0.2441
 8566SOL    HW237335   0.511   2.129   8.841 -0.6359 -1.3288 -0.8061
 8567SOL     OW37336   2.444   1.226  11.868 -0.5737 -0.2469 -0.7462
 8567SOL    HW137337   2.388   1.239  11.791 -0.8046  0.3593 -0.4764
 8567SOL    HW237338   2.524   1.266  11.835  0.6251 -2.9226 -1.1089
 8568SOL     OW37339   4.039   1.393   1.765  0.3192 -0.5547 -0.1432
 8568SOL    HW137340   4.042   1.299   1.746 -0.9459 -0.6523  0.1317
 8568SOL    HW237341   3.951   1.400   1.802  0.4989  1.8484 -0.1464
 8569SOL     OW37342   4.140   4.133  13.512 -0.4547  0.4074 -0.1881
 8569SOL    HW137343   4.138   4.064  13.445  1.4256 -0.3997  0.5754
 8569SOL    HW237344   4.124   4.085  13.593 -1.2032  2.5636  0.9118
 8570SOL     OW37345   2.438   2.675   3.212  0.2708 -0.1191  0.8372
 8570SOL    HW137346   2.523   2.712   3.188  0.3622  0.3615  1.8956
 8570SOL    HW237347   2.429   2.739   3.282 -2.5993  0.4196 -0.0078
 8571SOL     OW37348   2.333   4.578   6.569  0.0403 -0.0459 -0.7381
 8571SOL    HW137349   2.358   4.669   6.559 -0.3596 -0.0966 -2.2203
 8571SOL    HW237350   2.406   4.536   6.615  0.8886 -0.1088 -2.1092
 8572SOL     OW37351   3.055   2.817   7.274 -0.0036  0.2216  0.3481
 8572SOL    HW137352   3.146   2.800   7.300  0.8410  1.1521 -1.9478
 8572SOL    HW237353   3.019   2.855   7.354  0.9380  0.5605  0.6125
 8573SOL     OW37354   4.673   4.371   6.077  0.0098  0.1470  0.2146
 8573SOL    HW137355   4.607   4.423   6.032 -0.0030 -1.2363 -1.3508
 8573SOL    HW237356   4.630   4.373   6.163 -0.7034 -0.2742 -0.1354
 8574SOL     OW37357   2.235   1.198   8.992 -0.1705  0.3644 -0.1041
 8574SOL    HW137358   2.176   1.262   9.031  1.0652  1.2537  0.3330
 8574SOL    HW237359   2.225   1.125   9.052  0.9708  0.6756  0.4780
 8575SOL     OW37360   1.819   3.777   3.646 -0.8106 -0.1682  1.2327
 8575SOL    HW137361   1.766   3.725   3.586  1.3169 -1.0901  0.1292
 8575SOL    HW237362   1.819   3.869   3.618  0.0339 -1.4815 -2.9713
 8576SOL     OW37363   2.998   3.419   2.347  0.1729 -0.3236  0.2440
 8576SOL    HW137364   3.020   3.443   2.257 -1.3089  0.1977  0.0122
 8576SOL    HW237365   3.073   3.441   2.403  1.4439 -2.6561 -0.5651
 8577SOL     OW37366   0.538   4.344   1.541  0.4162 -0.0766 -0.1536
 8577SOL    HW137367   0.516   4.417   1.483 -2.6968 -1.0124 -0.1227
 8577SOL    HW237368   0.530   4.391   1.624  2.4198  1.9303 -1.1118
 8578SOL     OW37369   0.575   3.895   5.910 -0.0933  0.8356 -0.2610
 8578SOL    HW137370   0.659   3.863   5.941 -0.7276  0.2536  0.8704
 8578SOL    HW237371   0.582   3.876   5.816 -0.2036  1.1752 -0.3405
 8579SOL     OW37372   0.157   3.313  17.737 -0.0344 -0.6210  1.0737
 8579SOL    HW137373   0.251   3.321  17.724 -0.2270  0.8413  0.5516
 8579SOL    HW237374   0.135   3.389  17.684  1.7289 -0.5650  0.4268
 8580SOL     OW37375   0.020   1.500   1.864 -0.2179  0.0356 -0.1250
 8580SOL    HW137376   0.053   1.422   1.820 -1.3768  1.0111 -2.7105
 8580SOL    HW237377   0.079   1.566   1.828  0.3579 -0.7232 -0.5587
 8581SOL     OW37378   2.996   3.143   2.774 -0.0162  0.1936  0.3247
 8581SOL    HW137379   3.061   3.184   2.718  0.4389 -0.4699  0.3555
 8581SOL    HW237380   2.968   3.208   2.838 -0.6899 -1.0056  1.2487
 8582SOL     OW37381   2.578   3.808  16.871 -0.0300 -0.4963  0.3645
 8582SOL    HW137382   2.588   3.789  16.965  1.1078 -1.9712 -0.0488
 8582SOL    HW237383   2.535   3.726  16.847  0.3869 -1.0731  1.5960
 8583SOL     OW37384   0.046   0.697   3.481 -0.3236 -0.4063 -0.2828
 8583SOL    HW137385   4.704   0.689   3.425 -0.8691 -1.4607  0.6178
 8583SOL    HW237386   0.035   0.624   3.541 -2.0201  0.3275  0.3112
 8584SOL     OW37387   2.218   3.020   8.831  0.2526 -0.1615  0.1766
 8584SOL    HW137388   2.309   3.048   8.821  0.5438 -1.8847 -2.1605
 8584SOL    HW237389   2.176   3.087   8.885 -0.1624 -0.8709  0.7399
 8585SOL     OW37390   2.765   1.944   5.184 -0.4767  0.3992 -0.4721
 8585SOL    HW137391   2.749   1.896   5.265 -1.3026  0.7728 -0.4098
 8585SOL    HW237392   2.713   1.886   5.128 -0.8932  0.3491 -0.0342
 8586SOL     OW37393   2.972   2.007  15.819  0.3417  0.2265  0.0632
 8586SOL    HW137394   2.955   1.965  15.903  2.8063 -0.8429 -0.0007
 8586SOL    HW237395   3.066   2.019  15.830  0.2431  0.0280  1.1771
 8587SOL     OW37396   4.329   2.133   2.422  0.0286 -0.0977  0.2920
 8587SOL    HW137397   4.286   2.126   2.337  0.1068 -0.0360  0.2473
 8587SOL    HW237398   4.352   2.226   2.424 -0.2634 -0.0171 -0.1903
 8588SOL     OW37399   3.894   2.060   6.664  0.0362  0.4412  0.2562
 8588SOL    HW137400   3.949   2.036   6.740  1.1452  2.9105  0.2328
 8588SOL    HW237401   3.957   2.049   6.593  0.9602 -1.2693  1.3385
 8589SOL     OW37402   0.145   1.826   8.146  0.2482 -0.1114 -0.1022
 8589SOL    HW137403   0.050   1.824   8.145  0.2146 -0.0965  3.3170
 8589SOL    HW237404   0.176   1.780   8.224  0.0420  0.3367  0.2428
 8590SOL     OW37405   1.224   3.649   6.159  0.7406 -0.6407  0.0356
 8590SOL    HW137406   1.223   3.721   6.096 -2.2356 -2.0102 -1.4674
 8590SOL    HW237407   1.153   3.674   6.218  2.3846  1.2667  1.2005
 8591SOL     OW37408   0.742   3.875   3.706  0.2535 -1.0086  0.0483
 8591SOL    HW137409   0.648   3.874   3.692 -0.2838 -1.6733  3.5555
 8591SOL    HW237410   0.766   3.960   3.670  1.7193 -1.2492  0.4433
 8592SOL     OW37411   2.352   1.987   6.663 -0.3788  0.5611  0.0832
 8592SOL    HW137412   2.426   2.013   6.609  0.5877  0.6216  1.4302
 8592SOL    HW237413   2.320   2.075   6.684  2.4934  1.0219  2.5570
 8593SOL     OW37414   1.340   2.919   1.621 -0.5701  0.4412  0.3764
 8593SOL    HW137415   1.415   2.904   1.678 -1.5239  1.3811  1.8527
 8593SOL    HW237416   1.344   3.014   1.611 -0.5444  0.5269  1.2188
 8594SOL     OW37417   1.088   1.255   6.810 -0.3830 -0.2644  0.3053
 8594SOL    HW137418   1.125   1.307   6.881 -0.3327 -0.0906  0.1531
 8594SOL    HW237419   1.093   1.165   6.842  0.8532 -0.2972 -0.0071
 8595SOL     OW37420   0.709   1.969   1.660 -0.2317  0.0858 -0.0888
 8595SOL    HW137421   0.736   1.884   1.625  0.4020 -0.5536  1.9586
 8595SOL    HW237422   0.769   2.026   1.612 -1.6584  1.3107 -0.3827
 8596SOL     OW37423   4.189   4.646   3.858  0.1857  0.1963 -0.4627
 8596SOL    HW137424   4.201   4.566   3.910 -0.9421 -0.6801 -1.5692
 8596SOL    HW237425   4.176   4.694   3.940 -2.5079  0.0669 -0.8143
 8597SOL     OW37426   2.316   2.246   8.784 -0.7692  0.2558  0.2267
 8597SOL    HW137427   2.316   2.333   8.822  0.2136  0.1775  0.4015
 8597SOL    HW237428   2.239   2.242   8.727 -1.0213 -0.4760  0.6077
 8598SOL     OW37429   3.808   2.665  12.172  0.1090  0.0020 -0.1465
 8598SOL    HW137430   3.878   2.709  12.125  0.1766 -0.7794 -0.7747
 8598SOL    HW237431   3.776   2.608  12.102  2.3148  1.6493 -2.5226
 8599SOL     OW37432   1.570   4.540   8.409 -0.1461 -0.0776  0.0285
 8599SOL    HW137433   1.547   4.633   8.402 -1.0293 -0.0667  3.0516
 8599SOL    HW237434   1.654   4.536   8.454 -0.3404 -1.7196  0.2457
 8600SOL     OW37435   2.305   0.180   1.528 -0.1817  0.5384  0.5004
 8600SOL    HW137436   2.245   0.179   1.602 -1.0450  0.1561 -0.2086
 8600SOL    HW237437   2.244   0.138   1.467  0.2096  1.3844 -0.4644
 8601SOL     OW37438   2.092   3.429  15.613 -0.5047 -0.0417 -0.2168
 8601SOL    HW137439   2.033   3.503  15.629 -1.2270 -0.7603  0.3864
 8601SOL    HW237440   2.175   3.474  15.633 -0.5875 -0.1608  0.3950
 8602SOL     OW37441   3.489   2.201  10.325  0.0939  0.1989  0.1247
 8602SOL    HW137442   3.487   2.277  10.383 -0.3966 -0.0551  0.4451
 8602SOL    HW237443   3.396   2.183  10.332 -0.1377  1.8170  1.1635
 8603SOL     OW37444   3.701   4.587   6.015 -0.4849  0.0359 -0.6104
 8603SOL    HW137445   3.771   4.531   5.981  0.4078  1.5978 -1.3346
 8603SOL    HW237446   3.691   4.655   5.948  2.7884  1.8402  0.7747
 8604SOL     OW37447   2.708   3.889   1.423  0.4781  0.1136  0.3915
 8604SOL    HW137448   2.703   3.832   1.500 -1.0378  1.6706  1.4493
 8604SOL    HW237449   2.798   3.920   1.428  0.5041 -0.3501  2.9125
 8605SOL     OW37450   2.548   0.880   5.316  0.2468 -0.1121 -0.2260
 8605SOL    HW137451   2.545   0.842   5.229  0.2336 -1.3537  0.3173
 8605SOL    HW237452   2.622   0.832   5.352 -0.1346  1.2706  2.4362
 8606SOL     OW37453   2.652   1.507  15.177  0.1212  0.2595  0.4239
 8606SOL    HW137454   2.578   1.513  15.117  0.8686  1.6918 -0.3632
 8606SOL    HW237455   2.657   1.595  15.215 -0.5501  0.3096  0.3931
 8607SOL     OW37456   3.853   4.260   2.070  0.0228 -0.5990  0.6837
 8607SOL    HW137457   3.831   4.352   2.085  1.1306 -0.4928  1.6283
 8607SOL    HW237458   3.946   4.259   2.050 -0.6703  0.0953 -2.5356
 8608SOL     OW37459   3.194   1.899   6.471  0.5549  0.4625 -0.2877
 8608SOL    HW137460   3.161   1.943   6.549 -2.0524 -0.9043 -0.6031
 8608SOL    HW237461   3.150   1.814   6.477  1.5791 -0.1959 -1.8944
 8609SOL     OW37462   1.996   3.643   3.266  0.5587 -0.4210  0.1411
 8609SOL    HW137463   1.935   3.670   3.198  1.0470 -0.0441 -0.1511
 8609SOL    HW237464   2.079   3.663   3.222 -0.6833  3.4040 -0.4151
 8610SOL     OW37465   4.615   3.409  17.608 -0.6214  0.5936 -0.4351
 8610SOL    HW137466   4.637   3.358  17.685 -0.1876 -1.1589 -1.7254
 8610SOL    HW237467   4.695   3.452  17.577  1.4707 -2.2291  1.0546
 8611SOL     OW37468   0.954   1.821   2.909 -0.1386 -0.0517  0.1301
 8611SOL    HW137469   0.862   1.807   2.930  0.5105 -3.2907  0.8758
 8611SOL    HW237470   0.967   1.916   2.907 -1.5601  0.1525  0.5855
 8612SOL     OW37471   1.382   2.640   6.602  0.0284  0.8561 -0.4670
 8612SOL    HW137472   1.375   2.638   6.698 -0.5841  0.1877 -0.5269
 8612SOL    HW237473   1.475   2.654   6.581  0.2962  0.4243  0.4454
 8613SOL     OW37474   4.459   2.596  13.927  0.0921  0.1523 -0.3650
 8613SOL    HW137475   4.422   2.662  13.869  2.1154  1.9802  0.3770
 8613SOL    HW237476   4.515   2.551  13.863 -2.3934 -2.7342 -0.4872
 8614SOL     OW37477   3.400   0.055   8.872  0.2935 -0.3441 -0.1054
 8614SOL    HW137478   3.478   0.109   8.859  0.8832 -1.5948 -1.8908
 8614SOL    HW237479   3.368   0.090   8.955  0.5342  0.0327 -0.1764
 8615SOL     OW37480   1.344   3.953   9.129 -0.0193 -0.1955 -1.5203
 8615SOL    HW137481   1.339   4.003   9.210 -0.4999  0.2241 -1.8080
 8615SOL    HW237482   1.251   3.969   9.111  0.3842 -0.1878 -3.6437
 8616SOL     OW37483   3.526   3.766   3.021 -0.5098  0.2025 -0.1082
 8616SOL    HW137484   3.507   3.795   3.111  1.3239  1.8530 -0.2533
 8616SOL    HW237485   3.453   3.710   2.994  1.4304 -2.4908  0.1891
 8617SOL     OW37486   2.724   0.405   0.531 -0.5298 -0.0467  0.2020
 8617SOL    HW137487   2.666   0.390   0.606 -0.4730 -2.6686 -0.2830
 8617SOL    HW237488   2.810   0.405   0.573  1.2115  1.8536 -3.4126
 8618SOL     OW37489   1.946   3.879   1.873  0.2454  0.6459 -0.4872
 8618SOL    HW137490   1.863   3.832   1.875  1.0093 -0.7393 -0.7308
 8618SOL    HW237491   1.971   3.847   1.786 -0.6235  0.1375 -0.5452
 8619SOL     OW37492   4.240   0.505   3.327  0.4766  0.9287 -0.2449
 8619SOL    HW137493   4.182   0.434   3.354  1.1482  0.7192  0.6576
 8619SOL    HW237494   4.203   0.593   3.335 -0.5101  0.5936 -1.1494
 8620SOL     OW37495   0.349   2.160   8.096 -0.2527 -0.6642 -0.0637
 8620SOL    HW137496   0.438   2.159   8.063 -0.2610 -0.9409 -0.0795
 8620SOL    HW237497   0.343   2.246   8.138 -2.4857 -1.6955  1.7928
 8621SOL     OW37498   3.820   0.718   2.025  0.6293  0.5074  0.1636
 8621SOL    HW137499   3.886   0.772   2.067  0.6341 -0.1294  0.9859
 8621SOL    HW237500   3.778   0.762   1.952 -2.2581  0.5047  1.8110
 8622SOL     OW37501   4.034   1.855  12.934 -0.0056  0.1488  0.6212
 8622SOL    HW137502   3.975   1.792  12.893 -0.7634  1.3667 -0.1830
 8622SOL    HW237503   4.051   1.822  13.022 -0.6869 -0.0168  0.6891
 8623SOL     OW37504   0.470   1.761   4.659  0.7832  0.1567  0.4067
 8623SOL    HW137505   0.533   1.792   4.724  1.5789 -0.2126 -0.1937
 8623SOL    HW237506   0.533   1.706   4.612  2.1922 -0.2854  2.8384
 8624SOL     OW37507   4.012   2.745  12.015  0.2168  0.1675 -0.0880
 8624SOL    HW137508   4.106   2.729  12.022  0.0024 -1.5967 -1.2613
 8624SOL    HW237509   4.005   2.757  11.920  2.8877 -0.1749 -0.3355
 8625SOL     OW37510   4.392   4.006  13.100  0.2821 -0.3686  0.2241
 8625SOL    HW137511   4.421   3.945  13.168 -0.1234  1.6202  2.1716
 8625SOL    HW237512   4.450   4.082  13.111  2.0139 -1.6123 -0.3040
 8626SOL     OW37513   2.521   3.971   5.326  0.9752  0.3430  0.4562
 8626SOL    HW137514   2.609   3.943   5.302  2.1364  2.2420  2.5736
 8626SOL    HW237515   2.499   4.050   5.276  0.7484  1.4059  2.2434
 8627SOL     OW37516   1.513   3.402   5.889  0.0230 -0.3857 -0.6032
 8627SOL    HW137517   1.539   3.459   5.961 -0.4604  0.1256 -0.8273
 8627SOL    HW237518   1.566   3.436   5.817 -1.0960  1.9011 -0.3628
 8628SOL     OW37519   0.280   4.089   4.947  0.3908  0.3394  0.3638
 8628SOL    HW137520   0.264   4.131   5.032 -1.7898 -2.5771  1.4149
 8628SOL    HW237521   0.293   4.161   4.886 -0.4144 -0.3395 -0.6133
 8629SOL     OW37522   0.549   0.037   6.901  0.2417 -0.0683  0.7312
 8629SOL    HW137523   0.491   0.071   6.969  0.9376  1.7128  0.4381
 8629SOL    HW237524   0.498   4.707   6.853  0.5405 -1.0723  1.7521
 8630SOL     OW37525   2.312   1.666   4.065  0.4438 -0.4547 -0.0202
 8630SOL    HW137526   2.327   1.637   3.975  1.9529 -0.1094  0.1257
 8630SOL    HW237527   2.292   1.584   4.110 -0.7583 -0.1529 -0.0168
 8631SOL     OW37528   3.140   1.665   7.605  0.0518 -0.2723 -0.6001
 8631SOL    HW137529   3.164   1.673   7.697 -0.8051  1.7285 -0.5533
 8631SOL    HW237530   3.110   1.753   7.584 -0.2697  0.1389  1.5895
 8632SOL     OW37531   3.741   4.562  15.861  0.0879 -0.8538 -0.4365
 8632SOL    HW137532   3.750   4.475  15.900 -0.1219  0.0792  1.7362
 8632SOL    HW237533   3.645   4.569  15.861  0.2312  1.3515  1.8744
 8633SOL     OW37534   4.706   1.157  11.629  0.2165  0.0864 -0.2911
 8633SOL    HW137535   0.013   1.146  11.715  0.7844 -1.2029 -0.7315
 8633SOL    HW237536   4.731   1.248  11.614  4.7032 -1.3033 -1.1589
 8634SOL     OW37537   4.555   0.965   8.971 -0.8945 -0.0970  0.6012
 8634SOL    HW137538   4.583   1.000   8.886 -1.8720  4.4476  2.1279
 8634SOL    HW237539   4.508   1.041   9.005 -1.1215  0.6980 -1.4508
 8635SOL     OW37540   1.998   3.040   6.695  1.0463 -0.2428 -0.4239
 8635SOL    HW137541   2.080   3.087   6.682  1.8140 -0.8628  2.1865
 8635SOL    HW237542   2.037   2.983   6.761 -0.6965  0.1787  0.9655
 8636SOL     OW37543   0.179   1.463   4.362  0.6594 -0.2992 -0.3424
 8636SOL    HW137544   0.134   1.473   4.278 -0.8392  0.2305  0.5032
 8636SOL    HW237545   0.259   1.516   4.361 -0.1525  0.9086 -1.7132
 8637SOL     OW37546   1.266   3.180   5.970  0.1190 -0.2215 -0.0080
 8637SOL    HW137547   1.311   3.180   5.886 -1.0202 -0.6894 -0.6087
 8637SOL    HW237548   1.338   3.193   6.032 -2.8482  0.8019  3.2571
 8638SOL     OW37549   3.832   1.282  10.236 -0.1252 -0.0232 -0.3532
 8638SOL    HW137550   3.839   1.186  10.231 -3.0295 -0.1628 -1.3901
 8638SOL    HW237551   3.844   1.295  10.330  0.8499  0.0126 -0.4784
 8639SOL     OW37552   1.135   0.198   1.945  0.0107  0.1214 -0.3500
 8639SOL    HW137553   1.045   0.203   1.976 -0.4565 -1.5641 -1.4591
 8639SOL    HW237554   1.183   0.193   2.028  0.7826 -0.9597 -0.8518
 8640SOL     OW37555   0.946   3.117  10.038  0.1104 -0.3620  0.4056
 8640SOL    HW137556   0.971   3.210  10.038 -0.4099 -0.2161 -0.3721
 8640SOL    HW237557   0.855   3.125  10.007 -0.0549  0.6002  1.1447
 8641SOL     OW37558   4.709   3.144   9.990  0.5431 -0.7828 -0.0676
 8641SOL    HW137559   4.696   3.051  10.012  0.1126 -0.6484  0.2554
 8641SOL    HW237560   4.655   3.182  10.059 -2.0649 -3.1191 -0.8314
 8642SOL     OW37561   1.061   4.731   4.793 -0.8527 -0.8026  0.3220
 8642SOL    HW137562   1.039   4.638   4.800  0.4875 -1.0947  0.5093
 8642SOL    HW237563   1.124   4.731   4.864 -0.2313  0.8925 -0.2385
 8643SOL     OW37564   4.281   0.630   2.874 -0.6940  0.2689  0.6121
 8643SOL    HW137565   4.364   0.667   2.904 -1.0200  3.0192 -1.8788
 8643SOL    HW237566   4.249   0.578   2.948  0.6444 -0.9618  0.3327
 8644SOL     OW37567   2.122   1.589   7.474  0.1190  0.1960 -0.0524
 8644SOL    HW137568   2.144   1.682   7.468  0.3307  0.2581  1.7475
 8644SOL    HW237569   2.048   1.591   7.414 -1.4979  1.8220  1.9972
 8645SOL     OW37570   3.072   4.340   4.702 -0.3548 -0.1758  0.4242
 8645SOL    HW137571   3.020   4.394   4.642  1.5898  1.9541  0.6696
 8645SOL    HW237572   3.143   4.306   4.648 -0.1166  0.3552  0.4082
 8646SOL     OW37573   0.976   4.144   6.771 -0.2226 -0.0793 -0.2444
 8646SOL    HW137574   0.882   4.142   6.788 -0.0370 -1.8902  0.4998
 8646SOL    HW237575   1.011   4.182   6.851  2.0655  1.4672 -1.9535
 8647SOL     OW37576   3.375   0.304   5.095  0.0972 -0.0769  0.7136
 8647SOL    HW137577   3.290   0.277   5.130  0.3577 -0.2899  1.1940
 8647SOL    HW237578   3.406   0.237   5.035 -0.1626  1.0072 -0.6239
 8648SOL     OW37579   1.726   1.751   5.734 -0.1825  0.1834  0.4018
 8648SOL    HW137580   1.699   1.715   5.818 -1.4205  3.6614  1.4635
 8648SOL    HW237581   1.790   1.684   5.709 -0.1046  0.7088 -0.8261
 8649SOL     OW37582   0.225   1.709  11.894 -0.2492  0.0834 -0.4265
 8649SOL    HW137583   0.315   1.681  11.874 -0.2056 -1.3044  1.7902
 8649SOL    HW237584   0.188   1.622  11.911  0.3403 -0.1771 -0.4805
 8650SOL     OW37585   2.755   2.573  15.917  0.4025 -0.3814  0.3200
 8650SOL    HW137586   2.823   2.633  15.888 -3.3093  2.6654 -2.1705
 8650SOL    HW237587   2.703   2.634  15.970 -1.1300 -1.1940 -0.2575
 8651SOL     OW37588   1.449   1.049   3.439  0.2853  0.7034  0.2433
 8651SOL    HW137589   1.402   0.988   3.381 -1.3138 -0.2141  2.5233
 8651SOL    HW237590   1.538   1.025   3.411 -0.3180 -0.2379 -0.8921
 8652SOL     OW37591   1.572   3.812   9.496  0.0191  0.2270  0.2501
 8652SOL    HW137592   1.629   3.779   9.566  2.5435  1.7236 -1.0877
 8652SOL    HW237593   1.584   3.906   9.509 -2.2927  0.6168 -0.4630
 8653SOL     OW37594   4.507   1.323   5.712 -0.2979  0.0749  0.1863
 8653SOL    HW137595   4.480   1.241   5.753 -1.9693  0.6063  0.1306
 8653SOL    HW237596   4.426   1.339   5.664  0.3165  1.0945 -0.5212
 8654SOL     OW37597   2.787   4.470   2.386  0.7399 -0.2944 -0.0015
 8654SOL    HW137598   2.855   4.537   2.379 -1.4910  2.0399  0.8236
 8654SOL    HW237599   2.711   4.516   2.421  1.6444  0.3608  1.1083
 8655SOL     OW37600   3.264   2.412  13.350  0.4498 -0.5108  0.1345
 8655SOL    HW137601   3.302   2.342  13.403  2.9228 -2.3952 -4.1275
 8655SOL    HW237602   3.311   2.489  13.382 -1.2656 -0.2862  2.1080
 8656SOL     OW37603   0.304   2.208   0.668 -0.8748  0.2605 -0.1532
 8656SOL    HW137604   0.289   2.262   0.591 -1.9591 -1.7693 -1.3648
 8656SOL    HW237605   0.357   2.273   0.715  0.2633 -0.9892  0.3192
 8657SOL     OW37606   1.168   4.239   1.565 -0.8764 -0.0794  0.0024
 8657SOL    HW137607   1.151   4.165   1.506 -0.4237  1.6371 -2.2630
 8657SOL    HW237608   1.172   4.193   1.649 -1.9422  1.6469  0.9874
 8658SOL     OW37609   1.705   3.979  15.172 -0.0279 -0.1674 -0.2069
 8658SOL    HW137610   1.740   4.056  15.126 -0.2748  0.2472  0.2958
 8658SOL    HW237611   1.626   4.009  15.216  1.1006  0.8084  1.1485
 8659SOL     OW37612   0.762   2.327   6.732 -0.2658  0.4205 -0.0624
 8659SOL    HW137613   0.824   2.258   6.755  0.0464  0.4342 -0.8588
 8659SOL    HW237614   0.757   2.323   6.636 -0.6608 -2.4036  0.0859
 8660SOL     OW37615   2.994   1.485   2.589  0.0700  0.0206  0.4952
 8660SOL    HW137616   3.001   1.518   2.679  0.7769  0.8226  0.1490
 8660SOL    HW237617   2.972   1.393   2.606  1.6921 -0.6023 -0.7776
 8661SOL     OW37618   0.917   4.154  14.740 -0.7718  0.3240 -0.0790
 8661SOL    HW137619   0.852   4.087  14.718 -1.0166  0.9616 -1.2801
 8661SOL    HW237620   0.972   4.092  14.788 -0.4063  1.1081  0.5125
 8662SOL     OW37621   2.706   2.980   4.490  0.4858 -0.4185 -0.5717
 8662SOL    HW137622   2.760   2.945   4.419  0.0310  0.9566 -1.5898
 8662SOL    HW237623   2.626   2.929   4.494 -0.9744  2.1319  2.5320
 8663SOL     OW37624   2.907   2.577   8.195 -0.0516  0.1012 -0.4028
 8663SOL    HW137625   2.954   2.506   8.152 -0.9069  0.1451 -1.4124
 8663SOL    HW237626   2.904   2.533   8.280 -1.0645  1.6404  0.3549
 8664SOL     OW37627   4.252   2.153   2.680 -0.0760 -0.3400 -0.1294
 8664SOL    HW137628   4.283   2.126   2.594  0.6435  1.3444 -0.3927
 8664SOL    HW237629   4.249   2.063   2.713  0.8877 -0.0724  0.6647
 8665SOL     OW37630   1.568   3.828   0.518  0.2013 -0.3566  0.3004
 8665SOL    HW137631   1.610   3.885   0.583  0.1634  0.0588 -0.0440
 8665SOL    HW237632   1.552   3.744   0.562 -1.6257  0.2326  0.7790
 8666SOL     OW37633   4.260   2.998   3.438  0.0056  0.1472 -0.3077
 8666SOL    HW137634   4.219   3.000   3.525 -1.8770 -1.1335 -1.1452
 8666SOL    HW237635   4.266   3.090   3.413 -0.9295  0.8301  1.9820
 8667SOL     OW37636   0.323   4.028   1.552 -0.5016  0.2422  0.2138
 8667SOL    HW137637   0.354   4.089   1.619  1.9002  1.4820 -1.9898
 8667SOL    HW237638   0.338   4.074   1.469  0.7571  0.8888  0.7902
 8668SOL     OW37639   1.890   1.079   8.563 -0.4573 -0.0946 -0.3058
 8668SOL    HW137640   1.984   1.058   8.560 -0.1590  0.8795  1.6854
 8668SOL    HW237641   1.862   1.036   8.483 -0.7393  0.0334 -0.2761
 8669SOL     OW37642   0.001   0.975   4.611 -0.2761 -0.2073  0.0882
 8669SOL    HW137643   0.032   0.914   4.544 -1.1014  1.3165 -1.6871
 8669SOL    HW237644   4.691   1.041   4.558 -2.0618 -0.4262  1.3044
 8670SOL     OW37645   2.566   0.149  11.858 -0.2525 -0.1479 -0.3740
 8670SOL    HW137646   2.625   0.177  11.788  0.8244 -2.6797 -0.4852
 8670SOL    HW237647   2.596   0.063  11.888  0.1404 -0.7275 -2.4254
 8671SOL     OW37648   2.638   3.089   7.921  0.7465 -0.1010  0.0552
 8671SOL    HW137649   2.720   3.099   7.874  1.3239 -1.7311  0.7601
 8671SOL    HW237650   2.667   3.021   7.981  2.7086  0.6508 -0.0479
 8672SOL     OW37651   3.642   0.459  10.991  0.1008  0.1719 -0.1395
 8672SOL    HW137652   3.627   0.547  11.026  1.5168  0.1768  0.4811
 8672SOL    HW237653   3.553   0.425  10.997  0.0030  0.7642  1.6940
 8673SOL     OW37654   2.920   0.561   4.263  0.6681  0.4665 -0.3624
 8673SOL    HW137655   2.885   0.560   4.174 -0.9888 -1.9910  0.3267
 8673SOL    HW237656   2.971   0.642   4.258  2.6649 -0.7660  0.3091
 8674SOL     OW37657   0.388   0.526   7.260 -0.2205  0.2985  0.4601
 8674SOL    HW137658   0.461   0.579   7.229  0.6990 -0.7336  0.8814
 8674SOL    HW237659   0.327   0.522   7.186  0.0164  0.7950  0.2376
 8675SOL     OW37660   4.192   1.988   4.382 -0.5020  0.4622  0.1796
 8675SOL    HW137661   4.205   1.946   4.297  1.8193  1.1119  0.2260
 8675SOL    HW237662   4.280   2.004   4.414 -0.2377 -1.1409  0.2664
 8676SOL     OW37663   2.828   3.256   4.307 -0.1082 -0.0484  0.7645
 8676SOL    HW137664   2.916   3.230   4.334  0.4797  0.4655 -0.6566
 8676SOL    HW237665   2.840   3.248   4.212  1.8719 -1.8421  1.1431
 8677SOL     OW37666   4.497   1.723   7.191  0.1454  0.7271  0.2265
 8677SOL    HW137667   4.526   1.796   7.137  0.5157 -0.8411 -1.6801
 8677SOL    HW237668   4.511   1.762   7.278  1.6655 -1.6184  1.0245
 8678SOL     OW37669   3.911   1.074  15.830  0.2159 -0.5088  0.5885
 8678SOL    HW137670   3.901   1.026  15.747 -0.2613 -1.2835  1.0984
 8678SOL    HW237671   3.980   1.135  15.804 -2.2199  0.9122 -2.5379
 8679SOL     OW37672   3.107   3.125   4.876  0.5632  0.1877  0.4843
 8679SOL    HW137673   3.028   3.103   4.825 -0.4735  0.4886  1.9609
 8679SOL    HW237674   3.171   3.063   4.842  0.8602  0.6921  0.1306
 8680SOL     OW37675   4.708   2.429   5.581  0.5906 -0.0577  0.9893
 8680SOL    HW137676   4.619   2.439   5.548  0.7026  0.2512  0.7829
 8680SOL    HW237677   4.691   2.441   5.674  0.3400  0.8729  0.8167
 8681SOL     OW37678   4.274   3.336   4.361 -0.0420  0.0868  0.5679
 8681SOL    HW137679   4.277   3.350   4.456  0.3972  1.5231  0.3411
 8681SOL    HW237680   4.232   3.250   4.364  0.3620 -0.1033  0.7233
 8682SOL     OW37681   2.141   0.406  12.061 -0.2394 -0.2364  0.3517
 8682SOL    HW137682   2.120   0.458  11.984 -1.4890  0.8935  1.4475
 8682SOL    HW237683   2.227   0.380  12.029 -0.2985  4.2603 -3.4396
 8683SOL     OW37684   0.120   4.050   8.233  0.4448 -0.6583 -0.0651
 8683SOL    HW137685   0.164   3.982   8.283 -0.7063 -3.0585 -2.3600
 8683SOL    HW237686   0.026   4.031   8.242 -0.1134  1.9911 -0.2330
 8684SOL     OW37687   2.377   2.398   5.979 -0.3665 -0.6607  0.8494
 8684SOL    HW137688   2.366   2.333   6.047  0.7928  0.2775  1.9428
 8684SOL    HW237689   2.303   2.457   5.992  0.4243  0.8841 -1.6583
 8685SOL     OW37690   3.119   0.536   6.961  0.2025 -0.0321  0.3425
 8685SOL    HW137691   3.149   0.450   6.933  0.5184 -0.6424  2.5837
 8685SOL    HW237692   3.182   0.547   7.032 -0.7352  2.0975  0.8437
 8686SOL     OW37693   1.150   2.316   8.687 -0.7863  0.1031  0.2798
 8686SOL    HW137694   1.132   2.395   8.638 -0.2078 -0.6723 -1.1785
 8686SOL    HW237695   1.130   2.253   8.618 -2.4280  1.2907 -0.3136
 8687SOL     OW37696   1.992   3.928   8.045  0.3823 -0.4057 -0.0705
 8687SOL    HW137697   1.925   3.988   8.077  2.0127  0.7288  1.1867
 8687SOL    HW237698   1.956   3.903   7.960 -1.1528 -1.7551  0.9755
 8688SOL     OW37699   3.836   0.426   2.033  0.1958  0.5159 -0.2762
 8688SOL    HW137700   3.868   0.396   1.948 -1.7855 -0.7061 -0.5792
 8688SOL    HW237701   3.840   0.521   2.023  2.2719  0.2153 -2.4115
 8689SOL     OW37702   1.211   4.028  16.819  0.1643  0.3111  0.1381
 8689SOL    HW137703   1.305   4.044  16.820  0.1908  0.0193  1.8435
 8689SOL    HW237704   1.209   4.040  16.914  1.8308 -0.9667  0.3300
 8690SOL     OW37705   1.250   4.239   5.290  0.4775 -0.3297 -0.2583
 8690SOL    HW137706   1.220   4.253   5.200 -0.1475 -0.0109  0.0056
 8690SOL    HW237707   1.331   4.290   5.299  0.1770 -0.1711  1.4673
 8691SOL     OW37708   4.432   4.136  17.039  0.8177  0.7730  0.7887
 8691SOL    HW137709   4.392   4.223  17.050  0.1381  0.6774 -0.9839
 8691SOL    HW237710   4.470   4.141  16.952  0.3292  0.9245  0.5859
 8692SOL     OW37711   4.156   0.480   5.450  0.8881  0.5100 -0.6537
 8692SOL    HW137712   4.217   0.407   5.459 -2.2924 -1.7516  2.6477
 8692SOL    HW237713   4.108   0.479   5.533 -0.6445  0.8902 -1.5538
 8693SOL     OW37714   1.369   3.941   7.954  0.7277  0.6887  0.0362
 8693SOL    HW137715   1.461   3.943   7.928  1.2889 -1.0226  1.8917
 8693SOL    HW237716   1.377   3.892   8.036 -0.8209  0.4348  0.0475
 8694SOL     OW37717   1.208   1.479  13.470 -0.2685  0.4089  0.6986
 8694SOL    HW137718   1.160   1.402  13.500 -2.0187  0.7378 -1.2339
 8694SOL    HW237719   1.162   1.497  13.388 -0.9031 -2.8936  0.3068
 8695SOL     OW37720   3.615   2.613   3.923  0.5415 -0.2010  0.3196
 8695SOL    HW137721   3.557   2.647   3.855  0.3468  2.7256  1.9211
 8695SOL    HW237722   3.650   2.539   3.874 -0.1555 -0.5854  0.4091
 8696SOL     OW37723   0.425   3.884  14.081  0.4165  0.2584 -0.4271
 8696SOL    HW137724   0.500   3.845  14.127  0.1022  0.4624  0.2597
 8696SOL    HW237725   0.380   3.805  14.048 -1.1054  0.4466  1.1730
 8697SOL     OW37726   1.705   3.751   1.857  0.1770 -0.5692 -0.4739
 8697SOL    HW137727   1.633   3.699   1.820  1.3218 -1.8037 -0.9820
 8697SOL    HW237728   1.676   3.778   1.944  1.1594 -2.5452  0.4652
 8698SOL     OW37729   3.776   4.096  12.983  0.5688  0.1892  0.2363
 8698SOL    HW137730   3.697   4.052  13.014  1.2669 -0.4163  1.1520
 8698SOL    HW237731   3.846   4.031  12.985 -2.1762 -2.7225  1.8553
 8699SOL     OW37732   4.128   4.026   6.624 -0.2865 -0.0873 -0.2572
 8699SOL    HW137733   4.068   3.953   6.630 -0.2016 -0.1942 -0.7338
 8699SOL    HW237734   4.061   4.075   6.577 -0.8790 -2.2916 -1.6965
 8700SOL     OW37735   2.924   2.647   5.893  0.2271  0.2363 -1.0889
 8700SOL    HW137736   2.921   2.739   5.921 -1.5719 -0.1453 -0.0806
 8700SOL    HW237737   2.980   2.646   5.815 -0.1495  2.9946 -1.4171
 8701SOL     OW37738   0.924   2.080   9.896  0.0591  0.0919  0.3993
 8701SOL    HW137739   0.896   2.030   9.973  0.1966 -0.1597  0.2858
 8701SOL    HW237740   0.908   2.032   9.815  0.0060  0.8864 -0.0596
 8702SOL     OW37741   1.799   2.467   7.117 -0.1831 -0.1719  0.4562
 8702SOL    HW137742   1.764   2.386   7.156  2.0730 -0.8757  1.0496
 8702SOL    HW237743   1.759   2.461   7.031  0.6727  0.6609  0.0028
 8703SOL     OW37744   3.038   1.731   0.182  0.9514 -0.5129 -0.0466
 8703SOL    HW137745   2.955   1.767   0.214  0.5582 -1.5207  0.0574
 8703SOL    HW237746   3.016   1.639   0.174 -0.3181  0.0223 -2.5330
 8704SOL     OW37747   4.310   1.956   7.389 -0.0586 -0.2496 -0.1112
 8704SOL    HW137748   4.255   1.908   7.328 -2.4612  2.6851 -0.2152
 8704SOL    HW237749   4.378   1.890   7.404  1.4461  0.9113 -1.7891
 8705SOL     OW37750   0.637   4.571  16.483  0.2504 -0.9163 -0.1777
 8705SOL    HW137751   0.569   4.571  16.551  1.6591  0.0815  1.2572
 8705SOL    HW237752   0.664   4.662  16.497 -0.0458 -1.1894  2.1749
 8706SOL     OW37753   1.408   2.616   1.950  0.8588  0.4463 -0.1705
 8706SOL    HW137754   1.456   2.586   1.873 -0.0397 -1.0889 -0.1488
 8706SOL    HW237755   1.320   2.577   1.953  0.7461  0.6858 -0.4261
 8707SOL     OW37756   1.678   4.569   5.337  0.3363  0.3899  0.0367
 8707SOL    HW137757   1.670   4.652   5.291 -2.6329  0.5753  0.8611
 8707SOL    HW237758   1.700   4.607   5.422  0.2233  1.7180 -0.5260
 8708SOL     OW37759   1.072   0.739  11.335  0.0475 -0.0360  0.0148
 8708SOL    HW137760   1.019   0.661  11.318  1.0332 -0.4090 -1.2508
 8708SOL    HW237761   1.104   0.749  11.246  0.1483  0.0244  0.0582
 8709SOL     OW37762   2.945   3.054   1.863 -0.3120 -0.1675 -0.5734
 8709SOL    HW137763   2.944   3.146   1.839 -1.0866 -0.2699 -0.9380
 8709SOL    HW237764   2.900   3.057   1.947 -1.6454 -0.3926 -1.2828
 8710SOL     OW37765   2.580   2.134   6.409  0.3036  0.0776 -0.1814
 8710SOL    HW137766   2.540   2.206   6.458 -2.0689 -2.7774  2.0993
 8710SOL    HW237767   2.661   2.121   6.459 -1.5459 -0.2772  2.7805
 8711SOL     OW37768   1.892   3.985   2.205  0.0465 -0.0403 -0.5471
 8711SOL    HW137769   1.813   3.965   2.255  0.6907  2.9241  1.5986
 8711SOL    HW237770   1.900   3.902   2.158 -0.9961 -0.5438  0.1504
 8712SOL     OW37771   1.607   4.272   2.067  0.3637  0.0666  0.0534
 8712SOL    HW137772   1.702   4.282   2.069  0.5036 -1.6723  1.2641
 8712SOL    HW237773   1.608   4.243   1.976 -0.0545  2.9197 -0.8771
 8713SOL     OW37774   2.603   1.774   4.975  0.2155 -0.0474 -0.3500
 8713SOL    HW137775   2.623   1.683   4.999 -1.3477  0.4718  2.9862
 8713SOL    HW237776   2.516   1.761   4.938  1.9700 -2.3218 -3.6111
 8714SOL     OW37777   2.252   1.829  15.659  0.8391 -0.3924  0.0636
 8714SOL    HW137778   2.237   1.897  15.726  2.6094  1.0306 -0.9922
 8714SOL    HW237779   2.161   1.815  15.632  0.0797  6.3056 -0.9391
 8715SOL     OW37780   2.914   3.094   3.233  0.0303  0.0834 -0.2939
 8715SOL    HW137781   2.989   3.115   3.178  1.2592  0.0390  1.3695
 8715SOL    HW237782   2.875   3.181   3.235 -3.1934 -1.3511  0.8398
 8716SOL     OW37783   3.589   2.501   0.172  0.3193 -0.0313  0.1439
 8716SOL    HW137784   3.590   2.512   0.267 -2.1085  3.7534 -0.2719
 8716SOL    HW237785   3.684   2.497   0.162  0.3393  0.7608  0.0395
 8717SOL     OW37786   3.983   0.337   9.392 -0.4289 -0.1540 -0.0724
 8717SOL    HW137787   3.950   0.263   9.342 -0.1863 -0.0903 -0.3284
 8717SOL    HW237788   3.923   0.326   9.465  1.4179  2.2639  1.8225
 8718SOL     OW37789   3.489   3.852   7.477  0.2127  0.3938 -0.0354
 8718SOL    HW137790   3.515   3.941   7.453 -0.1748  0.4583 -0.2173
 8718SOL    HW237791   3.576   3.813   7.485  0.3149  0.8665  1.2309
 8719SOL     OW37792   3.356   0.691   9.572 -0.0204  0.1391  0.7464
 8719SOL    HW137793   3.306   0.610   9.588  2.5796 -1.3413  1.3859
 8719SOL    HW237794   3.347   0.711   9.478 -4.1119  3.1448  1.7860
 8720SOL     OW37795   2.439   1.815   5.608 -0.5821  0.5116 -0.2462
 8720SOL    HW137796   2.449   1.721   5.590 -0.7712  0.6090 -0.8507
 8720SOL    HW237797   2.477   1.850   5.527  1.2807 -0.0720  0.3835
 8721SOL     OW37798   0.238   3.333   3.416  0.0071  0.3528 -0.0840
 8721SOL    HW137799   0.282   3.343   3.500 -0.3828 -0.3329  0.1997
 8721SOL    HW237800   0.223   3.424   3.390 -0.0716  0.9973  2.2118
 8722SOL     OW37801   2.761   3.324  14.249 -0.4082  0.4591  0.4858
 8722SOL    HW137802   2.718   3.263  14.309 -0.3506  0.6431  0.7150
 8722SOL    HW237803   2.692   3.384  14.219 -1.6328 -0.8712  0.6732
 8723SOL     OW37804   1.160   4.073   7.481 -0.0072 -0.7249  0.4498
 8723SOL    HW137805   1.190   4.021   7.555 -0.9878  0.3716  1.6096
 8723SOL    HW237806   1.065   4.073   7.493  0.0545  0.3963  0.9127
 8724SOL     OW37807   0.444   4.127   7.884  0.4790 -0.7200  0.5992
 8724SOL    HW137808   0.384   4.144   7.812  2.4474 -0.3428 -0.9467
 8724SOL    HW237809   0.479   4.040   7.865  1.9622  0.1345 -0.5573
 8725SOL     OW37810   1.669   0.075   3.527 -0.0451 -0.5412  0.2131
 8725SOL    HW137811   1.634   0.131   3.597  0.2396 -0.5023  0.3254
 8725SOL    HW237812   1.596   0.017   3.505  0.3588 -1.5443  1.5107
 8726SOL     OW37813   4.091   3.156   8.721  0.0717 -0.5148 -0.1659
 8726SOL    HW137814   4.021   3.182   8.781 -0.0027 -0.2519 -0.3696
 8726SOL    HW237815   4.042   3.095   8.666  0.0158  1.5492 -2.3717
 8727SOL     OW37816   3.218   1.374   0.023 -1.0068 -0.2454  0.3713
 8727SOL    HW137817   3.216   1.455   0.074  0.8353 -0.9636  1.5812
 8727SOL    HW237818   3.241   1.414  17.678 -1.3491  0.5245  0.6452
 8728SOL     OW37819   0.352   4.361   3.644 -0.1601  0.2666  0.3354
 8728SOL    HW137820   0.443   4.332   3.637 -0.7450 -1.4325 -0.2501
 8728SOL    HW237821   0.320   4.330   3.559 -1.4908 -0.0525  0.9644
 8729SOL     OW37822   3.665   3.894   2.837  0.2342 -0.6003  0.3996
 8729SOL    HW137823   3.611   3.844   2.898 -1.7266 -0.6153 -1.3976
 8729SOL    HW237824   3.677   3.825   2.772  0.2290  0.5141 -0.7889
 8730SOL     OW37825   4.180   2.286   4.173  0.7579  0.1524  0.0594
 8730SOL    HW137826   4.240   2.251   4.238  0.8922  2.5591  1.2282
 8730SOL    HW237827   4.236   2.342   4.119 -1.4882  1.7100 -0.6670
 8731SOL     OW37828   2.442   4.175   8.827 -0.1528 -0.0994  0.1223
 8731SOL    HW137829   2.474   4.120   8.898 -0.2492 -2.8177 -1.9453
 8731SOL    HW237830   2.510   4.241   8.812 -1.1092  0.1160 -3.3627
 8732SOL     OW37831   2.511   3.830   7.653  0.2033 -0.0943  0.1416
 8732SOL    HW137832   2.592   3.871   7.620  0.2842 -1.2960 -1.1357
 8732SOL    HW237833   2.510   3.758   7.591 -0.0992 -0.9368  1.1338
 8733SOL     OW37834   0.156   4.638   8.396  0.1995  0.3159 -0.1591
 8733SOL    HW137835   0.211   4.606   8.324 -0.3452  1.3415 -1.0385
 8733SOL    HW237836   0.214   4.613   8.468 -1.3045 -2.9637 -0.1284
 8734SOL     OW37837   3.429   1.188  14.596 -0.0267 -0.0258  0.1659
 8734SOL    HW137838   3.511   1.204  14.641  0.3857 -0.8667 -0.2799
 8734SOL    HW237839   3.401   1.100  14.623 -0.9708  0.1409 -0.2552
 8735SOL     OW37840   1.429   2.831   9.359  0.6105  0.4883  0.3247
 8735SOL    HW137841   1.490   2.835   9.432  1.5737 -1.9057 -0.3259
 8735SOL    HW237842   1.421   2.924   9.342  0.0312  0.4591  0.4541
 8736SOL     OW37843   3.482   3.810   2.198  0.4665 -0.3036 -0.3891
 8736SOL    HW137844   3.558   3.853   2.157 -0.2477  0.8672 -0.4955
 8736SOL    HW237845   3.497   3.725   2.157  0.5763 -0.3853 -0.1814
 8737SOL     OW37846   3.610   1.852   8.817 -0.0103 -0.3941 -0.6512
 8737SOL    HW137847   3.562   1.920   8.769  0.0413  0.3933  0.3930
 8737SOL    HW237848   3.574   1.857   8.905 -0.6367  0.4208 -0.9575
 8738SOL     OW37849   3.827   2.171   4.254 -0.0336 -0.0602  0.3926
 8738SOL    HW137850   3.868   2.246   4.212  0.4096  0.2435  1.3777
 8738SOL    HW237851   3.738   2.204   4.244 -0.5567 -1.7785 -0.8424
 8739SOL     OW37852   3.175   0.789  15.851 -0.4654 -0.0319 -0.2752
 8739SOL    HW137853   3.191   0.739  15.931  0.3369  0.4068 -0.1543
 8739SOL    HW237854   3.259   0.784  15.804 -0.0142 -1.8186  0.7261
 8740SOL     OW37855   4.082   1.894  14.625 -0.3740 -0.6983 -0.2748
 8740SOL    HW137856   4.102   1.931  14.539 -0.8332 -2.0265 -0.9442
 8740SOL    HW237857   3.991   1.867  14.613  0.0211 -1.0315 -2.5586
 8741SOL     OW37858   2.807   3.006   4.728  0.1217  0.4766 -0.5534
 8741SOL    HW137859   2.769   2.991   4.641  0.0998 -1.4905 -0.1971
 8741SOL    HW237860   2.860   2.926   4.731  0.0348  0.4266 -0.3806
 8742SOL     OW37861   0.303   1.841   5.076  0.3799  0.1332  0.1164
 8742SOL    HW137862   0.378   1.782   5.067  0.7788  0.7788 -0.7403
 8742SOL    HW237863   0.232   1.781   5.101  3.2719 -1.9486  3.1813
 8743SOL     OW37864   2.070   1.706  17.251  0.2639  0.8962 -0.2729
 8743SOL    HW137865   2.064   1.621  17.209  1.2091  0.2221  0.9590
 8743SOL    HW237866   1.988   1.747  17.223  0.4147  1.6779  0.4424
 8744SOL     OW37867   4.022   3.124   8.232 -0.2884  0.2701 -0.4233
 8744SOL    HW137868   4.067   3.205   8.253  1.3095 -0.3989 -1.3297
 8744SOL    HW237869   3.957   3.145   8.165  0.4703 -0.5880 -1.4254
 8745SOL     OW37870   3.316   2.821   3.249  0.1460 -0.5502 -0.0978
 8745SOL    HW137871   3.324   2.726   3.254  0.4121 -0.5612 -0.7478
 8745SOL    HW237872   3.286   2.829   3.158 -0.1042  0.3880  0.0666
 8746SOL     OW37873   3.880   2.519   9.916 -0.2589 -0.1911 -0.4070
 8746SOL    HW137874   3.974   2.501   9.925 -0.4134 -0.7172  0.1203
 8746SOL    HW237875   3.886   2.533   9.821  1.8418 -0.7903 -0.3581
 8747SOL     OW37876   3.391   0.084   3.474 -0.6356  0.0913 -0.1227
 8747SOL    HW137877   3.459   0.025   3.508  1.0429  2.3159  0.3832
 8747SOL    HW237878   3.442   0.126   3.406  2.4805 -1.4690  1.2450
 8748SOL     OW37879   2.910   4.174   5.140 -0.1086 -0.3227 -0.1473
 8748SOL    HW137880   2.902   4.197   5.047  1.4186 -0.9106 -0.4324
 8748SOL    HW237881   2.890   4.255   5.187  0.7427  0.0593 -0.4335
 8749SOL     OW37882   4.266   0.776   6.378  0.3390 -0.4452 -0.1660
 8749SOL    HW137883   4.261   0.684   6.353 -1.2825 -0.0002 -1.4679
 8749SOL    HW237884   4.225   0.823   6.306  0.4863  0.7608  0.5417
 8750SOL     OW37885   3.243   3.048   6.312 -0.1663 -0.7886 -0.2209
 8750SOL    HW137886   3.220   3.056   6.405  0.4387 -1.0931 -0.0409
 8750SOL    HW237887   3.155   3.038   6.277 -0.3009 -0.8912  0.1476
 8751SOL     OW37888   3.127   3.407   7.743 -0.0765 -0.1107  0.0695
 8751SOL    HW137889   3.059   3.381   7.805 -0.2185 -1.6103 -0.7253
 8751SOL    HW237890   3.179   3.326   7.742  0.3631  0.1742 -0.1446
 8752SOL     OW37891   4.463   3.674   4.682 -0.1632 -0.3279 -0.0718
 8752SOL    HW137892   4.466   3.617   4.605 -2.5807 -1.0481  0.3547
 8752SOL    HW237893   4.475   3.618   4.759 -0.0384 -0.2508 -0.0365
 8753SOL     OW37894   4.165   1.471  15.787  0.0960  0.3842  0.5358
 8753SOL    HW137895   4.119   1.408  15.731 -0.0323  2.1530 -1.3357
 8753SOL    HW237896   4.102   1.542  15.802  1.2459  1.3487  0.7659
 8754SOL     OW37897   3.205   2.276   4.401  0.0913  0.6365 -0.2360
 8754SOL    HW137898   3.225   2.362   4.438 -0.5598  0.2615  0.9944
 8754SOL    HW237899   3.200   2.300   4.309  1.5173  1.1990 -0.1556
 8755SOL     OW37900   3.450   3.073  11.338 -0.1339 -0.1805  0.0281
 8755SOL    HW137901   3.470   3.110  11.425 -1.6436  2.0560 -0.5870
 8755SOL    HW237902   3.490   2.987  11.353 -0.1163 -0.1685  0.0501
 8756SOL     OW37903   3.065   0.440  10.135 -0.2794  0.7303  0.1427
 8756SOL    HW137904   3.058   0.402  10.048 -0.5475  0.6125  0.2172
 8756SOL    HW237905   2.978   0.479  10.124 -0.6896  0.5259  2.6267
 8757SOL     OW37906   1.862   1.230   9.173  0.2914 -0.2992  0.1576
 8757SOL    HW137907   1.896   1.140   9.172 -1.3786 -0.9225  0.8921
 8757SOL    HW237908   1.783   1.213   9.122  0.6849 -0.0819 -0.5318
 8758SOL     OW37909   0.785   0.561  16.208 -0.3574 -0.2886  0.6334
 8758SOL    HW137910   0.863   0.598  16.168 -1.1855  0.6316 -0.1417
 8758SOL    HW237911   0.815   0.531  16.294  1.8500 -3.6811 -1.3309
 8759SOL     OW37912   3.584   2.954   8.202 -0.1431 -0.5188 -0.2242
 8759SOL    HW137913   3.570   2.903   8.123 -1.9461 -0.2578 -0.0789
 8759SOL    HW237914   3.496   2.955   8.241 -0.2611 -0.8228 -0.4867
 8760SOL     OW37915   0.263   2.408   2.726  0.3697  0.2126  0.0008
 8760SOL    HW137916   0.311   2.462   2.789  1.6599  0.9111 -1.5625
 8760SOL    HW237917   0.333   2.351   2.693  0.7562 -0.1690  1.4633
 8761SOL     OW37918   2.952   2.890   2.875  0.4967 -0.6334 -0.1631
 8761SOL    HW137919   2.865   2.910   2.909 -0.0590 -0.2110 -1.8135
 8761SOL    HW237920   2.971   2.972   2.830  0.6694 -0.5799  0.0075
 8762SOL     OW37921   1.721   3.602   2.718  0.0368  0.0564  0.0883
 8762SOL    HW137922   1.732   3.524   2.665 -0.1022 -0.7798  1.3027
 8762SOL    HW237923   1.738   3.577   2.809  2.2631 -1.7775 -0.8296
 8763SOL     OW37924   1.929   3.058  15.339  0.1291 -0.4517  0.2488
 8763SOL    HW137925   1.963   3.114  15.409 -2.2250  2.0876 -0.6203
 8763SOL    HW237926   2.009   3.028  15.295 -1.0412 -1.0700 -1.4610
 8764SOL     OW37927   1.810   0.269  11.443 -0.2726 -0.9652 -0.5230
 8764SOL    HW137928   1.854   0.294  11.524 -1.4639 -1.8562  0.3940
 8764SOL    HW237929   1.718   0.272  11.467 -0.3627 -1.9205 -0.7491
 8765SOL     OW37930   4.561   3.176   2.508  0.0087 -0.4056  0.8743
 8765SOL    HW137931   4.606   3.177   2.423  2.1064 -2.1008  1.9734
 8765SOL    HW237932   4.602   3.247   2.556 -0.1142  1.2388 -1.4255
 8766SOL     OW37933   3.371   4.109   2.203  0.1118 -0.4911 -0.0170
 8766SOL    HW137934   3.362   4.068   2.117 -2.1682 -0.1508  0.0541
 8766SOL    HW237935   3.319   4.051   2.259  0.0118 -1.1199 -0.7650
 8767SOL     OW37936   0.352   0.437   9.523 -0.2855  0.8594  0.7651
 8767SOL    HW137937   0.371   0.417   9.615 -0.0483  2.9978  1.1781
 8767SOL    HW237938   0.340   0.350   9.484 -0.9605  1.6545 -0.7745
 8768SOL     OW37939   4.733   1.054   5.874 -0.4833  0.9311 -0.3630
 8768SOL    HW137940   4.645   1.046   5.909  0.0931  0.2054  0.9479
 8768SOL    HW237941   4.723   1.039   5.780 -2.2088 -1.5088  0.2187
 8769SOL     OW37942   4.489   1.136   1.796 -0.3402  0.0496  0.3770
 8769SOL    HW137943   4.522   1.140   1.885  1.0173 -0.3001 -0.1068
 8769SOL    HW237944   4.395   1.121   1.809  0.0450  1.0502  4.1317
 8770SOL     OW37945   2.939   1.960   3.715  0.2476  0.2360 -0.4221
 8770SOL    HW137946   2.886   2.039   3.706  0.7406  0.3851 -2.0816
 8770SOL    HW237947   3.022   1.998   3.744  0.6552 -1.6213  0.8088
 8771SOL     OW37948   1.034   2.904   7.650  0.2242  0.4767  0.1243
 8771SOL    HW137949   0.944   2.937   7.645  0.1068  0.0629 -0.5209
 8771SOL    HW237950   1.080   2.962   7.589  1.7456  0.0607  0.8633
 8772SOL     OW37951   4.064   2.636  13.829 -0.1802 -0.6971 -0.0445
 8772SOL    HW137952   3.983   2.644  13.879  0.2164  0.1157  0.4612
 8772SOL    HW237953   4.122   2.680  13.891 -1.6207  0.6844  0.3378
 8773SOL     OW37954   3.304   2.446  14.412  0.0637  0.1764  0.0528
 8773SOL    HW137955   3.370   2.377  14.423 -0.8927 -0.7314  0.1103
 8773SOL    HW237956   3.235   2.414  14.470  0.0913 -1.2622 -0.7222
 8774SOL     OW37957   1.099   4.362  10.887  0.0253 -0.5052  0.6406
 8774SOL    HW137958   1.077   4.396  10.800 -0.5043 -1.1463  0.5284
 8774SOL    HW237959   1.128   4.275  10.857 -0.0441  0.1929 -1.5041
 8775SOL     OW37960   0.732   1.255   4.629  0.4116 -0.2355 -0.0580
 8775SOL    HW137961   0.687   1.219   4.705 -0.1361 -0.0340 -0.2917
 8775SOL    HW237962   0.769   1.332   4.672  0.9704  0.9948 -2.7220
 8776SOL     OW37963   4.195   1.172  14.346 -0.6113 -0.0334 -0.2633
 8776SOL    HW137964   4.207   1.107  14.414 -0.5025  0.9086  0.6140
 8776SOL    HW237965   4.268   1.233  14.353 -2.1495  1.8086 -0.2340
 8777SOL     OW37966   0.230   2.229   3.426 -0.0855  0.2559  0.0854
 8777SOL    HW137967   0.221   2.171   3.502  1.5336 -0.8710 -0.5815
 8777SOL    HW237968   0.325   2.226   3.421 -0.2796 -4.1281 -0.8435
 8778SOL     OW37969   0.853   4.238   8.311 -0.4122  0.1416 -0.0386
 8778SOL    HW137970   0.939   4.278   8.299 -1.0392  1.4167 -0.3231
 8778SOL    HW237971   0.844   4.230   8.406  0.1763  1.8695  0.1573
 8779SOL     OW37972   1.636   4.634  13.577 -0.1089 -0.3231  0.0562
 8779SOL    HW137973   1.713   4.691  13.579  1.0218 -1.9087  1.2316
 8779SOL    HW237974   1.675   4.548  13.564  2.9130  1.0425  0.1934
 8780SOL     OW37975   1.917   1.198   1.507 -0.2626  0.2280 -0.1570
 8780SOL    HW137976   1.835   1.174   1.550  0.1423  0.3438  0.6747
 8780SOL    HW237977   1.965   1.217   1.588  0.6719 -0.5350 -0.5388
 8781SOL     OW37978   0.048   2.996  11.189  0.4989 -0.3587 -0.4221
 8781SOL    HW137979   4.731   2.943  11.130 -3.5994  0.6624  2.2821
 8781SOL    HW237980   0.019   3.084  11.166  0.0493 -0.2746  0.4829
 8782SOL     OW37981   3.596   0.267   8.891  0.3761  0.1945  0.2703
 8782SOL    HW137982   3.660   0.286   8.822 -0.7495  1.5494 -0.3990
 8782SOL    HW237983   3.650   0.301   8.963 -1.1905  1.7409  0.7308
 8783SOL     OW37984   0.527   3.977   2.244 -0.2682  0.1584  0.0216
 8783SOL    HW137985   0.548   4.007   2.333 -0.6169 -1.7930  0.7501
 8783SOL    HW237986   0.606   3.925   2.231  0.8113  0.9642  3.3019
 8784SOL     OW37987   1.390   3.179   9.670  0.1756 -0.3067 -0.2251
 8784SOL    HW137988   1.342   3.230   9.604 -1.0908  0.3173  1.1894
 8784SOL    HW237989   1.389   3.251   9.733  0.4339 -0.9832  0.5405
 8785SOL     OW37990   2.743   3.179   2.531  0.1386  0.0018  0.0930
 8785SOL    HW137991   2.789   3.167   2.614  0.6325  0.1345 -0.1642
 8785SOL    HW237992   2.692   3.099   2.515  1.9540 -1.2983  0.7772
 8786SOL     OW37993   2.146   1.949   1.701 -0.1839  0.4858  0.1642
 8786SOL    HW137994   2.061   1.907   1.717  0.0042 -0.1107 -0.3961
 8786SOL    HW237995   2.117   2.034   1.732  1.8169  1.6121 -1.0717
 8787SOL     OW37996   3.668   4.240  16.773  0.2588  0.1427  0.6736
 8787SOL    HW137997   3.739   4.175  16.772 -0.9790 -1.2021 -0.3153
 8787SOL    HW237998   3.698   4.313  16.720 -0.0039 -1.0288 -1.0855
 8788SOL     OW37999   2.934   1.494  15.479 -0.3640 -0.6006 -0.4276
 8788SOL    HW138000   3.017   1.498  15.526 -1.0317  1.9394  0.5091
 8788SOL    HW238001   2.882   1.529  15.552 -0.9628 -0.1427 -1.0764
 8789SOL     OW38002   0.640   3.325   6.354  0.3659 -0.0822 -0.4335
 8789SOL    HW138003   0.717   3.279   6.322 -0.3921 -1.8298  0.2205
 8789SOL    HW238004   0.683   3.387   6.413  2.1253 -1.0804 -0.6873
 8790SOL     OW38005   1.405   3.265  16.136 -0.5333 -0.1753 -1.2502
 8790SOL    HW138006   1.332   3.247  16.077 -0.3345 -2.6342 -0.7600
 8790SOL    HW238007   1.443   3.178  16.148 -0.4643 -0.0902 -0.8575
 8791SOL     OW38008   0.174   0.098   3.307 -0.1163  0.1122 -0.3734
 8791SOL    HW138009   0.109   0.152   3.262  1.0242  2.0439  0.2803
 8791SOL    HW238010   0.239   0.168   3.310 -1.4055  1.1906  3.1179
 8792SOL     OW38011   4.359   1.677   1.498 -0.4890 -0.6163 -0.2211
 8792SOL    HW138012   4.414   1.652   1.572 -1.9800 -0.0939  1.0704
 8792SOL    HW238013   4.293   1.609   1.491 -0.7842 -0.3648  0.1427
 8793SOL     OW38014   2.784   3.486   6.036  0.2684  0.5895 -0.4574
 8793SOL    HW138015   2.853   3.536   5.993  1.5551 -0.4485  0.3829
 8793SOL    HW238016   2.742   3.558   6.084  0.0123  0.5752 -0.6597
 8794SOL     OW38017   2.323   1.977   6.065 -0.4243 -0.7350 -0.0127
 8794SOL    HW138018   2.382   1.921   6.014  2.5891  2.1095  0.3559
 8794SOL    HW238019   2.264   1.997   5.993 -0.0642  0.6277  0.0608
 8795SOL     OW38020   4.426   1.870   2.479 -0.0658 -0.5745 -0.3258
 8795SOL    HW138021   4.345   1.918   2.463  0.4068 -0.2459 -1.7075
 8795SOL    HW238022   4.482   1.937   2.440 -0.8274  0.5090  0.4578
 8796SOL     OW38023   1.286   1.933  10.797  0.0646 -0.0473  0.4713
 8796SOL    HW138024   1.328   1.949  10.713  2.6344 -0.0279  1.7491
 8796SOL    HW238025   1.287   2.022  10.832  0.8288  0.8349 -1.7884
 8797SOL     OW38026   1.176   0.431   3.602 -0.1026 -0.2858 -0.3119
 8797SOL    HW138027   1.088   0.428   3.639  0.9924 -1.4720  2.2510
 8797SOL    HW238028   1.204   0.516   3.637 -0.0347  0.3799 -2.0154
 8798SOL     OW38029   0.078   3.052   7.991 -0.6091 -0.0076 -0.5727
 8798SOL    HW138030   0.123   3.015   7.914 -1.9055 -2.3983 -0.1850
 8798SOL    HW238031   0.069   2.980   8.054 -0.1977  0.5057  0.0642
 8799SOL     OW38032   1.921   1.795   7.641 -0.1714  0.3181  0.0902
 8799SOL    HW138033   1.843   1.850   7.637 -0.0119  0.4042 -1.8730
 8799SOL    HW238034   1.883   1.708   7.630  0.9698 -0.1749  0.0688
 8800SOL     OW38035   2.961   1.557   3.116 -0.0218  0.1549 -0.4253
 8800SOL    HW138036   2.972   1.480   3.172 -1.1070 -0.5495 -1.1674
 8800SOL    HW238037   2.872   1.588   3.133 -0.2479 -0.1135 -1.1236
 8801SOL     OW38038   0.062   3.997   4.060  0.0376 -0.1853  0.1520
 8801SOL    HW138039   0.001   3.929   4.089 -2.7785  1.5933 -1.6702
 8801SOL    HW238040   0.103   3.944   3.991  0.0528 -1.2450  0.9686
 8802SOL     OW38041   4.187   0.709   2.079 -0.5600 -0.3247  0.4226
 8802SOL    HW138042   4.274   0.669   2.089  0.4872  2.0581  0.9477
 8802SOL    HW238043   4.164   0.717   2.172  2.8046  1.3312  1.1122
 8803SOL     OW38044   3.310   3.822   8.144  0.1553 -0.0060  0.4633
 8803SOL    HW138045   3.304   3.781   8.230  0.4923 -0.6579  0.1712
 8803SOL    HW238046   3.246   3.894   8.141 -0.1201 -0.2839 -0.3238
 8804SOL     OW38047   1.501   3.957  17.264 -0.3937 -0.4533 -0.0950
 8804SOL    HW138048   1.458   3.950  17.350 -0.0339  0.6988  0.1740
 8804SOL    HW238049   1.506   3.865  17.237 -0.7756 -0.2503 -0.8417
 8805SOL     OW38050   4.654   2.011   2.901 -0.1787  0.2121  0.0566
 8805SOL    HW138051   4.723   2.060   2.857 -0.5469  1.5347  0.9686
 8805SOL    HW238052   4.584   2.073   2.882 -0.2216  0.1068 -0.1366
 8806SOL     OW38053   3.340   0.641   5.495  0.7634  0.3801  0.0259
 8806SOL    HW138054   3.404   0.587   5.449 -0.5674 -0.3475 -0.9753
 8806SOL    HW238055   3.400   0.707   5.530  0.6623  0.5890 -0.1984
 8807SOL     OW38056   4.271   4.702   6.552 -0.5035 -0.0745 -0.1144
 8807SOL    HW138057   4.262   4.653   6.634 -0.2370 -1.6325 -1.0030
 8807SOL    HW238058   4.312   0.044   6.591  2.2791 -1.3282 -0.5619
 8808SOL     OW38059   0.177   3.011   8.629 -0.2933  0.0714 -0.9241
 8808SOL    HW138060   0.183   3.066   8.707  1.5724  0.3011 -1.2265
 8808SOL    HW238061   0.105   2.949   8.643 -0.6041  0.5135 -0.5837
 8809SOL     OW38062   4.193   3.785   4.728  0.0346  0.6314 -0.2563
 8809SOL    HW138063   4.272   3.742   4.694  0.1433  1.2088 -0.7253
 8809SOL    HW238064   4.226   3.829   4.807  1.0144  0.1023 -0.3659
 8810SOL     OW38065   2.747   0.381   7.852 -0.1986 -0.2990  0.8439
 8810SOL    HW138066   2.715   0.408   7.766 -0.7675  1.2626  1.5512
 8810SOL    HW238067   2.798   0.306   7.821  0.8955  0.5189  0.6600
 8811SOL     OW38068   2.881   2.802  15.874 -1.0282  0.4885 -0.6892
 8811SOL    HW138069   2.822   2.836  15.806  0.1070  1.7667 -1.0436
 8811SOL    HW238070   2.964   2.838  15.843 -1.1206  2.0038  0.8455
 8812SOL     OW38071   3.090   3.992   3.502 -0.3393  0.1567 -0.2251
 8812SOL    HW138072   3.015   3.940   3.475 -1.0143  0.3999  1.2042
 8812SOL    HW238073   3.093   3.978   3.596  1.3461 -1.5516 -0.5274
 8813SOL     OW38074   2.797   3.154   6.205 -0.0352  0.6492  0.1895
 8813SOL    HW138075   2.861   3.083   6.201 -3.4557 -2.4010 -0.8655
 8813SOL    HW238076   2.742   3.131   6.280  1.1879  0.6344  1.0774
 8814SOL     OW38077   2.202   3.663   6.363 -0.8549  0.1824  0.1032
 8814SOL    HW138078   2.288   3.703   6.372 -1.1215  0.7142  0.2834
 8814SOL    HW238079   2.142   3.736   6.350 -1.4144 -0.0181  1.6012
 8815SOL     OW38080   1.620   4.714   4.205 -0.0344  0.3254 -0.0055
 8815SOL    HW138081   1.592   0.024   4.285 -1.4550 -2.0016  0.8091
 8815SOL    HW238082   1.555   0.015   4.144 -0.0187 -1.4136 -1.0384
 8816SOL     OW38083   2.915   1.479   2.250  0.1093 -0.0373  0.0476
 8816SOL    HW138084   3.005   1.509   2.259  0.3743 -0.9802  0.4932
 8816SOL    HW238085   2.887   1.454   2.339 -2.1293  2.2521  0.0182
 8817SOL     OW38086   1.207   4.547   6.403 -0.4159  0.2097  0.3606
 8817SOL    HW138087   1.174   4.608   6.470 -0.8606 -1.3017  1.4992
 8817SOL    HW238088   1.288   4.510   6.438  0.7122  1.5180 -0.8352
 8818SOL     OW38089   0.840   0.276   5.968  0.0947  0.4691  0.3371
 8818SOL    HW138090   0.759   0.268   5.917 -0.0684  2.0977  0.3500
 8818SOL    HW238091   0.841   0.199   6.024  0.6816  0.0133 -0.2892
 8819SOL     OW38092   2.738   1.088  11.015 -0.2212  0.0007  0.1401
 8819SOL    HW138093   2.651   1.110  11.047 -0.1931 -0.8198  0.7859
 8819SOL    HW238094   2.786   1.167  11.039 -2.2400  1.5700 -1.0391
 8820SOL     OW38095   2.638   1.178   7.007 -0.1635 -0.2097 -0.2729
 8820SOL    HW138096   2.647   1.096   6.959 -0.1670 -0.8238  0.7709
 8820SOL    HW238097   2.705   1.165   7.074  0.6678  1.6439 -0.7414
 8821SOL     OW38098   3.923   3.342  14.612  0.0985  0.8777  0.1685
 8821SOL    HW138099   3.847   3.283  14.618  0.0991  0.9305  0.6403
 8821SOL    HW238100   3.968   3.308  14.689 -0.6703  1.8156  1.0313
 8822SOL     OW38101   0.016   3.344   4.773  0.4307 -0.2238 -0.7704
 8822SOL    HW138102   0.022   3.336   4.868 -0.6926 -2.3161 -0.8792
 8822SOL    HW238103   4.672   3.397   4.768  0.8187  0.6350  2.6917
 8823SOL     OW38104   4.193   1.632  16.114 -0.1395  0.5184  0.2799
 8823SOL    HW138105   4.119   1.692  16.111  0.8000  1.6898  0.7479
 8823SOL    HW238106   4.195   1.609  16.207 -0.7469  0.4543  0.2805
 8824SOL     OW38107   4.287   2.745   7.008  0.4277  0.0181 -0.1282
 8824SOL    HW138108   4.332   2.714   7.086  1.0634  1.1021 -0.0569
 8824SOL    HW238109   4.334   2.827   6.988 -2.1666  1.7469  0.9081
 8825SOL     OW38110   1.393   1.135   9.218  0.1894  0.1632 -0.0943
 8825SOL    HW138111   1.483   1.115   9.246 -0.0507 -1.5887 -0.5243
 8825SOL    HW238112   1.411   1.186   9.139  0.5196 -0.6700 -0.5574
 8826SOL     OW38113   2.009   2.681   1.965 -0.3297  0.3768  0.8431
 8826SOL    HW138114   1.999   2.770   1.997 -0.1733  0.0442  1.8293
 8826SOL    HW238115   2.103   2.664   1.970 -0.1573  0.4679 -1.8836
 8827SOL     OW38116   2.855   0.918  16.379 -0.0831  0.6242 -0.1610
 8827SOL    HW138117   2.934   0.912  16.325  0.0054  1.9637 -0.1689
 8827SOL    HW238118   2.880   0.983  16.444 -1.0435 -0.9590  1.8236
 8828SOL     OW38119   0.810   2.682   1.394 -0.3250 -0.7449  0.6067
 8828SOL    HW138120   0.750   2.678   1.319  3.1183  0.7750 -2.2105
 8828SOL    HW238121   0.760   2.654   1.470 -4.2041 -0.4947 -1.8579
 8829SOL     OW38122   0.269   2.601   4.444  0.9288  0.8032  0.9492
 8829SOL    HW138123   0.342   2.662   4.453  1.5611  0.5323 -2.2141
 8829SOL    HW238124   0.222   2.609   4.527 -0.0483  1.4713  0.3415
 8830SOL     OW38125   1.695   2.830   4.850  0.1245  0.5939  0.5799
 8830SOL    HW138126   1.781   2.861   4.880 -0.0512 -0.6891  2.3905
 8830SOL    HW238127   1.683   2.875   4.766 -0.3376  0.4892  0.5933
 8831SOL     OW38128   2.354   3.994  16.866 -0.2265  0.1383  0.0790
 8831SOL    HW138129   2.423   4.034  16.814  0.3589  0.4155  1.0795
 8831SOL    HW238130   2.349   3.905  16.831 -0.2847  0.9056 -1.8578
 8832SOL     OW38131   0.334   3.015   2.925  0.1351 -0.0525 -0.2797
 8832SOL    HW138132   0.332   3.035   2.831  2.8937  0.3046 -0.2643
 8832SOL    HW238133   0.277   2.938   2.924 -1.0808  0.8732 -2.8978
 8833SOL     OW38134   0.260   3.086   8.383  0.5969 -0.3451 -0.3448
 8833SOL    HW138135   0.171   3.078   8.347 -0.1770  2.8658  0.9238
 8833SOL    HW238136   0.251   3.035   8.463  0.1159  0.4307  0.0959
 8834SOL     OW38137   2.099   1.340   8.082  0.2674  0.2811 -0.0756
 8834SOL    HW138138   2.106   1.423   8.035 -0.3862  1.1169  1.2864
 8834SOL    HW238139   2.144   1.293   8.013  0.5480  0.0655  0.2577
 8835SOL     OW38140   3.591   4.289   8.767 -0.2204 -0.2068  0.3859
 8835SOL    HW138141   3.566   4.342   8.842 -0.8932 -0.1534  0.1296
 8835SOL    HW238142   3.679   4.323   8.754 -0.9542  1.2283 -0.8104
 8836SOL     OW38143   2.971   3.459   8.246 -0.2197 -0.0912 -0.1761
 8836SOL    HW138144   2.894   3.484   8.195  0.4830 -0.2282 -1.3018
 8836SOL    HW238145   2.975   3.532   8.307 -1.0930 -1.1422  1.1515
 8837SOL     OW38146   1.568   0.680   7.902  0.1332 -0.2557 -0.9130
 8837SOL    HW138147   1.581   0.592   7.938 -1.3226  1.1492  3.0803
 8837SOL    HW238148   1.478   0.704   7.925 -0.2838 -0.8734 -1.9384
 8838SOL     OW38149   3.436   2.548   5.733  0.5591 -0.0431  0.3227
 8838SOL    HW138150   3.401   2.567   5.646  3.0743  0.7888 -0.5297
 8838SOL    HW238151   3.472   2.633   5.760 -0.8606  1.3437 -2.1814
 8839SOL     OW38152   1.223   1.584   3.939  0.4260 -0.4658 -0.3590
 8839SOL    HW138153   1.224   1.630   4.023 -0.8830 -1.2499  0.0790
 8839SOL    HW238154   1.311   1.593   3.903  0.2595  0.0324 -0.6526
 8840SOL     OW38155   1.928   3.432   6.411 -0.1880 -0.0556  0.4855
 8840SOL    HW138156   1.988   3.429   6.337 -0.1378  2.1037  0.4415
 8840SOL    HW238157   1.851   3.478   6.378 -1.4143 -0.9807  2.0646
 8841SOL     OW38158   4.725   2.892  11.691  0.0428  0.2617  0.2035
 8841SOL    HW138159   0.029   2.806  11.707 -1.9525  0.3711  5.5309
 8841SOL    HW238160   4.731   2.900  11.596 -1.8091 -0.8845  0.0009
 8842SOL     OW38161   0.824   4.134   3.619  0.1632 -0.5756  0.3102
 8842SOL    HW138162   0.772   4.205   3.656  0.5239  0.4905 -1.1912
 8842SOL    HW238163   0.863   4.182   3.545 -1.4629  0.5077  0.1493
 8843SOL     OW38164   1.202   2.593   4.491 -0.1705 -0.1278 -0.0010
 8843SOL    HW138165   1.195   2.533   4.565 -1.2248 -1.5062 -1.2041
 8843SOL    HW238166   1.108   2.598   4.472 -0.0057  1.5740 -0.3303
 8844SOL     OW38167   1.219   0.487  16.741 -0.6771 -0.0991  0.0103
 8844SOL    HW138168   1.257   0.429  16.674  0.4347  0.3739  0.2349
 8844SOL    HW238169   1.206   0.574  16.703 -1.9277 -0.2537  0.0835
 8845SOL     OW38170   1.858   2.994   6.268  0.3862 -0.1604 -0.3438
 8845SOL    HW138171   1.922   2.925   6.287 -1.3175 -1.1757  1.5839
 8845SOL    HW238172   1.828   3.022   6.354 -0.0008  0.2268 -0.6033
 8846SOL     OW38173   3.034   2.363   8.092 -0.5797 -0.1537  0.5217
 8846SOL    HW138174   2.982   2.289   8.122 -0.3934 -0.0739  1.0460
 8846SOL    HW238175   3.113   2.313   8.071  0.2962  2.0687 -1.5863
 8847SOL     OW38176   3.277   4.243  15.706 -0.5975  0.3461  0.1160
 8847SOL    HW138177   3.185   4.217  15.713 -0.5082  0.1155  0.4453
 8847SOL    HW238178   3.304   4.206  15.622 -0.3823 -2.2757  1.3455
 8848SOL     OW38179   0.694   1.688   6.861  0.3873  0.0168  0.2861
 8848SOL    HW138180   0.645   1.652   6.935  1.4355 -2.4874 -0.2513
 8848SOL    HW238181   0.622   1.686   6.798  0.1253 -3.3817  0.6810
 8849SOL     OW38182   0.240   3.374   6.354 -0.0897 -0.6240 -0.3387
 8849SOL    HW138183   0.203   3.353   6.439 -4.0421 -1.5641 -2.2760
 8849SOL    HW238184   0.291   3.296   6.332 -0.3739 -0.9153  0.0394
 8850SOL     OW38185   3.829   0.457   2.655 -0.6293  0.0452  0.4143
 8850SOL    HW138186   3.880   0.503   2.721 -0.5151 -1.0261  1.0660
 8850SOL    HW238187   3.893   0.391   2.629  0.4885  1.3425 -0.0735
 8851SOL     OW38188   3.361   2.076   7.048  0.0862 -0.3302  0.4513
 8851SOL    HW138189   3.295   2.145   7.054 -0.3896 -0.6778 -0.7719
 8851SOL    HW238190   3.434   2.123   7.008 -0.1059 -0.7334 -0.3754
 8852SOL     OW38191   0.317   0.278  10.750  0.8815  0.1806  0.6856
 8852SOL    HW138192   0.256   0.333  10.701  0.2167 -2.8107 -1.8723
 8852SOL    HW238193   0.354   0.347  10.804  2.4950  0.4786 -0.8121
 8853SOL     OW38194   0.062   2.474   3.999  0.3681 -0.1849  0.1768
 8853SOL    HW138195   0.049   2.407   3.932 -0.8193 -0.8472  1.0647
 8853SOL    HW238196   0.150   2.505   3.981  0.8265 -2.3847 -1.3051
 8854SOL     OW38197   1.624   4.197   7.135 -0.1643 -0.6359  0.4188
 8854SOL    HW138198   1.530   4.193   7.150 -0.5438  0.8748 -1.6678
 8854SOL    HW238199   1.624   4.150   7.051  2.4569  0.9756 -0.4910
 8855SOL     OW38200   0.061   1.653  12.218  0.0907 -0.0656 -0.2620
 8855SOL    HW138201   4.713   1.695  12.196  0.0487 -0.1400 -0.2451
 8855SOL    HW238202   0.114   1.712  12.165 -1.2150 -0.6852 -2.2535
 8856SOL     OW38203   1.908   2.054   3.718  0.3146 -0.4017 -0.4172
 8856SOL    HW138204   1.882   2.039   3.627  0.8382 -0.4458 -0.5584
 8856SOL    HW238205   1.926   1.964   3.747  2.7062  0.0680 -0.4096
 8857SOL     OW38206   4.373   2.148   7.188  0.0186  0.5717 -0.0381
 8857SOL    HW138207   4.391   2.107   7.103  3.3036  1.5557  0.1916
 8857SOL    HW238208   4.329   2.080   7.238  0.3662  0.1310 -0.3299
 8858SOL     OW38209   0.466   3.873   3.715  0.2228 -0.0036  0.1530
 8858SOL    HW138210   0.464   3.896   3.623 -0.8274  0.9203  0.4140
 8858SOL    HW238211   0.440   3.781   3.728 -0.4072  0.1764  0.1628
 8859SOL     OW38212   1.089   1.461   0.590 -0.3528 -0.0602  0.2866
 8859SOL    HW138213   1.168   1.492   0.544  0.6202 -1.7349  0.8249
 8859SOL    HW238214   1.110   1.368   0.596  1.1743  0.0957 -2.2720
 8860SOL     OW38215   1.643   3.880   6.426  0.5038  0.8308  0.2752
 8860SOL    HW138216   1.695   3.892   6.346 -1.1752 -2.0470 -1.2326
 8860SOL    HW238217   1.558   3.848   6.396  0.4985  2.3432 -1.3815
 8861SOL     OW38218   3.562   0.500   2.797 -0.7498  0.1348  0.6155
 8861SOL    HW138219   3.610   0.507   2.715 -1.7491 -2.4161 -0.1900
 8861SOL    HW238220   3.492   0.563   2.778  0.2276  0.1930 -2.7229
 8862SOL     OW38221   3.900   3.080   3.611  0.7191  0.3207  0.1407
 8862SOL    HW138222   3.908   2.989   3.640 -0.7786 -0.3547 -1.5533
 8862SOL    HW238223   3.857   3.063   3.527  0.0506  1.1850  0.3049
 8863SOL     OW38224   3.056   2.681   3.777 -0.7081  0.3482  0.0950
 8863SOL    HW138225   2.963   2.676   3.754 -0.4421 -0.7989 -0.6987
 8863SOL    HW238226   3.052   2.697   3.871 -0.1572 -0.4960  0.2623
 8864SOL     OW38227   0.705   3.117   4.368 -0.2598  0.2059 -0.1349
 8864SOL    HW138228   0.780   3.057   4.367 -1.0722 -0.8104 -0.6978
 8864SOL    HW238229   0.670   3.101   4.455 -1.1694  1.0050 -0.3539
 8865SOL     OW38230   3.604   1.406   1.089 -0.1727  0.3246 -0.6967
 8865SOL    HW138231   3.522   1.386   1.043 -1.8630  1.6182  1.7611
 8865SOL    HW238232   3.578   1.457   1.166  0.5077  0.3075 -0.4648
 8866SOL     OW38233   3.682   1.030  17.200  0.2743  0.2870 -0.3443
 8866SOL    HW138234   3.636   1.092  17.257 -1.1928 -1.2311  0.1196
 8866SOL    HW238235   3.744   1.083  17.149  1.9711 -2.2907 -0.9588
 8867SOL     OW38236   4.702   2.765   6.685  0.2895  0.1477  0.0112
 8867SOL    HW138237   0.013   2.685   6.661 -0.9630 -0.7912  0.7004
 8867SOL    HW238238   0.037   2.827   6.665  0.1612  0.0756 -0.6642
 8868SOL     OW38239   3.547   0.338  10.569  0.1388  0.8087  0.3327
 8868SOL    HW138240   3.528   0.318  10.661  0.6372 -0.3888  0.1700
 8868SOL    HW238241   3.479   0.287  10.524  0.8139  1.2421 -1.1708
 8869SOL     OW38242   1.526   3.704   5.813  0.1875 -0.3686  0.4913
 8869SOL    HW138243   1.512   3.783   5.865  0.4055  0.6456 -0.9843
 8869SOL    HW238244   1.617   3.680   5.829  0.8369  0.5315 -1.8564
 8870SOL     OW38245   2.767   1.339   3.504  0.4453  0.1421 -0.5369
 8870SOL    HW138246   2.709   1.400   3.458  0.5191 -0.6229 -1.6376
 8870SOL    HW238247   2.843   1.397   3.507  1.2117 -0.9647  0.8900
 8871SOL     OW38248   2.138   0.320   2.046  0.6708 -0.5406 -0.4682
 8871SOL    HW138249   2.129   0.296   1.953  0.4319  0.0364 -0.5902
 8871SOL    HW238250   2.051   0.301   2.081 -0.0569  0.6512 -1.6316
 8872SOL     OW38251   3.271   2.931   1.959 -0.1846 -0.2962  0.0292
 8872SOL    HW138252   3.199   2.925   2.021 -0.0001 -0.4644  0.2244
 8872SOL    HW238253   3.222   2.901   1.882  1.1712  2.1900 -1.8239
 8873SOL     OW38254   0.929   3.859   8.296  0.0099  1.0615 -0.3205
 8873SOL    HW138255   0.907   3.852   8.389 -2.5712  0.8338 -0.9557
 8873SOL    HW238256   0.854   3.900   8.254 -1.3407 -1.6931 -0.5769
 8874SOL     OW38257   4.415   1.551   5.188  0.5029  0.0260  0.1428
 8874SOL    HW138258   4.435   1.467   5.230  1.3974  0.9764  1.6220
 8874SOL    HW238259   4.409   1.513   5.100  0.4148 -1.3989  0.7624
 8875SOL     OW38260   4.201   0.711   4.576  0.2759  0.0129  0.5605
 8875SOL    HW138261   4.283   0.677   4.614  1.7710  2.0105 -0.8658
 8875SOL    HW238262   4.217   0.805   4.587  2.5102 -0.1942 -0.8123
 8876SOL     OW38263   1.074   0.172   6.746 -0.2316  0.5208  0.0594
 8876SOL    HW138264   1.061   0.266   6.757  1.7358  1.1226 -2.9174
 8876SOL    HW238265   1.041   0.137   6.829 -1.8258 -0.7159 -1.1019
 8877SOL     OW38266   3.883   1.776   4.901 -0.0164 -0.4470 -0.1902
 8877SOL    HW138267   3.978   1.775   4.887 -0.1268  1.9799 -1.1124
 8877SOL    HW238268   3.854   1.806   4.815 -0.2947  0.5833  0.2639
 8878SOL     OW38269   4.225   0.918  15.439  0.1579  0.3478  0.4981
 8878SOL    HW138270   4.189   0.896  15.354 -0.2281  0.1990  0.7004
 8878SOL    HW238271   4.189   0.852  15.498  1.4069 -1.1464 -0.4200
 8879SOL     OW38272   4.304   4.350   8.919 -0.6543 -0.0755 -0.0944
 8879SOL    HW138273   4.372   4.323   8.856 -0.1644  3.0055 -0.8953
 8879SOL    HW238274   4.239   4.396   8.865  0.4377  0.0401 -1.3187
 8880SOL     OW38275   3.667   0.973  13.199 -0.1213  0.2159 -0.5532
 8880SOL    HW138276   3.716   0.895  13.174 -0.5696  0.0629 -0.9405
 8880SOL    HW238277   3.583   0.967  13.155 -0.6259  0.4407  0.3716
 8881SOL     OW38278   4.566   3.229   4.493 -0.1115 -0.2391  0.0405
 8881SOL    HW138279   4.501   3.295   4.516 -2.9094 -3.3864  1.2708
 8881SOL    HW238280   4.595   3.211   4.583 -0.0119  1.7752  0.4074
 8882SOL     OW38281   0.828   0.665   4.505  0.2233  0.3310 -0.0106
 8882SOL    HW138282   0.907   0.703   4.466 -1.7461  2.0954 -2.3027
 8882SOL    HW238283   0.754   0.705   4.459 -0.3250  0.5429  1.0629
 8883SOL     OW38284   0.193   1.807  15.766 -0.0617  0.0652 -0.2266
 8883SOL    HW138285   0.282   1.773  15.776 -0.5952 -0.9136  1.1914
 8883SOL    HW238286   0.161   1.822  15.855  1.3051  0.4529  0.2017
 8884SOL     OW38287   1.267   2.098   3.238 -0.1817 -0.2763 -0.1243
 8884SOL    HW138288   1.296   2.189   3.241  0.1840 -0.4866  2.6391
 8884SOL    HW238289   1.191   2.106   3.181  0.9455 -0.4313 -1.6567
 8885SOL     OW38290   2.477   2.380   7.844  0.1440 -0.3013  0.3510
 8885SOL    HW138291   2.473   2.404   7.936 -2.0246  0.6013  0.0327
 8885SOL    HW238292   2.382   2.373   7.835  0.0513  0.3047  0.8859
 8886SOL     OW38293   1.079   4.617   3.178  0.0520 -0.5574  0.3480
 8886SOL    HW138294   1.143   4.547   3.192  0.3466 -0.6224 -1.3022
 8886SOL    HW238295   1.105   4.673   3.251  2.9659  1.5724 -2.3513
 8887SOL     OW38296   3.576   0.503   6.965 -0.7229 -0.2050 -0.2609
 8887SOL    HW138297   3.585   0.460   6.879 -0.6694 -0.6875 -0.0129
 8887SOL    HW238298   3.493   0.464   6.994 -1.2184  2.6562  2.0575
 8888SOL     OW38299   3.833   4.015   0.436 -0.3774 -0.4771  0.2636
 8888SOL    HW138300   3.909   4.010   0.493  1.2548 -0.2000 -1.8819
 8888SOL    HW238301   3.809   4.104   0.460 -1.7846 -0.8740  0.3483
 8889SOL     OW38302   2.248   4.305   4.074 -0.4145 -0.1416 -0.1196
 8889SOL    HW138303   2.210   4.358   4.144  1.2975 -0.6367  1.1660
 8889SOL    HW238304   2.237   4.214   4.102 -0.6321  0.0060  0.2770
 8890SOL     OW38305   2.936   1.264   6.086  0.3686 -0.4260 -0.0607
 8890SOL    HW138306   2.939   1.232   5.996  1.6040  2.9501 -1.1946
 8890SOL    HW238307   2.844   1.240   6.100 -0.3966  1.3978 -2.1603
 8891SOL     OW38308   0.978   0.910   7.417  0.1630 -0.3188  0.2292
 8891SOL    HW138309   0.994   0.986   7.473  0.6663  0.6961 -1.2940
 8891SOL    HW238310   0.888   0.927   7.389  0.7514  3.9248  0.9377
 8892SOL     OW38311   4.027   1.989   8.666 -0.5332 -0.4624  0.1126
 8892SOL    HW138312   4.066   2.025   8.586 -1.0930  1.7524  0.8449
 8892SOL    HW238313   4.104   1.998   8.722  1.1757  1.6122 -2.5364
 8893SOL     OW38314   2.118   3.288   3.454  0.0912  0.2860 -0.0618
 8893SOL    HW138315   2.165   3.303   3.537 -1.5298  1.3354  0.6712
 8893SOL    HW238316   2.097   3.378   3.430 -1.0197 -0.2644 -1.0940
 8894SOL     OW38317   2.399   4.095   6.820  0.4720 -0.2248  0.0683
 8894SOL    HW138318   2.387   4.084   6.914 -0.0590  0.3405  0.0659
 8894SOL    HW238319   2.349   4.018   6.791  0.1085 -0.2302  0.7110
 8895SOL     OW38320   3.350   0.463  16.890  0.4778 -0.0912 -0.0100
 8895SOL    HW138321   3.427   0.483  16.944  0.5711  1.2941 -0.6595
 8895SOL    HW238322   3.374   0.386  16.839  0.8793  0.0655 -0.0583
 8896SOL     OW38323   3.753   1.463  16.094  0.5020 -0.5682  0.1133
 8896SOL    HW138324   3.756   1.393  16.028  1.3232  0.7487 -1.2330
 8896SOL    HW238325   3.689   1.513  16.043 -0.3063 -2.1431 -0.4321
 8897SOL     OW38326   0.980   2.438   2.014 -0.3069  0.0627 -0.5735
 8897SOL    HW138327   0.967   2.482   1.931 -0.8923 -0.9610 -1.0227
 8897SOL    HW238328   0.925   2.360   2.005  0.9403 -0.8626 -0.3129
 8898SOL     OW38329   2.752   0.310  11.713  0.0084  0.5903 -0.4146
 8898SOL    HW138330   2.728   0.365  11.639  1.0990  0.3653 -0.9280
 8898SOL    HW238331   2.770   0.237  11.654 -0.0735  0.7246 -0.6055
 8899SOL     OW38332   1.867   0.954   3.154 -0.1438  0.1918  0.3934
 8899SOL    HW138333   1.882   0.906   3.236  1.7402 -1.7590 -1.0944
 8899SOL    HW238334   1.777   0.927   3.140  0.2443 -0.6970 -0.3803
 8900SOL     OW38335   4.669   3.341   7.218 -0.2522  0.3973  0.5679
 8900SOL    HW138336   4.648   3.266   7.273 -0.5772  1.2822  1.6723
 8900SOL    HW238337   4.723   3.400   7.271  1.3371  0.0770 -0.7088
 8901SOL     OW38338   0.737   0.102   7.718  0.4312 -0.1010 -0.1061
 8901SOL    HW138339   0.820   0.092   7.671  0.6056 -1.0897  0.4208
 8901SOL    HW238340   0.721   0.018   7.760  1.9675  0.5575  1.7855
 8902SOL     OW38341   2.478   1.300  10.902 -0.5458  0.1095 -0.1170
 8902SOL    HW138342   2.471   1.223  10.958 -0.2066  0.9989  1.1255
 8902SOL    HW238343   2.517   1.358  10.968 -0.2439  0.7940 -0.8912
 8903SOL     OW38344   4.406   2.209   1.316 -0.4819 -0.2011 -0.1126
 8903SOL    HW138345   4.405   2.266   1.239  0.3496  1.4417  1.1080
 8903SOL    HW238346   4.356   2.132   1.286 -0.1668 -1.4656  2.6359
 8904SOL     OW38347   4.662   4.596   7.058  0.1497 -0.2716  0.3164
 8904SOL    HW138348   0.013   4.562   7.034  1.6399  1.8803  2.5706
 8904SOL    HW238349   4.604   4.529   7.022 -0.2438 -0.9630  2.2278
 8905SOL     OW38350   2.414   1.436   2.099  0.4213  0.7183  0.1874
 8905SOL    HW138351   2.504   1.450   2.128  0.2027  1.7264  0.4013
 8905SOL    HW238352   2.392   1.525   2.071 -0.9311 -0.5548 -2.7516
 8906SOL     OW38353   0.768   0.927  10.290  0.3049  0.5513 -0.5917
 8906SOL    HW138354   0.824   0.987  10.339  2.6303  0.1072 -2.6638
 8906SOL    HW238355   0.690   0.977  10.267 -1.0668 -1.3387 -0.0533
 8907SOL     OW38356   0.754   4.417   9.638  0.1936 -0.0471  0.1548
 8907SOL    HW138357   0.744   4.508   9.608 -0.7624  0.6756  2.6982
 8907SOL    HW238358   0.845   4.403   9.610  0.4561  2.2983 -0.1648
 8908SOL     OW38359   2.436   4.552   5.917  0.1844 -0.6874  0.2139
 8908SOL    HW138360   2.347   4.573   5.890 -0.8068 -3.8777  0.9442
 8908SOL    HW238361   2.494   4.601   5.859  0.7355  0.1375  1.4511
 8909SOL     OW38362   0.651   1.841   4.849  0.0743 -0.1491 -0.2696
 8909SOL    HW138363   0.720   1.860   4.786 -0.8689  0.2654 -1.1797
 8909SOL    HW238364   0.697   1.778   4.905  1.0074  0.8313  0.0710
 8910SOL     OW38365   2.490   0.363   4.866 -0.2636 -0.3457  0.0406
 8910SOL    HW138366   2.561   0.363   4.802  0.1647 -2.1126  0.5110
 8910SOL    HW238367   2.499   0.454   4.892  0.2649 -0.4513  0.2237
 8911SOL     OW38368   0.781   4.493   8.094 -0.3666 -0.2895 -0.4726
 8911SOL    HW138369   0.687   4.484   8.084 -0.7596  0.6828  2.4186
 8911SOL    HW238370   0.801   4.425   8.030 -0.5101  0.3923 -1.2412
 8912SOL     OW38371   2.770   4.226   3.941 -0.1262 -0.1683 -0.0698
 8912SOL    HW138372   2.812   4.312   3.947 -1.7676  0.6605 -0.3389
 8912SOL    HW238373   2.681   4.255   3.962  0.5476  2.0763 -0.2781
 8913SOL     OW38374   3.993   3.168   9.033 -0.0794  0.6501 -0.0015
 8913SOL    HW138375   3.918   3.157   9.091 -0.4170 -2.2031 -0.9921
 8913SOL    HW238376   4.052   3.182   9.107  0.2732 -1.5094  0.1101
 8914SOL     OW38377   0.862   0.317   8.231 -0.0330  0.0205  0.4809
 8914SOL    HW138378   0.789   0.359   8.277  0.1335  0.3574  0.4439
 8914SOL    HW238379   0.816   0.250   8.181  0.2992  0.0023  0.1949
 8915SOL     OW38380   1.964   4.081   4.433  0.1601 -0.4858  0.6114
 8915SOL    HW138381   1.969   4.142   4.360 -1.9606 -1.8686 -0.6920
 8915SOL    HW238382   1.872   4.054   4.437  0.1467 -0.0926  3.0695
 8916SOL     OW38383   0.349   2.869   3.401 -0.5371 -0.4353  0.0231
 8916SOL    HW138384   0.296   2.933   3.354  0.6392  2.0074  2.0309
 8916SOL    HW238385   0.434   2.879   3.359 -0.0782  0.4700  1.1646
 8917SOL     OW38386   3.743   1.067   9.041  0.8116 -0.3298 -0.0241
 8917SOL    HW138387   3.772   1.101   9.125  0.0912  0.8214 -0.2305
 8917SOL    HW238388   3.760   0.975   9.059 -0.2181 -0.2979  1.0438
 8918SOL     OW38389   1.810   0.182   5.269 -0.8099 -0.5352 -0.0438
 8918SOL    HW138390   1.724   0.154   5.301 -1.0430 -0.0799 -0.2701
 8918SOL    HW238391   1.851   0.108   5.225  0.3214 -0.0032  0.1113
 8919SOL     OW38392   3.067   2.718   4.047 -0.2522 -0.3641 -1.0613
 8919SOL    HW138393   3.028   2.801   4.074  1.8107 -0.1946  1.4457
 8919SOL    HW238394   3.158   2.736   4.071 -1.6318  2.5797  1.9219
 8920SOL     OW38395   1.159   4.492  12.686 -0.6362 -0.2843  0.3545
 8920SOL    HW138396   1.082   4.538  12.653 -0.0075  0.2105 -0.4483
 8920SOL    HW238397   1.191   4.552  12.754  0.7638 -1.5230  0.7824
 8921SOL     OW38398   4.027   3.805   6.406 -0.2799 -0.1949 -0.1783
 8921SOL    HW138399   3.950   3.805   6.350  1.5041 -0.9684 -2.6624
 8921SOL    HW238400   3.984   3.841   6.483  1.5392  0.5289  0.5109
 8922SOL     OW38401   2.193   1.487  10.877  0.4417 -0.4834  0.1547
 8922SOL    HW138402   2.126   1.509  10.813  1.5341 -1.7807 -1.4314
 8922SOL    HW238403   2.151   1.432  10.943 -4.1084  1.0688 -1.4523
 8923SOL     OW38404   1.084   3.073   1.788  0.2353  0.3155 -0.1527
 8923SOL    HW138405   1.117   3.150   1.743  2.2748 -0.8257 -0.6168
 8923SOL    HW238406   0.992   3.092   1.771 -0.1171 -1.1246  0.1472
 8924SOL     OW38407   4.237   1.762  13.867 -0.4817  0.3933 -0.0238
 8924SOL    HW138408   4.283   1.737  13.787 -1.0652 -1.0187  0.0920
 8924SOL    HW238409   4.179   1.687  13.874 -0.1505  0.3858  2.8393
 8925SOL     OW38410   0.853   2.053   8.982 -0.4916  0.0455 -0.2823
 8925SOL    HW138411   0.762   2.070   8.957 -0.7128 -0.3776  0.2370
 8925SOL    HW238412   0.843   2.006   9.065  2.0222 -1.2583 -0.7062
 8926SOL     OW38413   1.461   2.716   2.368  0.3392 -0.1639  0.3713
 8926SOL    HW138414   1.387   2.668   2.332  1.4580  0.2877 -2.5525
 8926SOL    HW238415   1.508   2.740   2.288 -0.9151 -0.6128 -0.4821
 8927SOL     OW38416   4.594   1.993   1.130 -0.9512 -0.3001 -0.7457
 8927SOL    HW138417   4.538   1.940   1.186  1.1408 -0.0002  1.6492
 8927SOL    HW238418   4.654   1.927   1.096 -1.9140 -1.3156 -0.4454
 8928SOL     OW38419   0.572   3.613  10.926 -0.1429  0.7386  0.0098
 8928SOL    HW138420   0.597   3.532  10.882 -1.1419  0.8805 -0.8326
 8928SOL    HW238421   0.479   3.593  10.939  0.7959 -3.2870  0.5318
 8929SOL     OW38422   2.072   2.008   7.201  0.3396  0.0390  0.0144
 8929SOL    HW138423   2.080   1.924   7.156 -1.6722 -1.6243  2.7838
 8929SOL    HW238424   2.084   1.982   7.292  0.8772  2.2941  0.6002
 8930SOL     OW38425   3.171   4.537   3.073  0.1867  0.2374  0.0441
 8930SOL    HW138426   3.204   4.616   3.030 -1.6219  0.3007 -1.2184
 8930SOL    HW238427   3.203   4.460   3.026 -0.8864  0.0934 -0.4526
 8931SOL     OW38428   0.963   1.145  11.678 -0.3659  0.0543 -0.4769
 8931SOL    HW138429   1.043   1.104  11.710 -0.7405 -2.5445 -2.8196
 8931SOL    HW238430   0.925   1.068  11.634  1.1980 -0.7769 -0.3808
 8932SOL     OW38431   0.622   0.518   7.903  0.1992 -0.3708  0.1575
 8932SOL    HW138432   0.566   0.457   7.856  0.7964  0.8889 -2.1797
 8932SOL    HW238433   0.707   0.484   7.877  0.4915  0.7976 -0.4082
 8933SOL     OW38434   2.309   4.054   2.565 -0.5245  0.3927 -0.1023
 8933SOL    HW138435   2.222   4.041   2.526 -0.6551 -1.0945  0.6872
 8933SOL    HW238436   2.337   4.111   2.494 -0.4554  0.4781 -0.0069
 8934SOL     OW38437   1.669   0.052   8.693  0.1739 -0.6777  0.1803
 8934SOL    HW138438   1.594   0.020   8.742  1.0254 -2.1755  0.5298
 8934SOL    HW238439   1.670   0.146   8.712  2.4342 -0.3960 -1.2698
 8935SOL     OW38440   3.162   4.110   6.038 -0.0394 -0.3007  0.0875
 8935SOL    HW138441   3.171   4.033   6.094  0.7323 -1.1919 -1.2637
 8935SOL    HW238442   3.094   4.074   5.981  0.4184 -2.6282  0.9964
 8936SOL     OW38443   0.586   4.328  11.294  0.0266  0.1265 -0.1601
 8936SOL    HW138444   0.663   4.294  11.340  0.5438  0.4372 -0.8044
 8936SOL    HW238445   0.539   4.249  11.267  0.1634 -0.3135  0.8695
 8937SOL     OW38446   3.911   2.216   4.677  0.0385  0.3443  0.3227
 8937SOL    HW138447   4.005   2.206   4.693 -0.1301  0.5124  1.4100
 8937SOL    HW238448   3.915   2.142   4.617 -0.3695 -0.9517  1.9237
 8938SOL     OW38449   3.663   3.620   3.576 -0.2647 -0.6787 -0.5471
 8938SOL    HW138450   3.711   3.655   3.501 -0.5856  2.2437  0.6083
 8938SOL    HW238451   3.746   3.613   3.624 -0.0382  1.2101 -0.6628
 8939SOL     OW38452   0.819   4.710   8.440  0.1959  0.3216 -0.2700
 8939SOL    HW138453   0.871   4.652   8.385  0.3131  1.1138 -0.9892
 8939SOL    HW238454   0.760   4.641   8.472  1.2673  0.2104  1.4912
 8940SOL     OW38455   2.994   3.342   7.311  0.0773 -0.2598  0.1857
 8940SOL    HW138456   2.955   3.340   7.224  0.5120 -0.1186 -0.0097
 8940SOL    HW238457   3.039   3.258   7.311 -0.6724 -0.6595 -0.1445
 8941SOL     OW38458   0.742   4.696   9.590 -0.9983 -1.0128  0.3167
 8941SOL    HW138459   0.788   0.022   9.533 -1.5118 -1.5447 -0.6740
 8941SOL    HW238460   0.813   4.689   9.654 -1.0464  0.5494  0.5525
 8942SOL     OW38461   0.686   0.343   9.625 -0.2204 -0.3704 -0.7050
 8942SOL    HW138462   0.714   0.400   9.554  1.4883  0.2995  0.5036
 8942SOL    HW238463   0.768   0.328   9.672 -1.7432 -3.6104  0.9785
 8943SOL     OW38464   1.824   0.257  16.852  0.2000 -0.1810 -0.0499
 8943SOL    HW138465   1.859   0.335  16.895  1.2998 -0.2150 -0.8893
 8943SOL    HW238466   1.758   0.231  16.916 -0.5130 -0.8302 -1.0477
 8944SOL     OW38467   2.647   0.494   7.409  0.5561  0.1366  0.6716
 8944SOL    HW138468   2.720   0.489   7.471 -0.3674 -0.4053  1.7179
 8944SOL    HW238469   2.682   0.434   7.343  0.4467 -1.2307  1.8542
 8945SOL     OW38470   4.258   0.541   8.072 -0.3946  0.2225  0.2830
 8945SOL    HW138471   4.245   0.478   8.001 -0.8044 -1.3174  1.7273
 8945SOL    HW238472   4.326   0.501   8.126 -0.7851  0.2476  0.7989
 8946SOL     OW38473   2.511   3.275   6.828  0.4653 -0.3641 -0.2379
 8946SOL    HW138474   2.492   3.189   6.864  1.3748 -0.5692 -0.2566
 8946SOL    HW238475   2.588   3.256   6.775 -0.4273 -0.9483 -1.3224
 8947SOL     OW38476   2.372   0.198   2.161  0.0952 -0.1414  0.0745
 8947SOL    HW138477   2.295   0.222   2.110 -0.7089  1.1751  1.9057
 8947SOL    HW238478   2.414   0.281   2.186 -0.5125  0.8119 -2.0273
 8948SOL     OW38479   0.008   4.007   3.643 -0.5114  0.2955 -0.1373
 8948SOL    HW138480   0.078   4.028   3.705  0.3688  0.4459 -1.1748
 8948SOL    HW238481   4.685   4.082   3.652 -0.5428  0.1613  0.8489
 8949SOL     OW38482   4.548   1.173   2.888 -0.1593 -0.1184  0.0819
 8949SOL    HW138483   4.533   1.258   2.846  1.2062 -0.4584 -1.0936
 8949SOL    HW238484   4.634   1.191   2.926  0.6008 -0.2119 -1.5741
 8950SOL     OW38485   0.736   0.544   6.912  0.1037  0.1070 -0.1804
 8950SOL    HW138486   0.682   0.486   6.966 -0.5036  1.7805  1.0073
 8950SOL    HW238487   0.764   0.600   6.983  0.8990  1.2131 -1.3665
 8951SOL     OW38488   4.524   3.697   0.887 -0.0763  0.4915 -0.0509
 8951SOL    HW138489   4.445   3.751   0.878  0.0870  0.7643  0.1764
 8951SOL    HW238490   4.543   3.707   0.980 -0.5989  2.5773 -0.1606
 8952SOL     OW38491   2.143   0.966   2.333 -0.1284 -0.0857 -1.0643
 8952SOL    HW138492   2.111   1.055   2.348 -0.9778 -0.5486 -0.1733
 8952SOL    HW238493   2.232   0.984   2.363 -0.2305  1.3085 -1.5916
 8953SOL     OW38494   4.674   2.075  14.175  0.2619 -0.3260  0.0250
 8953SOL    HW138495   4.618   2.016  14.123 -1.0574  0.6402  0.3643
 8953SOL    HW238496   4.611   2.089  14.245  0.1397  2.3367 -0.6248
 8954SOL     OW38497   2.267   3.023   2.454 -0.1921 -0.4995  0.2050
 8954SOL    HW138498   2.171   3.020   2.453 -0.2242  1.4831 -3.0301
 8954SOL    HW238499   2.288   2.992   2.542  1.2510  0.2141  0.1058
 8955SOL     OW38500   4.396   4.154   8.609 -0.1841 -0.0268 -0.3233
 8955SOL    HW138501   4.480   4.131   8.648 -1.6215 -2.8196  1.0539
 8955SOL    HW238502   4.365   4.067   8.585  0.3447  0.5291 -3.0843
 8956SOL     OW38503   0.860   1.203   5.679  0.4474  0.2024  0.1624
 8956SOL    HW138504   0.952   1.213   5.653 -0.2122  0.4989 -2.1062
 8956SOL    HW238505   0.864   1.108   5.682 -1.3201  0.1223 -0.2211
 8957SOL     OW38506   3.059   0.977   7.736 -0.4714 -0.1644  0.2016
 8957SOL    HW138507   3.117   1.052   7.731  0.4669 -0.7944  1.5287
 8957SOL    HW238508   3.029   0.976   7.646 -1.0142 -0.8107  0.3861
 8958SOL     OW38509   1.947   4.720  11.643  0.8587  0.2056 -0.4401
 8958SOL    HW138510   1.989   4.648  11.595  0.3584  0.3571 -1.0939
 8958SOL    HW238511   1.854   4.699  11.637  1.1414 -1.2859  0.2194
 8959SOL     OW38512   0.895   2.932   4.317 -0.6174  0.7809 -0.0381
 8959SOL    HW138513   0.968   2.961   4.262  0.0327 -2.0922 -0.6931
 8959SOL    HW238514   0.932   2.883   4.390 -0.9096  1.0259  0.2791
 8960SOL     OW38515   2.077   1.151   3.846  0.1005  0.4242  0.0587
 8960SOL    HW138516   2.084   1.237   3.805  0.0955  0.1471 -0.5303
 8960SOL    HW238517   1.983   1.138   3.841 -0.0925  1.2213  1.6619
 8961SOL     OW38518   0.275   4.154   7.648 -0.3846 -0.1903 -0.9026
 8961SOL    HW138519   0.215   4.092   7.608 -1.5520 -0.7708  1.7989
 8961SOL    HW238520   0.251   4.236   7.604 -0.7728  0.6542  0.8662
 8962SOL     OW38521   0.344   4.091   2.457  0.5373 -0.1570  0.0105
 8962SOL    HW138522   0.249   4.105   2.446  0.4574  0.7777  1.9924
 8962SOL    HW238523   0.388   4.168   2.423  1.3081 -0.0080  1.3653
 8963SOL     OW38524   1.569   2.205  12.507  0.3074  0.3366  0.8299
 8963SOL    HW138525   1.559   2.272  12.440  0.6039  0.2841  0.7320
 8963SOL    HW238526   1.507   2.139  12.475  0.2473  0.5819  0.4390
 8964SOL     OW38527   0.455   2.558   7.591  0.5567 -0.4289  0.0334
 8964SOL    HW138528   0.410   2.547   7.508 -0.4300  0.5627  0.4454
 8964SOL    HW238529   0.492   2.471   7.583 -1.2053 -0.9060 -2.8973
 8965SOL     OW38530   1.553   4.168   4.386 -0.0731  0.3515 -0.6385
 8965SOL    HW138531   1.601   4.249   4.405  1.0695 -0.2175 -1.1163
 8965SOL    HW238532   1.501   4.149   4.464  0.3114  0.2496 -0.4058
 8966SOL     OW38533   2.661   4.409  16.178  0.3312  0.3250 -0.1526
 8966SOL    HW138534   2.626   4.336  16.128 -2.0859  1.4836 -0.1408
 8966SOL    HW238535   2.742   4.373  16.214 -0.5085 -0.4353  0.9827
 8967SOL     OW38536   0.919   3.541   3.511  0.0789 -0.3454 -0.0861
 8967SOL    HW138537   0.946   3.598   3.439 -2.3842 -0.9501 -1.4834
 8967SOL    HW238538   0.992   3.565   3.569 -1.9280 -0.1758  2.3597
 8968SOL     OW38539   0.452   1.792   8.420 -0.2357  0.0945 -0.4700
 8968SOL    HW138540   0.358   1.781   8.435 -0.5108  0.6350 -1.8454
 8968SOL    HW238541   0.495   1.754   8.497 -1.6785 -0.9617 -0.1959
 8969SOL     OW38542   4.216   2.101   3.707 -0.7000  0.2674  0.3296
 8969SOL    HW138543   4.282   2.032   3.712 -1.5506 -0.6066 -0.4095
 8969SOL    HW238544   4.211   2.100   3.611  1.6964  0.8055  0.2058
 8970SOL     OW38545   3.245   4.478   3.376  0.3268  0.3041 -0.3302
 8970SOL    HW138546   3.196   4.553   3.410  4.3204  3.0999 -0.7643
 8970SOL    HW238547   3.229   4.485   3.282  1.9014  1.1715 -0.5374
 8971SOL     OW38548   0.745   4.132   2.704 -0.4792 -0.5122  0.7045
 8971SOL    HW138549   0.680   4.067   2.677 -1.8651  2.2358 -2.6009
 8971SOL    HW238550   0.811   4.111   2.638 -0.9535  2.5080 -0.7606
 8972SOL     OW38551   1.732   0.818   8.065  0.6047  0.2220  0.2221
 8972SOL    HW138552   1.656   0.824   8.008  0.7947  3.6205  0.3108
 8972SOL    HW238553   1.766   0.902   8.035  1.2127 -0.4530 -0.9983
 8973SOL     OW38554   2.912   1.102   1.577  0.0539 -0.1413  0.2299
 8973SOL    HW138555   2.906   1.029   1.516 -0.9839  0.2037 -0.0800
 8973SOL    HW238556   2.947   1.076   1.662 -1.0594  1.8930  1.3114
 8974SOL     OW38557   4.542   0.006  12.705 -0.0926  0.4599 -0.4786
 8974SOL    HW138558   4.558   4.735  12.611 -2.4408  1.2702 -0.9261
 8974SOL    HW238559   4.522   0.099  12.716 -1.2649  0.1312  0.0981
 8975SOL     OW38560   4.063   0.632   6.860  0.0661  0.8928  0.2840
 8975SOL    HW138561   4.067   0.648   6.766 -1.7801 -2.8817 -0.4620
 8975SOL    HW238562   4.053   0.723   6.886  2.1798  1.6343 -1.5500
 8976SOL     OW38563   1.742   2.036   9.564  0.1791 -0.2774 -0.4152
 8976SOL    HW138564   1.819   2.081   9.598  0.0276 -1.6740  1.7345
 8976SOL    HW238565   1.711   2.102   9.502 -0.4584 -1.3810 -1.2687
 8977SOL     OW38566   1.387   3.277   8.853  0.2229 -0.2057  0.3672
 8977SOL    HW138567   1.333   3.205   8.885 -2.5806  1.7991  0.1831
 8977SOL    HW238568   1.335   3.348   8.891  1.7516  1.7388 -1.1616
 8978SOL     OW38569   2.089   2.276   2.563  0.0032 -0.3108 -0.0306
 8978SOL    HW138570   1.993   2.276   2.556 -0.1483 -0.9998  2.1806
 8978SOL    HW238571   2.098   2.350   2.624  0.6400 -1.0775  0.8004
 8979SOL     OW38572   1.472   1.471   5.281 -0.2791  0.3757 -0.1087
 8979SOL    HW138573   1.482   1.557   5.242 -2.4524  0.3828 -0.6874
 8979SOL    HW238574   1.438   1.429   5.202 -1.9021  1.2899  0.0949
 8980SOL     OW38575   3.730   0.594   0.993  0.7993  0.1566 -0.0140
 8980SOL    HW138576   3.725   0.585   0.898 -2.3755  1.5830  0.0058
 8980SOL    HW238577   3.804   0.655   0.995 -0.8938  2.2433 -0.1668
 8981SOL     OW38578   0.226   0.826   2.610 -0.2522  0.7315 -0.5272
 8981SOL    HW138579   0.144   0.807   2.564 -1.1641  1.1937  0.9156
 8981SOL    HW238580   0.239   0.753   2.670  2.5886  0.5396 -1.3952
 8982SOL     OW38581   1.185   2.864  12.428  0.9401  0.5525 -0.3581
 8982SOL    HW138582   1.101   2.828  12.398  0.1708  0.9717  1.3300
 8982SOL    HW238583   1.190   2.839  12.520  0.8827  3.8338  0.5179
 8983SOL     OW38584   2.916   4.098   4.376 -0.0472  0.3324  0.6693
 8983SOL    HW138585   3.005   4.087   4.410  1.0165 -1.0117 -2.5130
 8983SOL    HW238586   2.932   4.098   4.281 -1.3462  0.0696  0.4538
 8984SOL     OW38587   0.536   2.959  12.879  0.2265  0.1068 -0.2137
 8984SOL    HW138588   0.451   3.002  12.875  0.7950  1.3284  0.6067
 8984SOL    HW238589   0.576   3.030  12.931  0.6458  0.6140 -1.2114
 8985SOL     OW38590   2.282   2.516   8.537  0.5243 -0.4852  0.2651
 8985SOL    HW138591   2.249   2.547   8.621  0.8494 -1.8926  0.9058
 8985SOL    HW238592   2.261   2.423   8.544 -0.7852 -0.2571 -0.5715
 8986SOL     OW38593   0.447   3.417   5.372 -0.0790 -0.4242  0.5862
 8986SOL    HW138594   0.460   3.366   5.292 -1.6965  1.6629 -1.0070
 8986SOL    HW238595   0.461   3.355   5.444  1.4338  0.3871  0.9800
 8987SOL     OW38596   0.866   0.886   6.883  0.3408 -0.0437 -0.1771
 8987SOL    HW138597   0.882   0.828   6.808 -0.2543  2.4283 -2.1934
 8987SOL    HW238598   0.778   0.915   6.859 -0.6466 -2.5357  0.3712
 8988SOL     OW38599   2.603   4.591   4.077 -0.2640 -0.0091 -0.3920
 8988SOL    HW138600   2.525   4.645   4.068  0.4083  1.1334  0.5849
 8988SOL    HW238601   2.609   4.568   3.985  0.7548 -0.3950 -0.2295
 8989SOL     OW38602   4.598   3.853   4.425 -0.0273  0.2377 -0.5831
 8989SOL    HW138603   4.573   3.939   4.391  0.2818  1.5155  2.4057
 8989SOL    HW238604   4.536   3.832   4.495 -0.4248 -0.5529 -1.1781
 8990SOL     OW38605   4.343   3.097   4.800 -0.1197  0.1873 -0.0977
 8990SOL    HW138606   4.305   3.050   4.875 -0.1161  2.1240  1.1346
 8990SOL    HW238607   4.437   3.082   4.807  0.2255  1.3345 -2.3531
 8991SOL     OW38608   4.468   0.616   2.086  0.0814  0.0438 -0.9180
 8991SOL    HW138609   4.546   0.635   2.034 -0.3461 -0.5694 -1.7726
 8991SOL    HW238610   4.504   0.533   2.117 -1.6769 -0.2589  0.3458
 8992SOL     OW38611   4.031   4.403   2.307 -0.0987 -0.1372  0.5442
 8992SOL    HW138612   4.059   4.494   2.305  1.0731 -0.5305 -1.6228
 8992SOL    HW238613   4.083   4.369   2.235  1.0935 -0.4372  1.5583
 8993SOL     OW38614   0.669   1.197  10.266 -0.0478  0.0108  0.1836
 8993SOL    HW138615   0.623   1.276  10.235 -0.9914  0.6545  3.2410
 8993SOL    HW238616   0.637   1.190  10.356  3.5388 -0.4989  1.4248
 8994SOL     OW38617   3.902   2.903   6.150  0.2200 -0.0308  0.6579
 8994SOL    HW138618   3.946   2.928   6.232  0.4115 -1.2044  0.9055
 8994SOL    HW238619   3.943   2.819   6.129  0.8446  0.3972  0.1817
 8995SOL     OW38620   1.850   4.694   5.066 -0.6430 -0.2659 -0.8378
 8995SOL    HW138621   1.931   0.008   5.052 -0.3843 -1.0625 -2.1997
 8995SOL    HW238622   1.781   0.008   5.020 -1.9398  0.8182  2.2615
 8996SOL     OW38623   2.361   2.007  13.364  0.3695 -0.5221  0.3387
 8996SOL    HW138624   2.329   1.998  13.274 -1.9924  0.9144  1.0506
 8996SOL    HW238625   2.335   2.098  13.375  0.2944 -0.5348  0.2664
 8997SOL     OW38626   0.973   4.107   4.281 -0.0354 -0.3090  0.3807
 8997SOL    HW138627   0.887   4.145   4.262 -0.2197 -0.8419  0.1230
 8997SOL    HW238628   0.990   4.065   4.196 -1.9546  0.6614 -0.4927
 8998SOL     OW38629   3.736   1.508  12.347  0.3656  0.2540 -0.2152
 8998SOL    HW138630   3.817   1.559  12.349  0.7710 -0.3757 -0.8109
 8998SOL    HW238631   3.702   1.535  12.432  0.6936  0.8363 -0.2689
 8999SOL     OW38632   2.178   4.282   1.856  0.7228  0.1279  0.1672
 8999SOL    HW138633   2.264   4.292   1.813  1.3722  0.5783  1.5760
 8999SOL    HW238634   2.162   4.376   1.856  0.4058  0.0746 -0.4472
 9000SOL     OW38635   1.346   2.083  12.823 -0.3052  0.3421  0.5296
 9000SOL    HW138636   1.259   2.086  12.784 -0.0196 -0.5737 -0.1668
 9000SOL    HW238637   1.357   1.988  12.830 -1.5661  0.1076 -0.6354
 9001SOL     OW38638   4.272   1.566   5.810  0.2250  0.0738  0.4316
 9001SOL    HW138639   4.196   1.618   5.838  0.9129  0.2198  2.0272
 9001SOL    HW238640   4.344   1.629   5.819  0.0259  0.2978  0.4622
 9002SOL     OW38641   4.197   3.054  11.940 -0.3988  0.2865 -0.1843
 9002SOL    HW138642   4.108   3.038  11.970 -0.8903 -0.2791 -1.9680
 9002SOL    HW238643   4.230   2.978  11.987 -0.9668  1.1936  1.6955
 9003SOL     OW38644   1.128   3.353   6.125 -0.5266  0.1081 -0.0820
 9003SOL    HW138645   1.145   3.315   6.039 -0.7717  1.4705 -0.7257
 9003SOL    HW238646   1.169   3.439   6.128 -1.5169  0.5795  0.0685
 9004SOL     OW38647   3.218   4.558   8.516 -0.3408 -0.4500 -0.3958
 9004SOL    HW138648   3.197   4.469   8.545 -3.9231  0.2322 -0.9205
 9004SOL    HW238649   3.173   4.607   8.584  0.3346 -0.3747  0.0038
 9005SOL     OW38650   1.490   1.008   5.689  0.7418  0.3123 -0.1580
 9005SOL    HW138651   1.460   0.992   5.600 -1.1702 -1.5261  0.7976
 9005SOL    HW238652   1.410   0.995   5.741  0.9843  1.7693  0.5782
 9006SOL     OW38653   2.615   2.694  17.091 -0.0696  0.2614 -0.4169
 9006SOL    HW138654   2.528   2.656  17.093  1.0116 -2.1349  0.9294
 9006SOL    HW238655   2.638   2.704  17.183  0.2941 -0.3234 -0.4392
 9007SOL     OW38656   1.818   0.245   2.621 -0.3902  0.2466 -0.7930
 9007SOL    HW138657   1.811   0.170   2.562 -4.3484  0.3871 -0.4772
 9007SOL    HW238658   1.767   0.310   2.574  0.1607  1.3485  0.1284
 9008SOL     OW38659   1.995   0.694   7.227  0.0618  0.3146  0.0681
 9008SOL    HW138660   2.003   0.696   7.322  4.1691  1.7732 -0.2965
 9008SOL    HW238661   1.947   0.773   7.205  2.9304  2.2707  0.7951
 9009SOL     OW38662   0.810   4.362   1.734  0.5174 -0.9238 -0.5105
 9009SOL    HW138663   0.808   4.425   1.662 -0.6671 -1.8622 -1.2832
 9009SOL    HW238664   0.788   4.281   1.689 -0.0692 -0.6538 -0.7136
 9010SOL     OW38665   1.258   3.697  11.307  0.1549  0.5831 -0.3665
 9010SOL    HW138666   1.238   3.791  11.308  0.4520  0.6377  1.3396
 9010SOL    HW238667   1.252   3.686  11.402  1.4111  0.2367 -0.3267
 9011SOL     OW38668   1.870   1.038   9.415 -0.1093  0.1394  0.4640
 9011SOL    HW138669   1.824   0.965   9.456  0.6906  0.1150  1.3213
 9011SOL    HW238670   1.956   1.006   9.386 -0.2963 -0.0578  0.1287
 9012SOL     OW38671   1.867   2.618  14.766  0.2680 -0.1843  0.0684
 9012SOL    HW138672   1.788   2.654  14.804 -1.0545 -1.7630 -1.1971
 9012SOL    HW238673   1.861   2.531  14.805 -0.6404 -0.0327  0.2626
 9013SOL     OW38674   2.126   3.566   3.883 -0.0114  0.1851  0.0790
 9013SOL    HW138675   2.153   3.493   3.939  0.4095  1.2290  1.2377
 9013SOL    HW238676   2.058   3.521   3.834  1.3281 -2.9508  1.1228
 9014SOL     OW38677   4.359   4.190   6.696  0.1738 -0.1748 -0.5901
 9014SOL    HW138678   4.394   4.199   6.608  0.7528  0.0217 -0.3415
 9014SOL    HW238679   4.272   4.151   6.683  1.0923 -1.9340 -1.4082
 9015SOL     OW38680   4.058   1.815   6.463 -0.0685  0.4173  0.2149
 9015SOL    HW138681   4.144   1.853   6.449  0.7859 -1.6053  0.1143
 9015SOL    HW238682   4.094   1.748   6.520  1.9240  0.5535 -0.9060
 9016SOL     OW38683   3.363   1.478   9.430  0.0610 -0.0322  0.3677
 9016SOL    HW138684   3.270   1.499   9.421 -0.3213 -1.0872  1.8140
 9016SOL    HW238685   3.363   1.404   9.370  1.0426 -0.4954  0.9491
 9017SOL     OW38686   4.024   2.346   5.827  0.4610  0.3325  0.3724
 9017SOL    HW138687   4.090   2.306   5.771 -0.2462 -0.2676 -0.0264
 9017SOL    HW238688   4.046   2.311   5.913  1.5946 -1.5513 -0.6975
 9018SOL     OW38689   0.418   4.589   3.944  0.1985  0.1376  0.0892
 9018SOL    HW138690   0.334   4.598   3.898  0.3033  0.8652  0.0250
 9018SOL    HW238691   0.453   4.509   3.906  1.8962  0.3045  1.3196
 9019SOL     OW38692   2.401   0.189   7.819  0.0842  0.4549  0.6497
 9019SOL    HW138693   2.463   0.238   7.764  0.5928  0.6303  1.3790
 9019SOL    HW238694   2.331   0.186   7.754  2.6692 -2.3425 -2.0351
 9020SOL     OW38695   2.226   3.097   5.806  0.1879  0.1317  0.6924
 9020SOL    HW138696   2.280   3.079   5.883  1.7026 -0.6288 -0.5668
 9020SOL    HW238697   2.236   3.022   5.747  0.0531 -0.1063  0.9672
 9021SOL     OW38698   3.656   3.921   7.737 -0.0617  0.6973 -0.1915
 9021SOL    HW138699   3.690   3.840   7.700 -1.1060  0.2937 -0.2557
 9021SOL    HW238700   3.599   3.890   7.808  0.3661  2.6579  1.0101
 9022SOL     OW38701   1.326   4.368   1.322  0.1992  0.1503  0.2583
 9022SOL    HW138702   1.336   4.367   1.417  2.3169 -1.2245  0.0162
 9022SOL    HW238703   1.361   4.450   1.289  1.5821  0.0191  1.3976
 9023SOL     OW38704   2.887   0.184  16.109 -0.1081  0.0251  0.0807
 9023SOL    HW138705   2.937   0.168  16.029 -1.2206 -1.9013 -0.2347
 9023SOL    HW238706   2.800   0.160  16.078  0.7943 -0.5747 -2.0432
 9024SOL     OW38707   0.688   1.403  15.623  0.0903  0.0739 -0.2606
 9024SOL    HW138708   0.620   1.367  15.680  0.4802 -0.6123 -0.2336
 9024SOL    HW238709   0.763   1.404  15.682 -1.4195  0.5107  1.6260
 9025SOL     OW38710   1.858   4.392   5.229 -0.0670 -0.1738 -0.5397
 9025SOL    HW138711   1.927   4.453   5.202  2.3065 -0.8015  3.9496
 9025SOL    HW238712   1.801   4.446   5.283  0.8657  0.6384 -0.3679
 9026SOL     OW38713   2.585   4.377   1.323  0.2341 -0.4145  0.5559
 9026SOL    HW138714   2.571   4.470   1.341  2.1077 -0.0546  0.1172
 9026SOL    HW238715   2.667   4.361   1.369  1.4084  0.2242 -1.3018
 9027SOL     OW38716   4.621   0.982   3.319  0.0518 -0.0958 -0.0456
 9027SOL    HW138717   4.593   0.893   3.297 -0.3331 -0.2071  0.9182
 9027SOL    HW238718   4.573   1.029   3.251 -0.9666 -2.3862 -0.9234
 9028SOL     OW38719   1.904   0.401   6.478 -0.8503 -0.3679  0.4628
 9028SOL    HW138720   1.859   0.337   6.422  0.8348  2.7416 -4.3897
 9028SOL    HW238721   1.839   0.465   6.451  0.8547  1.1128 -0.0976
 9029SOL     OW38722   2.570   4.392   8.462 -0.6771  0.3894  0.4728
 9029SOL    HW138723   2.533   4.307   8.440  0.4468 -0.5874  2.4040
 9029SOL    HW238724   2.662   4.373   8.479 -0.4040  1.4901  0.2283
 9030SOL     OW38725   1.792   1.101   8.027 -0.1855 -0.4921  0.0249
 9030SOL    HW138726   1.753   1.162   7.965  0.6431 -0.7471 -0.7505
 9030SOL    HW238727   1.882   1.109   7.997  0.2242  0.0421  1.4116
 9031SOL     OW38728   1.962   4.546   3.555  0.5340  0.5022 -0.1917
 9031SOL    HW138729   2.008   4.463   3.541 -0.8574 -0.5798  1.6939
 9031SOL    HW238730   1.976   4.553   3.649  1.7194 -1.1593 -0.2359
 9032SOL     OW38731   2.482   4.313  16.936 -0.4129 -0.0329  0.1069
 9032SOL    HW138732   2.514   4.253  17.003 -0.5442  1.2083  1.2750
 9032SOL    HW238733   2.398   4.276  16.910  1.6705 -3.1659 -2.2717
 9033SOL     OW38734   0.133   3.071   4.236 -0.3010 -0.3609 -0.1730
 9033SOL    HW138735   0.116   3.095   4.144  1.1609  5.1962  0.9849
 9033SOL    HW238736   0.223   3.046   4.216 -0.7515 -0.8044 -1.6850
 9034SOL     OW38737   3.205   4.174  17.350 -0.1799 -0.6401 -0.0406
 9034SOL    HW138738   3.246   4.173  17.436 -1.1818  1.8766  0.4665
 9034SOL    HW238739   3.231   4.090  17.313 -0.1081  0.1693 -1.7958
 9035SOL     OW38740   4.329   3.974   3.456 -0.3392  0.0986 -0.0474
 9035SOL    HW138741   4.331   4.054   3.404 -0.8204 -0.4409 -0.9041
 9035SOL    HW238742   4.273   3.921   3.399 -2.3240  1.7326  0.3497
 9036SOL     OW38743   0.703   1.157  11.616  0.2012  0.2436 -0.8946
 9036SOL    HW138744   0.677   1.150  11.708  2.5353  1.8700 -0.1306
 9036SOL    HW238745   0.798   1.155  11.623 -0.0585 -0.3014  2.2958
 9037SOL     OW38746   2.695   2.332  14.619 -0.8681  0.3431  0.3479
 9037SOL    HW138747   2.719   2.298  14.533  1.3189 -0.0768  1.1133
 9037SOL    HW238748   2.633   2.402  14.599  0.6645  1.4759 -0.5224
 9038SOL     OW38749   0.694   1.618   4.563 -0.0216 -0.1020  0.4998
 9038SOL    HW138750   0.640   1.561   4.508  1.0839  0.4704 -1.1927
 9038SOL    HW238751   0.784   1.587   4.550 -0.6977 -1.6225 -0.5001
 9039SOL     OW38752   1.538   1.970  17.476  0.5873 -0.0452 -0.4294
 9039SOL    HW138753   1.598   2.033  17.517 -1.0385  1.5040 -0.4091
 9039SOL    HW238754   1.585   1.958  17.394 -1.4470 -1.9207 -1.3061
 9040SOL     OW38755   1.508   1.671   3.564 -0.3930  0.0712 -0.1394
 9040SOL    HW138756   1.438   1.611   3.589  0.1850  0.1124  1.5547
 9040SOL    HW238757   1.474   1.690   3.476 -0.1197 -0.0497 -0.2714
 9041SOL     OW38758   1.229   0.590   0.045  0.4551 -0.1803  0.1120
 9041SOL    HW138759   1.193   0.574  17.696 -0.4043  0.6943  0.2992
 9041SOL    HW238760   1.153   0.561   0.096  1.0621  0.1973  1.2142
 9042SOL     OW38761   3.199   3.846   3.720 -0.0313  0.1744  0.7760
 9042SOL    HW138762   3.283   3.802   3.732 -0.1731 -0.6600 -1.3499
 9042SOL    HW238763   3.129   3.788   3.750  0.3719 -0.6155  0.1591
 9043SOL     OW38764   2.385   2.383   5.544  0.1608  0.5862 -0.6777
 9043SOL    HW138765   2.389   2.290   5.526 -0.1915  0.1268  1.5931
 9043SOL    HW238766   2.458   2.388   5.606 -0.4294 -0.5976  0.1012
 9044SOL     OW38767   0.527   3.483   0.690 -0.1044  0.3156 -0.1968
 9044SOL    HW138768   0.517   3.577   0.677  0.1592  0.3153 -0.3924
 9044SOL    HW238769   0.622   3.471   0.688 -0.1834 -0.2007 -0.9246
 9045SOL     OW38770   2.700   2.614   5.149 -0.1092  0.0185  0.3178
 9045SOL    HW138771   2.718   2.531   5.103  2.2559  1.1199 -0.7053
 9045SOL    HW238772   2.787   2.634   5.183  0.5393 -2.6538  0.2599
 9046SOL     OW38773   1.321   1.788   3.136 -0.0131 -0.0295  0.4868
 9046SOL    HW138774   1.368   1.868   3.161  0.3031 -0.3548  0.9189
 9046SOL    HW238775   1.269   1.777   3.216 -0.5208  1.8428  0.4145
 9047SOL     OW38776   2.336   1.793   2.502  0.1459  0.1273 -0.6276
 9047SOL    HW138777   2.346   1.879   2.542  0.4311  0.0393 -0.5084
 9047SOL    HW238778   2.244   1.797   2.479  0.3510  1.4177 -1.2066
 9048SOL     OW38779   0.917   1.782   7.622  0.3875  0.1402 -0.4508
 9048SOL    HW138780   0.995   1.835   7.602  0.0903  0.4208 -0.8865
 9048SOL    HW238781   0.892   1.833   7.698  1.4157 -2.3927  1.5704
 9049SOL     OW38782   4.219   3.847  14.954  0.2493  0.1972 -0.0043
 9049SOL    HW138783   4.187   3.778  15.012 -0.2531 -0.1044 -0.6456
 9049SOL    HW238784   4.205   3.812  14.866 -0.2899  1.9302 -0.6125
 9050SOL     OW38785   0.394   3.629   8.344  0.1281 -0.2585 -0.7084
 9050SOL    HW138786   0.361   3.580   8.268  0.5235 -0.0242 -1.0249
 9050SOL    HW238787   0.482   3.593   8.353  1.1946  2.5724 -0.0597
 9051SOL     OW38788   1.194   3.828   5.969  0.4731 -0.8495  0.1332
 9051SOL    HW138789   1.233   3.901   5.921 -0.2975 -0.6348 -0.1781
 9051SOL    HW238790   1.104   3.835   5.937  0.7191 -1.7745 -0.7501
 9052SOL     OW38791   1.200   1.584  15.926  0.2940  0.4155 -0.7553
 9052SOL    HW138792   1.129   1.600  15.988 -0.7855 -2.5973 -1.2339
 9052SOL    HW238793   1.271   1.548  15.979  0.9913  2.2006 -0.4693
 9053SOL     OW38794   1.940   0.356   1.513  0.4820 -0.2818  0.4028
 9053SOL    HW138795   1.968   0.435   1.467 -2.0530  0.0706 -0.5411
 9053SOL    HW238796   1.869   0.395   1.564  1.6332  2.3234  0.0401
 9054SOL     OW38797   0.367   1.355   8.849  0.2044 -0.4281  0.2095
 9054SOL    HW138798   0.460   1.334   8.846  0.2725 -0.2181  1.0674
 9054SOL    HW238799   0.367   1.450   8.855 -1.9619 -0.4472  0.5654
 9055SOL     OW38800   3.956   1.677  12.434 -0.8134  0.0927 -0.4062
 9055SOL    HW138801   4.006   1.636  12.505 -0.4838  0.2160 -0.5684
 9055SOL    HW238802   4.025   1.733  12.397 -0.2144 -0.1062  0.4044
 9056SOL     OW38803   3.224   1.980   2.459  0.3960  0.0095  1.0076
 9056SOL    HW138804   3.141   1.972   2.506 -0.9444 -0.4418 -1.4739
 9056SOL    HW238805   3.263   1.893   2.469  0.3760  0.2239  2.9015
 9057SOL     OW38806   2.580   1.269   7.637 -0.0910  0.0505 -0.4071
 9057SOL    HW138807   2.524   1.272   7.559 -0.2965  2.9014 -0.1488
 9057SOL    HW238808   2.656   1.313   7.600 -0.2247  0.3108 -0.3701
 9058SOL     OW38809   1.093   4.659  13.480  0.0616 -0.2043  0.5379
 9058SOL    HW138810   1.012   4.665  13.429  0.8564 -1.2358 -0.8483
 9058SOL    HW238811   1.135   4.726  13.426 -1.3341 -1.2178 -1.8246
 9059SOL     OW38812   3.710   1.820  11.125 -0.4739 -0.1426 -0.1975
 9059SOL    HW138813   3.745   1.730  11.127 -1.2462 -0.4256  0.6258
 9059SOL    HW238814   3.721   1.834  11.031  3.4117 -0.2825  0.2070
 9060SOL     OW38815   1.504   3.910  14.461 -0.3563  0.5004 -0.7974
 9060SOL    HW138816   1.518   3.924  14.367 -0.9591  2.9295 -0.5308
 9060SOL    HW238817   1.529   3.996  14.495 -0.2707  0.1014  0.1568
 9061SOL     OW38818   1.858   4.145   7.316  0.7180 -0.2326  0.4256
 9061SOL    HW138819   1.787   4.148   7.253 -0.4864  2.7010  1.8843
 9061SOL    HW238820   1.874   4.238   7.333 -1.6651 -0.0629  1.7899
 9062SOL     OW38821   3.104   0.566  12.714 -0.4118  0.0413  0.6394
 9062SOL    HW138822   3.098   0.617  12.634 -0.9930  1.1550  1.3880
 9062SOL    HW238823   3.026   0.513  12.695 -0.6402  0.6379 -0.0590
 9063SOL     OW38824   1.551   0.074   5.281 -0.0751  0.2141 -0.0764
 9063SOL    HW138825   1.499   0.148   5.251  0.9782  0.3836 -1.5301
 9063SOL    HW238826   1.523   0.065   5.372 -0.7274 -0.4296 -0.3365
 9064SOL     OW38827   3.862   2.917   2.985  0.1805  0.0454  0.6542
 9064SOL    HW138828   3.862   2.956   2.898 -0.1257  0.5345  0.8785
 9064SOL    HW238829   3.881   2.827   2.957  2.6624  0.6104  0.5232
 9065SOL     OW38830   2.451   2.585  10.060  0.2651 -0.1948  0.1499
 9065SOL    HW138831   2.530   2.534  10.077  2.1299  2.3797 -0.7491
 9065SOL    HW238832   2.476   2.669  10.100 -2.1452  0.3747  0.4716
 9066SOL     OW38833   3.568   1.425   3.810 -0.2147 -0.0157  0.1157
 9066SOL    HW138834   3.526   1.475   3.880 -0.4024  1.0976 -0.7958
 9066SOL    HW238835   3.630   1.494   3.788 -2.0084  0.8066 -2.1913
 9067SOL     OW38836   3.313   0.661   8.494 -0.4151  0.0721 -0.2241
 9067SOL    HW138837   3.320   0.610   8.575 -2.0750  0.8100  0.3831
 9067SOL    HW238838   3.362   0.739   8.520  0.0306 -1.1848  2.6515
 9068SOL     OW38839   4.052   0.334   8.132 -0.0981 -0.1410  0.3596
 9068SOL    HW138840   3.972   0.369   8.093 -0.3414 -1.2068 -0.0962
 9068SOL    HW238841   4.056   0.396   8.205  0.4660  2.4646 -1.9172
 9069SOL     OW38842   1.644   1.046   9.246  0.3827 -0.5692  0.0682
 9069SOL    HW138843   1.619   0.954   9.233 -0.8890 -0.4205  1.5128
 9069SOL    HW238844   1.732   1.043   9.283 -0.0240 -1.8507  0.9286
 9070SOL     OW38845   2.665   0.751   3.675  0.1700 -0.2664 -0.2836
 9070SOL    HW138846   2.679   0.845   3.666 -0.3954 -0.4744 -3.3082
 9070SOL    HW238847   2.569   0.750   3.679  0.2229  1.2906  1.0383
 9071SOL     OW38848   1.274   3.718   1.573 -0.0284 -0.2108  0.0366
 9071SOL    HW138849   1.206   3.660   1.540  1.1253  0.4684 -3.5499
 9071SOL    HW238850   1.295   3.680   1.658  0.1038 -0.5603 -0.1520
 9072SOL     OW38851   1.899   1.162   7.764  0.3068  0.4728  0.5216
 9072SOL    HW138852   1.837   1.132   7.698 -0.0850  0.7552  0.7615
 9072SOL    HW238853   1.879   1.256   7.764 -0.2478  0.3572  1.5743
 9073SOL     OW38854   0.600   1.054   0.056  0.6581  0.3514  0.1233
 9073SOL    HW138855   0.629   1.143   0.035  0.0655  0.3636 -0.6529
 9073SOL    HW238856   0.677   1.026   0.105  0.7799  0.2997 -0.0990
 9074SOL     OW38857   2.679   0.707   8.475 -0.2777  0.0982  0.5561
 9074SOL    HW138858   2.622   0.656   8.532 -0.2097  2.7097  2.9240
 9074SOL    HW238859   2.654   0.794   8.506 -0.1925  0.0528  0.7485
 9075SOL     OW38860   2.238   2.091   4.129 -0.1224 -0.5610  0.2556
 9075SOL    HW138861   2.256   2.174   4.172  1.8197  0.3500 -2.3281
 9075SOL    HW238862   2.298   2.029   4.169 -0.0516 -0.3402  0.4891
 9076SOL     OW38863   0.775   0.100   6.752 -0.3344  0.1728 -0.3765
 9076SOL    HW138864   0.810   0.115   6.840  2.0631 -1.1441 -1.1299
 9076SOL    HW238865   0.695   0.055   6.781 -0.1885  1.3283  1.8333
 9077SOL     OW38866   4.350   3.732   8.257 -0.3796  0.1681  0.2043
 9077SOL    HW138867   4.365   3.701   8.346 -1.0493 -3.7061 -1.0495
 9077SOL    HW238868   4.273   3.787   8.271  0.5924  1.7342 -0.5411
 9078SOL     OW38869   2.561   3.227   5.193  0.1508  0.0054  0.3880
 9078SOL    HW138870   2.607   3.199   5.114 -0.6069  0.5571 -0.2369
 9078SOL    HW238871   2.483   3.171   5.197 -1.7739  2.7537  1.0331
 9079SOL     OW38872   4.003   1.000  16.086 -0.6288 -0.4538 -0.0598
 9079SOL    HW138873   3.949   1.065  16.131  1.7300 -0.1632  2.3379
 9079SOL    HW238874   3.974   1.015  15.996 -1.0096  0.7319  0.2544
 9080SOL     OW38875   4.017   4.441   4.393  0.1225 -0.1259 -0.4930
 9080SOL    HW138876   4.082   4.474   4.455 -0.4285  0.6823 -0.3349
 9080SOL    HW238877   4.071   4.384   4.339 -1.9706 -0.4274 -2.2515
 9081SOL     OW38878   4.394   2.493  13.619 -0.0340 -0.2870 -0.1868
 9081SOL    HW138879   4.412   2.416  13.672  1.2108  0.1251 -0.0009
 9081SOL    HW238880   4.306   2.512  13.651  0.7231 -1.7290  2.7353
 9082SOL     OW38881   3.220   0.865   4.466 -0.6023 -1.0068  0.6033
 9082SOL    HW138882   3.212   0.837   4.557  1.4932 -0.8232  0.8518
 9082SOL    HW238883   3.276   0.942   4.473 -0.9769 -0.8839  2.2173
 9083SOL     OW38884   1.395   2.347  15.362  0.1935  0.0420  0.1627
 9083SOL    HW138885   1.456   2.334  15.434  0.7444 -1.6390 -0.6125
 9083SOL    HW238886   1.438   2.288  15.300  0.0495 -1.6243  1.6504
 9084SOL     OW38887   4.320   1.011   6.842 -0.2213 -0.0004  0.1693
 9084SOL    HW138888   4.338   1.105   6.837 -0.3481  0.1328  1.9956
 9084SOL    HW238889   4.334   0.985   6.751 -2.7099  0.4651 -0.3364
 9085SOL     OW38890   2.019   4.362   9.140 -0.0774 -0.1440  0.3447
 9085SOL    HW138891   2.084   4.382   9.073  0.6543  0.3631  1.2152
 9085SOL    HW238892   2.062   4.396   9.218 -0.7063  0.2963  0.5007
 9086SOL     OW38893   0.895   4.407   8.607 -0.0533 -0.0589 -0.1005
 9086SOL    HW138894   0.827   4.404   8.674  0.1282 -0.8778  0.0461
 9086SOL    HW238895   0.847   4.458   8.541  1.2578 -0.1072 -1.0921
 9087SOL     OW38896   1.559   2.257  10.206  0.2797  0.1804  0.2857
 9087SOL    HW138897   1.487   2.214  10.252 -0.8668 -1.0436 -2.7219
 9087SOL    HW238898   1.533   2.258  10.114 -2.4318 -0.7317  1.0327
 9088SOL     OW38899   4.247   3.433  13.792  0.2432  0.1275 -1.2521
 9088SOL    HW138900   4.262   3.347  13.752 -0.3772 -0.1089 -0.9591
 9088SOL    HW238901   4.154   3.421  13.807  0.3013  0.9171 -0.2596
 9089SOL     OW38902   0.255   2.608   1.887  0.4873 -0.0469 -0.0528
 9089SOL    HW138903   0.198   2.666   1.938 -0.4360 -0.3518 -0.7393
 9089SOL    HW238904   0.192   2.536   1.891  1.3255 -0.6716  1.8793
 9090SOL     OW38905   1.358   2.738   8.456  0.0617 -0.4732 -0.8461
 9090SOL    HW138906   1.384   2.710   8.544 -1.0160 -0.2661 -0.4673
 9090SOL    HW238907   1.274   2.772   8.487  0.4165 -0.3347 -0.0214
 9091SOL     OW38908   0.076   3.936   0.588  0.1646 -0.4110 -0.4856
 9091SOL    HW138909   0.057   3.848   0.620 -1.3421  0.3532  0.7257
 9091SOL    HW238910   0.012   3.993   0.632 -0.4140 -0.7752 -0.8650
 9092SOL     OW38911   3.390   0.368  11.028 -0.2011 -0.0641  0.1536
 9092SOL    HW138912   3.340   0.300  11.074 -0.9693  0.1395 -0.3977
 9092SOL    HW238913   3.334   0.445  11.040  0.1725  0.3266 -0.6243
 9093SOL     OW38914   0.768   4.052   7.328  0.3282  0.5746  0.1424
 9093SOL    HW138915   0.719   4.004   7.394  1.7693  0.2860  1.0167
 9093SOL    HW238916   0.826   4.115   7.372 -1.3978  0.9749  1.8349
 9094SOL     OW38917   1.691   0.533   6.371  0.2447 -0.0267  0.0687
 9094SOL    HW138918   1.673   0.626   6.386  0.9987  0.0692  0.3789
 9094SOL    HW238919   1.645   0.524   6.288  1.9895 -1.0003 -0.7830
 9095SOL     OW38920   3.435   3.841   3.272  0.0804  0.0530  0.7964
 9095SOL    HW138921   3.507   3.882   3.321 -0.3289  1.3726  0.3022
 9095SOL    HW238922   3.412   3.767   3.328  0.4682  0.6675  1.7551
 9096SOL     OW38923   3.103   0.745   5.417  0.1496  0.4957 -0.0903
 9096SOL    HW138924   3.156   0.823   5.432  0.4935 -0.2400  2.6314
 9096SOL    HW238925   3.161   0.686   5.466  1.3199  3.1593  1.7299
 9097SOL     OW38926   3.082   4.720   4.566  0.2771  0.2348 -0.3727
 9097SOL    HW138927   3.016   4.653   4.582 -0.3815  1.0786  0.4838
 9097SOL    HW238928   3.134   4.678   4.498 -0.4964  1.9730 -2.0232
 9098SOL     OW38929   0.639   2.315   0.977  0.0980 -0.0433  0.0118
 9098SOL    HW138930   0.578   2.295   1.048  2.5232  0.3274  2.1954
 9098SOL    HW238931   0.715   2.345   1.027 -1.2030  0.2754  1.8134
 9099SOL     OW38932   4.649   4.023   5.574 -0.2693  0.6413  0.0823
 9099SOL    HW138933   4.630   4.086   5.644 -1.5498  1.8536 -1.3551
 9099SOL    HW238934   4.716   3.971   5.618  0.5669  0.9989 -0.7625
 9100SOL     OW38935   1.446   4.157   1.552  0.2162 -0.2256 -0.7131
 9100SOL    HW138936   1.357   4.186   1.572  0.1052 -1.5395  0.6965
 9100SOL    HW238937   1.440   4.064   1.574 -1.5694  0.0909  0.1273
 9101SOL     OW38938   0.233   0.612   5.633 -0.5686  0.1263 -0.4080
 9101SOL    HW138939   0.214   0.702   5.659 -1.5729 -0.1239 -0.2699
 9101SOL    HW238940   0.156   0.585   5.583 -0.2571 -1.2981 -0.1054
 9102SOL     OW38941   2.226   2.088   8.421  0.2707 -0.1771  0.5031
 9102SOL    HW138942   2.179   2.065   8.341  0.7295 -1.9755  0.7482
 9102SOL    HW238943   2.311   2.117   8.388  0.7733  0.0575  2.0126
 9103SOL     OW38944   0.934   2.011   4.946 -0.3367  0.3512 -0.0680
 9103SOL    HW138945   0.911   1.941   5.007  1.4003  0.1711  0.3847
 9103SOL    HW238946   0.854   2.027   4.895 -0.1389  0.8625 -0.2179
 9104SOL     OW38947   3.113   1.661  16.403 -0.1810  0.2789 -0.3522
 9104SOL    HW138948   3.205   1.663  16.379 -0.0419  0.9347  0.2550
 9104SOL    HW238949   3.099   1.746  16.445  0.5126 -0.9109  2.2888
 9105SOL     OW38950   0.259   3.771  14.977  0.3009  0.6429  0.1268
 9105SOL    HW138951   0.209   3.729  15.046  2.8436 -2.5361  0.0271
 9105SOL    HW238952   0.323   3.817  15.031  1.8699 -0.1748 -1.0401
 9106SOL     OW38953   1.270   4.404   3.155 -0.7945  1.2667 -0.4349
 9106SOL    HW138954   1.348   4.435   3.200  1.2955  1.0518 -3.8790
 9106SOL    HW238955   1.273   4.311   3.180  0.0585  0.2627 -4.2515
 9107SOL     OW38956   1.192   4.382   2.093  0.1928  0.7881  0.5134
 9107SOL    HW138957   1.271   4.421   2.055 -0.0382  2.1201  1.4004
 9107SOL    HW238958   1.139   4.379   2.013  0.4034  0.5772  0.3805
 9108SOL     OW38959   1.741   0.246   6.042  0.2482  0.1226 -0.3269
 9108SOL    HW138960   1.739   0.224   5.949 -1.8517 -2.1620  0.2522
 9108SOL    HW238961   1.651   0.246   6.074  0.8740 -2.7559  1.4975
 9109SOL     OW38962   1.202   0.544   9.039  0.2252  0.3253 -0.3717
 9109SOL    HW138963   1.284   0.494   9.043  2.0560  3.3522  0.4055
 9109SOL    HW238964   1.239   0.632   9.039  1.0419 -0.0109 -1.9357
 9110SOL     OW38965   2.274   0.556   2.885 -0.0309 -0.4418 -0.1603
 9110SOL    HW138966   2.300   0.469   2.857  0.2164 -1.0458  1.9696
 9110SOL    HW238967   2.199   0.538   2.941 -1.2451 -0.8296 -1.9154
 9111SOL     OW38968   0.240   1.300   2.844  0.2874 -0.5957 -0.4944
 9111SOL    HW138969   0.322   1.304   2.892  0.7773 -0.6725 -1.3288
 9111SOL    HW238970   0.254   1.224   2.788  0.1500 -0.3042 -0.9307
 9112SOL     OW38971   2.897   2.308   2.276  0.4848  0.0973 -0.1934
 9112SOL    HW138972   2.892   2.307   2.180 -1.0135 -0.1811 -0.1139
 9112SOL    HW238973   2.981   2.352   2.288  0.2305  0.5560 -0.1024
 9113SOL     OW38974   2.555   1.120  14.172 -0.4517  0.4457 -0.5190
 9113SOL    HW138975   2.576   1.213  14.166  0.1504  0.3395 -0.0585
 9113SOL    HW238976   2.584   1.090  14.086  2.2686  0.3135  0.4510
 9114SOL     OW38977   4.670   4.211   4.167  0.4718 -0.1550 -0.4443
 9114SOL    HW138978   4.726   4.219   4.244  1.3138  0.4595 -1.1165
 9114SOL    HW238979   4.705   4.130   4.130 -2.8352 -0.8023 -2.1710
 9115SOL     OW38980   3.387   0.520  14.948 -0.2568  0.0974  0.0126
 9115SOL    HW138981   3.401   0.442  14.895  0.1502  1.4920 -1.9320
 9115SOL    HW238982   3.465   0.511  15.003  0.4437 -0.4429 -1.0773
 9116SOL     OW38983   1.295   4.137   9.868 -0.1720 -0.2870  0.2547
 9116SOL    HW138984   1.209   4.135   9.911 -1.1554  1.6070 -1.5957
 9116SOL    HW238985   1.348   4.090   9.932  1.1008  1.0065  0.1643
 9117SOL     OW38986   1.083   0.871   2.565 -0.4056  0.0126 -0.2145
 9117SOL    HW138987   1.065   0.921   2.645 -1.2975 -0.5210 -0.0794
 9117SOL    HW238988   1.126   0.795   2.604  0.0555  0.1996 -0.3581
 9118SOL     OW38989   2.544   2.983  13.207 -0.2986  0.1339  0.5941
 9118SOL    HW138990   2.567   2.923  13.277  0.9563  0.2480  0.2692
 9118SOL    HW238991   2.573   2.934  13.130 -1.0161  2.7766 -1.3451
 9119SOL     OW38992   2.894   2.917   1.277  0.0816 -0.0557  0.1534
 9119SOL    HW138993   2.978   2.950   1.248  0.2689  0.5920  1.4139
 9119SOL    HW238994   2.849   2.911   1.193  2.4106  0.2619 -1.1040
 9120SOL     OW38995   2.740   1.814   8.477 -0.1630 -0.2360  0.2921
 9120SOL    HW138996   2.648   1.837   8.489 -0.6377 -0.2395 -3.1743
 9120SOL    HW238997   2.790   1.891   8.505  0.4801 -0.2827 -0.7188
 9121SOL     OW38998   3.391   0.700  12.588  0.4934 -0.2259  0.5932
 9121SOL    HW138999   3.390   0.607  12.609 -0.8143 -0.9303 -2.6369
 9121SOL    HW239000   3.307   0.701  12.542  0.6708  1.2450  0.2995
 9122SOL     OW39001   3.229   1.623   5.563  0.5624 -0.3008  0.2714
 9122SOL    HW139002   3.313   1.585   5.587  0.0684 -2.1713 -1.0022
 9122SOL    HW239003   3.180   1.550   5.601  0.5309  0.7145  2.2128
 9123SOL     OW39004   2.771   0.264   7.288  0.2861 -0.7073 -0.4495
 9123SOL    HW139005   2.715   0.198   7.328 -1.6031 -0.6887 -3.0380
 9123SOL    HW239006   2.781   0.237   7.196 -1.8140  1.0243 -1.2093
 9124SOL     OW39007   1.930   3.668  15.650  1.0904 -0.3513  0.3536
 9124SOL    HW139008   2.003   3.710  15.697  1.5276  0.1221 -0.7547
 9124SOL    HW239009   1.890   3.741  15.604  1.3341  0.6691  1.7528
 9125SOL     OW39010   2.146   0.085   4.060  0.3097 -0.3172  0.0807
 9125SOL    HW139011   2.101   0.060   4.141 -1.4439  2.2744 -0.0910
 9125SOL    HW239012   2.152   0.179   4.081 -3.0731 -0.0484 -0.2414
 9126SOL     OW39013   4.342   4.536   3.667 -0.5616  0.3357  0.1393
 9126SOL    HW139014   4.323   4.447   3.696 -3.1502  0.6021 -0.7223
 9126SOL    HW239015   4.295   4.585   3.735  0.6280 -0.2872  1.4011
 9127SOL     OW39016   1.615   4.371   2.395  0.1575 -0.1492  0.5535
 9127SOL    HW139017   1.640   4.367   2.303 -0.6389 -1.7573  0.4031
 9127SOL    HW239018   1.520   4.381   2.403  0.5503  1.9745  2.5674
 9128SOL     OW39019   1.017   0.451   9.204 -0.1241 -0.0790 -0.2115
 9128SOL    HW139020   0.970   0.528   9.235 -1.5154 -1.5077  1.2221
 9128SOL    HW239021   1.080   0.488   9.143 -0.6230  3.5750  1.4712
 9129SOL     OW39022   2.666   3.673  16.375  0.0192  0.0847  0.2768
 9129SOL    HW139023   2.714   3.748  16.411  1.2778 -0.1560 -0.9087
 9129SOL    HW239024   2.705   3.596  16.416 -2.5518 -1.9334 -1.1058
 9130SOL     OW39025   2.884   4.429   8.073 -0.2511  0.1862  0.3785
 9130SOL    HW139026   2.916   4.481   8.147  2.9728  0.1486 -1.0006
 9130SOL    HW239027   2.955   4.368   8.056 -0.6818 -0.1686 -0.1433
 9131SOL     OW39028   3.054   4.439   3.813 -0.0785 -0.4790 -0.9563
 9131SOL    HW139029   3.024   4.503   3.749 -1.1712  0.2940  0.3233
 9131SOL    HW239030   3.144   4.431   3.780  0.9484  0.1127  1.6516
 9132SOL     OW39031   4.006   0.577   2.821 -0.8755  0.4779  0.4634
 9132SOL    HW139032   4.017   0.627   2.902 -1.5867 -0.4972  1.1606
 9132SOL    HW239033   4.097   0.579   2.791 -1.6133  1.6057 -1.6466
 9133SOL     OW39034   0.060   4.495  12.994 -0.1957 -0.0725  0.1052
 9133SOL    HW139035   4.713   4.543  12.983  0.0946  1.0276  2.8237
 9133SOL    HW239036   0.133   4.556  12.980  0.2702 -0.2495  1.8345
 9134SOL     OW39037   4.555   0.355   8.343 -0.1283  0.1970  0.3916
 9134SOL    HW139038   4.541   0.372   8.250  3.9154 -1.7177 -0.5904
 9134SOL    HW239039   4.615   0.281   8.331  1.4981  1.8377 -1.7266
 9135SOL     OW39040   2.677   2.198   2.574  0.5200  0.0329  0.0335
 9135SOL    HW139041   2.753   2.158   2.534  1.6751  1.0088  1.2474
 9135SOL    HW239042   2.721   2.275   2.610 -1.1835  2.1315 -2.3782
 9136SOL     OW39043   1.354   2.083   5.142  0.4107  0.5064  0.2971
 9136SOL    HW139044   1.334   2.025   5.216  0.6137 -1.6796 -1.3815
 9136SOL    HW239045   1.268   2.121   5.122  0.6988  1.1669  0.2946
 9137SOL     OW39046   2.728   2.192   9.711  0.6704 -0.7242  0.7947
 9137SOL    HW139047   2.723   2.287   9.719  3.1251 -0.6060  1.0420
 9137SOL    HW239048   2.820   2.165   9.714  1.0356  0.3389 -0.8181
 9138SOL     OW39049   0.980   0.951   4.435 -0.0186 -0.1005 -0.4252
 9138SOL    HW139050   1.055   0.997   4.398 -0.2387 -0.7661 -1.6867
 9138SOL    HW239051   0.921   0.962   4.360 -1.6488  0.0084  0.8701
 9139SOL     OW39052   4.411   4.349   4.167 -0.2956 -0.0903 -0.3745
 9139SOL    HW139053   4.422   4.417   4.233 -0.1721  0.4114 -0.9034
 9139SOL    HW239054   4.492   4.300   4.180 -1.0256 -0.5405  2.4727
 9140SOL     OW39055   1.068   0.538  15.017  0.1154  0.0841  0.6054
 9140SOL    HW139056   1.001   0.592  14.974  0.8783  1.4149  1.0938
 9140SOL    HW239057   1.059   0.459  14.963  0.2835  1.0672 -0.8724
 9141SOL     OW39058   4.185   2.445   6.260 -0.1078 -0.5747 -0.1045
 9141SOL    HW139059   4.229   2.423   6.342 -0.4935 -1.4881 -0.1412
 9141SOL    HW239060   4.258   2.484   6.212 -1.6676  1.5250 -0.7550
 9142SOL     OW39061   2.188   3.482   2.404  0.0751  0.6240  0.3963
 9142SOL    HW139062   2.147   3.417   2.461  0.6898 -1.4442 -1.5252
 9142SOL    HW239063   2.226   3.423   2.339 -2.4283  1.5478 -1.8910
 9143SOL     OW39064   3.657   0.615  11.922  0.3013 -0.5249  0.3199
 9143SOL    HW139065   3.656   0.660  12.006 -1.7777 -0.2630  0.1747
 9143SOL    HW239066   3.731   0.555  11.925 -0.1582 -1.0709  0.7940
 9144SOL     OW39067   2.186   4.046   7.054 -0.2355  0.1896 -0.2475
 9144SOL    HW139068   2.126   4.002   7.114 -1.0151  2.2334  0.4856
 9144SOL    HW239069   2.149   4.012   6.973  0.7291 -0.4673 -0.4156
 9145SOL     OW39070   1.366   3.670   9.106 -0.2241 -0.4337  0.7499
 9145SOL    HW139071   1.347   3.762   9.128 -1.2852 -0.1782 -1.1853
 9145SOL    HW239072   1.447   3.650   9.153 -0.8356 -1.7686  1.2049
 9146SOL     OW39073   0.156   3.594   3.066  0.3042  0.2849 -0.1530
 9146SOL    HW139074   0.127   3.534   2.997 -2.4327  1.0099  0.3440
 9146SOL    HW239075   0.113   3.669   3.025 -0.7367 -0.4860 -0.4742
 9147SOL     OW39076   0.545   1.161   6.527 -0.0029  0.0740  0.7247
 9147SOL    HW139077   0.610   1.104   6.486 -1.1420  1.2987 -2.7960
 9147SOL    HW239078   0.515   1.203   6.446  1.7796  1.3285  0.7188
 9148SOL     OW39079   0.781   1.130  16.426 -0.3406  0.0362 -0.3252
 9148SOL    HW139080   0.811   1.045  16.393 -0.0368  0.0820 -0.1669
 9148SOL    HW239081   0.765   1.169  16.340  1.8533 -2.0037 -1.6543
 9149SOL     OW39082   3.105   0.771   7.207 -0.7746  0.2660 -0.8911
 9149SOL    HW139083   3.183   0.717   7.221 -0.1828  1.8897  2.2764
 9149SOL    HW239084   3.131   0.846   7.261  2.5583 -2.4012  1.2467
 9150SOL     OW39085   1.756   4.667   5.600  0.0831  0.1760  0.3382
 9150SOL    HW139086   1.850   4.657   5.585 -0.1392 -1.4140  0.0451
 9150SOL    HW239087   1.746   0.023   5.630 -2.0534 -0.3390  1.1632
 9151SOL     OW39088   1.994   2.012   8.929  0.0087  0.0914  0.0302
 9151SOL    HW139089   2.058   2.078   8.958  0.9923 -2.0254  2.7217
 9151SOL    HW239090   2.010   1.943   8.993  1.6641  1.7074  1.3891
 9152SOL     OW39091   0.844   0.013   8.035  0.1492 -0.1756 -0.3822
 9152SOL    HW139092   0.759   0.009   7.990  0.0988 -0.0424 -0.3003
 9152SOL    HW239093   0.827   4.674   8.093  0.8749 -0.5384 -0.6434
 9153SOL     OW39094   1.072   3.662  15.233  0.4788  0.1004  0.5038
 9153SOL    HW139095   1.071   3.680  15.139 -0.3634 -1.8283  0.1410
 9153SOL    HW239096   1.126   3.584  15.230 -0.7947 -0.7665  0.0384
 9154SOL     OW39097   3.669   0.012   5.728  0.2812 -0.0856 -0.1389
 9154SOL    HW139098   3.673   0.070   5.803  5.2014 -2.7606  1.6405
 9154SOL    HW239099   3.584   0.051   5.705  0.2285  0.8397  1.6864
 9155SOL     OW39100   2.826   3.599   0.784  0.1075  0.0903 -0.1294
 9155SOL    HW139101   2.736   3.629   0.779  0.7632  1.7924 -1.6832
 9155SOL    HW239102   2.830   3.536   0.712 -0.1049  1.8387 -1.6784
 9156SOL     OW39103   3.042   1.381  14.529  0.3238  0.3007 -0.0588
 9156SOL    HW139104   3.048   1.353  14.620  2.4135 -1.6359 -0.7915
 9156SOL    HW239105   3.093   1.313  14.485 -0.3782  0.9423 -1.8709
 9157SOL     OW39106   2.803   1.090   7.864  0.1190 -0.1541 -0.2832
 9157SOL    HW139107   2.728   1.057   7.815  0.0184  0.0604 -0.2748
 9157SOL    HW239108   2.869   1.083   7.795  0.4982  1.7493 -0.1303
 9158SOL     OW39109   2.300   0.871   7.810  0.1925  0.2956  0.8419
 9158SOL    HW139110   2.379   0.913   7.843  0.6594 -2.1738  2.8813
 9158SOL    HW239111   2.259   0.948   7.769 -2.9548 -1.4143  0.7597
 9159SOL     OW39112   1.969   0.622   3.296  0.1281 -0.3364 -0.2756
 9159SOL    HW139113   1.922   0.700   3.327 -0.2477 -0.9925  0.8068
 9159SOL    HW239114   1.952   0.642   3.204 -0.4449  0.5411  0.0202
 9160SOL     OW39115   2.955   0.542  15.964  1.0508 -0.2382 -0.1095
 9160SOL    HW139116   2.887   0.526  16.028 -1.0431  0.7920 -2.0798
 9160SOL    HW239117   3.026   0.585  16.012  0.7523 -0.3643  0.4299
 9161SOL     OW39118   1.574   2.902   1.753  0.0183  0.6540  0.2021
 9161SOL    HW139119   1.616   2.833   1.805 -0.6939 -0.1826 -0.3221
 9161SOL    HW239120   1.644   2.930   1.694 -1.0893 -1.3613 -2.0812
 9162SOL     OW39121   4.092   3.932  13.331 -0.2231 -0.2405  0.2212
 9162SOL    HW139122   4.150   3.976  13.269 -0.2092 -0.1703  0.2844
 9162SOL    HW239123   4.035   3.889  13.267  0.6044 -0.3872 -0.4152
 9163SOL     OW39124   3.606   0.770   9.446  0.2589 -0.9738 -0.7362
 9163SOL    HW139125   3.664   0.798   9.517 -0.4392 -0.7740 -0.2414
 9163SOL    HW239126   3.525   0.778   9.497  0.5390  2.4101 -0.8188
 9164SOL     OW39127   3.707   0.026  13.325 -0.5295 -0.6513 -0.0106
 9164SOL    HW139128   3.761   4.715  13.261  2.2365  2.5378  0.0471
 9164SOL    HW239129   3.739   4.712  13.401  0.8265 -0.7665 -0.6606
 9165SOL     OW39130   2.452   2.094   2.665 -0.0181 -0.3248 -0.1863
 9165SOL    HW139131   2.404   2.159   2.614 -0.5252 -0.0556  0.6293
 9165SOL    HW239132   2.536   2.108   2.622 -0.5096  0.0443 -1.0180
 9166SOL     OW39133   4.204   2.175   5.655 -0.5002  0.2010 -0.1572
 9166SOL    HW139134   4.245   2.178   5.568 -0.9392  1.7836 -0.3055
 9166SOL    HW239135   4.154   2.094   5.647  0.1265 -0.1402 -0.5938
 9167SOL     OW39136   0.821   2.789   8.622  0.0088  0.1315  0.3384
 9167SOL    HW139137   0.874   2.712   8.601 -0.1236  0.2086 -0.2738
 9167SOL    HW239138   0.805   2.841   8.543 -2.7896 -0.2929  0.6352
 9168SOL     OW39139   4.537   4.250   5.156 -0.7248  0.8878  0.1622
 9168SOL    HW139140   4.624   4.283   5.136 -0.8711  0.4437 -1.2074
 9168SOL    HW239141   4.548   4.174   5.213  1.5317 -0.0416 -1.5206
 9169SOL     OW39142   4.395   0.000   8.003  0.2384 -0.1811 -0.1822
 9169SOL    HW139143   4.318   0.050   7.975  0.3892  1.7359  2.8684
 9169SOL    HW239144   4.353   4.650   8.012 -0.2426  0.0962  0.2280
 9170SOL     OW39145   4.489   3.655   7.493  0.2484 -0.0095  0.0521
 9170SOL    HW139146   4.476   3.690   7.405  1.3034  1.1183  0.3244
 9170SOL    HW239147   4.423   3.587   7.499 -0.6464  0.7633 -1.0648
 9171SOL     OW39148   0.057   2.165  13.849  0.1569  0.0684 -0.0436
 9171SOL    HW139149   0.062   2.244  13.903  1.3912 -0.7361  1.0065
 9171SOL    HW239150   0.145   2.131  13.836  1.1524  2.2841  0.7583
 9172SOL     OW39151   0.125   4.400  15.171 -0.2702 -1.1047  0.2950
 9172SOL    HW139152   0.075   4.319  15.186 -2.2418 -0.4866 -2.9375
 9172SOL    HW239153   0.169   4.409  15.256 -0.6803  1.1902  0.2737
 9173SOL     OW39154   0.589   2.210   1.789 -0.1036 -0.2738 -0.2587
 9173SOL    HW139155   0.620   2.122   1.768 -0.5466 -0.8346  1.4722
 9173SOL    HW239156   0.551   2.237   1.705  1.1084  1.6535 -0.1827
 9174SOL     OW39157   0.758   2.655   6.038 -0.3005 -0.1534  0.2390
 9174SOL    HW139158   0.796   2.606   5.965 -1.6513  1.1054 -1.2942
 9174SOL    HW239159   0.681   2.695   5.998 -0.1799  0.1207  0.2867
 9175SOL     OW39160   3.950   0.667   3.679  0.4006  0.2250 -0.1354
 9175SOL    HW139161   3.942   0.697   3.589 -0.0371  0.1102 -0.1351
 9175SOL    HW239162   4.038   0.632   3.683 -0.2818 -1.7870 -3.4353
 9176SOL     OW39163   4.518   1.193   3.182 -0.3627 -0.0477 -0.1054
 9176SOL    HW139164   4.426   1.171   3.167 -0.5817  0.4302  0.5666
 9176SOL    HW239165   4.539   1.189   3.088  2.4475 -0.9553  0.5688
 9177SOL     OW39166   0.496   2.534   7.856  0.1608  0.0937 -0.7972
 9177SOL    HW139167   0.591   2.538   7.845  0.1706  0.8257 -0.4115
 9177SOL    HW239168   0.475   2.569   7.769 -0.8121 -0.3054 -0.7257
 9178SOL     OW39169   1.955   4.614  16.114 -0.0827  0.1505 -0.0479
 9178SOL    HW139170   1.911   4.699  16.110  1.0153  0.6317 -1.8241
 9178SOL    HW239171   2.045   4.646  16.125  0.1329 -0.4201 -0.1507
 9179SOL     OW39172   4.000   1.936  17.542  0.8169  0.2647 -0.0549
 9179SOL    HW139173   4.051   1.895  17.612 -1.0660 -1.1575  0.4579
 9179SOL    HW239174   4.030   1.887  17.466 -0.8473 -0.8596  0.0280
 9180SOL     OW39175   1.518   4.472   3.229 -0.4438  0.3957  0.3643
 9180SOL    HW139176   1.589   4.518   3.182 -1.5532 -0.2894 -1.9796
 9180SOL    HW239177   1.526   4.521   3.311  0.8984 -1.2297  1.1870
 9181SOL     OW39178   0.663   0.990  12.340 -0.2535  0.0119  0.1701
 9181SOL    HW139179   0.593   1.024  12.396 -0.0387  1.3465 -0.3575
 9181SOL    HW239180   0.698   0.924  12.399  2.7049  0.7552 -0.7540
 9182SOL     OW39181   4.407   2.377   0.296  0.1105 -0.2331  0.4348
 9182SOL    HW139182   4.331   2.370   0.239 -0.5147 -0.7684  1.3301
 9182SOL    HW239183   4.423   2.471   0.289 -1.9989  0.1873  1.2083
 9183SOL     OW39184   3.978   2.649   2.617 -0.0147  0.2414  0.0485
 9183SOL    HW139185   4.056   2.613   2.577 -0.8066 -1.9667  0.4497
 9183SOL    HW239186   3.915   2.623   2.550  1.7909 -2.3855 -0.5965
 9184SOL     OW39187   3.837   2.216   5.356  0.1314 -0.3197 -0.0614
 9184SOL    HW139188   3.886   2.297   5.342  0.8572 -0.9665 -1.2817
 9184SOL    HW239189   3.826   2.213   5.451  0.1261  0.7359 -0.0302
 9185SOL     OW39190   4.681   4.029   2.701 -0.2375  0.1364  0.7600
 9185SOL    HW139191   4.635   3.954   2.739  0.6774  0.6811  2.8977
 9185SOL    HW239192   0.029   3.988   2.675 -1.0868  0.2349 -2.1509
 9186SOL     OW39193   1.726   3.551  14.887  0.4729  0.0062 -0.1439
 9186SOL    HW139194   1.760   3.571  14.800  2.0576 -3.0283 -0.2599
 9186SOL    HW239195   1.687   3.464  14.878 -0.0366  0.0372  1.8044
 9187SOL     OW39196   1.787   3.818  10.008  0.2648  0.6571 -0.0272
 9187SOL    HW139197   1.837   3.737   9.994 -1.0119 -0.4282  1.7129
 9187SOL    HW239198   1.863   3.876  10.000  0.9384 -0.5588 -2.3810
 9188SOL     OW39199   2.745   1.453  17.553  0.7386 -0.3350  0.3729
 9188SOL    HW139200   2.664   1.502  17.539 -0.6766 -2.6379  0.4671
 9188SOL    HW239201   2.710   1.366  17.535  1.2489 -0.9493  2.4741
 9189SOL     OW39202   2.676   3.689   5.330  0.4659 -0.3122 -0.0764
 9189SOL    HW139203   2.765   3.705   5.359  0.6774  0.3952 -1.1015
 9189SOL    HW239204   2.648   3.601   5.353 -0.8780 -0.0695 -0.7412
 9190SOL     OW39205   0.466   1.271   2.972 -0.2454  0.6382 -0.2857
 9190SOL    HW139206   0.463   1.319   3.054  1.0150 -0.3600  0.3411
 9190SOL    HW239207   0.551   1.303   2.940 -0.5025  2.1294  0.4939
 9191SOL     OW39208   1.904   0.286   7.356 -0.1130  0.0717  0.1858
 9191SOL    HW139209   1.894   0.201   7.399  1.8845 -0.6678 -0.8047
 9191SOL    HW239210   1.988   0.318   7.391  0.1297 -2.6796  2.0647
 9192SOL     OW39211   2.695   1.367  16.844  0.8141  0.1641  0.0605
 9192SOL    HW139212   2.779   1.347  16.804  1.0430 -1.7987  1.5198
 9192SOL    HW239213   2.658   1.445  16.802 -0.7190 -0.5823  0.0073
 9193SOL     OW39214   1.848   1.162  10.002  0.8995 -0.6778  0.3334
 9193SOL    HW139215   1.794   1.207   9.937  2.9151 -1.2781 -1.7547
 9193SOL    HW239216   1.865   1.088   9.944  0.5093 -0.4546 -0.0651
 9194SOL     OW39217   3.853   3.431   5.650  0.3500 -0.1482 -0.1055
 9194SOL    HW139218   3.825   3.521   5.669 -1.1196 -0.8560  1.0042
 9194SOL    HW239219   3.940   3.435   5.689  0.8396  0.8751 -1.2860
 9195SOL     OW39220   0.826   0.381   7.787  0.3699  0.1400  0.2542
 9195SOL    HW139221   0.826   0.288   7.808  3.0330  0.5409  2.0406
 9195SOL    HW239222   0.823   0.375   7.691 -2.1771  0.5491  0.3051
 9196SOL     OW39223   1.808   1.436   8.061 -0.3247  0.0882  0.2145
 9196SOL    HW139224   1.757   1.380   8.119  0.2935  1.4440  2.0688
 9196SOL    HW239225   1.843   1.501   8.122  2.1162 -0.0112 -1.0833
 9197SOL     OW39226   0.183   0.419   0.515 -0.0837  0.0137  0.4043
 9197SOL    HW139227   0.116   0.438   0.580  0.2123  1.4287  0.2805
 9197SOL    HW239228   0.250   0.485   0.533  0.1693 -0.2325  0.3726
 9198SOL     OW39229   2.807   0.271   9.219  0.0116 -0.4298 -0.5740
 9198SOL    HW139230   2.721   0.288   9.257  0.1302  0.1969 -0.5743
 9198SOL    HW239231   2.852   0.227   9.291  1.9820  1.5386 -0.5807
 9199SOL     OW39232   1.817   1.600   2.006  0.1963 -0.3429  0.1661
 9199SOL    HW139233   1.761   1.624   2.080  0.2725 -0.6264  0.3182
 9199SOL    HW239234   1.875   1.676   2.001  1.0042 -0.8916  1.1172
 9200SOL     OW39235   3.682   3.703   1.128 -0.7705  0.1781  0.2207
 9200SOL    HW139236   3.687   3.722   1.034  1.8741 -0.2495  0.2745
 9200SOL    HW239237   3.727   3.778   1.167  0.0066 -0.8622  1.3425
 9201SOL     OW39238   1.187   4.318   5.052  0.4376  0.1791  0.3295
 9201SOL    HW139239   1.277   4.317   5.018  1.2702 -1.0298  2.5614
 9201SOL    HW239240   1.137   4.276   4.981 -0.0979 -1.4859  1.6995
 9202SOL     OW39241   0.415   4.658   9.831 -0.4445 -0.0861  0.1904
 9202SOL    HW139242   0.481   4.720   9.862  1.1210 -1.1505 -1.0084
 9202SOL    HW239243   0.468   4.579   9.842 -0.5904 -0.4416 -1.7270
 9203SOL     OW39244   2.985   2.096   4.155  0.2243  0.0763  0.2915
 9203SOL    HW139245   2.948   2.044   4.226 -1.5362 -1.6708 -1.9154
 9203SOL    HW239246   2.912   2.095   4.093 -0.6024  0.5153  1.2612
 9204SOL     OW39247   0.937   1.681   8.799 -0.2621 -0.6765 -0.0797
 9204SOL    HW139248   0.929   1.769   8.761  0.3029 -0.5305  0.1330
 9204SOL    HW239249   0.961   1.708   8.888 -3.5595  0.2725  0.5172
 9205SOL     OW39250   4.648   4.173   0.718  0.5836  0.0541 -0.2110
 9205SOL    HW139251   4.655   4.109   0.789 -0.1123 -2.2712 -2.2331
 9205SOL    HW239252   4.652   4.261   0.755  2.9051  0.0021 -0.3968
 9206SOL     OW39253   3.563   3.884   3.960  0.8427 -0.0763  0.6470
 9206SOL    HW139254   3.615   3.818   4.006 -0.3333 -1.1993  0.3690
 9206SOL    HW239255   3.500   3.905   4.030 -0.8017 -0.0954 -0.8320
 9207SOL     OW39256   4.095   0.396   6.638 -0.1698 -0.0689  0.1558
 9207SOL    HW139257   4.178   0.430   6.602  0.8060 -0.5893  1.9171
 9207SOL    HW239258   4.048   0.376   6.557 -0.2330 -0.5356  0.3056
 9208SOL     OW39259   1.667   2.348   4.463  0.2746  0.5416 -0.9570
 9208SOL    HW139260   1.684   2.417   4.399 -0.5885  1.6757  0.0302
 9208SOL    HW239261   1.572   2.354   4.466  0.2054 -0.7029 -0.8789
 9209SOL     OW39262   3.948   1.163   3.846  0.2232 -0.8023  0.5112
 9209SOL    HW139263   3.905   1.103   3.785 -1.7007  0.4847  0.5846
 9209SOL    HW239264   3.896   1.145   3.924 -2.5283 -0.3927 -1.2399
 9210SOL     OW39265   4.437   2.714   6.749 -0.3078  0.2094 -0.0412
 9210SOL    HW139266   4.394   2.798   6.766 -2.7498 -1.6484  2.8838
 9210SOL    HW239267   4.529   2.739   6.739 -0.5845  1.4524  0.5677
 9211SOL     OW39268   2.005   0.169   8.250 -0.1811  0.3804 -0.3891
 9211SOL    HW139269   1.944   0.204   8.186  0.7542 -1.5715 -2.3209
 9211SOL    HW239270   2.089   0.206   8.222  1.6038 -1.9876  1.7971
 9212SOL     OW39271   1.833   1.832  16.632 -0.0091 -0.2622  0.0308
 9212SOL    HW139272   1.863   1.887  16.559 -1.1000 -0.3391 -0.4678
 9212SOL    HW239273   1.893   1.865  16.699  0.2661  1.9345 -1.2783
 9213SOL     OW39274   2.740   4.620  16.355  0.2599  0.8284 -0.2231
 9213SOL    HW139275   2.663   4.600  16.409  0.8290 -0.1182  0.2273
 9213SOL    HW239276   2.728   4.560  16.282  0.5091  0.0143  0.4145
 9214SOL     OW39277   1.231   0.693   3.704 -0.2396 -0.8480  0.3161
 9214SOL    HW139278   1.316   0.684   3.661 -1.7345 -1.4284 -2.5214
 9214SOL    HW239279   1.254   0.706   3.795 -0.5840  1.8582  0.0314
 9215SOL     OW39280   0.351   0.107  17.023  0.3756 -0.0776 -0.1148
 9215SOL    HW139281   0.268   0.080  16.983 -0.9293  3.3771  0.2553
 9215SOL    HW239282   0.337   0.058  17.104  1.7802 -0.1813  0.0501
 9216SOL     OW39283   1.152   2.052   7.904 -0.2594  0.0226 -0.2311
 9216SOL    HW139284   1.092   1.988   7.866 -1.0099  0.6994 -0.1812
 9216SOL    HW239285   1.179   2.016   7.989 -0.3727 -2.0523 -1.0650
 9217SOL     OW39286   0.853   1.879   5.175 -0.1258 -0.3437  0.5160
 9217SOL    HW139287   0.920   1.893   5.241  2.5845 -0.4682 -2.1967
 9217SOL    HW239288   0.774   1.893   5.227 -0.6579 -1.3034 -0.0298
 9218SOL     OW39289   3.384   0.201  10.347 -0.6576  0.6888  0.5297
 9218SOL    HW139290   3.369   0.250  10.266 -0.4158  0.4428  0.3386
 9218SOL    HW239291   3.298   0.225  10.381 -0.9342  0.3132  0.0929
 9219SOL     OW39292   2.096   4.496   6.645  0.9088  0.4671  0.4293
 9219SOL    HW139293   2.043   4.506   6.566  0.2410 -2.9845  0.4328
 9219SOL    HW239294   2.183   4.514   6.609  0.3245  1.4116 -0.5383
 9220SOL     OW39295   1.096   2.632  15.440  0.0916 -0.3052 -0.3599
 9220SOL    HW139296   1.189   2.651  15.444 -0.1142  0.5619  0.1855
 9220SOL    HW239297   1.065   2.703  15.497 -0.8030 -0.0614 -1.1357
 9221SOL     OW39298   3.924   1.701   9.549 -0.2548 -0.0228  0.0254
 9221SOL    HW139299   3.985   1.732   9.615 -0.0731 -1.1429  0.3786
 9221SOL    HW239300   3.906   1.609   9.569  0.7030 -0.0969  0.5207
 9222SOL     OW39301   2.466   4.645   7.544  0.0614 -0.1585 -0.1413
 9222SOL    HW139302   2.425   4.568   7.504  1.3433 -1.0014  0.1559
 9222SOL    HW239303   2.438   4.642   7.636  3.4590 -0.9978  0.8788
 9223SOL     OW39304   0.822   2.879   5.165 -0.3264  0.3928  0.3332
 9223SOL    HW139305   0.780   2.960   5.133 -0.1895  0.2773 -0.1304
 9223SOL    HW239306   0.785   2.809   5.111 -1.1407  1.4197 -0.4458
 9224SOL     OW39307   2.542   0.982   3.784 -0.3506 -0.3115 -0.3245
 9224SOL    HW139308   2.454   1.001   3.752 -0.8046 -0.9985  0.4927
 9224SOL    HW239309   2.524   0.947   3.872  0.8455 -1.1581 -0.4185
 9225SOL     OW39310   2.509   3.963  14.096  0.3474 -1.0471  0.6980
 9225SOL    HW139311   2.475   3.980  14.008  2.3417  1.0232  0.3207
 9225SOL    HW239312   2.467   3.879  14.119  1.7167 -2.4444 -1.8752
 9226SOL     OW39313   2.979   1.646   7.305 -0.1086  0.2186 -0.1899
 9226SOL    HW139314   3.059   1.618   7.260  0.1828 -1.3286  1.3014
 9226SOL    HW239315   3.009   1.649   7.396  3.2793 -2.5641 -1.2054
 9227SOL     OW39316   1.058   2.343   3.781 -0.2348  0.0665  0.0047
 9227SOL    HW139317   1.019   2.431   3.780 -0.0269  0.1439 -2.7518
 9227SOL    HW239318   1.139   2.368   3.825  0.5957  0.7122 -1.8964
 9228SOL     OW39319   0.027   2.725   7.546  0.2054 -0.1400  0.3892
 9228SOL    HW139320   0.002   2.693   7.459  0.8744 -0.9652  0.5045
 9228SOL    HW239321   4.717   2.661   7.600  0.8264  0.1279  1.2132
 9229SOL     OW39322   4.291   4.368   6.403 -0.1472 -0.0925  0.4056
 9229SOL    HW139323   4.281   4.282   6.362 -1.9629  1.1939 -1.8551
 9229SOL    HW239324   4.214   4.409   6.364  1.3599  1.5015 -0.8804
 9230SOL     OW39325   4.605   1.213   1.129 -0.8076 -0.2650 -0.3209
 9230SOL    HW139326   4.666   1.158   1.080  0.7655  2.1713 -1.1544
 9230SOL    HW239327   4.640   1.300   1.109  0.0084 -0.6699 -0.6884
 9231SOL     OW39328   3.769   1.415  16.420 -0.3545  0.0984 -0.5768
 9231SOL    HW139329   3.855   1.418  16.379 -1.0380 -2.1008 -2.1313
 9231SOL    HW239330   3.759   1.509  16.434  0.7053  0.3231 -1.3677
 9232SOL     OW39331   0.042   2.810   0.521 -0.1187  0.2626  0.5850
 9232SOL    HW139332   0.112   2.744   0.519  1.1993  1.6698  0.4763
 9232SOL    HW239333   0.084   2.894   0.502 -0.6668  0.5214  0.5377
 9233SOL     OW39334   4.705   3.048   9.573 -0.9159 -0.5366 -0.1185
 9233SOL    HW139335   0.043   3.027   9.632 -1.7782  1.3906  1.6216
 9233SOL    HW239336   4.642   2.983   9.605 -0.6565 -0.0394  1.3730
 9234SOL     OW39337   0.981   0.976   3.942  0.2603 -0.5751 -0.1539
 9234SOL    HW139338   0.892   1.011   3.938 -0.2880 -2.0514 -0.7841
 9234SOL    HW239339   0.960   0.893   3.984  2.1618 -1.9340 -1.8721
 9235SOL     OW39340   1.069   4.437   4.699 -0.1655 -0.2099  0.4743
 9235SOL    HW139341   1.034   4.355   4.733 -0.0076 -0.2540  0.5284
 9235SOL    HW239342   1.149   4.419   4.650  0.4115  1.4953  0.7688
 9236SOL     OW39343   1.839   3.480   0.025  0.2467 -0.3807  0.0942
 9236SOL    HW139344   1.778   3.411   0.054 -1.8464  1.7952  0.8663
 9236SOL    HW239345   1.859   3.527   0.106  1.0084 -1.7076  0.6739
 9237SOL     OW39346   3.684   2.729  13.841 -0.8093  0.2820 -0.5313
 9237SOL    HW139347   3.698   2.671  13.766  3.1949  2.1602 -1.2592
 9237SOL    HW239348   3.741   2.689  13.907  0.5905 -1.3350 -2.7197
 9238SOL     OW39349   3.406   4.646   4.835  0.0801 -0.5142  0.3147
 9238SOL    HW139350   3.395   0.006   4.845 -2.6525 -0.6852 -0.9170
 9238SOL    HW239351   3.479   4.640   4.774  1.1883 -0.3163  1.6378
 9239SOL     OW39352   0.154   0.059   6.814  0.1330  0.2098  0.0604
 9239SOL    HW139353   0.068   0.023   6.791  0.5539  0.9215 -2.6632
 9239SOL    HW239354   0.206   4.714   6.825 -1.1925 -0.4973  1.1626
 9240SOL     OW39355   3.250   4.100   5.663  0.1458  0.1439  0.5095
 9240SOL    HW139356   3.162   4.100   5.699 -0.8424 -0.8085 -1.9693
 9240SOL    HW239357   3.242   4.045   5.586  2.2391  2.3074 -1.2589
 9241SOL     OW39358   3.613   3.375   7.003  0.5562  0.4801  0.3597
 9241SOL    HW139359   3.632   3.424   7.083  0.7795 -1.3768  1.4563
 9241SOL    HW239360   3.661   3.294   7.021  2.1460  0.9204 -1.9610
 9242SOL     OW39361   4.099   0.756  13.196 -0.0045 -0.5770 -0.2761
 9242SOL    HW139362   4.177   0.807  13.173  1.3091 -1.9986  1.0767
 9242SOL    HW239363   4.137   0.673  13.224  1.2136  0.0495 -0.0998
 9243SOL     OW39364   4.181   3.067   5.724 -0.6417  0.0261 -0.3644
 9243SOL    HW139365   4.215   3.156   5.736 -0.7600 -0.2692  2.1173
 9243SOL    HW239366   4.101   3.076   5.775 -0.7875 -0.5541 -0.4934
 9244SOL     OW39367   2.203   4.114   8.766 -0.0499  0.9863  0.7377
 9244SOL    HW139368   2.183   4.067   8.848 -0.8401 -0.6695 -0.3862
 9244SOL    HW239369   2.296   4.126   8.782 -0.2845  0.8511  2.2139
 9245SOL     OW39370   3.826   0.316  17.150 -0.0311 -0.6674 -0.0296
 9245SOL    HW139371   3.863   0.385  17.095 -1.3105  0.8018  0.9773
 9245SOL    HW239372   3.765   0.367  17.203  1.5614  0.7576  0.4149
 9246SOL     OW39373   2.367   2.250  17.291 -0.6481 -0.3508 -0.9101
 9246SOL    HW139374   2.275   2.262  17.269 -0.4983  3.4569  0.6329
 9246SOL    HW239375   2.406   2.284  17.211 -1.4736  0.2533 -1.0541
 9247SOL     OW39376   2.276   0.707  15.208 -0.1862  0.2364 -0.3274
 9247SOL    HW139377   2.343   0.690  15.274  0.2849  0.4155 -0.7586
 9247SOL    HW239378   2.213   0.656  15.258 -1.6964  1.3285 -1.1020
 9248SOL     OW39379   2.002   3.722  14.367  0.3503  0.4277  1.0589
 9248SOL    HW139380   2.055   3.772  14.430  0.8344  0.3523  0.7127
 9248SOL    HW239381   1.936   3.790  14.357  0.6391  0.4518 -0.5791
 9249SOL     OW39382   1.231   3.558   2.753 -0.2429 -0.6094 -0.2812
 9249SOL    HW139383   1.277   3.475   2.743  1.6032  0.1841  1.6422
 9249SOL    HW239384   1.304   3.620   2.759 -0.4623 -0.3997  0.3017
 9250SOL     OW39385   2.378   0.783   5.672  0.8298 -0.6774  0.9829
 9250SOL    HW139386   2.458   0.809   5.627 -0.0191  0.6621  0.2333
 9250SOL    HW239387   2.357   0.717   5.606  1.5573 -0.2980  0.3759
 9251SOL     OW39388   4.516   0.666  15.412 -0.1229 -0.0288  0.5454
 9251SOL    HW139389   4.475   0.673  15.326 -1.1198 -1.6803  0.8871
 9251SOL    HW239390   4.441   0.626  15.456  0.1811 -0.9731  0.2215
 9252SOL     OW39391   0.824   4.292  17.332 -0.0056  0.2681  0.4521
 9252SOL    HW139392   0.830   4.220  17.395 -0.2604 -1.2173 -1.2094
 9252SOL    HW239393   0.731   4.289  17.309  0.3772 -1.2215 -0.9122
 9253SOL     OW39394   0.600   2.404   3.908 -0.1109 -0.4477 -0.6145
 9253SOL    HW139395   0.507   2.413   3.929  0.0470 -1.2370  0.4286
 9253SOL    HW239396   0.597   2.310   3.886  2.3459 -0.0431 -2.7414
 9254SOL     OW39397   4.023   3.107   6.790 -0.0402 -0.4488 -0.4031
 9254SOL    HW139398   4.030   3.197   6.758  1.2165 -0.4995 -0.2906
 9254SOL    HW239399   3.928   3.107   6.801  0.2517  0.5773  2.1176
 9255SOL     OW39400   4.241   2.483   7.684 -0.1451  0.2092  0.0251
 9255SOL    HW139401   4.325   2.490   7.729 -0.5391 -1.9652  1.0991
 9255SOL    HW239402   4.174   2.506   7.748 -0.1145 -0.2416  0.2204
 9256SOL     OW39403   0.641   4.575   3.617 -0.0703 -0.0337  0.3094
 9256SOL    HW139404   0.624   4.484   3.590 -1.5132  1.3545 -3.4446
 9256SOL    HW239405   0.683   4.558   3.702  1.7562  0.4935 -0.4900
 9257SOL     OW39406   3.569   3.124   7.179 -0.2316  0.0831  0.0412
 9257SOL    HW139407   3.479   3.117   7.146 -0.7237  0.0169  1.3972
 9257SOL    HW239408   3.561   3.080   7.264  0.1646  0.1274  0.1039
 9258SOL     OW39409   3.218   2.539   4.484 -0.3944 -0.3252 -0.7394
 9258SOL    HW139410   3.140   2.579   4.448 -0.7722 -0.1805  0.2588
 9258SOL    HW239411   3.277   2.611   4.462 -2.6414  2.0656  1.2405
 9259SOL     OW39412   2.033   1.966  12.984 -0.1918 -0.2505 -0.0808
 9259SOL    HW139413   1.959   2.015  13.021 -0.0810  0.5943 -0.9729
 9259SOL    HW239414   2.013   1.977  12.891  0.9041 -1.1519 -0.4176
 9260SOL     OW39415   3.312   2.808   7.378 -0.6817 -0.0738  0.2849
 9260SOL    HW139416   3.377   2.743   7.350 -1.9621 -0.9629 -0.6077
 9260SOL    HW239417   3.378   2.860   7.424 -1.4694 -1.2723  2.8118
 9261SOL     OW39418   1.650   0.081  13.267 -0.1928 -0.2054  0.3428
 9261SOL    HW139419   1.710   0.156  13.275 -0.3025 -0.1951  1.1188
 9261SOL    HW239420   1.704   0.006  13.292 -1.2538 -0.2236  2.5707
 9262SOL     OW39421   2.181   0.251   7.656 -0.3421  0.2624 -0.7174
 9262SOL    HW139422   2.188   0.327   7.714 -2.5089  0.9515 -1.3707
 9262SOL    HW239423   2.154   0.291   7.574 -0.3935 -1.3299 -1.4713
 9263SOL     OW39424   1.918   3.184   4.288 -0.0651  0.0829 -0.2582
 9263SOL    HW139425   1.995   3.235   4.311 -1.3662  1.9822 -0.1108
 9263SOL    HW239426   1.873   3.248   4.232 -0.4572 -1.7368 -2.0062
 9264SOL     OW39427   3.009   2.345   3.403 -0.5255  0.0532  0.3696
 9264SOL    HW139428   3.015   2.384   3.491 -2.0058 -0.3605  0.6483
 9264SOL    HW239429   3.023   2.427   3.354  2.0396 -1.4039 -1.3550
 9265SOL     OW39430   4.390   1.704   6.345  0.3501 -0.2483  0.0712
 9265SOL    HW139431   4.336   1.783   6.357  1.3031  0.4915 -0.4825
 9265SOL    HW239432   4.463   1.737   6.398  0.2908  0.1130 -0.0702
 9266SOL     OW39433   2.758   2.131  11.784  0.3151 -0.0010 -0.2237
 9266SOL    HW139434   2.713   2.078  11.719 -3.1267 -0.3047  2.3628
 9266SOL    HW239435   2.724   2.219  11.764 -0.1817  0.3683  2.1721
 9267SOL     OW39436   3.691   4.101  11.148 -0.3164  0.0211 -0.6037
 9267SOL    HW139437   3.706   4.187  11.188 -2.5663  0.5691 -0.9289
 9267SOL    HW239438   3.705   4.047  11.226  1.2528  0.1771 -0.7747
 9268SOL     OW39439   3.595   3.995   7.125  0.2807  0.2604  0.3043
 9268SOL    HW139440   3.659   3.929   7.096  0.9575  1.5812 -1.1955
 9268SOL    HW239441   3.603   3.994   7.220  0.8660  0.8210  0.2613
 9269SOL     OW39442   0.767   0.689  16.567 -0.8848 -0.5922  0.0005
 9269SOL    HW139443   0.788   0.770  16.520 -1.3414 -0.7561 -0.4884
 9269SOL    HW239444   0.702   0.721  16.630  1.9551  1.2697  1.9706
 9270SOL     OW39445   3.838   0.026   9.754  0.1192 -0.7959 -0.2720
 9270SOL    HW139446   3.785   4.688   9.787  1.6831 -1.1479  1.5115
 9270SOL    HW239447   3.906   4.717   9.702  0.7656 -1.0952  0.8135
 9271SOL     OW39448   0.182   3.782   9.026 -0.3919  0.3802 -0.0670
 9271SOL    HW139449   0.097   3.825   9.024 -0.9392 -0.7439 -1.7199
 9271SOL    HW239450   0.215   3.803   9.113  1.2321  0.5674 -0.7203
 9272SOL     OW39451   1.205   3.839   3.946  0.3109 -0.0895 -0.7591
 9272SOL    HW139452   1.299   3.825   3.944  0.5170  1.4634 -1.6671
 9272SOL    HW239453   1.175   3.749   3.961  0.2639  0.1076  0.3097
 9273SOL     OW39454   4.591   0.958   4.996  0.0633  0.2684 -0.4048
 9273SOL    HW139455   4.553   0.870   4.995 -2.5736  1.3943 -0.4192
 9273SOL    HW239456   4.531   1.006   4.939 -0.9672 -0.1775  0.3118
 9274SOL     OW39457   1.291   0.631   6.439  0.0490 -0.1931  0.4852
 9274SOL    HW139458   1.290   0.727   6.447  3.4060 -0.0890 -0.1417
 9274SOL    HW239459   1.265   0.602   6.526 -1.5313  1.3695  0.5323
 9275SOL     OW39460   0.367   3.178  16.895  0.2193  0.1886 -0.3629
 9275SOL    HW139461   0.343   3.265  16.863 -2.8115 -0.3516  0.4146
 9275SOL    HW239462   0.357   3.122  16.818  0.5992 -0.5023  0.0861
 9276SOL     OW39463   0.921   3.297   3.798 -0.1667  0.0003  0.2765
 9276SOL    HW139464   0.909   3.211   3.840  2.0850 -0.5579 -0.2358
 9276SOL    HW239465   0.950   3.352   3.871 -0.7275 -0.3322  0.7503
 9277SOL     OW39466   1.882   1.727  16.262  0.1233 -0.3006  0.1965
 9277SOL    HW139467   1.811   1.767  16.310  1.7838  1.6557  1.0063
 9277SOL    HW239468   1.943   1.799  16.278  1.7733 -1.2273 -1.8021
 9278SOL     OW39469   2.858   1.683  15.657 -0.3093 -0.9386 -0.5024
 9278SOL    HW139470   2.842   1.774  15.633 -1.1876 -0.6942  0.9696
 9278SOL    HW239471   2.788   1.682  15.723  0.4764 -0.7906  0.3350
 9279SOL     OW39472   4.485   3.036  16.969  0.4815  0.5498  0.2408
 9279SOL    HW139473   4.531   3.013  17.049  0.1047 -0.1531  0.2472
 9279SOL    HW239474   4.548   3.018  16.899 -1.3684  0.7290 -1.4739
 9280SOL     OW39475   0.179   0.994   8.479 -0.6591  0.1939 -0.6183
 9280SOL    HW139476   0.232   1.057   8.527  0.6139 -1.4767  0.1634
 9280SOL    HW239477   0.125   0.950   8.545 -0.7441  3.1950  1.2873
 9281SOL     OW39478   1.720   4.054   3.953 -0.8348 -0.1308 -0.4656
 9281SOL    HW139479   1.747   4.112   3.882  3.1130 -1.3286  0.0349
 9281SOL    HW239480   1.629   4.077   3.971 -0.2270  0.6962  1.6689
 9282SOL     OW39481   1.123   1.708  10.471 -0.7748 -0.0749 -0.3682
 9282SOL    HW139482   1.196   1.764  10.443 -0.1947 -0.4940  0.3281
 9282SOL    HW239483   1.165   1.621  10.469 -1.3826 -0.3443 -1.3975
 9283SOL     OW39484   4.306   2.367   1.087  0.3028  0.1126  0.3474
 9283SOL    HW139485   4.302   2.438   1.152  0.2805  0.4472 -0.0248
 9283SOL    HW239486   4.372   2.403   1.028  0.8147  1.7555  1.9109
 9284SOL     OW39487   2.973   0.820   0.742  0.5735 -0.0598  0.0242
 9284SOL    HW139488   2.883   0.831   0.710  1.0330 -0.5235 -1.4240
 9284SOL    HW239489   3.019   0.810   0.659 -0.3158  0.8135 -0.5722
 9285SOL     OW39490   0.612   2.693   2.496 -0.3009 -0.2952 -0.0229
 9285SOL    HW139491   0.667   2.615   2.496 -0.7748 -0.6290 -0.0829
 9285SOL    HW239492   0.524   2.658   2.507  1.0775 -3.8259 -0.1323
 9286SOL     OW39493   3.715   2.163   7.135  0.2921  1.1348 -0.2102
 9286SOL    HW139494   3.709   2.124   7.048  2.0475  1.0622 -0.2995
 9286SOL    HW239495   3.751   2.083   7.172 -2.0088  2.0260  3.8948
 9287SOL     OW39496   3.552   0.524   8.083  0.1308  0.3839  0.1949
 9287SOL    HW139497   3.526   0.431   8.080  2.5637 -0.3152  0.8464
 9287SOL    HW239498   3.471   0.565   8.115 -0.4579 -0.1239 -0.6239
 9288SOL     OW39499   1.836   3.839   9.297  0.5477 -0.5062  0.3228
 9288SOL    HW139500   1.856   3.851   9.390  1.5949  1.7610 -0.2099
 9288SOL    HW239501   1.919   3.802   9.268  0.5065 -1.3139  1.2113
 9289SOL     OW39502   0.566   0.668   9.237 -0.4899 -0.3967  0.2477
 9289SOL    HW139503   0.553   0.605   9.167  1.2523 -0.7324  0.2220
 9289SOL    HW239504   0.515   0.739   9.198 -0.5207 -0.0004  1.0087
 9290SOL     OW39505   4.510   4.468   5.775 -0.5882  0.0539  0.3861
 9290SOL    HW139506   4.445   4.476   5.705 -0.6008  1.2294  0.5351
 9290SOL    HW239507   4.569   4.541   5.755 -0.5197  0.5198  2.3320
 9291SOL     OW39508   2.841   0.393   5.536 -0.4677  0.2869 -0.0818
 9291SOL    HW139509   2.879   0.420   5.452 -0.4290 -2.2753 -0.9156
 9291SOL    HW239510   2.802   0.310   5.508 -0.5846  0.6056 -0.8572
 9292SOL     OW39511   1.987   2.226   6.859 -0.1332 -0.4387  0.4073
 9292SOL    HW139512   1.919   2.211   6.925 -1.4238  0.7485 -0.6486
 9292SOL    HW239513   1.944   2.297   6.810  2.0107  0.8020  0.3160
 9293SOL     OW39514   0.927   0.394   6.752  0.2519 -0.4707 -0.3514
 9293SOL    HW139515   0.877   0.424   6.828  2.1050  0.1119  0.6171
 9293SOL    HW239516   0.858   0.345   6.706 -0.2386 -0.4160  0.3349
 9294SOL     OW39517   2.009   2.456   5.466  1.1015 -0.1794 -0.1696
 9294SOL    HW139518   2.020   2.379   5.410 -0.4380  0.0173 -0.7330
 9294SOL    HW239519   2.018   2.523   5.398  3.7431  1.2716  1.6122
 9295SOL     OW39520   2.733   3.843  15.003 -0.3088 -0.2060 -0.4260
 9295SOL    HW139521   2.741   3.917  15.063  1.0649 -0.8122  0.1278
 9295SOL    HW239522   2.638   3.838  14.997 -0.4833  1.8438  0.7949
 9296SOL     OW39523   0.267   0.170   9.571  0.3943 -0.5834  0.1679
 9296SOL    HW139524   0.209   0.104   9.533  1.4123 -0.5057 -1.5025
 9296SOL    HW239525   0.353   0.144   9.537 -0.5380  0.9056 -3.3503
 9297SOL     OW39526   3.286   2.974  11.149  0.0316 -0.0512  0.3742
 9297SOL    HW139527   3.211   3.034  11.151 -1.2417 -1.5390 -2.5189
 9297SOL    HW239528   3.346   3.010  11.214 -0.3313  2.5017 -0.6759
 9298SOL     OW39529   1.397   1.293  15.530  0.1302  0.5282  0.4035
 9298SOL    HW139530   1.390   1.386  15.551 -1.5514  0.3847  0.5013
 9298SOL    HW239531   1.371   1.297  15.438  0.1317 -1.5221  0.3047
 9299SOL     OW39532   0.316   1.774   7.267  0.1860 -0.6747  0.2640
 9299SOL    HW139533   0.394   1.748   7.217 -0.2410  0.8713 -1.1961
 9299SOL    HW239534   0.352   1.791   7.354 -0.6766 -1.9695  0.8864
 9300SOL     OW39535   1.183   4.308   7.334 -0.5121 -0.3682  0.4886
 9300SOL    HW139536   1.099   4.300   7.289 -0.5996 -1.4342  0.8601
 9300SOL    HW239537   1.172   4.243   7.404 -1.4780  0.1854  0.8501
 9301SOL     OW39538   0.234   2.571  10.472  0.1635 -0.0808 -0.1306
 9301SOL    HW139539   0.249   2.571  10.566 -1.1620  3.1446  0.0572
 9301SOL    HW239540   0.155   2.625  10.466 -1.7946 -2.7669  1.3096
 9302SOL     OW39541   0.524   1.822  16.277 -0.2295 -0.0108 -0.2739
 9302SOL    HW139542   0.458   1.812  16.207 -0.3451 -1.2415  0.0187
 9302SOL    HW239543   0.567   1.899  16.239  0.1607  0.3637  0.9317
 9303SOL     OW39544   2.557   2.387   7.235  0.4564 -0.3319  0.0873
 9303SOL    HW139545   2.518   2.421   7.316 -0.3803  1.9076 -1.2456
 9303SOL    HW239546   2.516   2.301   7.228  0.7266 -0.6601  2.2651
 9304SOL     OW39547   1.772   3.351   2.591 -0.0547 -0.0963 -0.0066
 9304SOL    HW139548   1.752   3.269   2.635  0.5326 -0.0602  0.3267
 9304SOL    HW239549   1.861   3.330   2.561  0.4188  1.3850  0.3623
 9305SOL     OW39550   0.067   0.996   8.235  0.3424 -0.0147 -0.0687
 9305SOL    HW139551   0.106   1.023   8.318 -0.6091 -2.1644  1.0578
 9305SOL    HW239552   0.115   0.916   8.215 -3.0035 -1.3302 -2.8226
 9306SOL     OW39553   4.538   2.128   1.522  0.4986  0.6582  0.3456
 9306SOL    HW139554   4.496   2.042   1.511 -0.5227  1.2860 -0.7773
 9306SOL    HW239555   4.498   2.180   1.452  0.3463 -1.1600 -0.9378
 9307SOL     OW39556   1.678   3.349   9.372  0.5846 -0.2592 -0.2273
 9307SOL    HW139557   1.686   3.282   9.439  0.1394 -1.2625 -1.1652
 9307SOL    HW239558   1.590   3.376   9.398  0.7332 -1.3124  1.3788
 9308SOL     OW39559   4.080   0.880  10.255  0.0404 -0.0601 -0.1234
 9308SOL    HW139560   4.072   0.801  10.309 -0.2930 -0.8633 -1.3574
 9308SOL    HW239561   3.991   0.914  10.250 -0.4957 -1.3959  0.3017
 9309SOL     OW39562   3.954   0.173   9.942  0.0438 -0.4112 -0.3454
 9309SOL    HW139563   3.902   0.118  10.000 -1.9803  1.9958  0.1281
 9309SOL    HW239564   3.935   0.147   9.852  1.1672 -1.1444 -0.3724
 9310SOL     OW39565   3.383   0.708  13.846  0.4512  0.2753  0.0014
 9310SOL    HW139566   3.404   0.713  13.753 -2.0539 -0.6965 -0.6299
 9310SOL    HW239567   3.438   0.776  13.884 -1.8623  1.5317  1.1220
 9311SOL     OW39568   3.325   0.219   5.392 -0.2767 -0.5609 -0.7868
 9311SOL    HW139569   3.347   0.135   5.353  0.6499 -0.9571  0.5742
 9311SOL    HW239570   3.328   0.266   5.309 -0.6449  3.3890  1.4542
 9312SOL     OW39571   3.219   1.762   8.237 -0.1171 -0.4988 -0.0813
 9312SOL    HW139572   3.238   1.682   8.187  3.2597  0.8708 -0.9812
 9312SOL    HW239573   3.125   1.769   8.221 -0.0625 -1.0860 -0.6456
 9313SOL     OW39574   3.958   4.266   6.112 -0.2706 -0.1059 -0.4096
 9313SOL    HW139575   3.898   4.241   6.042  0.3597 -1.2865 -0.5303
 9313SOL    HW239576   3.998   4.184   6.140 -0.0239 -0.6294 -2.2667
 9314SOL     OW39577   0.082   0.355   3.061  0.1189 -0.7828 -0.3781
 9314SOL    HW139578   0.057   0.263   3.064 -0.1205 -0.7968 -2.8333
 9314SOL    HW239579   0.084   0.365   2.966 -0.6653  1.3643 -0.1672
 9315SOL     OW39580   3.069   1.476   3.905 -0.0742  0.2493 -0.3554
 9315SOL    HW139581   3.152   1.442   3.872  0.1470 -0.9607  1.4828
 9315SOL    HW239582   3.013   1.423   3.847 -1.1567  1.5950 -0.5524
 9316SOL     OW39583   3.948   4.121   2.539 -0.0806 -0.2001 -0.0315
 9316SOL    HW139584   3.919   4.179   2.468  0.6799  0.9707  0.6161
 9316SOL    HW239585   3.934   4.040   2.490  0.0376  0.2552 -0.8195
 9317SOL     OW39586   2.563   2.760   4.814  0.3446 -0.0928  0.5861
 9317SOL    HW139587   2.521   2.721   4.890 -1.0830  0.3874  0.0459
 9317SOL    HW239588   2.516   2.843   4.817  1.3176  0.5855 -2.2853
 9318SOL     OW39589   3.572   1.159   4.007 -0.3675 -0.2302  0.2924
 9318SOL    HW139590   3.592   1.251   4.025 -0.0447 -0.3590  0.5847
 9318SOL    HW239591   3.538   1.170   3.918 -1.0192 -1.0266  0.4459
 9319SOL     OW39592   2.634   4.214  10.357  0.1555 -0.1577  0.3313
 9319SOL    HW139593   2.597   4.226  10.445 -0.0975 -2.7659  0.5744
 9319SOL    HW239594   2.715   4.166  10.369  1.6421  2.0958 -0.7490
 9320SOL     OW39595   2.444   2.292   6.573  0.2419 -0.4152 -0.1620
 9320SOL    HW139596   2.356   2.275   6.607 -0.4712 -2.4323 -2.9672
 9320SOL    HW239597   2.463   2.369   6.626  1.5813  0.1853 -1.5261
 9321SOL     OW39598   0.318   2.434  11.361 -0.0999 -0.0414  0.0517
 9321SOL    HW139599   0.401   2.408  11.321 -0.8294 -0.4947 -1.1955
 9321SOL    HW239600   0.299   2.359  11.418 -0.5035  0.7190  0.9174
 9322SOL     OW39601   3.272   2.020   4.517  0.0762  0.2067  0.2797
 9322SOL    HW139602   3.249   2.104   4.477 -1.9847 -1.0223 -1.0854
 9322SOL    HW239603   3.190   2.019   4.566  0.0123 -0.0336  0.1701
 9323SOL     OW39604   2.567   0.645   2.236 -0.0611 -0.1140  0.6189
 9323SOL    HW139605   2.485   0.600   2.218  1.6193 -3.1822  0.6544
 9323SOL    HW239606   2.614   0.564   2.254 -0.6749 -0.9814 -1.6818
 9324SOL     OW39607   3.442   1.293   9.624  0.2461 -0.7815  0.2303
 9324SOL    HW139608   3.405   1.361   9.567  0.7229 -0.2806  0.5121
 9324SOL    HW239609   3.398   1.310   9.707 -2.5745 -2.1267 -0.9941
 9325SOL     OW39610   3.058   0.377  16.223 -0.2929  0.2685 -0.4108
 9325SOL    HW139611   3.013   0.436  16.283  0.6841 -0.1227  0.7162
 9325SOL    HW239612   2.996   0.308  16.202 -0.8122  0.4216  0.6217
 9326SOL     OW39613   0.908   1.127   7.841  0.3877  0.0788 -1.0211
 9326SOL    HW139614   0.834   1.181   7.811 -0.5981 -0.1678  0.9709
 9326SOL    HW239615   0.975   1.195   7.835 -0.9208  1.2211 -2.5939
 9327SOL     OW39616   0.357   3.013  13.177  0.3198  0.3489 -0.3130
 9327SOL    HW139617   0.382   3.079  13.113  0.0736  0.6050 -0.1483
 9327SOL    HW239618   0.411   3.045  13.251 -2.5598 -1.3083  2.4936
 9328SOL     OW39619   3.489   3.872   0.232  0.2057 -0.1005 -0.6031
 9328SOL    HW139620   3.583   3.854   0.236 -0.1917 -2.3861 -1.5275
 9328SOL    HW239621   3.461   3.811   0.300  0.8533 -0.3798 -0.5938
 9329SOL     OW39622   1.395   1.535   2.288  0.3578 -0.2289  0.0498
 9329SOL    HW139623   1.395   1.608   2.226  2.3164  0.0202  0.3438
 9329SOL    HW239624   1.484   1.528   2.324  1.2707  1.0099 -1.9736
 9330SOL     OW39625   2.919   0.816   0.414 -0.0689  0.2133 -0.2941
 9330SOL    HW139626   2.938   0.723   0.426  1.1436  0.4395 -0.3957
 9330SOL    HW239627   2.829   0.801   0.387 -0.0316  1.6024 -1.2218
 9331SOL     OW39628   1.333   3.200   5.337 -0.1800  0.2285  0.0774
 9331SOL    HW139629   1.275   3.136   5.297 -0.8668  1.1417 -0.3915
 9331SOL    HW239630   1.265   3.254   5.379  2.3443  3.2559  0.2911
 9332SOL     OW39631   3.822   3.067   4.214  0.2623  1.1477  0.3028
 9332SOL    HW139632   3.776   2.985   4.234  1.5189  0.3882  0.0579
 9332SOL    HW239633   3.914   3.046   4.229 -0.1792  0.8771  2.6732
 9333SOL     OW39634   1.895   1.458   7.792  0.0464  0.1433  0.1401
 9333SOL    HW139635   1.864   1.444   7.882 -0.9647 -0.6015 -0.3210
 9333SOL    HW239636   1.982   1.493   7.812 -0.1391  0.1316  0.9762
 9334SOL     OW39637   3.760   0.130   3.135 -0.3339  0.4952  0.1808
 9334SOL    HW139638   3.770   0.199   3.070  4.5627  0.0842  0.4757
 9334SOL    HW239639   3.842   0.081   3.128 -0.1886  1.1043 -2.3762
 9335SOL     OW39640   3.926   4.101   9.551  0.2394  0.3699  0.2159
 9335SOL    HW139641   3.857   4.152   9.509  0.1598 -0.3134 -0.5040
 9335SOL    HW239642   3.901   4.097   9.643 -2.9669  1.8846 -0.6125
 9336SOL     OW39643   4.634   1.397   2.103  0.8638 -0.5979 -0.3575
 9336SOL    HW139644   4.621   1.492   2.101  2.0048 -0.3796  2.4453
 9336SOL    HW239645   4.663   1.387   2.012  0.7064  1.7423 -0.6703
 9337SOL     OW39646   1.052   4.049  11.622  0.8577 -0.8533  0.8028
 9337SOL    HW139647   1.031   4.051  11.715 -1.7654  1.3301  0.1627
 9337SOL    HW239648   1.053   3.954  11.607 -2.6485 -0.5601 -1.2377
 9338SOL     OW39649   4.421   3.863   9.522 -0.2626  0.2276 -0.5192
 9338SOL    HW139650   4.355   3.818   9.468 -0.4787  1.4860 -1.3130
 9338SOL    HW239651   4.489   3.876   9.455  0.5445 -1.6186 -0.0629
 9339SOL     OW39652   3.314   3.354  16.660 -0.3647 -0.3768 -0.5861
 9339SOL    HW139653   3.376   3.355  16.587  1.4310 -0.0875  0.9221
 9339SOL    HW239654   3.372   3.310  16.722  2.7960  2.2283 -1.7010
 9340SOL     OW39655   2.954   4.092   4.096 -0.2313 -0.3528 -0.2979
 9340SOL    HW139656   2.875   4.121   4.052 -0.3120 -0.8583 -0.4871
 9340SOL    HW239657   3.012   4.164   4.070 -0.0112 -0.3801  0.1110
 9341SOL     OW39658   0.357   0.566  10.898 -0.0870 -0.5861  0.2130
 9341SOL    HW139659   0.363   0.587  10.805  1.3604 -1.5171  0.0890
 9341SOL    HW239660   0.410   0.637  10.935  1.8721 -2.3081  0.6652
 9342SOL     OW39661   1.552   1.942   3.557  0.5551 -0.7811  0.4515
 9342SOL    HW139662   1.534   1.857   3.598 -1.9593 -1.3918 -1.9874
 9342SOL    HW239663   1.589   1.903   3.478  2.8660  2.8113 -0.2410
 9343SOL     OW39664   2.441   3.188  10.901 -0.2459 -0.7322  0.7637
 9343SOL    HW139665   2.464   3.213  10.990  1.2965 -0.7102  0.3576
 9343SOL    HW239666   2.485   3.103  10.904  0.6429 -0.2603  0.8654
 9344SOL     OW39667   4.438   4.482   7.807 -0.1058 -0.3130 -0.3493
 9344SOL    HW139668   4.514   4.471   7.863 -0.4997  0.1582  0.2775
 9344SOL    HW239669   4.367   4.482   7.871 -0.6089  1.7308 -0.8920
 9345SOL     OW39670   0.329   2.900   0.912 -0.1989  0.6683 -0.4143
 9345SOL    HW139671   0.341   2.949   0.831  0.7264  0.7941 -0.1930
 9345SOL    HW239672   0.390   2.827   0.914  0.9638  1.6095 -1.5257
 9346SOL     OW39673   3.461   2.092   6.733  0.3213 -0.1773  0.3729
 9346SOL    HW139674   3.525   2.071   6.802  0.9778  0.0683 -0.1629
 9346SOL    HW239675   3.497   2.044   6.658  2.0548  2.4734 -0.4760
 9347SOL     OW39676   3.216   2.604   8.371 -0.1269  0.0508 -0.2220
 9347SOL    HW139677   3.253   2.579   8.286 -1.7960 -0.1206 -0.8990
 9347SOL    HW239678   3.137   2.551   8.378  0.8716 -1.0477  2.8323
 9348SOL     OW39679   0.170   0.299  14.474 -0.3738 -0.2436 -0.0279
 9348SOL    HW139680   0.219   0.276  14.396  0.5599  0.6508  0.2922
 9348SOL    HW239681   0.080   0.316  14.447 -0.3868 -1.0751 -0.5097
 9349SOL     OW39682   2.880   2.396  15.331  1.1477 -0.3732  0.0448
 9349SOL    HW139683   2.912   2.320  15.379 -0.2591 -1.9840 -1.5964
 9349SOL    HW239684   2.801   2.422  15.379  0.4377 -1.7411 -0.3770
 9350SOL     OW39685   1.670   0.505   3.502  0.7201  0.1016 -0.5508
 9350SOL    HW139686   1.604   0.538   3.442 -0.7377  0.7419  1.3956
 9350SOL    HW239687   1.720   0.446   3.447 -1.8260 -2.0930 -0.5026
 9351SOL     OW39688   0.433   4.610   7.499  0.4017 -0.0694  0.0502
 9351SOL    HW139689   0.423   4.701   7.525  1.6752 -0.7508  2.9990
 9351SOL    HW239690   0.479   4.631   7.418 -1.6691 -1.4597 -1.4693
 9352SOL     OW39691   0.765   1.910   9.195  0.0703  0.2471  0.3434
 9352SOL    HW139692   0.702   1.847   9.230  0.5688 -0.0548  0.6874
 9352SOL    HW239693   0.697   1.978   9.191  0.8977  0.9489 -1.8080
 9353SOL     OW39694   3.027   4.203   2.630  0.1251  0.1020 -0.1065
 9353SOL    HW139695   3.110   4.158   2.646  0.1275 -0.2980 -1.2007
 9353SOL    HW239696   3.035   4.272   2.696  1.5496 -3.1981  3.1206
 9354SOL     OW39697   2.819   1.233   8.382 -0.1321  0.2159 -0.3095
 9354SOL    HW139698   2.816   1.267   8.471 -2.0792 -0.2676 -0.1817
 9354SOL    HW239699   2.876   1.157   8.393 -0.4715  0.3457  2.3422
 9355SOL     OW39700   2.267   4.322  14.425  0.0403 -0.1515 -0.1608
 9355SOL    HW139701   2.314   4.242  14.449  1.3484  0.8264  0.5605
 9355SOL    HW239702   2.306   4.358  14.345  0.3905 -0.1074  0.0293
 9356SOL     OW39703   0.227   0.235   8.836 -0.2254  0.4043 -0.1023
 9356SOL    HW139704   0.318   0.250   8.860 -0.2262  1.1192 -0.5369
 9356SOL    HW239705   0.176   0.291   8.894  0.0408 -0.3201  0.8199
 9357SOL     OW39706   4.713   2.873  10.027  0.2599  0.7210  0.0719
 9357SOL    HW139707   4.668   2.827  10.098 -1.9115 -1.3680 -2.6627
 9357SOL    HW239708   0.071   2.850  10.036  0.1506  0.7803  1.3458
 9358SOL     OW39709   3.353   3.580   2.944 -0.4726 -0.0691  0.0347
 9358SOL    HW139710   3.359   3.496   2.989 -1.2535 -0.0866  0.1179
 9358SOL    HW239711   3.408   3.560   2.868  1.0606 -2.0105  1.6377
 9359SOL     OW39712   1.168   4.335  15.665  0.5242 -0.2033 -0.3226
 9359SOL    HW139713   1.158   4.254  15.615 -1.0294 -0.5011  0.4616
 9359SOL    HW239714   1.083   4.378  15.657 -0.0509 -1.2734  0.0758
 9360SOL     OW39715   1.356   2.494   2.989 -0.2409  0.0503 -0.0221
 9360SOL    HW139716   1.446   2.498   3.021 -0.6719 -0.1244  1.1913
 9360SOL    HW239717   1.309   2.548   3.052 -1.3904 -0.6147 -0.2962
 9361SOL     OW39718   1.129   2.415   2.571 -0.4858  0.0852 -0.3735
 9361SOL    HW139719   1.181   2.471   2.513  1.3911  0.2608  1.4765
 9361SOL    HW239720   1.131   2.455   2.658 -0.2539  3.2270 -1.8194
 9362SOL     OW39721   4.638   1.682  13.246 -0.1394  0.0755 -0.1827
 9362SOL    HW139722   4.647   1.776  13.229 -1.7035  0.2955  0.2407
 9362SOL    HW239723   4.695   1.642  13.180  0.6098 -3.2172  2.5099
 9363SOL     OW39724   0.121   1.657   8.681 -0.0192 -0.0219  0.1455
 9363SOL    HW139725   0.101   1.587   8.743 -1.5465 -0.6087 -1.0062
 9363SOL    HW239726   0.149   1.727   8.740 -0.5401 -0.2588  0.6838
 9364SOL     OW39727   2.852   1.794  16.025  0.6769  0.7270 -0.1683
 9364SOL    HW139728   2.895   1.791  16.111 -0.1277  1.3805  0.2505
 9364SOL    HW239729   2.891   1.715  15.988 -2.4271  0.2180 -2.3064
 9365SOL     OW39730   0.600   4.149   5.481 -0.4856  0.0593 -0.1236
 9365SOL    HW139731   0.617   4.204   5.558  2.0720 -0.0824 -0.5942
 9365SOL    HW239732   0.506   4.134   5.489 -0.3726  0.4915  2.0902
 9366SOL     OW39733   1.424   0.078   4.058  0.8616  0.0660 -0.0140
 9366SOL    HW139734   1.358   0.012   4.041 -1.1023  1.5787  1.6990
 9366SOL    HW239735   1.414   0.149   3.994 -1.5783  0.3690  0.7225
 9367SOL     OW39736   1.598   3.620   3.421  0.0806 -0.3953  0.6493
 9367SOL    HW139737   1.549   3.579   3.350  2.3491 -1.4670 -0.3084
 9367SOL    HW239738   1.522   3.638   3.476 -0.6615 -1.2187 -0.1089
 9368SOL     OW39739   1.096   2.990   4.161 -0.0261 -0.1013 -0.3669
 9368SOL    HW139740   1.150   3.006   4.084  0.6181 -1.5644 -0.2284
 9368SOL    HW239741   1.153   3.025   4.230  1.5119 -2.0794 -0.6308
 9369SOL     OW39742   3.406   3.725   2.461 -0.1901 -0.0091  0.3109
 9369SOL    HW139743   3.438   3.723   2.371  2.2485  2.0420  1.1521
 9369SOL    HW239744   3.448   3.805   2.493  0.2879 -0.6796  1.3362
 9370SOL     OW39745   2.870   0.289   6.487 -0.4893 -0.0331 -0.2471
 9370SOL    HW139746   2.939   0.262   6.426  1.5747  1.7287  1.3093
 9370SOL    HW239747   2.791   0.256   6.445 -0.1450 -0.2406 -0.7322
 9371SOL     OW39748   1.803   2.241  12.284  0.2960  0.5663  0.9286
 9371SOL    HW139749   1.897   2.228  12.301  0.4314 -0.7197 -0.9022
 9371SOL    HW239750   1.773   2.171  12.342  1.0557 -0.0932  0.5332
 9372SOL     OW39751   2.002   0.489   4.896  0.4458  0.1100  0.3973
 9372SOL    HW139752   1.959   0.415   4.854  1.9548 -2.4320  3.3162
 9372SOL    HW239753   2.009   0.463   4.988 -0.6052  1.2067  0.7899
 9373SOL     OW39754   0.336   0.868   1.302  0.0894 -0.1905 -1.0306
 9373SOL    HW139755   0.412   0.894   1.250  0.8135 -1.0778 -0.4050
 9373SOL    HW239756   0.374   0.791   1.343 -1.8521  0.7032  2.4708
 9374SOL     OW39757   1.822   3.204   1.825 -0.1068 -0.7211 -0.7641
 9374SOL    HW139758   1.804   3.294   1.851 -0.3831 -0.9859 -0.0502
 9374SOL    HW239759   1.913   3.215   1.799  0.3013  2.0977  1.8667
 9375SOL     OW39760   2.810   1.377   7.929 -0.3234  0.6361  0.1685
 9375SOL    HW139761   2.802   1.282   7.918 -1.0572  0.7487 -0.2916
 9375SOL    HW239762   2.869   1.392   7.854 -2.3762 -1.4996 -1.8856
 9376SOL     OW39763   0.544   0.234   3.315  0.1166  0.8280  0.0146
 9376SOL    HW139764   0.613   0.297   3.334 -0.6587  1.7286 -0.1575
 9376SOL    HW239765   0.579   0.167   3.373  1.2624 -0.2087 -1.8622
 9377SOL     OW39766   0.385   0.656   4.254  0.3100 -0.3950 -0.0059
 9377SOL    HW139767   0.338   0.620   4.179  3.0674  0.3692 -2.0820
 9377SOL    HW239768   0.433   0.725   4.208 -0.3301  0.7886  1.1122
 9378SOL     OW39769   0.465   2.628   0.236 -0.4427  0.1767 -0.1193
 9378SOL    HW139770   0.532   2.682   0.195 -0.8037  1.1312  0.5537
 9378SOL    HW239771   0.503   2.540   0.224 -1.5789 -0.6072  1.9161
 9379SOL     OW39772   4.548   3.398  13.119 -0.1719  0.0709 -0.8142
 9379SOL    HW139773   4.492   3.325  13.145  1.0697  0.2455  2.3395
 9379SOL    HW239774   4.488   3.469  13.142  0.1052  0.3675 -1.0155
 9380SOL     OW39775   2.345   3.651   9.347 -0.0241  0.3102 -0.8575
 9380SOL    HW139776   2.427   3.673   9.392 -1.0658 -0.3784  1.3920
 9380SOL    HW239777   2.355   3.557   9.333  0.4226  0.3399 -0.7594
 9381SOL     OW39778   1.840   2.371   6.038  0.4344 -0.3593  0.2011
 9381SOL    HW139779   1.786   2.343   6.112  0.2302 -0.7305 -0.0935
 9381SOL    HW239780   1.864   2.287   5.999 -1.5198 -0.9594  0.3061
 9382SOL     OW39781   0.537   3.025   8.342 -0.8793  0.2086 -0.0975
 9382SOL    HW139782   0.550   3.027   8.247 -0.7127 -1.0779 -0.1032
 9382SOL    HW239783   0.442   3.031   8.353 -0.8730  0.4168 -0.1429
 9383SOL     OW39784   1.412   2.850   5.397 -0.1226  0.2912 -0.4876
 9383SOL    HW139785   1.345   2.882   5.457 -1.5142 -3.2508 -0.1457
 9383SOL    HW239786   1.388   2.912   5.327  0.6660 -0.4433 -1.4170
 9384SOL     OW39787   0.853   2.627   4.634 -0.3464 -0.8369 -0.1462
 9384SOL    HW139788   0.869   2.721   4.643 -0.5427 -0.5350 -2.8612
 9384SOL    HW239789   0.844   2.597   4.724 -1.1689 -0.9053 -0.2501
 9385SOL     OW39790   1.497   3.622   7.892  0.1108  0.3466 -0.0136
 9385SOL    HW139791   1.585   3.629   7.929  0.3576 -4.0539  0.2418
 9385SOL    HW239792   1.443   3.660   7.961 -2.3754 -0.3168 -1.5736
 9386SOL     OW39793   1.618   2.537   2.771 -0.6901  0.0783 -0.2985
 9386SOL    HW139794   1.667   2.465   2.731 -1.6128 -0.6242 -0.1722
 9386SOL    HW239795   1.543   2.540   2.710 -2.0494  1.8403  1.4702
 9387SOL     OW39796   2.616   4.339   5.435  0.1768 -0.0178  0.5369
 9387SOL    HW139797   2.621   4.421   5.484  2.0854 -0.2511  0.7454
 9387SOL    HW239798   2.702   4.300   5.449 -0.6483 -0.7386  3.5796
 9388SOL     OW39799   2.846   3.242   5.165 -0.2325 -0.1899 -0.4964
 9388SOL    HW139800   2.858   3.166   5.222  1.2307  0.3730 -0.0530
 9388SOL    HW239801   2.780   3.213   5.102 -0.9728 -0.0587  0.2253
 9389SOL     OW39802   3.871   1.897   7.495 -0.0123  0.2869  0.2712
 9389SOL    HW139803   3.782   1.862   7.508  0.8184 -0.5923  3.5238
 9389SOL    HW239804   3.920   1.858   7.567  0.3307  1.5021  0.6821
 9390SOL     OW39805   4.074   0.702  10.469  0.2774  0.1886 -0.0285
 9390SOL    HW139806   3.997   0.646  10.479  0.1425  0.2723 -0.6035
 9390SOL    HW239807   4.153   0.649  10.478  0.6839  0.6604 -0.7771
 9391SOL     OW39808   0.029   0.537   7.916 -0.0139  0.0579 -0.1706
 9391SOL    HW139809   0.025   0.457   7.968  1.3271 -1.0628 -1.8353
 9391SOL    HW239810   4.699   0.592   7.960  0.0960  0.1738 -0.1496
 9392SOL     OW39811   2.061   1.148  14.367  0.0023  0.4020  0.6638
 9392SOL    HW139812   2.079   1.067  14.415 -0.7596  0.4652  1.0654
 9392SOL    HW239813   2.139   1.202  14.384  0.7178 -0.2621 -0.5322
 9393SOL     OW39814   2.323   0.024   2.403  0.1160 -0.3299 -0.0445
 9393SOL    HW139815   2.348   0.073   2.325 -0.5344 -2.7329 -1.7477
 9393SOL    HW239816   2.252   0.072   2.445 -0.5636 -0.6727 -0.8002
 9394SOL     OW39817   1.835   0.358   3.349  0.0328 -0.4959  0.5790
 9394SOL    HW139818   1.889   0.292   3.305  0.2653 -0.0014  0.1130
 9394SOL    HW239819   1.891   0.436   3.344  0.4483 -0.7343  1.5843
 9395SOL     OW39820   3.526   3.750  10.403  0.2615  0.6694  0.0041
 9395SOL    HW139821   3.607   3.773  10.448 -1.0449  2.4060  1.4521
 9395SOL    HW239822   3.515   3.658  10.429  2.2073  0.4380  0.0001
 9396SOL     OW39823   0.682   3.164   8.567 -0.3345 -0.6276 -0.2667
 9396SOL    HW139824   0.655   3.233   8.628 -0.2885  0.4175 -1.4397
 9396SOL    HW239825   0.611   3.174   8.504 -1.1973 -3.6481  0.2335
 9397SOL     OW39826   0.543   3.315   1.770 -0.0928 -0.2565  0.3162
 9397SOL    HW139827   0.580   3.347   1.688 -1.1182 -0.6934 -0.3119
 9397SOL    HW239828   0.515   3.402   1.801 -1.8125 -0.1111 -1.6580
 9398SOL     OW39829   2.332   1.772   1.833  0.3996 -0.5384 -0.2485
 9398SOL    HW139830   2.302   1.846   1.781 -1.3439 -1.3209 -0.3463
 9398SOL    HW239831   2.342   1.799   1.924 -1.0533 -1.6805  0.2483
 9399SOL     OW39832   2.365   3.681   2.293 -0.1092 -0.0945  0.0234
 9399SOL    HW139833   2.390   3.702   2.383 -0.6887  0.6795  0.0113
 9399SOL    HW239834   2.302   3.614   2.319 -0.8971  0.1058 -1.3775
 9400SOL     OW39835   1.294   4.362   4.569  0.0112 -0.8913 -0.4800
 9400SOL    HW139836   1.263   4.305   4.499  0.0123 -1.4635 -0.0085
 9400SOL    HW239837   1.313   4.291   4.630  1.3234  0.4488  0.6718
 9401SOL     OW39838   1.307   0.754   0.248  0.1640 -0.2483  0.0833
 9401SOL    HW139839   1.288   0.705   0.168  2.5349 -0.5271 -0.2940
 9401SOL    HW239840   1.216   0.761   0.278  0.0706  1.1662 -0.5380
 9402SOL     OW39841   1.498   1.825   5.304 -0.1888 -0.0997 -0.2591
 9402SOL    HW139842   1.417   1.866   5.335  0.5893  0.2015  1.3821
 9402SOL    HW239843   1.557   1.833   5.380 -0.9347 -0.3765  0.3511
 9403SOL     OW39844   0.988   1.754   2.509  0.0286  0.3542  0.1339
 9403SOL    HW139845   1.077   1.757   2.543 -0.1374 -0.2021  0.6077
 9403SOL    HW239846   1.003   1.789   2.421 -1.6369  1.5441  0.3180
 9404SOL     OW39847   0.856   3.089   9.308  0.5211 -0.0497  0.0705
 9404SOL    HW139848   0.795   3.160   9.325  0.1693 -0.6981  1.5131
 9404SOL    HW239849   0.812   3.036   9.241 -0.2937 -1.2857  1.5721
 9405SOL     OW39850   0.579   3.461   6.855 -0.5853 -0.1661 -0.1972
 9405SOL    HW139851   0.662   3.479   6.899 -0.3213 -1.5511 -0.1351
 9405SOL    HW239852   0.556   3.554   6.855  1.6373  0.3839  0.1573
 9406SOL     OW39853   3.576   4.019  13.209  0.0054  0.0091  0.2120
 9406SOL    HW139854   3.624   4.054  13.284  0.4953  0.2945 -0.2382
 9406SOL    HW239855   3.559   3.930  13.240  2.5356 -1.1332 -1.6106
 9407SOL     OW39856   0.273   0.101  15.162  0.4867  0.5567 -0.2195
 9407SOL    HW139857   0.295   0.110  15.069 -1.9187  0.8915 -0.7726
 9407SOL    HW239858   0.238   0.011  15.167  1.3142  0.3213  1.1380
 9408SOL     OW39859   1.271   1.282   3.854  0.2503 -0.2259 -0.0137
 9408SOL    HW139860   1.347   1.225   3.840  1.2504  1.4212 -1.1927
 9408SOL    HW239861   1.257   1.274   3.948  1.5500  0.5759  0.2380
 9409SOL     OW39862   4.224   0.752  17.574 -0.4390  0.0425  0.0760
 9409SOL    HW139863   4.140   0.779  17.611  0.2893 -1.6506  2.9433
 9409SOL    HW239864   4.222   0.784  17.483  2.0250  1.8839  0.6620
 9410SOL     OW39865   0.247   1.899  12.108 -0.1420  0.6544 -0.5228
 9410SOL    HW139866   0.269   1.855  12.026 -1.0566 -0.6031 -0.0874
 9410SOL    HW239867   0.156   1.924  12.092  0.4955  1.6815 -2.6255
 9411SOL     OW39868   2.650   3.487   4.283  0.2362  0.0099  0.5542
 9411SOL    HW139869   2.672   3.557   4.222  2.2246  0.5945  1.9220
 9411SOL    HW239870   2.724   3.427   4.270 -0.1486 -0.1322 -1.0011
 9412SOL     OW39871   2.837   1.898  15.392 -0.4811  0.3339  0.1276
 9412SOL    HW139872   2.781   1.821  15.384 -1.4242  1.1657 -1.3536
 9412SOL    HW239873   2.801   1.916  15.478 -1.9634 -0.3126 -0.3665
 9413SOL     OW39874   1.518   1.522   4.377 -0.1163  0.4122 -0.0696
 9413SOL    HW139875   1.582   1.450   4.382 -1.7247 -0.9214  1.3046
 9413SOL    HW239876   1.583   1.590   4.360 -0.2118  1.0243  1.9903
 9414SOL     OW39877   0.510   2.196  11.267 -0.2906 -0.8257 -0.0084
 9414SOL    HW139878   0.569   2.224  11.338  0.9903 -0.9895 -1.0097
 9414SOL    HW239879   0.507   2.102  11.285 -3.8408 -1.0526 -1.8137
 9415SOL     OW39880   3.594   0.943   3.572 -0.1573 -0.7896 -1.1551
 9415SOL    HW139881   3.526   0.879   3.555 -0.5907 -0.5069 -0.4835
 9415SOL    HW239882   3.548   1.016   3.615  1.1077  0.2923 -1.6297
 9416SOL     OW39883   4.431   4.699  14.401 -0.1880 -0.2245  0.8611
 9416SOL    HW139884   4.412   0.046  14.357  0.7217  0.0835  1.0450
 9416SOL    HW239885   4.479   4.722  14.481 -1.6648  2.2342  1.0292
 9417SOL     OW39886   1.042   3.975   5.478 -0.4736  0.3507 -0.4163
 9417SOL    HW139887   1.104   3.987   5.407  1.0973 -0.5994  0.7796
 9417SOL    HW239888   1.095   3.929   5.544 -0.4669 -0.0908 -0.7292
 9418SOL     OW39889   0.421   0.187  17.296  0.4730  0.1167  0.2047
 9418SOL    HW139890   0.417   0.096  17.324  1.2425 -0.5210 -1.7883
 9418SOL    HW239891   0.343   0.198  17.240  0.1967  0.1180  0.5904
 9419SOL     OW39892   3.989   0.239   2.453  0.0172 -0.5766  0.5353
 9419SOL    HW139893   4.012   0.253   2.361  0.3167  1.7360  0.9679
 9419SOL    HW239894   3.900   0.206   2.440  1.1281 -2.2954 -2.6386
 9420SOL     OW39895   4.308   4.462   2.461  0.0815 -0.1218 -0.0485
 9420SOL    HW139896   4.265   4.499   2.384  0.3996 -0.1478 -0.2397
 9420SOL    HW239897   4.396   4.438   2.432  0.0493  0.5108 -0.6599
 9421SOL     OW39898   4.251   3.328   7.688 -0.0729  0.3271 -0.3585
 9421SOL    HW139899   4.303   3.315   7.609  0.8481  0.1028  0.2941
 9421SOL    HW239900   4.193   3.400   7.661 -1.5059 -0.5278  0.4344
 9422SOL     OW39901   4.723   3.094   0.051  0.0595 -0.0890 -0.1450
 9422SOL    HW139902   4.693   3.065  17.704 -0.7596 -1.9674  0.7552
 9422SOL    HW239903   0.036   3.174   0.032 -1.0403  0.5486 -0.2227
 9423SOL     OW39904   1.010   4.107   0.963 -0.1320 -0.7430 -0.4856
 9423SOL    HW139905   1.062   4.048   1.018  0.7023 -0.8582 -1.3916
 9423SOL    HW239906   1.078   4.175   0.961 -2.3383  1.4284 -0.8704
 9424SOL     OW39907   3.736   2.371   2.653  0.1124 -0.4056 -0.1832
 9424SOL    HW139908   3.791   2.380   2.731 -0.3708 -0.2309  0.1341
 9424SOL    HW239909   3.690   2.450   2.679 -1.0768 -1.8259  2.0206
 9425SOL     OW39910   4.554   2.257   9.082 -0.1218  0.2839 -0.3847
 9425SOL    HW139911   4.529   2.300   9.164  1.8293  0.5696  0.0590
 9425SOL    HW239912   4.501   2.178   9.089 -0.8719  0.9351  1.2677
 9426SOL     OW39913   1.919   2.241   7.710  0.0912 -0.1319  0.1738
 9426SOL    HW139914   1.825   2.256   7.719 -0.2226 -2.9016  1.2980
 9426SOL    HW239915   1.927   2.230   7.616  1.6218  0.7631  0.2023
 9427SOL     OW39916   0.299   2.646   8.022 -0.6447  0.1886  0.2951
 9427SOL    HW139917   0.252   2.668   7.942 -0.5738 -1.2059 -0.1332
 9427SOL    HW239918   0.380   2.605   7.990 -1.2881 -1.6310  1.0331
 9428SOL     OW39919   0.600   3.767   5.638 -0.1424  0.1701  1.3216
 9428SOL    HW139920   0.584   3.713   5.561  0.5503  0.9871  0.6145
 9428SOL    HW239921   0.662   3.824   5.594 -0.4810  0.6951  1.5180
 9429SOL     OW39922   1.736   3.531   7.705 -0.7043 -0.0279  0.1505
 9429SOL    HW139923   1.747   3.564   7.794  0.3902 -2.2745  0.8280
 9429SOL    HW239924   1.685   3.451   7.719 -1.3152  0.5979  1.4340
 9430SOL     OW39925   2.733   2.304   5.933 -0.3110 -0.7093 -0.1650
 9430SOL    HW139926   2.720   2.273   6.023 -0.1681  1.1198  0.4734
 9430SOL    HW239927   2.772   2.229   5.888  0.2343 -0.3524 -0.2808
 9431SOL     OW39928   1.341   3.294   7.561  0.8033  0.1984  0.2159
 9431SOL    HW139929   1.312   3.341   7.639  0.0913 -1.0562  0.7121
 9431SOL    HW239930   1.332   3.362   7.495  0.5875  1.3707  1.4546
 9432SOL     OW39931   2.065   0.929   4.585  0.2628 -0.4869 -0.0438
 9432SOL    HW139932   2.138   0.876   4.553 -0.0227 -0.0840 -1.3655
 9432SOL    HW239933   1.997   0.863   4.583 -0.6738  0.5477 -1.8172
 9433SOL     OW39934   2.155   4.002   1.122 -0.4578 -0.1250 -0.6463
 9433SOL    HW139935   2.127   4.068   1.185  0.0114  0.5407 -1.1304
 9433SOL    HW239936   2.171   4.053   1.043 -2.0575 -1.8120 -2.0621
 9434SOL     OW39937   2.356   4.070   2.821  0.4821 -0.1148  0.0954
 9434SOL    HW139938   2.442   4.027   2.820 -0.2897 -1.6649  0.1366
 9434SOL    HW239939   2.346   4.078   2.726  0.6125  0.0817  0.0979
 9435SOL     OW39940   1.244   0.975  11.518 -0.3706 -0.2875  0.1151
 9435SOL    HW139941   1.237   0.880  11.508 -2.3394 -0.3949  2.4442
 9435SOL    HW239942   1.288   0.976  11.603 -2.1936  1.5395  1.0414
 9436SOL     OW39943   2.436   3.271   7.952  0.5468  0.0971  0.0766
 9436SOL    HW139944   2.459   3.323   8.029  0.2868  2.8277 -1.7076
 9436SOL    HW239945   2.511   3.212   7.950 -0.2584 -1.0037  1.8691
 9437SOL     OW39946   0.472   0.873   2.749  0.1535  0.3354 -0.0034
 9437SOL    HW139947   0.419   0.858   2.671  1.1923  0.4192 -0.7329
 9437SOL    HW239948   0.514   0.789   2.770 -1.8960 -0.8919 -0.8358
 9438SOL     OW39949   3.159   0.900   2.642  0.0710 -0.1969 -0.3373
 9438SOL    HW139950   3.153   0.954   2.564  1.6325  2.1947  1.1934
 9438SOL    HW239951   3.097   0.942   2.701 -1.1921 -0.6434 -1.3428
 9439SOL     OW39952   4.241   1.343   5.984 -0.3979  0.0515 -0.0571
 9439SOL    HW139953   4.259   1.394   5.905 -2.1294  1.2757  0.3290
 9439SOL    HW239954   4.302   1.388   6.043 -1.4578  0.8131  0.4659
 9440SOL     OW39955   0.681   4.285  14.894 -0.1107 -0.4212 -0.0617
 9440SOL    HW139956   0.676   4.377  14.871 -0.0795 -0.2860  0.4693
 9440SOL    HW239957   0.758   4.269  14.839 -0.3515 -0.2276 -0.4550
 9441SOL     OW39958   0.907   2.875  13.915 -0.4870  0.3950  0.0063
 9441SOL    HW139959   0.971   2.839  13.853  0.1772 -0.0482  0.9619
 9441SOL    HW239960   0.972   2.932  13.955  0.7769 -1.4956  0.6373
 9442SOL     OW39961   1.161   3.795  13.066 -0.1721  0.1887  0.0947
 9442SOL    HW139962   1.103   3.721  13.085 -1.0517  0.7280 -0.4926
 9442SOL    HW239963   1.114   3.828  12.989  1.4033  1.6027 -0.2535
 9443SOL     OW39964   0.577   1.596   3.688  0.5434  0.0888 -0.6428
 9443SOL    HW139965   0.647   1.590   3.623  2.2933 -0.0305  1.2299
 9443SOL    HW239966   0.601   1.541   3.762  2.7973  2.5316  0.4693
 9444SOL     OW39967   1.773   3.852  16.059 -0.1185  0.1326 -0.1452
 9444SOL    HW139968   1.854   3.855  16.008 -0.1039  2.7920  0.0372
 9444SOL    HW239969   1.707   3.904  16.014  0.6704  1.1671 -0.1144
 9445SOL     OW39970   2.015   2.039   4.361 -0.3762 -0.4327  0.2972
 9445SOL    HW139971   1.940   2.021   4.417  0.0369 -0.5701  0.8096
 9445SOL    HW239972   2.058   1.953   4.366 -0.0095 -0.1446  2.4646
 9446SOL     OW39973   3.904   0.794  11.895  0.1761  0.3029  0.4146
 9446SOL    HW139974   3.844   0.860  11.929 -2.4439 -1.1390 -1.3783
 9446SOL    HW239975   3.938   0.830  11.813  0.5358 -1.3812 -0.1748
 9447SOL     OW39976   1.018   3.461   2.430 -0.3003 -0.5134 -0.3406
 9447SOL    HW139977   0.992   3.501   2.347 -2.9202 -2.5466 -0.4885
 9447SOL    HW239978   0.993   3.536   2.484  1.8205  0.1575 -0.3017
 9448SOL     OW39979   3.624   3.431   5.344 -0.3066 -0.0215 -0.0620
 9448SOL    HW139980   3.681   3.436   5.268  2.2679  3.3042  2.1169
 9448SOL    HW239981   3.548   3.469   5.300  0.9482 -0.0358 -2.2474
 9449SOL     OW39982   3.900   2.437  14.212 -0.4904 -0.6656  0.3634
 9449SOL    HW139983   3.807   2.446  14.231 -1.1345 -3.5581 -1.5069
 9449SOL    HW239984   3.923   2.364  14.269 -0.0268  0.6652  1.8773
 9450SOL     OW39985   3.778   1.911   8.327  1.0372 -0.4280  0.5194
 9450SOL    HW139986   3.729   1.972   8.381  3.8783  0.5349  2.0260
 9450SOL    HW239987   3.848   1.874   8.382  1.3881 -0.3643  0.1152
 9451SOL     OW39988   2.707   2.694   3.156  0.2620  0.3007  0.0801
 9451SOL    HW139989   2.728   2.678   3.248 -1.3366  2.1732  0.7793
 9451SOL    HW239990   2.776   2.757   3.135 -1.2438  2.2571  0.9912
 9452SOL     OW39991   3.185   0.319   7.839  0.0502 -0.0433  0.1028
 9452SOL    HW139992   3.182   0.257   7.913 -3.2885 -0.2024 -0.1617
 9452SOL    HW239993   3.144   0.271   7.768 -0.3396 -0.8754  0.8877
 9453SOL     OW39994   2.468   4.118  13.620 -0.0498 -0.0347  0.5116
 9453SOL    HW139995   2.396   4.156  13.570 -1.4891 -3.0054  0.3461
 9453SOL    HW239996   2.534   4.180  13.589  1.1858 -1.3583  0.4859
 9454SOL     OW39997   0.715   3.888  11.192 -0.4913 -0.1789 -0.6102
 9454SOL    HW139998   0.795   3.937  11.174  0.7190 -1.7919  0.3686
 9454SOL    HW239999   0.740   3.796  11.188  1.6740  0.4176 -0.9079
 9455SOL     OW40000   2.379   2.474   6.327  0.1670 -0.6559  0.2413
 9455SOL    HW140001   2.393   2.381   6.311 -0.4687 -0.7605  0.2862
 9455SOL    HW240002   2.283   2.482   6.329  0.1964 -1.0942  2.4783
 9456SOL     OW40003   4.380   0.937   6.573  0.3451  0.0793  0.4113
 9456SOL    HW140004   4.375   1.018   6.523  0.9738 -2.0848 -3.1175
 9456SOL    HW240005   4.342   0.872   6.514  0.7282  0.0266  0.2246
 9457SOL     OW40006   3.901   2.069   3.324 -0.0940  0.2441 -0.4512
 9457SOL    HW140007   3.901   1.988   3.274 -1.1186 -0.3194  0.4523
 9457SOL    HW240008   3.824   2.118   3.296  0.4799 -0.3782 -3.0897
 9458SOL     OW40009   2.055   1.385   9.072  0.3466  0.2549  0.1634
 9458SOL    HW140010   1.995   1.329   9.122 -0.3732 -1.0260 -2.1511
 9458SOL    HW240011   1.998   1.403   8.997 -0.4345  1.3647  1.0334
 9459SOL     OW40012   3.687   0.396   6.319 -0.0710 -0.4655 -0.0419
 9459SOL    HW140013   3.626   0.357   6.382 -0.8873  3.6719  1.7378
 9459SOL    HW240014   3.636   0.461   6.270 -1.6125 -0.3071  1.7447
 9460SOL     OW40015   0.349   1.808  16.078  0.0429 -0.0734 -0.0811
 9460SOL    HW140016   0.303   1.892  16.083 -0.5209 -0.3965  0.0935
 9460SOL    HW240017   0.282   1.742  16.091  1.9479 -1.7771  1.1029
 9461SOL     OW40018   3.700   3.857   6.381 -0.2674  0.0268 -0.3646
 9461SOL    HW140019   3.632   3.838   6.445 -0.8361  0.1881 -0.9231
 9461SOL    HW240020   3.667   3.936   6.339  1.5228  0.0120 -1.8130
 9462SOL     OW40021   2.926   2.978   3.993  0.1556  0.2997  0.4658
 9462SOL    HW140022   2.977   3.025   4.059  1.7709 -0.8426  0.0156
 9462SOL    HW240023   2.974   2.982   3.911 -0.0293  2.1717  0.4347
 9463SOL     OW40024   3.368   1.014   9.237 -0.5005 -0.2533  0.3772
 9463SOL    HW140025   3.362   1.109   9.244  0.3900 -0.2188  0.6154
 9463SOL    HW240026   3.419   1.006   9.157  0.6715  0.0279  1.0993
 9464SOL     OW40027   0.831   3.974   9.600 -0.2794  0.6507  0.6081
 9464SOL    HW140028   0.824   4.039   9.671 -0.0914  2.0339 -0.6408
 9464SOL    HW240029   0.776   3.904   9.634  0.7930  1.2090  3.5945
 9465SOL     OW40030   2.049   1.866   6.433 -0.4622  0.0022  0.2918
 9465SOL    HW140031   2.143   1.862   6.452 -0.2187  1.9023 -0.5081
 9465SOL    HW240032   2.038   1.960   6.448  0.0756 -0.0316  0.9197
 9466SOL     OW40033   4.583   3.087   7.328  0.1560  0.1568  0.2948
 9466SOL    HW140034   4.606   2.997   7.305 -1.3399  0.2921 -1.6496
 9466SOL    HW240035   4.488   3.086   7.332  0.1863 -0.4070  0.8910
 9467SOL     OW40036   3.814   0.300  12.574  0.4711 -0.0895 -0.0742
 9467SOL    HW140037   3.773   0.290  12.488  0.1442 -0.3317  0.1058
 9467SOL    HW240038   3.742   0.339  12.623 -0.9752 -1.7636 -0.8201
 9468SOL     OW40039   3.784   4.604   8.311  0.0322  0.6377  0.6103
 9468SOL    HW140040   3.784   4.522   8.261  0.5482  2.0027 -1.6557
 9468SOL    HW240041   3.700   4.628   8.272  0.3857  1.1626  0.1639
 9469SOL     OW40042   1.301   0.945   6.763  0.2094  0.0943 -0.5913
 9469SOL    HW140043   1.249   0.988   6.831  0.7030  0.0762 -0.2070
 9469SOL    HW240044   1.250   0.865   6.750 -1.2234  0.9151 -0.0445
 9470SOL     OW40045   3.672   0.452   5.166 -0.1098 -0.0975  0.2606
 9470SOL    HW140046   3.623   0.524   5.207 -1.2775 -0.8998  0.2747
 9470SOL    HW240047   3.649   0.384   5.229 -0.3814 -0.4670 -0.2410
 9471SOL     OW40048   3.935   4.607   3.704 -0.3250  0.4985  0.5639
 9471SOL    HW140049   4.002   4.563   3.757 -0.8767  0.4945  1.2544
 9471SOL    HW240050   3.879   4.532   3.683 -0.5264  0.3513  1.6366
 9472SOL     OW40051   1.838   0.277   7.805 -0.4390  0.7659 -0.0782
 9472SOL    HW140052   1.831   0.182   7.817  0.3769  0.5764 -1.0048
 9472SOL    HW240053   1.879   0.304   7.887 -0.2150  0.7929 -0.1981
 9473SOL     OW40054   0.522   2.052   8.309 -0.3245  0.1818 -0.5340
 9473SOL    HW140055   0.436   2.076   8.274 -0.9576  0.6533  1.3246
 9473SOL    HW240056   0.501   1.967   8.347  0.3784  0.1882 -0.1296
 9474SOL     OW40057   2.694   3.256   7.095 -0.2739  0.5428  0.1124
 9474SOL    HW140058   2.771   3.293   7.052 -1.1038  1.2670 -0.7287
 9474SOL    HW240059   2.674   3.332   7.149 -0.5187  2.2554 -2.4228
 9475SOL     OW40060   0.495   1.342   7.118 -0.4978  0.3575  0.2163
 9475SOL    HW140061   0.455   1.349   7.205 -0.4584  0.0567  0.2584
 9475SOL    HW240062   0.432   1.280   7.080  0.3223 -0.4628  0.2072
 9476SOL     OW40063   1.259   0.158   2.975  0.3476  0.1577  0.6723
 9476SOL    HW140064   1.215   0.088   2.928  1.3576 -1.0181  1.4805
 9476SOL    HW240065   1.331   0.113   3.019 -0.4080  1.3575  3.1572
 9477SOL     OW40066   4.066   3.976   8.454  0.1290 -0.0548  0.6523
 9477SOL    HW140067   4.018   3.913   8.401  1.5313 -2.5363  2.3381
 9477SOL    HW240068   4.152   3.943   8.479  0.6327 -0.3337 -1.5182
 9478SOL     OW40069   1.189   3.668   4.694  0.0898  0.4859  0.4769
 9478SOL    HW140070   1.176   3.728   4.767  0.5969  1.7214 -0.4262
 9478SOL    HW240071   1.154   3.585   4.725 -0.5751  0.6779  0.2492
 9479SOL     OW40072   0.796   3.156   1.799 -0.5624  0.1718  0.4759
 9479SOL    HW140073   0.726   3.219   1.817 -0.0033  0.4653  1.6171
 9479SOL    HW240074   0.800   3.112   1.884  1.0722 -1.3911 -0.4315
 9480SOL     OW40075   0.951   2.982   1.341  0.2759 -0.2284  0.1632
 9480SOL    HW140076   0.997   2.917   1.393 -0.0643  0.0721  0.8433
 9480SOL    HW240077   0.887   3.005   1.409  0.0796  0.5090 -0.2658
 9481SOL     OW40078   1.971   1.446   6.600  0.1531 -0.2112 -0.3755
 9481SOL    HW140079   1.935   1.465   6.687  0.6490 -1.6113  0.1397
 9481SOL    HW240080   1.950   1.352   6.593 -0.5480 -0.3071  2.8959
 9482SOL     OW40081   3.089   1.701   6.981 -0.3535 -0.3793 -0.3833
 9482SOL    HW140082   3.162   1.754   6.947 -0.0038 -0.9319 -0.4830
 9482SOL    HW240083   3.016   1.763   6.982 -1.6375 -1.9213  0.6454
 9483SOL     OW40084   2.927   1.706   8.266 -0.7388 -0.0073 -0.2147
 9483SOL    HW140085   2.873   1.730   8.342 -2.0297  0.5184 -1.3078
 9483SOL    HW240086   2.890   1.621   8.243 -2.0995  0.8107 -1.0377
 9484SOL     OW40087   1.169   2.532   8.475 -0.3575  0.3725 -0.5473
 9484SOL    HW140088   1.200   2.478   8.403  1.9951  0.4382  0.4070
 9484SOL    HW240089   1.213   2.615   8.453 -0.5307  0.0793 -2.0143
 9485SOL     OW40090   1.996   3.746   7.830 -0.4333  0.0900 -0.2037
 9485SOL    HW140091   2.031   3.689   7.898 -0.7326  1.0971  0.8037
 9485SOL    HW240092   2.047   3.714   7.756 -0.0080 -0.7961  0.4732
 9486SOL     OW40093   2.270   1.155  11.616 -0.4270  0.3042 -0.1303
 9486SOL    HW140094   2.276   1.135  11.522  0.5071 -1.2398  0.2562
 9486SOL    HW240095   2.177   1.179  11.609 -0.3472  0.4865 -0.5903
 9487SOL     OW40096   0.257   4.081  15.080  0.0347 -0.5868  0.3547
 9487SOL    HW140097   0.313   4.025  15.134 -1.5839 -1.0451  1.5500
 9487SOL    HW240098   0.320   4.141  15.040  1.4472 -1.3526  1.3946
 9488SOL     OW40099   0.153   0.064   6.158  0.1860  0.4743  0.4997
 9488SOL    HW140100   0.071   0.021   6.133  0.5858  0.5497 -0.9588
 9488SOL    HW240101   0.146   0.066   6.253 -0.9908 -1.5589  0.4611
 9489SOL     OW40102   3.220   3.878   0.383  0.0126 -0.2894  0.3653
 9489SOL    HW140103   3.185   3.926   0.459  1.9576  3.7154 -1.2623
 9489SOL    HW240104   3.228   3.789   0.418 -2.4281 -0.5775  0.2127
 9490SOL     OW40105   0.655   1.383  12.247  0.6034  0.0640 -0.2211
 9490SOL    HW140106   0.699   1.433  12.178  1.6264  0.2024  0.5490
 9490SOL    HW240107   0.725   1.325  12.276  0.3884  0.7942  1.7125
 9491SOL     OW40108   1.282   4.319   7.822 -0.2702  0.0927 -0.0447
 9491SOL    HW140109   1.339   4.343   7.895  0.4404  0.3765 -0.6908
 9491SOL    HW240110   1.348   4.282   7.763 -0.1221  0.1891  0.0617
 9492SOL     OW40111   2.481   3.434  10.656  0.2692  0.0172 -0.3028
 9492SOL    HW140112   2.516   3.449  10.568 -0.5264 -0.5257 -0.7135
 9492SOL    HW240113   2.508   3.516  10.697  2.3360 -0.5001 -0.6530
 9493SOL     OW40114   3.354   3.477   3.918  0.1546 -0.9627  0.1702
 9493SOL    HW140115   3.357   3.536   3.993  1.5268 -1.2525  0.3469
 9493SOL    HW240116   3.448   3.486   3.904 -0.0342  1.4717  0.4283
 9494SOL     OW40117   4.086   3.747  11.121 -0.2813  0.5870 -0.3498
 9494SOL    HW140118   4.107   3.680  11.055 -0.2500 -0.0961  0.3599
 9494SOL    HW240119   4.122   3.720  11.205 -1.5858 -1.8785 -0.6032
 9495SOL     OW40120   2.089   1.228   3.393  0.6183 -0.4861 -0.1908
 9495SOL    HW140121   2.094   1.321   3.372 -0.4071 -0.3738  0.0851
 9495SOL    HW240122   2.070   1.173   3.316 -1.3672  0.8341 -0.6334
 9496SOL     OW40123   1.139   2.070   4.082  0.2735 -0.5046 -0.2406
 9496SOL    HW140124   1.140   2.033   3.994 -3.2716 -2.5981  0.6028
 9496SOL    HW240125   1.224   2.038   4.114 -0.0207  1.3490  2.4525
 9497SOL     OW40126   2.140   4.633  12.547  0.2725 -0.1964 -0.0349
 9497SOL    HW140127   2.197   4.675  12.483  1.3475  1.2620  1.8912
 9497SOL    HW240128   2.055   4.643  12.504 -0.5717 -0.9038  1.4763
 9498SOL     OW40129   4.429   1.915  16.854 -0.5942 -0.1064  0.3998
 9498SOL    HW140130   4.501   1.865  16.894  0.3654  0.2306 -0.8959
 9498SOL    HW240131   4.350   1.880  16.895 -0.2292  0.8019  1.8725
 9499SOL     OW40132   2.390   2.807   3.452  0.6405  0.3458 -0.2198
 9499SOL    HW140133   2.426   2.879   3.504 -2.5578  1.8780 -0.0673
 9499SOL    HW240134   2.315   2.849   3.410  0.7255 -0.1517 -0.8594
 9500SOL     OW40135   4.043   2.385  13.427 -0.1907 -0.0471  0.3060
 9500SOL    HW140136   4.055   2.399  13.333  1.0861  2.0892  0.8031
 9500SOL    HW240137   3.955   2.347  13.436  0.2044 -0.6648  1.5899
 9501SOL     OW40138   2.297   1.942   4.668 -0.4147 -0.3100 -0.1312
 9501SOL    HW140139   2.233   1.995   4.620  1.1365  0.2241 -1.6204
 9501SOL    HW240140   2.362   2.010   4.684 -0.5858 -0.4264  1.0700
 9502SOL     OW40141   2.081   4.722   4.316 -0.0139  0.3270  0.3060
 9502SOL    HW140142   2.141   0.030   4.377 -0.9872  0.2106  1.3332
 9502SOL    HW240143   1.997   4.725   4.361  0.4854 -2.0065  1.3737
 9503SOL     OW40144   0.622   4.402  15.353 -0.2893 -0.1168  0.8405
 9503SOL    HW140145   0.691   4.420  15.290 -0.9449  1.6065  0.6110
 9503SOL    HW240146   0.543   4.407  15.299  0.3937 -0.9889 -0.2228
 9504SOL     OW40147   3.325   0.815   0.817  0.2698  0.0494 -0.4540
 9504SOL    HW140148   3.290   0.751   0.755  0.8501  0.1780 -0.9205
 9504SOL    HW240149   3.313   0.892   0.761  3.4729  1.8308  1.3064
 9505SOL     OW40150   4.087   0.866   9.414  0.1496  0.0736  0.3480
 9505SOL    HW140151   4.157   0.892   9.354  0.2118 -2.7147 -0.7833
 9505SOL    HW240152   4.101   0.772   9.404  1.5974 -0.0040  3.1255
 9506SOL     OW40153   0.026   0.723   5.863  0.3055  0.2880 -0.2231
 9506SOL    HW140154   0.065   0.784   5.801  0.2008 -2.4159 -2.9383
 9506SOL    HW240155   0.099   0.716   5.924  1.1079  3.1733 -0.8376
 9507SOL     OW40156   3.782   3.430   5.138  0.3769  0.2736  0.2435
 9507SOL    HW140157   3.871   3.397   5.148  0.3387 -0.2082 -0.9725
 9507SOL    HW240158   3.769   3.401   5.047 -0.0565 -0.3829  0.5180
 9508SOL     OW40159   0.391   2.315  10.752  0.1724  0.2284 -0.1392
 9508SOL    HW140160   0.415   2.259  10.825  1.4809 -0.6498 -1.2251
 9508SOL    HW240161   0.472   2.317  10.700  0.4671  2.4531  0.4015
 9509SOL     OW40162   3.021   1.677   6.486 -0.3100  0.1529  0.2453
 9509SOL    HW140163   2.999   1.643   6.400  1.5147 -0.9371  0.2037
 9509SOL    HW240164   2.933   1.698   6.515 -0.5518 -0.3011 -0.1647
 9510SOL     OW40165   0.409   3.992   4.151 -0.3615  0.1071 -0.0307
 9510SOL    HW140166   0.338   3.936   4.184 -1.1507  0.3135 -1.3979
 9510SOL    HW240167   0.437   4.040   4.229 -1.4731  1.2509 -0.3147
 9511SOL     OW40168   4.152   4.565   0.342  0.2868 -0.4328 -0.0484
 9511SOL    HW140169   4.247   4.566   0.355  0.0790  0.0073  1.4312
 9511SOL    HW240170   4.130   4.504   0.412 -1.1315 -1.0936 -1.0502
 9512SOL     OW40171   0.913   3.506   7.854 -0.3199  0.2302 -0.8440
 9512SOL    HW140172   0.974   3.578   7.836  2.4705 -1.8676  0.2783
 9512SOL    HW240173   0.826   3.546   7.843  0.9504  2.4394 -2.7929
 9513SOL     OW40174   1.181   3.012   5.216  0.2281 -0.0378  0.1136
 9513SOL    HW140175   1.148   2.923   5.202  0.5168  0.2137 -2.1918
 9513SOL    HW240176   1.179   3.048   5.127  0.7826 -0.0402  0.0981
 9514SOL     OW40177   3.479   2.438   5.176  0.1857 -0.1830  0.0097
 9514SOL    HW140178   3.452   2.524   5.146  0.2977  0.1965  0.9923
 9514SOL    HW240179   3.438   2.376   5.115 -0.1065 -0.1310  0.1549
 9515SOL     OW40180   3.679   1.130   9.642 -0.0280  0.3207  0.7792
 9515SOL    HW140181   3.624   1.181   9.582 -2.0636 -1.8381  0.8091
 9515SOL    HW240182   3.627   1.137   9.722 -2.1624  1.8079 -0.7379
 9516SOL     OW40183   1.131   0.710   6.793  0.8555  0.7447  0.2666
 9516SOL    HW140184   1.158   0.625   6.757 -0.0717 -0.8654  3.3448
 9516SOL    HW240185   1.050   0.714   6.742  0.4836  1.1350  0.8894
 9517SOL     OW40186   4.269   2.174   5.399  0.7050  1.0630 -0.0909
 9517SOL    HW140187   4.184   2.133   5.381  1.2592 -0.3070  0.4179
 9517SOL    HW240188   4.299   2.170   5.308 -0.3305 -0.5395 -0.3799
 9518SOL     OW40189   0.536   3.418   6.090  0.7920 -0.0693 -0.5929
 9518SOL    HW140190   0.574   3.358   6.025  1.6265 -0.6917  0.4566
 9518SOL    HW240191   0.549   3.368   6.171  1.6940  0.7421 -0.2312
 9519SOL     OW40192   0.886   0.701  14.919  0.0206  0.9245 -0.5074
 9519SOL    HW140193   0.904   0.732  15.008 -4.3503 -3.1795  1.7964
 9519SOL    HW240194   0.838   0.776  14.883  0.4659  1.7695  0.6507
 9520SOL     OW40195   2.656   3.861   6.778  0.2145  0.1459 -0.2418
 9520SOL    HW140196   2.610   3.848   6.861 -2.2041  2.0487 -1.3206
 9520SOL    HW240197   2.710   3.939   6.790  0.4886 -0.3853  1.9642
 9521SOL     OW40198   4.706   3.645   9.222  0.2328  0.1477 -0.3517
 9521SOL    HW140199   4.673   3.556   9.230  0.3369  0.1556  0.1935
 9521SOL    HW240200   0.027   3.644   9.145  0.7223 -0.3842  0.0138
 9522SOL     OW40201   2.795   4.031   6.923  0.4501 -0.2991  0.5971
 9522SOL    HW140202   2.809   3.990   7.008  0.1752 -1.5478  0.0377
 9522SOL    HW240203   2.882   4.057   6.891  1.5120 -2.7952  1.4332
 9523SOL     OW40204   3.833   3.191  12.843  0.1753 -0.1840  0.0613
 9523SOL    HW140205   3.792   3.275  12.823 -1.2084 -0.7451  0.4938
 9523SOL    HW240206   3.763   3.133  12.874  0.0393  0.5657  1.1292
 9524SOL     OW40207   0.327   0.894  13.982  0.5309 -0.1909  0.1483
 9524SOL    HW140208   0.306   0.904  14.075 -0.2628  1.5656 -0.2299
 9524SOL    HW240209   0.261   0.952  13.945 -1.3022 -1.1932  1.8272
 9525SOL     OW40210   3.070   3.776  16.463 -0.2246 -0.0393 -0.4050
 9525SOL    HW140211   3.125   3.701  16.444 -0.5691 -0.1460 -0.9639
 9525SOL    HW240212   3.031   3.749  16.546  2.4504 -1.1525  0.4624
 9526SOL     OW40213   1.692   1.388   5.419  0.1982  0.3511  0.3040
 9526SOL    HW140214   1.609   1.420   5.384  0.4179 -0.7688 -1.2763
 9526SOL    HW240215   1.664   1.342   5.498 -0.2203  1.5082  0.8174
 9527SOL     OW40216   2.405   3.447   9.678 -0.1291  0.3680  0.2365
 9527SOL    HW140217   2.392   3.374   9.618 -0.3930 -0.3758  1.1906
 9527SOL    HW240218   2.372   3.523   9.631  0.7132  0.3855 -0.3254
 9528SOL     OW40219   3.189   0.113   9.486  0.5540  0.5096  0.3138
 9528SOL    HW140220   3.231   0.039   9.442  0.9429  1.5416 -1.0584
 9528SOL    HW240221   3.208   0.097   9.578  1.4645 -1.5882 -0.2441
 9529SOL     OW40222   1.986   3.464  16.954  0.3144  0.2687  0.0683
 9529SOL    HW140223   1.957   3.425  16.872 -2.9245  0.4402  1.1359
 9529SOL    HW240224   2.009   3.550  16.917  1.9909 -0.0227  0.4158
 9530SOL     OW40225   1.964   3.570   9.052 -0.1861 -0.1428 -0.1995
 9530SOL    HW140226   1.966   3.544   8.960 -2.8353 -1.1406  0.0269
 9530SOL    HW240227   1.875   3.543   9.073 -0.5441  1.3644  0.2353
 9531SOL     OW40228   0.819   2.635   3.371 -0.2216  0.2966 -0.0410
 9531SOL    HW140229   0.889   2.652   3.434 -0.4786  1.5998 -0.1074
 9531SOL    HW240230   0.757   2.650   3.442 -0.5994  0.6723 -0.4447
 9532SOL     OW40231   4.073   0.022   7.127 -0.1061 -0.7025 -0.3719
 9532SOL    HW140232   4.016   4.717   7.060 -0.4950  0.6739 -0.8745
 9532SOL    HW240233   4.108   0.088   7.067  0.3294 -0.2376  0.4011
 9533SOL     OW40234   1.785   1.648  12.522  0.1879  0.3062  0.6699
 9533SOL    HW140235   1.810   1.569  12.571  2.8472  1.9939  2.0174
 9533SOL    HW240236   1.868   1.663  12.477  0.2017 -0.7554  0.3339
 9534SOL     OW40237   0.864   1.399  12.009 -0.1414 -0.2308 -0.3786
 9534SOL    HW140238   0.923   1.470  12.034 -0.3722  0.2436 -1.1723
 9534SOL    HW240239   0.926   1.328  11.991 -0.4809 -0.1268 -1.9253
 9535SOL     OW40240   0.530   0.135   9.475  0.2119  0.1457  0.1140
 9535SOL    HW140241   0.580   0.072   9.527 -0.8749 -0.4263  0.4495
 9535SOL    HW240242   0.577   0.213   9.505  0.0848  0.3860 -0.3133
 9536SOL     OW40243   0.374   0.538   6.611 -0.2545 -0.0701 -0.4292
 9536SOL    HW140244   0.302   0.600   6.606  0.9789  1.4251  0.4147
 9536SOL    HW240245   0.328   0.461   6.645 -1.0354  0.6766  0.2083
 9537SOL     OW40246   4.031   3.156   0.462  0.5831  0.2337  0.1778
 9537SOL    HW140247   4.024   3.135   0.555  1.0263 -1.3394 -0.1388
 9537SOL    HW240248   4.089   3.093   0.418  0.5190 -0.3698  0.9648
 9538SOL     OW40249   1.695   2.011  15.298  0.0668  0.5308 -0.3267
 9538SOL    HW140250   1.767   1.951  15.278  0.2507  0.7365 -0.2871
 9538SOL    HW240251   1.631   1.999  15.228 -0.3563 -0.4627  0.2209
 9539SOL     OW40252   2.559   3.875  13.549  0.2067  0.1572  0.8698
 9539SOL    HW140253   2.527   3.957  13.586  0.0989  0.0869  0.9367
 9539SOL    HW240254   2.596   3.841  13.631  0.0500 -2.8855 -0.3088
 9540SOL     OW40255   0.434   0.000   2.664 -0.2147  0.1589 -0.1950
 9540SOL    HW140256   0.518   4.706   2.699 -0.8117 -0.8259  0.3954
 9540SOL    HW240257   0.385   4.707   2.741 -3.2703 -0.1210 -2.2497
 9541SOL     OW40258   2.332   3.925   8.322  0.5492 -0.0012 -0.0831
 9541SOL    HW140259   2.346   3.961   8.235  1.4659  0.1937  0.1493
 9541SOL    HW240260   2.306   3.839   8.289 -2.4523  0.3021  1.4505
 9542SOL     OW40261   0.353   3.515   4.044 -0.1341 -0.1906  0.3295
 9542SOL    HW140262   0.258   3.513   4.050 -0.0097 -3.5049  1.0591
 9542SOL    HW240263   0.382   3.424   4.046 -3.1938 -1.1339  2.1273
 9543SOL     OW40264   0.007   4.113  12.732 -0.4941  0.1572  0.0329
 9543SOL    HW140265   0.051   4.089  12.651 -1.3958 -1.1426 -0.0612
 9543SOL    HW240266   0.003   4.208  12.720  1.3290 -0.2302 -3.3521
 9544SOL     OW40267   0.696   1.337   4.954 -0.1608  0.5529 -0.3814
 9544SOL    HW140268   0.613   1.385   4.951 -1.4466 -1.7053 -1.7430
 9544SOL    HW240269   0.659   1.249   4.961 -1.5954  1.2971  1.5817
 9545SOL     OW40270   2.540   2.580   3.556 -0.0999 -0.0233 -0.3915
 9545SOL    HW140271   2.486   2.651   3.523  0.5243  0.3137 -0.6905
 9545SOL    HW240272   2.476   2.509   3.567  1.4406 -1.3847 -0.1440
 9546SOL     OW40273   3.381   0.263   2.672  0.7191  0.0390  0.1684
 9546SOL    HW140274   3.362   0.219   2.590 -3.7920  0.0456  1.1743
 9546SOL    HW240275   3.308   0.325   2.674  0.5934 -0.1199  0.5580
 9547SOL     OW40276   2.083   3.881   5.352 -0.1903 -0.4773 -0.1402
 9547SOL    HW140277   2.167   3.919   5.376 -1.4086  2.5586 -0.7131
 9547SOL    HW240278   2.035   3.887   5.435 -0.9358 -0.6016 -0.5564
 9548SOL     OW40279   1.573   3.974   7.745 -0.2891  0.0844  0.6316
 9548SOL    HW140280   1.514   3.907   7.711 -0.2021  0.7155 -0.7521
 9548SOL    HW240281   1.655   3.934   7.717  0.0649  1.2784 -0.0373
 9549SOL     OW40282   2.001   0.621   6.968  0.6343 -0.2220 -0.4194
 9549SOL    HW140283   2.010   0.646   7.060 -0.1605  1.3859 -0.7801
 9549SOL    HW240284   2.068   0.555   6.950  0.9421  0.1851 -0.7605
 9550SOL     OW40285   2.491   3.519   6.901  0.1892 -0.4994 -0.1907
 9550SOL    HW140286   2.584   3.515   6.879  0.1820  1.3097 -0.5101
 9550SOL    HW240287   2.464   3.431   6.874  0.5558 -0.9364  0.8283
 9551SOL     OW40288   3.231   0.764  17.700 -0.3813 -0.6619 -0.2403
 9551SOL    HW140289   3.241   0.818  17.622 -0.4224  0.3587  0.4639
 9551SOL    HW240290   3.143   0.790  17.729 -0.3532 -0.8304 -0.0037
 9552SOL     OW40291   2.901   0.626  15.658 -0.7727  0.5174 -0.4835
 9552SOL    HW140292   2.934   0.620  15.747 -0.1192  0.6190 -0.7113
 9552SOL    HW240293   2.807   0.633  15.670 -0.8322 -2.3277  0.6243
 9553SOL     OW40294   0.174   0.228   7.811 -0.0932  0.0310  0.5818
 9553SOL    HW140295   0.173   0.296   7.745  2.3305  0.1088  0.6200
 9553SOL    HW240296   0.157   0.155   7.751  1.2368 -0.0661  0.3229
 9554SOL     OW40297   3.961   2.535   4.971 -0.5763 -0.7875 -0.3969
 9554SOL    HW140298   3.893   2.543   5.037  0.2550  0.8612  0.2562
 9554SOL    HW240299   3.954   2.445   4.939 -1.7788 -0.8326 -0.0266
 9555SOL     OW40300   4.727   4.244  13.961  0.5034  0.2071  1.2173
 9555SOL    HW140301   0.036   4.171  13.919 -1.2687  0.0494 -0.3444
 9555SOL    HW240302   4.661   4.201  14.015 -1.7374  1.3781 -0.6130
 9556SOL     OW40303   1.542   3.680  12.137 -0.3350 -0.1086  0.5870
 9556SOL    HW140304   1.583   3.703  12.054 -0.4478 -2.3574 -0.0744
 9556SOL    HW240305   1.475   3.615  12.114  0.0224 -0.5613  0.8317
 9557SOL     OW40306   0.571   4.401   0.167  0.6826  0.2291  0.0765
 9557SOL    HW140307   0.584   4.385   0.073 -1.7580 -0.4614 -0.1399
 9557SOL    HW240308   0.516   4.479   0.170 -2.0210 -1.5976 -2.3166
 9558SOL     OW40309   0.768   1.817  13.797  0.5354  0.3536  0.1250
 9558SOL    HW140310   0.743   1.908  13.779 -0.2707 -0.2199 -1.6583
 9558SOL    HW240311   0.863   1.831  13.791  0.7037 -1.2426 -0.9938
 9559SOL     OW40312   1.540   0.313   9.774 -0.3966  0.6977  0.2123
 9559SOL    HW140313   1.511   0.327   9.864 -2.1729  1.7364 -0.5381
 9559SOL    HW240314   1.457   0.306   9.726 -0.1927  1.7563 -0.2893
 9560SOL     OW40315   1.154   1.247   5.679 -0.3759 -0.6061  0.1997
 9560SOL    HW140316   1.163   1.284   5.767  0.3489 -0.9473  0.2720
 9560SOL    HW240317   1.215   1.175   5.667  1.0388  0.5835  0.2622
 9561SOL     OW40318   4.403   3.314  14.201  0.4325 -0.1182 -0.2867
 9561SOL    HW140319   4.340   3.258  14.156 -1.1826  2.0046 -0.6657
 9561SOL    HW240320   4.354   3.390  14.231  0.7618 -0.5412  1.3429
 9562SOL     OW40321   3.166   0.156   8.476 -0.2061 -0.5671  0.3174
 9562SOL    HW140322   3.134   0.180   8.563 -1.4498 -0.1672 -0.2530
 9562SOL    HW240323   3.218   0.232   8.447 -1.9613 -0.7286 -3.1875
 9563SOL     OW40324   1.132   3.660  14.975  0.8921 -0.1826  0.2561
 9563SOL    HW140325   1.227   3.654  14.966  0.6802  1.1809 -2.7802
 9563SOL    HW240326   1.105   3.631  14.888 -0.3011 -1.3641  1.0286
 9564SOL     OW40327   1.621   3.026   9.263 -0.5003  0.2720 -0.5480
 9564SOL    HW140328   1.586   2.979   9.187  0.6300  0.8581 -1.4259
 9564SOL    HW240329   1.543   3.076   9.287 -0.5179 -0.1551  0.2574
 9565SOL     OW40330   3.144   0.429   2.649  0.1842 -0.1537  0.0757
 9565SOL    HW140331   3.108   0.500   2.596  0.4268 -1.1843 -1.4519
 9565SOL    HW240332   3.122   0.455   2.739  0.3741 -0.9740  0.3552
 9566SOL     OW40333   1.535   0.611   5.728 -0.1421 -0.1467 -0.2481
 9566SOL    HW140334   1.510   0.695   5.769 -0.1611 -0.3920  0.2422
 9566SOL    HW240335   1.625   0.596   5.757  0.3305  1.0732 -1.0593
 9567SOL     OW40336   0.461   2.300   1.162 -0.4210 -0.2111 -0.2153
 9567SOL    HW140337   0.461   2.212   1.200  0.2781  0.3015  0.9333
 9567SOL    HW240338   0.375   2.302   1.119 -0.4553 -0.0484 -0.1374
 9568SOL     OW40339   4.044   3.173   7.675 -0.1365 -0.2701  0.1946
 9568SOL    HW140340   3.989   3.216   7.741  3.3339  2.4541  1.2982
 9568SOL    HW240341   4.133   3.206   7.688 -0.2908 -0.7935  2.5648
 9569SOL     OW40342   0.079   1.474  11.932 -0.0682 -0.5805 -0.3487
 9569SOL    HW140343   0.001   1.487  11.877  1.2071  1.4121 -1.6936
 9569SOL    HW240344   0.063   1.398  11.988  1.4923  0.2587  1.2203
   4.73502   4.73502  17.73897
